LAMMPS (29 Oct 2020)
OMP_NUM_THREADS environment is not set. Defaulting to 1 thread. (../comm.cpp:94)
  using 1 OpenMP thread(s) per MPI task
OMP_NUM_THREADS environment is not set. Defaulting to 1 thread. (../comm.cpp:94)
  using 1 OpenMP thread(s) per MPI task
Reading data file ...
  orthogonal box = (-122.39241 -121.13707 -37.090501) to (122.39241 121.13707 37.090501)
  13 by 4 by 2 MPI processor grid
  reading atoms ...
  288751 atoms
  read_data CPU = 0.403 seconds
199981 atoms in group inner
88770 atoms in group outer
1 atoms in group carbon
Neighbor list info ...
  update every 1 steps, delay 0 steps, check yes
  max neighbors/atom: 2000, page size: 100000
  master list distance cutoff = 5.6
  ghost atom cutoff = 5.6
  binsize = 2.8, bins = 88 87 27
  1 neighbor lists, perpetual/occasional/extra = 1 0 0
  (1) pair eam/alloy, perpetual
      attributes: half, newton on
      pair build: half/bin/atomonly/newton
      stencil: half/bin/3d/newton
      bin: standard
Setting up cg style minimization ...
  Unit style    : metal
  Current step  : 0
Per MPI rank memory allocation (min/avg/max) = 5.441 | 5.816 | 6.074 Mbytes
Step v_fx v_fy v_fz PotEng KinEng TotEng 
       0   -26.245046    15.191476   -51.123302   -1152433.1            0   -1152433.1 
     167 1.0404747e-05 1.0553207e-06 3.1875405e-05   -1152449.5            0   -1152449.5 
Loop time of 1.9472 on 104 procs for 167 steps with 288751 atoms

99.8% CPU use with 104 MPI tasks x 1 OpenMP threads

Minimization stats:
  Stopping criterion = energy tolerance
  Energy initial, next-to-last, final = 
     -1152433.07274708  -1152449.45035285  -1152449.45035285
  Force two-norm initial, final = 88.978341 0.00014732686
  Force max component initial, final = 58.235533 3.1875405e-05
  Final line search alpha, max atom move = 1.0000000 3.1875405e-05
  Iterations, force evaluations = 167 326

MPI task timing breakdown:
Section |  min time  |  avg time  |  max time  |%varavg| %total
---------------------------------------------------------------
Pair    | 0.51645    | 1.3806     | 1.7906     |  31.2 | 70.90
Neigh   | 5.1338e-05 | 0.014692   | 0.021221   |   5.0 |  0.75
Comm    | 0.034023   | 0.31552    | 0.92917    |  45.7 | 16.20
Output  | 0          | 0          | 0          |   0.0 |  0.00
Modify  | 1.8539e-05 | 0.0017625  | 0.0045354  |   2.6 |  0.09
Other   |            | 0.2346     |            |       | 12.05

Nlocal:        2776.45 ave        3961 max           0 min
Histogram: 8 4 4 0 6 10 8 2 28 34
Nghost:        3879.01 ave        5424 max         232 min
Histogram: 8 0 8 0 16 0 8 8 16 40
Neighs:        79213.6 ave      115455 max           0 min
Histogram: 8 4 4 0 10 6 8 8 24 32

Total # of neighbors = 8238211
Ave neighs/atom = 28.530502
Neighbor list builds = 5
Dangerous builds = 0
Setting atom values ...
  1 settings made for x
  1 settings made for y
  1 settings made for z
Setting up cg style minimization ...
  Unit style    : metal
  Current step  : 167
Per MPI rank memory allocation (min/avg/max) = 5.441 | 5.816 | 6.074 Mbytes
Step PotEng KinEng TotEng v_fx v_fy v_fz 
     167   -1152449.4            0   -1152449.4  0.010908444 -0.014830029  -0.02015042 
     277   -1152449.5            0   -1152449.5 2.3615615e-05 -3.1489936e-05 -4.1658392e-05 
Loop time of 1.32016 on 104 procs for 110 steps with 288751 atoms

99.9% CPU use with 104 MPI tasks x 1 OpenMP threads

Minimization stats:
  Stopping criterion = energy tolerance
  Energy initial, next-to-last, final = 
     -1152449.44955104  -1152449.45008146  -1152449.45008146
  Force two-norm initial, final = 0.10850742 0.00017311706
  Force max component initial, final = 0.048236659 4.1658392e-05
  Final line search alpha, max atom move = 1.0000000 4.1658392e-05
  Iterations, force evaluations = 110 220

MPI task timing breakdown:
Section |  min time  |  avg time  |  max time  |%varavg| %total
---------------------------------------------------------------
Pair    | 0.33331    | 0.93362    | 1.2216     |  26.3 | 70.72
Neigh   | 0          | 0          | 0          |   0.0 |  0.00
Comm    | 0.019092   | 0.21594    | 0.64181    |  37.6 | 16.36
Output  | 0          | 0          | 0          |   0.0 |  0.00
Modify  | 1.3476e-05 | 0.0018271  | 0.0038785  |   2.0 |  0.14
Other   |            | 0.1688     |            |       | 12.78

Nlocal:        2776.45 ave        3961 max           0 min
Histogram: 8 4 4 0 6 10 8 2 28 34
Nghost:        3879.01 ave        5424 max         232 min
Histogram: 8 0 8 0 16 0 8 8 16 40
Neighs:        79213.4 ave      115455 max           0 min
Histogram: 8 4 4 0 10 6 8 8 24 32

Total # of neighbors = 8238198
Ave neighs/atom = 28.530457
Neighbor list builds = 0
Dangerous builds = 0
Setting atom values ...
  1 settings made for x
  1 settings made for y
  1 settings made for z
Setting up cg style minimization ...
  Unit style    : metal
  Current step  : 277
Per MPI rank memory allocation (min/avg/max) = 5.441 | 5.816 | 6.074 Mbytes
Step PotEng KinEng TotEng v_fx v_fy v_fz 
     277   -1152449.4            0   -1152449.4  0.018381332 -0.022511875 -0.032531037 
     431   -1152449.4            0   -1152449.4 -1.7493061e-06 -6.087074e-06 -3.1916866e-05 
Loop time of 1.81234 on 104 procs for 154 steps with 288751 atoms

99.9% CPU use with 104 MPI tasks x 1 OpenMP threads

Minimization stats:
  Stopping criterion = energy tolerance
  Energy initial, next-to-last, final = 
     -1152449.44705493  -1152449.44849453  -1152449.44849453
  Force two-norm initial, final = 0.17820512 0.00016920943
  Force max component initial, final = 0.077730185 3.1916866e-05
  Final line search alpha, max atom move = 1.0000000 3.1916866e-05
  Iterations, force evaluations = 154 308

MPI task timing breakdown:
Section |  min time  |  avg time  |  max time  |%varavg| %total
---------------------------------------------------------------
Pair    | 0.4635     | 1.2961     | 1.6913     |  31.0 | 71.51
Neigh   | 0          | 0          | 0          |   0.0 |  0.00
Comm    | 0.029874   | 0.29557    | 0.87533    |  44.7 | 16.31
Output  | 0          | 0          | 0          |   0.0 |  0.00
Modify  | 1.8931e-05 | 0.0025484  | 0.0054285  |   2.4 |  0.14
Other   |            | 0.2181     |            |       | 12.04

Nlocal:        2776.45 ave        3961 max           0 min
Histogram: 8 4 4 0 6 10 8 2 28 34
Nghost:        3879.01 ave        5424 max         232 min
Histogram: 8 0 8 0 16 0 8 8 16 40
Neighs:        79213.5 ave      115455 max           0 min
Histogram: 8 4 4 0 10 6 8 8 24 32

Total # of neighbors = 8238200
Ave neighs/atom = 28.530464
Neighbor list builds = 0
Dangerous builds = 0
The dot product: 4.64469812350947e-08
Setting atom values ...
  1 settings made for x
  1 settings made for y
  1 settings made for z
Setting up cg style minimization ...
  Unit style    : metal
  Current step  : 431
Per MPI rank memory allocation (min/avg/max) = 5.441 | 5.816 | 6.074 Mbytes
Step PotEng KinEng TotEng v_fx v_fy v_fz 
     431   -1152449.4            0   -1152449.4  0.018735633 -0.021323492 -0.031776515 
     602   -1152449.4            0   -1152449.4 -1.0872478e-05 1.314356e-05 2.2786597e-05 
Loop time of 2.02991 on 104 procs for 171 steps with 288751 atoms

99.9% CPU use with 104 MPI tasks x 1 OpenMP threads

Minimization stats:
  Stopping criterion = energy tolerance
  Energy initial, next-to-last, final = 
     -1152449.44403768  -1152449.44546606  -1152449.44546606
  Force two-norm initial, final = 0.17695454 0.00010804764
  Force max component initial, final = 0.075501768 3.0811611e-05
  Final line search alpha, max atom move = 1.0000000 3.0811611e-05
  Iterations, force evaluations = 171 342

MPI task timing breakdown:
Section |  min time  |  avg time  |  max time  |%varavg| %total
---------------------------------------------------------------
Pair    | 0.51579    | 1.449      | 1.8865     |  32.8 | 71.38
Neigh   | 0          | 0          | 0          |   0.0 |  0.00
Comm    | 0.030432   | 0.33208    | 0.98519    |  47.2 | 16.36
Output  | 0          | 0          | 0          |   0.0 |  0.00
Modify  | 2.3438e-05 | 0.0028292  | 0.0060312  |   2.5 |  0.14
Other   |            | 0.246      |            |       | 12.12

Nlocal:        2776.45 ave        3961 max           0 min
Histogram: 8 4 4 0 6 10 8 2 28 34
Nghost:        3879.01 ave        5424 max         232 min
Histogram: 8 0 8 0 16 0 8 8 16 40
Neighs:        79213.5 ave      115455 max           0 min
Histogram: 8 4 4 0 10 6 8 8 24 32

Total # of neighbors = 8238201
Ave neighs/atom = 28.530467
Neighbor list builds = 0
Dangerous builds = 0
The dot product: -2.69091880398989e-08
Setting atom values ...
  1 settings made for x
  1 settings made for y
  1 settings made for z
Setting up cg style minimization ...
  Unit style    : metal
  Current step  : 602
Per MPI rank memory allocation (min/avg/max) = 5.441 | 5.816 | 6.074 Mbytes
Step PotEng KinEng TotEng v_fx v_fy v_fz 
     602   -1152449.4            0   -1152449.4  0.019624009 -0.021083357 -0.030818909 
     722   -1152449.4            0   -1152449.4 1.3847254e-05 -1.5865659e-05 -2.9001718e-05 
Loop time of 1.39013 on 104 procs for 120 steps with 288751 atoms

99.9% CPU use with 104 MPI tasks x 1 OpenMP threads

Minimization stats:
  Stopping criterion = energy tolerance
  Energy initial, next-to-last, final = 
     -1152449.43953356  -1152449.44095353  -1152449.44095353
  Force two-norm initial, final = 0.17604543 0.0001473735
  Force max component initial, final = 0.073387749 2.9001718e-05
  Final line search alpha, max atom move = 1.0000000 2.9001718e-05
  Iterations, force evaluations = 120 240

MPI task timing breakdown:
Section |  min time  |  avg time  |  max time  |%varavg| %total
---------------------------------------------------------------
Pair    | 0.36239    | 1.0064     | 1.3091     |  27.2 | 72.40
Neigh   | 0          | 0          | 0          |   0.0 |  0.00
Comm    | 0.021236   | 0.2262     | 0.67767    |  39.9 | 16.27
Output  | 0          | 0          | 0          |   0.0 |  0.00
Modify  | 1.4674e-05 | 0.0019828  | 0.0042155  |   2.1 |  0.14
Other   |            | 0.1555     |            |       | 11.19

Nlocal:        2776.45 ave        3961 max           0 min
Histogram: 8 4 4 0 6 10 8 2 28 34
Nghost:        3879.01 ave        5424 max         232 min
Histogram: 8 0 8 0 16 0 8 8 16 40
Neighs:        79213.5 ave      115455 max           0 min
Histogram: 8 4 4 0 10 6 8 8 24 32

Total # of neighbors = 8238201
Ave neighs/atom = 28.530467
Neighbor list builds = 0
Dangerous builds = 0
The dot product: 3.58178254982928e-08
Setting atom values ...
  1 settings made for x
  1 settings made for y
  1 settings made for z
Setting up cg style minimization ...
  Unit style    : metal
  Current step  : 722
Per MPI rank memory allocation (min/avg/max) = 5.441 | 5.816 | 6.074 Mbytes
Step PotEng KinEng TotEng v_fx v_fy v_fz 
     722   -1152449.4            0   -1152449.4  0.021052073 -0.021674936 -0.030560904 
     856   -1152449.4            0   -1152449.4 9.475933e-06 -8.816608e-06 -4.9266199e-06 
Loop time of 1.56975 on 104 procs for 134 steps with 288751 atoms

99.9% CPU use with 104 MPI tasks x 1 OpenMP threads

Minimization stats:
  Stopping criterion = energy tolerance
  Energy initial, next-to-last, final = 
     -1152449.43351001  -1152449.43492227  -1152449.43492227
  Force two-norm initial, final = 0.17546939 7.5031190e-05
  Force max component initial, final = 0.072596603 1.4282431e-05
  Final line search alpha, max atom move = 1.0000000 1.4282431e-05
  Iterations, force evaluations = 134 268

MPI task timing breakdown:
Section |  min time  |  avg time  |  max time  |%varavg| %total
---------------------------------------------------------------
Pair    | 0.40528    | 1.1307     | 1.4744     |  28.8 | 72.03
Neigh   | 0          | 0          | 0          |   0.0 |  0.00
Comm    | 0.023383   | 0.25746    | 0.77093    |  42.0 | 16.40
Output  | 0          | 0          | 0          |   0.0 |  0.00
Modify  | 1.6413e-05 | 0.0022244  | 0.0048028  |   2.2 |  0.14
Other   |            | 0.1794     |            |       | 11.43

Nlocal:        2776.45 ave        3961 max           0 min
Histogram: 8 4 4 0 6 10 8 2 28 34
Nghost:        3879.01 ave        5424 max         232 min
Histogram: 8 0 8 0 16 0 8 8 16 40
Neighs:        79213.5 ave      115455 max           0 min
Histogram: 8 4 4 0 10 6 8 8 24 32

Total # of neighbors = 8238201
Ave neighs/atom = 28.530467
Neighbor list builds = 0
Dangerous builds = 0
The dot product: 3.37967238302755e-09
Setting atom values ...
  1 settings made for x
  1 settings made for y
  1 settings made for z
Setting up cg style minimization ...
  Unit style    : metal
  Current step  : 856
Per MPI rank memory allocation (min/avg/max) = 5.441 | 5.816 | 6.074 Mbytes
Step PotEng KinEng TotEng v_fx v_fy v_fz 
     856   -1152449.4            0   -1152449.4  0.023022885 -0.022889586  -0.03105392 
     996   -1152449.4            0   -1152449.4 6.3884912e-06 -6.3522449e-06 -8.6258978e-06 
Loop time of 1.66917 on 104 procs for 140 steps with 288751 atoms

99.9% CPU use with 104 MPI tasks x 1 OpenMP threads

Minimization stats:
  Stopping criterion = energy tolerance
  Energy initial, next-to-last, final = 
     -1152449.42594455  -1152449.42734747  -1152449.42734747
  Force two-norm initial, final = 0.17502586 5.4547403e-05
  Force max component initial, final = 0.073068879 1.0724000e-05
  Final line search alpha, max atom move = 1.0000000 1.0724000e-05
  Iterations, force evaluations = 140 280

MPI task timing breakdown:
Section |  min time  |  avg time  |  max time  |%varavg| %total
---------------------------------------------------------------
Pair    | 0.42082    | 1.1852     | 1.5561     |  29.9 | 71.00
Neigh   | 0          | 0          | 0          |   0.0 |  0.00
Comm    | 0.024838   | 0.27084    | 0.79312    |  42.1 | 16.23
Output  | 0          | 0          | 0          |   0.0 |  0.00
Modify  | 1.6892e-05 | 0.002312   | 0.004925   |   2.3 |  0.14
Other   |            | 0.2109     |            |       | 12.63

Nlocal:        2776.45 ave        3961 max           0 min
Histogram: 8 4 4 0 6 10 8 2 28 34
Nghost:        3879.01 ave        5424 max         232 min
Histogram: 8 0 8 0 16 0 8 8 16 40
Neighs:        79213.5 ave      115455 max           0 min
Histogram: 8 4 4 0 10 6 8 8 24 32

Total # of neighbors = 8238203
Ave neighs/atom = 28.530474
Neighbor list builds = 0
Dangerous builds = 0
The dot product: 1.48674209827738e-08
Setting atom values ...
  1 settings made for x
  1 settings made for y
  1 settings made for z
Setting up cg style minimization ...
  Unit style    : metal
  Current step  : 996
Per MPI rank memory allocation (min/avg/max) = 5.441 | 5.816 | 6.074 Mbytes
Step PotEng KinEng TotEng v_fx v_fy v_fz 
     996   -1152449.4            0   -1152449.4  0.025757201 -0.024759145 -0.032582543 
    1000   -1152449.4            0   -1152449.4 -0.0045690581  0.003828726 -0.0031098209 
    1146   -1152449.4            0   -1152449.4 1.2487026e-06 -1.310608e-06 -3.3201692e-06 
Loop time of 1.76129 on 104 procs for 150 steps with 288751 atoms

99.9% CPU use with 104 MPI tasks x 1 OpenMP threads

Minimization stats:
  Stopping criterion = energy tolerance
  Energy initial, next-to-last, final = 
     -1152449.41682234  -1152449.41821677  -1152449.41821677
  Force two-norm initial, final = 0.17481182 3.7800867e-05
  Force max component initial, final = 0.073795871 4.8290915e-06
  Final line search alpha, max atom move = 1.0000000 4.8290915e-06
  Iterations, force evaluations = 150 300

MPI task timing breakdown:
Section |  min time  |  avg time  |  max time  |%varavg| %total
---------------------------------------------------------------
Pair    | 0.45132    | 1.2693     | 1.6516     |  30.6 | 72.07
Neigh   | 0          | 0          | 0          |   0.0 |  0.00
Comm    | 0.027081   | 0.28496    | 0.863      |  44.9 | 16.18
Output  | 9.3152e-05 | 9.5371e-05 | 0.00016043 |   0.0 |  0.01
Modify  | 1.9868e-05 | 0.0024822  | 0.0052811  |   2.3 |  0.14
Other   |            | 0.2045     |            |       | 11.61

Nlocal:        2776.45 ave        3960 max           0 min
Histogram: 8 4 4 0 4 12 8 2 28 34
Nghost:        3879.01 ave        5424 max         232 min
Histogram: 8 0 8 0 16 0 8 8 16 40
Neighs:        79213.5 ave      115432 max           0 min
Histogram: 8 4 4 0 10 6 8 8 24 32

Total # of neighbors = 8238203
Ave neighs/atom = 28.530474
Neighbor list builds = 0
Dangerous builds = 0
The dot product: 7.37964463233488e-09
Setting atom values ...
  1 settings made for x
  1 settings made for y
  1 settings made for z
Setting up cg style minimization ...
  Unit style    : metal
  Current step  : 1146
Per MPI rank memory allocation (min/avg/max) = 5.441 | 5.816 | 6.074 Mbytes
Step PotEng KinEng TotEng v_fx v_fy v_fz 
    1146   -1152449.4            0   -1152449.4  0.029430407 -0.027230819 -0.035251918 
    1284   -1152449.4            0   -1152449.4 -1.291705e-05 1.1022777e-05 -5.4143331e-06 
Loop time of 1.60394 on 104 procs for 138 steps with 288751 atoms

99.9% CPU use with 104 MPI tasks x 1 OpenMP threads

Minimization stats:
  Stopping criterion = energy tolerance
  Energy initial, next-to-last, final = 
     -1152449.40614511  -1152449.40753437  -1152449.40753437
  Force two-norm initial, final = 0.17490125 7.8716114e-05
  Force max component initial, final = 0.074789951 1.8541247e-05
  Final line search alpha, max atom move = 1.0000000 1.8541247e-05
  Iterations, force evaluations = 138 276

MPI task timing breakdown:
Section |  min time  |  avg time  |  max time  |%varavg| %total
---------------------------------------------------------------
Pair    | 0.41473    | 1.1613     | 1.5107     |  29.3 | 72.40
Neigh   | 0          | 0          | 0          |   0.0 |  0.00
Comm    | 0.025868   | 0.26088    | 0.7816     |  43.0 | 16.26
Output  | 0          | 0          | 0          |   0.0 |  0.00
Modify  | 1.7125e-05 | 0.002275   | 0.0048639  |   2.3 |  0.14
Other   |            | 0.1795     |            |       | 11.19

Nlocal:        2776.45 ave        3959 max           0 min
Histogram: 8 4 4 0 4 12 8 2 28 34
Nghost:        3879.01 ave        5424 max         232 min
Histogram: 8 0 8 0 16 0 8 8 16 40
Neighs:        79213.5 ave      115391 max           0 min
Histogram: 8 4 4 0 10 6 8 8 24 32

Total # of neighbors = 8238201
Ave neighs/atom = 28.530467
Neighbor list builds = 0
Dangerous builds = 0
The dot product: -1.46292979874487e-08
Setting atom values ...
  1 settings made for x
  1 settings made for y
  1 settings made for z
Setting up cg style minimization ...
  Unit style    : metal
  Current step  : 1284
Per MPI rank memory allocation (min/avg/max) = 5.441 | 5.816 | 6.074 Mbytes
Step PotEng KinEng TotEng v_fx v_fy v_fz 
    1284   -1152449.4            0   -1152449.4  0.034472519 -0.030395565 -0.039469213 
    1453   -1152449.4            0   -1152449.4 1.6138117e-05 -1.3255528e-05 2.1438896e-05 
Loop time of 1.96367 on 104 procs for 169 steps with 288751 atoms

99.9% CPU use with 104 MPI tasks x 1 OpenMP threads

Minimization stats:
  Stopping criterion = energy tolerance
  Energy initial, next-to-last, final = 
     -1152449.39393734  -1152449.39533323  -1152449.39533323
  Force two-norm initial, final = 0.1755689 0.00012796026
  Force max component initial, final = 0.076075172 3.5120511e-05
  Final line search alpha, max atom move = 1.0000000 3.5120511e-05
  Iterations, force evaluations = 169 338

MPI task timing breakdown:
Section |  min time  |  avg time  |  max time  |%varavg| %total
---------------------------------------------------------------
Pair    | 0.50834    | 1.4269     | 1.8515     |  32.3 | 72.66
Neigh   | 0          | 0          | 0          |   0.0 |  0.00
Comm    | 0.030972   | 0.31926    | 0.97048    |  47.9 | 16.26
Output  | 0          | 0          | 0          |   0.0 |  0.00
Modify  | 2.092e-05  | 0.0027918  | 0.0059518  |   2.5 |  0.14
Other   |            | 0.2148     |            |       | 10.94

Nlocal:        2776.45 ave        3957 max           0 min
Histogram: 8 4 4 0 4 12 8 2 28 34
Nghost:        3879.01 ave        5424 max         232 min
Histogram: 8 0 8 0 16 0 8 8 16 40
Neighs:        79213.4 ave      115327 max           0 min
Histogram: 8 4 4 0 10 6 8 8 24 32

Total # of neighbors = 8238197
Ave neighs/atom = 28.530454
Neighbor list builds = 0
Dangerous builds = 0
The dot product: -4.72418383442617e-09
Setting atom values ...
  1 settings made for x
  1 settings made for y
  1 settings made for z
Setting up cg style minimization ...
  Unit style    : metal
  Current step  : 1453
Per MPI rank memory allocation (min/avg/max) = 5.441 | 5.816 | 6.074 Mbytes
Step PotEng KinEng TotEng v_fx v_fy v_fz 
    1453   -1152449.4            0   -1152449.4  0.043196044 -0.035617965 -0.048461063 
    1663   -1152449.4            0   -1152449.4 4.3249267e-06 -3.5671354e-06 -7.2189167e-06 
Loop time of 2.51557 on 104 procs for 210 steps with 288751 atoms

99.9% CPU use with 104 MPI tasks x 1 OpenMP threads

Minimization stats:
  Stopping criterion = energy tolerance
  Energy initial, next-to-last, final = 
     -1152449.38028958   -1152449.3817672   -1152449.3817672
  Force two-norm initial, final = 0.17865754 3.8199610e-05
  Force max component initial, final = 0.077604198 9.2672775e-06
  Final line search alpha, max atom move = 1.0000000 9.2672775e-06
  Iterations, force evaluations = 210 420

MPI task timing breakdown:
Section |  min time  |  avg time  |  max time  |%varavg| %total
---------------------------------------------------------------
Pair    | 0.63111    | 1.7728     | 2.2984     |  36.2 | 70.47
Neigh   | 0          | 0          | 0          |   0.0 |  0.00
Comm    | 0.039072   | 0.40737    | 1.2055     |  52.1 | 16.19
Output  | 0          | 0          | 0          |   0.0 |  0.00
Modify  | 2.5346e-05 | 0.0034661  | 0.0073593  |   2.8 |  0.14
Other   |            | 0.3319     |            |       | 13.19

Nlocal:        2776.45 ave        3952 max           0 min
Histogram: 8 4 4 0 4 12 8 2 28 34
Nghost:        3879.01 ave        5424 max         232 min
Histogram: 8 0 8 0 16 0 8 8 16 40
Neighs:        79213.4 ave      115164 max           0 min
Histogram: 8 4 4 0 10 6 8 8 24 32

Total # of neighbors = 8238198
Ave neighs/atom = 28.530457
Neighbor list builds = 0
Dangerous builds = 0
The dot product: 8.15756368581195e-08
Setting atom values ...
  1 settings made for x
  1 settings made for y
  1 settings made for z
Setting up cg style minimization ...
  Unit style    : metal
  Current step  : 1663
Per MPI rank memory allocation (min/avg/max) = 5.441 | 5.816 | 6.074 Mbytes
Step PotEng KinEng TotEng v_fx v_fy v_fz 
    1663   -1152449.4            0   -1152449.4  0.061499023 -0.044513536 -0.067973508 
    1822   -1152449.4            0   -1152449.4 1.8714201e-05 -1.7036895e-05 6.6298302e-05 
Loop time of 1.86809 on 104 procs for 159 steps with 288751 atoms

99.9% CPU use with 104 MPI tasks x 1 OpenMP threads

Minimization stats:
  Stopping criterion = energy tolerance
  Energy initial, next-to-last, final = 
      -1152449.3655924  -1152449.36855465  -1152449.36855465
  Force two-norm initial, final = 0.18967087 0.00024109678
  Force max component initial, final = 0.079707998 6.6298302e-05
  Final line search alpha, max atom move = 1.0000000 6.6298302e-05
  Iterations, force evaluations = 159 318

MPI task timing breakdown:
Section |  min time  |  avg time  |  max time  |%varavg| %total
---------------------------------------------------------------
Pair    | 0.47686    | 1.3425     | 1.7536     |  31.5 | 71.86
Neigh   | 0          | 0          | 0          |   0.0 |  0.00
Comm    | 0.030559   | 0.3063     | 0.92455    |  45.9 | 16.40
Output  | 0          | 0          | 0          |   0.0 |  0.00
Modify  | 1.9965e-05 | 0.0026277  | 0.0055909  |   2.4 |  0.14
Other   |            | 0.2167     |            |       | 11.60

Nlocal:        2776.45 ave        3947 max           0 min
Histogram: 8 4 4 0 4 12 8 2 26 36
Nghost:        3879.01 ave        5424 max         232 min
Histogram: 8 0 8 0 16 0 8 8 16 40
Neighs:        79213.4 ave      115012 max           0 min
Histogram: 8 4 4 0 10 6 8 8 24 32

Total # of neighbors = 8238194
Ave neighs/atom = 28.530443
Neighbor list builds = 0
Dangerous builds = 0
The dot product: -1.21876474478763e-06
Setting atom values ...
  1 settings made for x
  1 settings made for y
  1 settings made for z
Setting up cg style minimization ...
  Unit style    : metal
  Current step  : 1822
Per MPI rank memory allocation (min/avg/max) = 5.441 | 5.816 | 6.074 Mbytes
Step PotEng KinEng TotEng v_fx v_fy v_fz 
    1822   -1152449.4            0   -1152449.4   0.15866259 -0.054500301  -0.12910572 
    2000   -1152449.4            0   -1152449.4 8.4419882e-05 -2.7487231e-05 -7.5945934e-05 
    2023   -1152449.4            0   -1152449.4 3.3157169e-05 -1.8728319e-05 8.2482169e-06 
Loop time of 2.32324 on 104 procs for 201 steps with 288751 atoms

99.9% CPU use with 104 MPI tasks x 1 OpenMP threads

Minimization stats:
  Stopping criterion = energy tolerance
  Energy initial, next-to-last, final = 
     -1152449.35470757   -1152449.3617329   -1152449.3617329
  Force two-norm initial, final = 0.25795003 0.00018618403
  Force max component initial, final = 0.15866259 3.4419856e-05
  Final line search alpha, max atom move = 1.0000000 3.4419856e-05
  Iterations, force evaluations = 201 402

MPI task timing breakdown:
Section |  min time  |  avg time  |  max time  |%varavg| %total
---------------------------------------------------------------
Pair    | 0.60712    | 1.6816     | 2.1794     |  35.0 | 72.38
Neigh   | 1.0156e-05 | 0.0029534  | 0.0042776  |   2.2 |  0.13
Comm    | 0.035818   | 0.37589    | 1.1319     |  51.9 | 16.18
Output  | 0.00015952 | 0.0001625  | 0.00030111 |   0.0 |  0.01
Modify  | 2.4063e-05 | 0.003315   | 0.0070396  |   2.7 |  0.14
Other   |            | 0.2594     |            |       | 11.16

Nlocal:        2776.45 ave        3951 max           0 min
Histogram: 8 4 4 0 4 12 8 2 28 34
Nghost:        3879.01 ave        5424 max         232 min
Histogram: 8 0 8 0 16 0 8 8 16 40
Neighs:        79213.4 ave      115131 max           0 min
Histogram: 8 4 4 0 10 6 8 8 24 32

Total # of neighbors = 8238197
Ave neighs/atom = 28.530454
Neighbor list builds = 1
Dangerous builds = 0
The dot product: 1.5528603202442e-06
Setting atom values ...
  1 settings made for x
  1 settings made for y
  1 settings made for z
Setting up cg style minimization ...
  Unit style    : metal
  Current step  : 2023
Per MPI rank memory allocation (min/avg/max) = 5.441 | 5.816 | 6.074 Mbytes
Step PotEng KinEng TotEng v_fx v_fy v_fz 
    2023   -1152449.3            0   -1152449.3   0.14251701 -0.013172852 -0.076722349 
    2304   -1152449.4            0   -1152449.4 5.0616842e-07 1.6075425e-08 -4.5953745e-07 
Loop time of 3.26158 on 104 procs for 281 steps with 288751 atoms

99.9% CPU use with 104 MPI tasks x 1 OpenMP threads

Minimization stats:
  Stopping criterion = energy tolerance
  Energy initial, next-to-last, final = 
     -1152449.34987003  -1152449.35367103  -1152449.35367103
  Force two-norm initial, final = 0.21249344 3.6585583e-06
  Force max component initial, final = 0.14251701 9.7109804e-07
  Final line search alpha, max atom move = 1.0000000 9.7109804e-07
  Iterations, force evaluations = 281 562

MPI task timing breakdown:
Section |  min time  |  avg time  |  max time  |%varavg| %total
---------------------------------------------------------------
Pair    | 0.84266    | 2.364      | 3.0751     |  41.8 | 72.48
Neigh   | 0          | 0          | 0          |   0.0 |  0.00
Comm    | 0.047619   | 0.53293    | 1.6097     |  61.3 | 16.34
Output  | 0          | 0          | 0          |   0.0 |  0.00
Modify  | 3.3796e-05 | 0.0046339  | 0.0099827  |   3.2 |  0.14
Other   |            | 0.36       |            |       | 11.04

Nlocal:        2776.45 ave        3953 max           0 min
Histogram: 8 4 4 0 4 12 8 1 29 34
Nghost:        3879.01 ave        5424 max         232 min
Histogram: 8 0 8 0 16 0 8 8 16 40
Neighs:        79213.5 ave      115197 max           0 min
Histogram: 8 4 4 0 10 6 8 8 24 32

Total # of neighbors = 8238202
Ave neighs/atom = 28.530471
Neighbor list builds = 0
Dangerous builds = 0
The dot product: 2.34420022258764e-08
Setting atom values ...
  1 settings made for x
  1 settings made for y
  1 settings made for z
Setting up cg style minimization ...
  Unit style    : metal
  Current step  : 2304
Per MPI rank memory allocation (min/avg/max) = 5.441 | 5.816 | 6.074 Mbytes
Step PotEng KinEng TotEng v_fx v_fy v_fz 
    2304   -1152449.3            0   -1152449.3  0.079100356 0.0034394154 -0.036934114 
    2432   -1152449.3            0   -1152449.3 -2.4973482e-05 1.4474193e-05 -2.7309209e-05 
Loop time of 1.48124 on 104 procs for 128 steps with 288751 atoms

99.9% CPU use with 104 MPI tasks x 1 OpenMP threads

Minimization stats:
  Stopping criterion = energy tolerance
  Energy initial, next-to-last, final = 
     -1152449.34239432  -1152449.34472929  -1152449.34472929
  Force two-norm initial, final = 0.16269835 0.00014810241
  Force max component initial, final = 0.079401672 2.7309209e-05
  Final line search alpha, max atom move = 1.0000000 2.7309209e-05
  Iterations, force evaluations = 128 256

MPI task timing breakdown:
Section |  min time  |  avg time  |  max time  |%varavg| %total
---------------------------------------------------------------
Pair    | 0.38882    | 1.0746     | 1.3937     |  28.0 | 72.54
Neigh   | 0          | 0          | 0          |   0.0 |  0.00
Comm    | 0.023316   | 0.24065    | 0.72376    |  41.6 | 16.25
Output  | 0          | 0          | 0          |   0.0 |  0.00
Modify  | 1.5936e-05 | 0.0021175  | 0.0045308  |   2.2 |  0.14
Other   |            | 0.1639     |            |       | 11.07

Nlocal:        2776.45 ave        3953 max           0 min
Histogram: 8 4 4 0 4 12 8 0 30 34
Nghost:        3879.05 ave        5424 max         232 min
Histogram: 8 0 8 0 16 0 8 8 16 40
Neighs:        79213.5 ave      115197 max           0 min
Histogram: 8 4 4 0 10 6 8 8 24 32

Total # of neighbors = 8238203
Ave neighs/atom = 28.530474
Neighbor list builds = 0
Dangerous builds = 0
The dot product: -5.73922698118903e-08
Setting atom values ...
  1 settings made for x
  1 settings made for y
  1 settings made for z
Setting up cg style minimization ...
  Unit style    : metal
  Current step  : 2432
Per MPI rank memory allocation (min/avg/max) = 5.441 | 5.816 | 6.074 Mbytes
Step PotEng KinEng TotEng v_fx v_fy v_fz 
    2432   -1152449.3            0   -1152449.3  0.036185877  0.010090159 -0.028661412 
    2672   -1152449.3            0   -1152449.3 -3.2096051e-05 -5.8084202e-06 1.8450808e-05 
Loop time of 2.80971 on 104 procs for 240 steps with 288751 atoms

99.9% CPU use with 104 MPI tasks x 1 OpenMP threads

Minimization stats:
  Stopping criterion = energy tolerance
  Energy initial, next-to-last, final = 
     -1152449.33518347  -1152449.34516398  -1152449.34516398
  Force two-norm initial, final = 0.1517872 0.00013932185
  Force max component initial, final = 0.074137813 3.2096051e-05
  Final line search alpha, max atom move = 1.0000000 3.2096051e-05
  Iterations, force evaluations = 240 480

MPI task timing breakdown:
Section |  min time  |  avg time  |  max time  |%varavg| %total
---------------------------------------------------------------
Pair    | 0.72609    | 2.0213     | 2.6315     |  38.5 | 71.94
Neigh   | 1.0258e-05 | 0.0029632  | 0.0042806  |   2.2 |  0.11
Comm    | 0.041331   | 0.45818    | 1.3724     |  56.2 | 16.31
Output  | 0          | 0          | 0          |   0.0 |  0.00
Modify  | 2.9146e-05 | 0.0039584  | 0.0084733  |   3.0 |  0.14
Other   |            | 0.3233     |            |       | 11.51

Nlocal:        2776.45 ave        3956 max           0 min
Histogram: 8 4 4 0 4 12 8 0 30 34
Nghost:        3879.01 ave        5424 max         232 min
Histogram: 8 0 8 0 16 0 8 8 16 40
Neighs:        79213.5 ave      115292 max           0 min
Histogram: 8 4 4 0 10 6 8 8 24 32

Total # of neighbors = 8238202
Ave neighs/atom = 28.530471
Neighbor list builds = 1
Dangerous builds = 0
The dot product: -9.9894223493094e-07
Setting atom values ...
  1 settings made for x
  1 settings made for y
  1 settings made for z
Setting up cg style minimization ...
  Unit style    : metal
  Current step  : 2672
Per MPI rank memory allocation (min/avg/max) = 5.441 | 5.816 | 6.074 Mbytes
Step PotEng KinEng TotEng v_fx v_fy v_fz 
    2672   -1152449.3            0   -1152449.3 -0.0050104145 -0.021834544  0.036526236 
    2811   -1152449.3            0   -1152449.3 -6.3653074e-07 -1.6022648e-08 7.8674999e-08 
Loop time of 1.64117 on 104 procs for 139 steps with 288751 atoms

99.9% CPU use with 104 MPI tasks x 1 OpenMP threads

Minimization stats:
  Stopping criterion = energy tolerance
  Energy initial, next-to-last, final = 
     -1152449.34735964  -1152449.34836063  -1152449.34836063
  Force two-norm initial, final = 0.1318315 2.6460541e-05
  Force max component initial, final = 0.05246993 7.5222628e-07
  Final line search alpha, max atom move = 1.0000000 7.5222628e-07
  Iterations, force evaluations = 139 278

MPI task timing breakdown:
Section |  min time  |  avg time  |  max time  |%varavg| %total
---------------------------------------------------------------
Pair    | 0.41786    | 1.1679     | 1.5227     |  29.4 | 71.16
Neigh   | 0          | 0          | 0          |   0.0 |  0.00
Comm    | 0.025721   | 0.26672    | 0.78689    |  42.5 | 16.25
Output  | 0          | 0          | 0          |   0.0 |  0.00
Modify  | 1.712e-05  | 0.0022984  | 0.0049191  |   2.3 |  0.14
Other   |            | 0.2043     |            |       | 12.45

Nlocal:        2776.45 ave        3961 max           0 min
Histogram: 8 4 4 0 6 10 8 2 28 34
Nghost:        3879.01 ave        5424 max         232 min
Histogram: 8 0 8 0 16 0 8 8 16 40
Neighs:        79213.4 ave      115457 max           0 min
Histogram: 8 4 4 0 10 6 8 8 24 32

Total # of neighbors = 8238191
Ave neighs/atom = 28.530433
Neighbor list builds = 0
Dangerous builds = 0
The dot product: 8.76117458234969e-10
Setting atom values ...
  1 settings made for x
  1 settings made for y
  1 settings made for z
Setting up cg style minimization ...
  Unit style    : metal
  Current step  : 2811
Per MPI rank memory allocation (min/avg/max) = 5.441 | 5.816 | 6.074 Mbytes
Step PotEng KinEng TotEng v_fx v_fy v_fz 
    2811   -1152449.3            0   -1152449.3 0.00086708556  -0.01094356  0.018503777 
    2996   -1152449.4            0   -1152449.4 3.3724932e-05 4.6096949e-06 -1.0830335e-05 
Loop time of 2.17542 on 104 procs for 185 steps with 288751 atoms

99.9% CPU use with 104 MPI tasks x 1 OpenMP threads

Minimization stats:
  Stopping criterion = energy tolerance
  Energy initial, next-to-last, final = 
     -1152449.34965349  -1152449.35055807  -1152449.35055807
  Force two-norm initial, final = 0.12504403 0.00010195016
  Force max component initial, final = 0.052989327 3.3724932e-05
  Final line search alpha, max atom move = 1.0000000 3.3724932e-05
  Iterations, force evaluations = 185 370

MPI task timing breakdown:
Section |  min time  |  avg time  |  max time  |%varavg| %total
---------------------------------------------------------------
Pair    | 0.55709    | 1.5637     | 2.0405     |  34.0 | 71.88
Neigh   | 0          | 0          | 0          |   0.0 |  0.00
Comm    | 0.033697   | 0.35326    | 1.0663     |  49.6 | 16.24
Output  | 0          | 0          | 0          |   0.0 |  0.00
Modify  | 2.4233e-05 | 0.0030562  | 0.0065355  |   2.6 |  0.14
Other   |            | 0.2554     |            |       | 11.74

Nlocal:        2776.45 ave        3961 max           0 min
Histogram: 8 4 4 0 6 10 8 2 28 34
Nghost:        3879.01 ave        5424 max         232 min
Histogram: 8 0 8 0 16 0 8 8 16 40
Neighs:        79213.4 ave      115457 max           0 min
Histogram: 8 4 4 0 10 6 8 8 24 32

Total # of neighbors = 8238193
Ave neighs/atom = 28.530440
Neighbor list builds = 0
Dangerous builds = 0
The dot product: 3.72672178116545e-09
Setting atom values ...
  1 settings made for x
  1 settings made for y
  1 settings made for z
Setting up cg style minimization ...
  Unit style    : metal
  Current step  : 2996
Per MPI rank memory allocation (min/avg/max) = 5.441 | 5.816 | 6.074 Mbytes
Step PotEng KinEng TotEng v_fx v_fy v_fz 
    2996   -1152449.4            0   -1152449.4 0.00060690216 -0.011994516  0.020327534 
    3000   -1152449.4            0   -1152449.4 -0.0024481905 0.00034299186 -0.00036673338 
    3201   -1152449.4            0   -1152449.4 -3.8529822e-06 -2.3587002e-06 4.3479738e-06 
Loop time of 2.37961 on 104 procs for 205 steps with 288751 atoms

99.9% CPU use with 104 MPI tasks x 1 OpenMP threads

Minimization stats:
  Stopping criterion = energy tolerance
  Energy initial, next-to-last, final = 
     -1152449.35063172  -1152449.35153361  -1152449.35153361
  Force two-norm initial, final = 0.12557378 6.4474703e-05
  Force max component initial, final = 0.0526012 4.3479738e-06
  Final line search alpha, max atom move = 1.0000000 4.3479738e-06
  Iterations, force evaluations = 205 410

MPI task timing breakdown:
Section |  min time  |  avg time  |  max time  |%varavg| %total
---------------------------------------------------------------
Pair    | 0.61508    | 1.7207     | 2.2434     |  35.7 | 72.31
Neigh   | 0          | 0          | 0          |   0.0 |  0.00
Comm    | 0.03831    | 0.38717    | 1.1632     |  52.3 | 16.27
Output  | 0.00012083 | 0.000123   | 0.00019549 |   0.0 |  0.01
Modify  | 2.4831e-05 | 0.0033753  | 0.0072361  |   2.7 |  0.14
Other   |            | 0.2682     |            |       | 11.27

Nlocal:        2776.45 ave        3961 max           0 min
Histogram: 8 4 4 0 6 10 8 2 28 34
Nghost:        3879.01 ave        5426 max         232 min
Histogram: 8 0 8 0 16 0 8 8 16 40
Neighs:        79213.4 ave      115455 max           0 min
Histogram: 8 4 4 0 10 6 8 8 24 32

Total # of neighbors = 8238189
Ave neighs/atom = 28.530426
Neighbor list builds = 0
Dangerous builds = 0
The dot product: 1.90419117136863e-09
Setting atom values ...
  1 settings made for x
  1 settings made for y
  1 settings made for z
Setting up cg style minimization ...
  Unit style    : metal
  Current step  : 3201
Per MPI rank memory allocation (min/avg/max) = 5.441 | 5.816 | 6.074 Mbytes
Step PotEng KinEng TotEng v_fx v_fy v_fz 
    3201   -1152449.4            0   -1152449.4 0.00096211906 -0.011452803  0.019438792 
    3365   -1152449.4            0   -1152449.4 6.0778808e-05 -1.923239e-05 2.7462779e-05 
Loop time of 1.91754 on 104 procs for 164 steps with 288751 atoms

99.9% CPU use with 104 MPI tasks x 1 OpenMP threads

Minimization stats:
  Stopping criterion = energy tolerance
  Energy initial, next-to-last, final = 
     -1152449.35029613  -1152449.35119083  -1152449.35119083
  Force two-norm initial, final = 0.12511615 0.00024121347
  Force max component initial, final = 0.052438316 6.0778808e-05
  Final line search alpha, max atom move = 1.0000000 6.0778808e-05
  Iterations, force evaluations = 164 328

MPI task timing breakdown:
Section |  min time  |  avg time  |  max time  |%varavg| %total
---------------------------------------------------------------
Pair    | 0.49208    | 1.3849     | 1.8091     |  32.0 | 72.22
Neigh   | 0          | 0          | 0          |   0.0 |  0.00
Comm    | 0.028031   | 0.31163    | 0.94553    |  47.0 | 16.25
Output  | 0          | 0          | 0          |   0.0 |  0.00
Modify  | 2.0601e-05 | 0.0027062  | 0.0057892  |   2.5 |  0.14
Other   |            | 0.2183     |            |       | 11.38

Nlocal:        2776.45 ave        3961 max           0 min
Histogram: 8 4 4 0 6 10 8 2 28 34
Nghost:        3879.01 ave        5424 max         232 min
Histogram: 8 0 8 0 16 0 8 8 16 40
Neighs:        79213.4 ave      115455 max           0 min
Histogram: 8 4 4 0 10 6 8 8 24 32

Total # of neighbors = 8238191
Ave neighs/atom = 28.530433
Neighbor list builds = 0
Dangerous builds = 0
The dot product: 3.18249846918407e-08
Setting atom values ...
  1 settings made for x
  1 settings made for y
  1 settings made for z
Setting up cg style minimization ...
  Unit style    : metal
  Current step  : 3365
Per MPI rank memory allocation (min/avg/max) = 5.441 | 5.816 | 6.074 Mbytes
Step PotEng KinEng TotEng v_fx v_fy v_fz 
    3365   -1152449.3            0   -1152449.3  0.001386624 -0.010605495  0.018015804 
    3552   -1152449.3            0   -1152449.3 -2.4919069e-06 2.4781795e-06 -4.0219761e-06 
Loop time of 2.18456 on 104 procs for 187 steps with 288751 atoms

99.9% CPU use with 104 MPI tasks x 1 OpenMP threads

Minimization stats:
  Stopping criterion = energy tolerance
  Energy initial, next-to-last, final = 
     -1152449.34861583  -1152449.34949863  -1152449.34949863
  Force two-norm initial, final = 0.12421244 0.00010304856
  Force max component initial, final = 0.052260862 9.9128219e-06
  Final line search alpha, max atom move = 1.0000000 9.9128219e-06
  Iterations, force evaluations = 187 374

MPI task timing breakdown:
Section |  min time  |  avg time  |  max time  |%varavg| %total
---------------------------------------------------------------
Pair    | 0.56086    | 1.5761     | 2.0607     |  34.2 | 72.15
Neigh   | 0          | 0          | 0          |   0.0 |  0.00
Comm    | 0.03256    | 0.35741    | 1.0751     |  50.0 | 16.36
Output  | 0          | 0          | 0          |   0.0 |  0.00
Modify  | 2.2466e-05 | 0.0030863  | 0.0066428  |   2.6 |  0.14
Other   |            | 0.248      |            |       | 11.35

Nlocal:        2776.45 ave        3961 max           0 min
Histogram: 8 4 4 0 6 10 8 2 28 34
Nghost:        3879.01 ave        5424 max         232 min
Histogram: 8 0 8 0 16 0 8 8 16 40
Neighs:        79213.4 ave      115455 max           0 min
Histogram: 8 4 4 0 10 6 8 8 24 32

Total # of neighbors = 8238191
Ave neighs/atom = 28.530433
Neighbor list builds = 0
Dangerous builds = 0
The dot product: -2.8989979638647e-09
Setting atom values ...
  1 settings made for x
  1 settings made for y
  1 settings made for z
Setting up cg style minimization ...
  Unit style    : metal
  Current step  : 3552
Per MPI rank memory allocation (min/avg/max) = 5.441 | 5.816 | 6.074 Mbytes
Step PotEng KinEng TotEng v_fx v_fy v_fz 
    3552   -1152449.3            0   -1152449.3 0.0014722796 -0.0095678652  0.016278775 
    3722   -1152449.3            0   -1152449.3 -5.7985572e-05 3.9622653e-06 -1.8374837e-06 
Loop time of 1.97799 on 104 procs for 170 steps with 288751 atoms

99.9% CPU use with 104 MPI tasks x 1 OpenMP threads

Minimization stats:
  Stopping criterion = energy tolerance
  Energy initial, next-to-last, final = 
     -1152449.34558102  -1152449.34644947  -1152449.34644947
  Force two-norm initial, final = 0.12319535 0.00021079922
  Force max component initial, final = 0.052204917 5.7985572e-05
  Final line search alpha, max atom move = 1.0000000 5.7985572e-05
  Iterations, force evaluations = 170 340

MPI task timing breakdown:
Section |  min time  |  avg time  |  max time  |%varavg| %total
---------------------------------------------------------------
Pair    | 0.50707    | 1.4292     | 1.8582     |  32.5 | 72.26
Neigh   | 0          | 0          | 0          |   0.0 |  0.00
Comm    | 0.029475   | 0.31981    | 0.96446    |  47.7 | 16.17
Output  | 0          | 0          | 0          |   0.0 |  0.00
Modify  | 2.0798e-05 | 0.0028079  | 0.0060077  |   2.5 |  0.14
Other   |            | 0.2262     |            |       | 11.43

Nlocal:        2776.45 ave        3961 max           0 min
Histogram: 8 4 4 0 6 10 8 2 28 34
Nghost:        3879.01 ave        5424 max         232 min
Histogram: 8 0 8 0 16 0 8 8 16 40
Neighs:        79213.4 ave      115445 max           0 min
Histogram: 8 4 4 0 10 6 8 8 24 32

Total # of neighbors = 8238190
Ave neighs/atom = 28.530429
Neighbor list builds = 0
Dangerous builds = 0
The dot product: -1.72513526129659e-08
Setting atom values ...
  1 settings made for x
  1 settings made for y
  1 settings made for z
Setting up cg style minimization ...
  Unit style    : metal
  Current step  : 3722
Per MPI rank memory allocation (min/avg/max) = 5.441 | 5.816 | 6.074 Mbytes
Step PotEng KinEng TotEng v_fx v_fy v_fz 
    3722   -1152449.3            0   -1152449.3 0.0012504106 -0.0085329425  0.014558661 
    3903   -1152449.3            0   -1152449.3 -1.8656235e-05 -1.6547759e-05 3.0011898e-05 
Loop time of 2.10206 on 104 procs for 181 steps with 288751 atoms

99.9% CPU use with 104 MPI tasks x 1 OpenMP threads

Minimization stats:
  Stopping criterion = energy tolerance
  Energy initial, next-to-last, final = 
     -1152449.34118182  -1152449.34203781  -1152449.34203781
  Force two-norm initial, final = 0.1224072 0.0001365904
  Force max component initial, final = 0.052067021 4.2115167e-05
  Final line search alpha, max atom move = 1.0000000 4.2115167e-05
  Iterations, force evaluations = 181 362

MPI task timing breakdown:
Section |  min time  |  avg time  |  max time  |%varavg| %total
---------------------------------------------------------------
Pair    | 0.54199    | 1.5212     | 1.9822     |  33.5 | 72.37
Neigh   | 0          | 0          | 0          |   0.0 |  0.00
Comm    | 0.032633   | 0.34148    | 1.0256     |  49.2 | 16.24
Output  | 0          | 0          | 0          |   0.0 |  0.00
Modify  | 2.158e-05  | 0.0029848  | 0.0063611  |   2.6 |  0.14
Other   |            | 0.2364     |            |       | 11.25

Nlocal:        2776.45 ave        3961 max           0 min
Histogram: 8 4 4 0 6 10 8 2 28 34
Nghost:        3879.01 ave        5424 max         232 min
Histogram: 8 0 8 0 16 0 8 8 16 40
Neighs:        79213.4 ave      115445 max           0 min
Histogram: 8 4 4 0 10 6 8 8 24 32

Total # of neighbors = 8238190
Ave neighs/atom = 28.530429
Neighbor list builds = 0
Dangerous builds = 0
The dot product: 8.38782951381654e-09
Setting atom values ...
  1 settings made for x
  1 settings made for y
  1 settings made for z
Setting up cg style minimization ...
  Unit style    : metal
  Current step  : 3903
Per MPI rank memory allocation (min/avg/max) = 5.441 | 5.816 | 6.074 Mbytes
Step PotEng KinEng TotEng v_fx v_fy v_fz 
    3903   -1152449.3            0   -1152449.3 0.00075023046 -0.0075545656  0.012944856 
    4000   -1152449.3            0   -1152449.3 8.9035288e-05 4.3169842e-05 -8.1760512e-05 
    4074   -1152449.3            0   -1152449.3 -1.4633952e-05 -1.3723533e-05 2.4850509e-05 
Loop time of 2.0016 on 104 procs for 171 steps with 288751 atoms

99.9% CPU use with 104 MPI tasks x 1 OpenMP threads

Minimization stats:
  Stopping criterion = energy tolerance
  Energy initial, next-to-last, final = 
     -1152449.33540415  -1152449.33625276  -1152449.33625276
  Force two-norm initial, final = 0.1219492 0.00019064563
  Force max component initial, final = 0.051922897 2.4850509e-05
  Final line search alpha, max atom move = 1.0000000 2.4850509e-05
  Iterations, force evaluations = 171 342

MPI task timing breakdown:
Section |  min time  |  avg time  |  max time  |%varavg| %total
---------------------------------------------------------------
Pair    | 0.51362    | 1.4421     | 1.8884     |  32.6 | 72.05
Neigh   | 0          | 0          | 0          |   0.0 |  0.00
Comm    | 0.029501   | 0.32726    | 0.98313    |  47.6 | 16.35
Output  | 0.00010452 | 0.00010664 | 0.00024056 |   0.0 |  0.01
Modify  | 2.0364e-05 | 0.0028238  | 0.0060199  |   2.5 |  0.14
Other   |            | 0.2293     |            |       | 11.45

Nlocal:        2776.45 ave        3960 max           0 min
Histogram: 8 4 4 0 4 12 8 2 28 34
Nghost:        3879.01 ave        5424 max         232 min
Histogram: 8 0 8 0 16 0 8 8 16 40
Neighs:        79213.4 ave      115422 max           0 min
Histogram: 8 4 4 0 10 6 8 8 24 32

Total # of neighbors = 8238192
Ave neighs/atom = 28.530436
Neighbor list builds = 0
Dangerous builds = 0
The dot product: 7.05623277672069e-09
Setting atom values ...
  1 settings made for x
  1 settings made for y
  1 settings made for z
Setting up cg style minimization ...
  Unit style    : metal
  Current step  : 4074
Per MPI rank memory allocation (min/avg/max) = 5.441 | 5.816 | 6.074 Mbytes
Step PotEng KinEng TotEng v_fx v_fy v_fz 
    4074   -1152449.3            0   -1152449.3 -0.00017467629 -0.0066196966  0.011431071 
    4262   -1152449.3            0   -1152449.3 -5.8238787e-06 -9.1818275e-06 1.6317788e-05 
Loop time of 2.18062 on 104 procs for 188 steps with 288751 atoms

99.9% CPU use with 104 MPI tasks x 1 OpenMP threads

Minimization stats:
  Stopping criterion = energy tolerance
  Energy initial, next-to-last, final = 
     -1152449.32822831  -1152449.32907478  -1152449.32907478
  Force two-norm initial, final = 0.12187991 0.00010001306
  Force max component initial, final = 0.051756179 2.2589644e-05
  Final line search alpha, max atom move = 1.0000000 2.2589644e-05
  Iterations, force evaluations = 188 376

MPI task timing breakdown:
Section |  min time  |  avg time  |  max time  |%varavg| %total
---------------------------------------------------------------
Pair    | 0.56513    | 1.5776     | 2.0482     |  34.1 | 72.35
Neigh   | 0          | 0          | 0          |   0.0 |  0.00
Comm    | 0.03464    | 0.35503    | 1.0649     |  50.2 | 16.28
Output  | 0          | 0          | 0          |   0.0 |  0.00
Modify  | 2.2492e-05 | 0.0031034  | 0.0066076  |   2.6 |  0.14
Other   |            | 0.2449     |            |       | 11.23

Nlocal:        2776.45 ave        3959 max           0 min
Histogram: 8 4 4 0 4 12 8 2 28 34
Nghost:        3878.97 ave        5424 max         232 min
Histogram: 8 0 8 0 16 0 8 8 16 40
Neighs:        79213.4 ave      115394 max           0 min
Histogram: 8 4 4 0 10 6 8 8 24 32

Total # of neighbors = 8238189
Ave neighs/atom = 28.530426
Neighbor list builds = 0
Dangerous builds = 0
The dot product: 4.86904203154423e-09
Setting atom values ...
  1 settings made for x
  1 settings made for y
  1 settings made for z
Setting up cg style minimization ...
  Unit style    : metal
  Current step  : 4262
Per MPI rank memory allocation (min/avg/max) = 5.441 | 5.816 | 6.074 Mbytes
Step PotEng KinEng TotEng v_fx v_fy v_fz 
    4262   -1152449.3            0   -1152449.3 -0.001486753 -0.0057858686  0.010114756 
    4446   -1152449.3            0   -1152449.3 2.0077707e-06 -9.4904168e-06 1.6223822e-05 
Loop time of 2.1504 on 104 procs for 184 steps with 288751 atoms

99.9% CPU use with 104 MPI tasks x 1 OpenMP threads

Minimization stats:
  Stopping criterion = energy tolerance
  Energy initial, next-to-last, final = 
      -1152449.3196248  -1152449.32047505  -1152449.32047505
  Force two-norm initial, final = 0.12216285 0.00011457026
  Force max component initial, final = 0.051598754 3.4201684e-05
  Final line search alpha, max atom move = 1.0000000 3.4201684e-05
  Iterations, force evaluations = 184 368

MPI task timing breakdown:
Section |  min time  |  avg time  |  max time  |%varavg| %total
---------------------------------------------------------------
Pair    | 0.55302    | 1.5547     | 2.0221     |  33.9 | 72.30
Neigh   | 0          | 0          | 0          |   0.0 |  0.00
Comm    | 0.031688   | 0.3526     | 1.0569     |  49.6 | 16.40
Output  | 0          | 0          | 0          |   0.0 |  0.00
Modify  | 2.1955e-05 | 0.003035   | 0.0064692  |   2.6 |  0.14
Other   |            | 0.2401     |            |       | 11.17

Nlocal:        2776.45 ave        3955 max           0 min
Histogram: 8 4 4 0 4 12 8 0 30 34
Nghost:        3879.05 ave        5424 max         232 min
Histogram: 8 0 8 0 16 0 8 8 16 40
Neighs:        79213.3 ave      115279 max           0 min
Histogram: 8 4 4 0 10 6 8 8 24 32

Total # of neighbors = 8238188
Ave neighs/atom = 28.530422
Neighbor list builds = 0
Dangerous builds = 0
The dot product: 4.96692865697172e-09
Setting atom values ...
  1 settings made for x
  1 settings made for y
  1 settings made for z
Setting up cg style minimization ...
  Unit style    : metal
  Current step  : 4446
Per MPI rank memory allocation (min/avg/max) = 5.441 | 5.816 | 6.074 Mbytes
Step PotEng KinEng TotEng v_fx v_fy v_fz 
    4446   -1152449.3            0   -1152449.3 -0.0031636631 -0.0050697296 0.0090276391 
    4639   -1152449.3            0   -1152449.3 -1.8333766e-05 -1.2279757e-05 2.2749598e-05 
Loop time of 2.24776 on 104 procs for 193 steps with 288751 atoms

99.9% CPU use with 104 MPI tasks x 1 OpenMP threads

Minimization stats:
  Stopping criterion = energy tolerance
  Energy initial, next-to-last, final = 
     -1152449.30956217  -1152449.31041927  -1152449.31041927
  Force two-norm initial, final = 0.12270456 9.5072330e-05
  Force max component initial, final = 0.051424391 2.3696275e-05
  Final line search alpha, max atom move = 1.0000000 2.3696275e-05
  Iterations, force evaluations = 193 386

MPI task timing breakdown:
Section |  min time  |  avg time  |  max time  |%varavg| %total
---------------------------------------------------------------
Pair    | 0.57777    | 1.6175     | 2.1043     |  34.6 | 71.96
Neigh   | 0          | 0          | 0          |   0.0 |  0.00
Comm    | 0.03458    | 0.36697    | 1.0905     |  50.2 | 16.33
Output  | 0          | 0          | 0          |   0.0 |  0.00
Modify  | 2.3719e-05 | 0.0031857  | 0.006771   |   2.7 |  0.14
Other   |            | 0.2601     |            |       | 11.57

Nlocal:        2776.45 ave        3953 max           0 min
Histogram: 8 4 4 0 4 12 8 0 30 34
Nghost:        3879.07 ave        5424 max         232 min
Histogram: 8 0 8 0 16 0 8 8 16 40
Neighs:        79213.4 ave      115206 max           0 min
Histogram: 8 4 4 0 10 6 8 8 24 32

Total # of neighbors = 8238189
Ave neighs/atom = 28.530426
Neighbor list builds = 0
Dangerous builds = 0
The dot product: 9.26252147130602e-09
Setting atom values ...
  1 settings made for x
  1 settings made for y
  1 settings made for z
Setting up cg style minimization ...
  Unit style    : metal
  Current step  : 4639
Per MPI rank memory allocation (min/avg/max) = 5.441 | 5.816 | 6.074 Mbytes
Step PotEng KinEng TotEng v_fx v_fy v_fz 
    4639   -1152449.3            0   -1152449.3 -0.0051969192 -0.004527712 0.0082705637 
    4799   -1152449.3            0   -1152449.3 -8.001356e-05 -1.8070906e-05 3.7953788e-05 
Loop time of 1.86688 on 104 procs for 160 steps with 288751 atoms

99.9% CPU use with 104 MPI tasks x 1 OpenMP threads

Minimization stats:
  Stopping criterion = energy tolerance
  Energy initial, next-to-last, final = 
     -1152449.29801233  -1152449.29887547  -1152449.29887547
  Force two-norm initial, final = 0.1233738 0.00026808786
  Force max component initial, final = 0.051275315 8.0013560e-05
  Final line search alpha, max atom move = 1.0000000 8.0013560e-05
  Iterations, force evaluations = 160 320

MPI task timing breakdown:
Section |  min time  |  avg time  |  max time  |%varavg| %total
---------------------------------------------------------------
Pair    | 0.47961    | 1.3488     | 1.7532     |  31.5 | 72.25
Neigh   | 0          | 0          | 0          |   0.0 |  0.00
Comm    | 0.027848   | 0.30388    | 0.9211     |  46.4 | 16.28
Output  | 0          | 0          | 0          |   0.0 |  0.00
Modify  | 1.9199e-05 | 0.002642   | 0.0056353  |   2.4 |  0.14
Other   |            | 0.2116     |            |       | 11.33

Nlocal:        2776.45 ave        3951 max           0 min
Histogram: 8 4 4 0 4 12 8 0 30 34
Nghost:        3879.12 ave        5425 max         232 min
Histogram: 8 0 8 0 16 0 8 8 16 40
Neighs:        79213.4 ave      115126 max           0 min
Histogram: 8 4 4 0 10 6 8 8 24 32

Total # of neighbors = 8238189
Ave neighs/atom = 28.530426
Neighbor list builds = 0
Dangerous builds = 0
The dot product: 3.61144282099098e-08
Setting atom values ...
  1 settings made for x
  1 settings made for y
  1 settings made for z
Setting up cg style minimization ...
  Unit style    : metal
  Current step  : 4799
Per MPI rank memory allocation (min/avg/max) = 5.441 | 5.816 | 6.074 Mbytes
Step PotEng KinEng TotEng v_fx v_fy v_fz 
    4799   -1152449.3            0   -1152449.3 -0.007578405 -0.0043087379 0.0081078465 
    4989   -1152449.3            0   -1152449.3 -2.7206554e-05 -3.4018255e-06 8.1969417e-06 
Loop time of 2.20685 on 104 procs for 190 steps with 288751 atoms

99.9% CPU use with 104 MPI tasks x 1 OpenMP threads

Minimization stats:
  Stopping criterion = energy tolerance
  Energy initial, next-to-last, final = 
     -1152449.28495503  -1152449.28582054  -1152449.28582054
  Force two-norm initial, final = 0.12404484 9.8492702e-05
  Force max component initial, final = 0.051087871 2.7206554e-05
  Final line search alpha, max atom move = 1.0000000 2.7206554e-05
  Iterations, force evaluations = 190 380

MPI task timing breakdown:
Section |  min time  |  avg time  |  max time  |%varavg| %total
---------------------------------------------------------------
Pair    | 0.57135    | 1.5999     | 2.075      |  34.3 | 72.50
Neigh   | 0          | 0          | 0          |   0.0 |  0.00
Comm    | 0.033282   | 0.35975    | 1.0859     |  50.7 | 16.30
Output  | 0          | 0          | 0          |   0.0 |  0.00
Modify  | 2.407e-05  | 0.0031414  | 0.0067239  |   2.6 |  0.14
Other   |            | 0.2441     |            |       | 11.06

Nlocal:        2776.45 ave        3949 max           0 min
Histogram: 8 4 4 0 4 12 8 0 28 36
Nghost:        3879.12 ave        5425 max         232 min
Histogram: 8 0 8 0 16 0 8 8 16 40
Neighs:        79213.3 ave      115063 max           0 min
Histogram: 8 4 4 0 10 6 8 8 24 32

Total # of neighbors = 8238187
Ave neighs/atom = 28.530419
Neighbor list builds = 0
Dangerous builds = 0
The dot product: 1.5858814893563e-08
Setting atom values ...
  1 settings made for x
  1 settings made for y
  1 settings made for z
Setting up cg style minimization ...
  Unit style    : metal
  Current step  : 4989
Per MPI rank memory allocation (min/avg/max) = 5.441 | 5.816 | 6.074 Mbytes
Step PotEng KinEng TotEng v_fx v_fy v_fz 
    4989   -1152449.3            0   -1152449.3 -0.010082863 -0.004540184 0.0087485155 
    5000   -1152449.3            0   -1152449.3 0.0014900879 0.0001039856 -0.00030914179 
    5187   -1152449.3            0   -1152449.3 -1.0164058e-05 -1.035497e-06 2.6746685e-06 
Loop time of 2.30332 on 104 procs for 198 steps with 288751 atoms

99.9% CPU use with 104 MPI tasks x 1 OpenMP threads

Minimization stats:
  Stopping criterion = energy tolerance
  Energy initial, next-to-last, final = 
     -1152449.27038898  -1152449.27124909  -1152449.27124909
  Force two-norm initial, final = 0.12458993 7.9443082e-05
  Force max component initial, final = 0.05092811 1.0164058e-05
  Final line search alpha, max atom move = 1.0000000 1.0164058e-05
  Iterations, force evaluations = 198 396

MPI task timing breakdown:
Section |  min time  |  avg time  |  max time  |%varavg| %total
---------------------------------------------------------------
Pair    | 0.59549    | 1.6698     | 2.1706     |  35.0 | 72.50
Neigh   | 0          | 0          | 0          |   0.0 |  0.00
Comm    | 0.03479    | 0.37693    | 1.1422     |  51.6 | 16.36
Output  | 9.2301e-05 | 9.8238e-05 | 0.00018316 |   0.0 |  0.00
Modify  | 2.4332e-05 | 0.0032717  | 0.0069429  |   2.7 |  0.14
Other   |            | 0.2532     |            |       | 10.99

Nlocal:        2776.45 ave        3943 max           0 min
Histogram: 8 4 4 0 4 12 8 0 28 36
Nghost:        3879.12 ave        5425 max         232 min
Histogram: 8 0 8 0 16 0 8 8 16 40
Neighs:        79213.3 ave      114879 max           0 min
Histogram: 8 4 4 0 10 6 8 8 22 34

Total # of neighbors = 8238186
Ave neighs/atom = 28.530415
Neighbor list builds = 0
Dangerous builds = 0
The dot product: 8.29286979544447e-09
Setting atom values ...
  1 settings made for x
  1 settings made for y
  1 settings made for z
Setting up cg style minimization ...
  Unit style    : metal
  Current step  : 5187
Per MPI rank memory allocation (min/avg/max) = 5.441 | 5.816 | 6.074 Mbytes
Step PotEng KinEng TotEng v_fx v_fy v_fz 
    5187   -1152449.3            0   -1152449.3 -0.012745391 -0.0055567264  0.010791681 
    5346   -1152449.3            0   -1152449.3 -3.6972276e-05 2.6116282e-05 -4.2116008e-05 
Loop time of 1.84104 on 104 procs for 159 steps with 288751 atoms

99.9% CPU use with 104 MPI tasks x 1 OpenMP threads

Minimization stats:
  Stopping criterion = energy tolerance
  Energy initial, next-to-last, final = 
     -1152449.25434094  -1152449.25518762  -1152449.25518762
  Force two-norm initial, final = 0.12516536 0.0002636613
  Force max component initial, final = 0.050769668 4.3536911e-05
  Final line search alpha, max atom move = 1.0000000 4.3536911e-05
  Iterations, force evaluations = 159 318

MPI task timing breakdown:
Section |  min time  |  avg time  |  max time  |%varavg| %total
---------------------------------------------------------------
Pair    | 0.47622    | 1.3376     | 1.7365     |  31.5 | 72.65
Neigh   | 0          | 0          | 0          |   0.0 |  0.00
Comm    | 0.029279   | 0.3        | 0.90501    |  46.5 | 16.29
Output  | 0          | 0          | 0          |   0.0 |  0.00
Modify  | 1.9653e-05 | 0.0026206  | 0.0055904  |   2.4 |  0.14
Other   |            | 0.2008     |            |       | 10.91

Nlocal:        2776.45 ave        3935 max           0 min
Histogram: 8 4 4 0 4 12 8 0 28 36
Nghost:        3879.11 ave        5425 max         232 min
Histogram: 8 0 8 0 16 0 8 8 16 40
Neighs:        79213.3 ave      114637 max           0 min
Histogram: 8 4 4 0 8 8 8 8 20 36

Total # of neighbors = 8238187
Ave neighs/atom = 28.530419
Neighbor list builds = 0
Dangerous builds = 0
The dot product: -1.18120981812711e-08
Setting atom values ...
  1 settings made for x
  1 settings made for y
  1 settings made for z
Setting up cg style minimization ...
  Unit style    : metal
  Current step  : 5346
Per MPI rank memory allocation (min/avg/max) = 5.441 | 5.816 | 6.074 Mbytes
Step PotEng KinEng TotEng v_fx v_fy v_fz 
    5346   -1152449.2            0   -1152449.2 -0.015696574 -0.0077158902  0.014903385 
    5505   -1152449.2            0   -1152449.2 2.9097785e-05 2.8223176e-05 -5.1908453e-05 
Loop time of 1.8802 on 104 procs for 159 steps with 288751 atoms

99.9% CPU use with 104 MPI tasks x 1 OpenMP threads

Minimization stats:
  Stopping criterion = energy tolerance
  Energy initial, next-to-last, final = 
     -1152449.23689807  -1152449.23773469  -1152449.23773469
  Force two-norm initial, final = 0.12646196 0.00024423573
  Force max component initial, final = 0.050721645 6.1017423e-05
  Final line search alpha, max atom move = 1.0000000 6.1017423e-05
  Iterations, force evaluations = 159 318

MPI task timing breakdown:
Section |  min time  |  avg time  |  max time  |%varavg| %total
---------------------------------------------------------------
Pair    | 0.47756    | 1.3432     | 1.748      |  31.5 | 71.44
Neigh   | 0          | 0          | 0          |   0.0 |  0.00
Comm    | 0.027506   | 0.30171    | 0.91172    |  46.3 | 16.05
Output  | 0          | 0          | 0          |   0.0 |  0.00
Modify  | 1.947e-05  | 0.002623   | 0.0056068  |   2.4 |  0.14
Other   |            | 0.2327     |            |       | 12.37

Nlocal:        2776.45 ave        3930 max           0 min
Histogram: 8 4 4 0 4 12 8 0 26 38
Nghost:        3879.11 ave        5425 max         232 min
Histogram: 8 0 8 0 16 0 8 8 16 40
Neighs:        79213.3 ave      114474 max           0 min
Histogram: 8 4 4 0 8 8 8 8 20 36

Total # of neighbors = 8238185
Ave neighs/atom = 28.530412
Neighbor list builds = 0
Dangerous builds = 0
The dot product: -1.4359373233994e-07
Setting atom values ...
  1 settings made for x
  1 settings made for y
  1 settings made for z
Setting up cg style minimization ...
  Unit style    : metal
  Current step  : 5505
Per MPI rank memory allocation (min/avg/max) = 5.441 | 5.816 | 6.074 Mbytes
Step PotEng KinEng TotEng v_fx v_fy v_fz 
    5505   -1152449.2            0   -1152449.2   -0.0188495 -0.011840939  0.022610199 
    5744   -1152449.2            0   -1152449.2 -1.2395558e-05 7.6501598e-06 -1.2243532e-05 
Loop time of 2.75197 on 104 procs for 239 steps with 288751 atoms

99.9% CPU use with 104 MPI tasks x 1 OpenMP threads

Minimization stats:
  Stopping criterion = energy tolerance
  Energy initial, next-to-last, final = 
      -1152449.2183056  -1152449.24984897  -1152449.24984897
  Force two-norm initial, final = 0.13073403 0.00018238559
  Force max component initial, final = 0.050872643 1.3556836e-05
  Final line search alpha, max atom move = 1.0000000 1.3556836e-05
  Iterations, force evaluations = 239 476

MPI task timing breakdown:
Section |  min time  |  avg time  |  max time  |%varavg| %total
---------------------------------------------------------------
Pair    | 0.71834    | 1.9939     | 2.5798     |  38.1 | 72.45
Neigh   | 1.0355e-05 | 0.0029459  | 0.0042658  |   2.2 |  0.11
Comm    | 0.04401    | 0.44528    | 1.3404     |  56.7 | 16.18
Output  | 0          | 0          | 0          |   0.0 |  0.00
Modify  | 2.9291e-05 | 0.0039244  | 0.0083721  |   3.0 |  0.14
Other   |            | 0.3059     |            |       | 11.12

Nlocal:        2776.45 ave        3930 max           0 min
Histogram: 8 4 4 0 4 12 8 0 26 38
Nghost:        3879.11 ave        5425 max         232 min
Histogram: 8 0 8 0 16 0 8 8 16 40
Neighs:        79213.3 ave      114485 max           0 min
Histogram: 8 4 4 0 8 8 8 8 20 36

Total # of neighbors = 8238182
Ave neighs/atom = 28.530402
Neighbor list builds = 1
Dangerous builds = 0
The dot product: -1.13258038372912e-06
Setting atom values ...
  1 settings made for x
  1 settings made for y
  1 settings made for z
Setting up cg style minimization ...
  Unit style    : metal
  Current step  : 5744
Per MPI rank memory allocation (min/avg/max) = 5.441 | 5.816 | 6.074 Mbytes
Step PotEng KinEng TotEng v_fx v_fy v_fz 
    5744   -1152449.2            0   -1152449.2 -0.044330256 -0.0072128069  0.023898115 
    5959   -1152449.2            0   -1152449.2 9.582905e-06 4.1474712e-06 -1.1447919e-05 
Loop time of 2.51802 on 104 procs for 215 steps with 288751 atoms

99.9% CPU use with 104 MPI tasks x 1 OpenMP threads

Minimization stats:
  Stopping criterion = energy tolerance
  Energy initial, next-to-last, final = 
      -1152449.2454808  -1152449.24943099  -1152449.24943099
  Force two-norm initial, final = 0.15133771 0.00016714784
  Force max component initial, final = 0.066572205 2.4614256e-05
  Final line search alpha, max atom move = 1.0000000 2.4614256e-05
  Iterations, force evaluations = 215 430

MPI task timing breakdown:
Section |  min time  |  avg time  |  max time  |%varavg| %total
---------------------------------------------------------------
Pair    | 0.64494    | 1.8141     | 2.3748     |  36.6 | 72.04
Neigh   | 0          | 0          | 0          |   0.0 |  0.00
Comm    | 0.036321   | 0.41084    | 1.2422     |  53.6 | 16.32
Output  | 0          | 0          | 0          |   0.0 |  0.00
Modify  | 2.6019e-05 | 0.0035425  | 0.0075349  |   2.8 |  0.14
Other   |            | 0.2896     |            |       | 11.50

Nlocal:        2776.45 ave        3961 max           0 min
Histogram: 8 4 4 0 6 10 8 2 28 34
Nghost:        3879.01 ave        5424 max         232 min
Histogram: 8 0 8 0 16 0 8 8 16 40
Neighs:        79213.3 ave      115445 max           0 min
Histogram: 8 4 4 0 10 6 8 8 24 32

Total # of neighbors = 8238183
Ave neighs/atom = 28.530405
Neighbor list builds = 0
Dangerous builds = 0
The dot product: -7.92739552957196e-07
Setting atom values ...
  1 settings made for x
  1 settings made for y
  1 settings made for z
Setting up cg style minimization ...
  Unit style    : metal
  Current step  : 5959
Per MPI rank memory allocation (min/avg/max) = 5.441 | 5.816 | 6.074 Mbytes
Step PotEng KinEng TotEng v_fx v_fy v_fz 
    5959   -1152449.3            0   -1152449.3 -0.039526382 0.0064336143 -0.0020278341 
    6000   -1152449.3            0   -1152449.3 -0.00011838161 -0.00016053844 0.00047637665 
    6079   -1152449.3            0   -1152449.3 1.4318299e-05 2.8986191e-05 -8.3293044e-05 
Loop time of 1.42551 on 104 procs for 120 steps with 288751 atoms

99.9% CPU use with 104 MPI tasks x 1 OpenMP threads

Minimization stats:
  Stopping criterion = energy tolerance
  Energy initial, next-to-last, final = 
     -1152449.25060299  -1152449.25241038  -1152449.25241038
  Force two-norm initial, final = 0.15323675 0.00028002183
  Force max component initial, final = 0.068408897 8.3293044e-05
  Final line search alpha, max atom move = 1.0000000 8.3293044e-05
  Iterations, force evaluations = 120 240

MPI task timing breakdown:
Section |  min time  |  avg time  |  max time  |%varavg| %total
---------------------------------------------------------------
Pair    | 0.3613     | 1.0097     | 1.3165     |  27.3 | 70.83
Neigh   | 0          | 0          | 0          |   0.0 |  0.00
Comm    | 0.02137    | 0.23191    | 0.68036    |  39.0 | 16.27
Output  | 9.3933e-05 | 0.00010998 | 0.00023724 |   0.0 |  0.01
Modify  | 1.494e-05  | 0.0019876  | 0.0042657  |   2.1 |  0.14
Other   |            | 0.1818     |            |       | 12.75

Nlocal:        2776.45 ave        3960 max           0 min
Histogram: 8 4 4 0 4 12 8 2 28 34
Nghost:        3879.01 ave        5424 max         232 min
Histogram: 8 0 8 0 16 0 8 8 16 40
Neighs:        79213.3 ave      115434 max           0 min
Histogram: 8 4 4 0 10 6 8 8 24 32

Total # of neighbors = 8238186
Ave neighs/atom = 28.530415
Neighbor list builds = 0
Dangerous builds = 0
The dot product: -6.89063850588655e-07
Setting atom values ...
  1 settings made for x
  1 settings made for y
  1 settings made for z
Setting up cg style minimization ...
  Unit style    : metal
  Current step  : 6079
Per MPI rank memory allocation (min/avg/max) = 5.441 | 5.816 | 6.074 Mbytes
Step PotEng KinEng TotEng v_fx v_fy v_fz 
    6079   -1152449.3            0   -1152449.3 -0.050403672  0.012696417 -0.013501566 
    6180   -1152449.3            0   -1152449.3 3.4948061e-06 -6.5240753e-06 1.6530148e-05 
Loop time of 1.19322 on 104 procs for 101 steps with 288751 atoms

99.9% CPU use with 104 MPI tasks x 1 OpenMP threads

Minimization stats:
  Stopping criterion = energy tolerance
  Energy initial, next-to-last, final = 
     -1152449.25447322  -1152449.25566989  -1152449.25566989
  Force two-norm initial, final = 0.15244243 9.9811762e-05
  Force max component initial, final = 0.06863355 1.6530148e-05
  Final line search alpha, max atom move = 1.0000000 1.6530148e-05
  Iterations, force evaluations = 101 202

MPI task timing breakdown:
Section |  min time  |  avg time  |  max time  |%varavg| %total
---------------------------------------------------------------
Pair    | 0.30335    | 0.85815    | 1.1255     |  25.3 | 71.92
Neigh   | 0          | 0          | 0          |   0.0 |  0.00
Comm    | 0.017288   | 0.1953     | 0.5884     |  36.8 | 16.37
Output  | 0          | 0          | 0          |   0.0 |  0.00
Modify  | 1.2433e-05 | 0.0016705  | 0.0035476  |   1.9 |  0.14
Other   |            | 0.1381     |            |       | 11.57

Nlocal:        2776.45 ave        3960 max           0 min
Histogram: 8 4 4 0 4 12 8 2 28 34
Nghost:        3879.01 ave        5424 max         232 min
Histogram: 8 0 8 0 16 0 8 8 16 40
Neighs:        79213.3 ave      115434 max           0 min
Histogram: 8 4 4 0 10 6 8 8 24 32

Total # of neighbors = 8238182
Ave neighs/atom = 28.530402
Neighbor list builds = 0
Dangerous builds = 0
The dot product: -3.91779597811674e-09
Setting atom values ...
  1 settings made for x
  1 settings made for y
  1 settings made for z
Setting up cg style minimization ...
  Unit style    : metal
  Current step  : 6180
Per MPI rank memory allocation (min/avg/max) = 5.441 | 5.816 | 6.074 Mbytes
Step PotEng KinEng TotEng v_fx v_fy v_fz 
    6180   -1152449.3            0   -1152449.3 -0.057335026  0.017181937 -0.020794027 
    6409   -1152449.3            0   -1152449.3 2.8989632e-07 -1.2739374e-05 3.5327456e-05 
Loop time of 2.67218 on 104 procs for 229 steps with 288751 atoms

99.9% CPU use with 104 MPI tasks x 1 OpenMP threads

Minimization stats:
  Stopping criterion = energy tolerance
  Energy initial, next-to-last, final = 
     -1152449.25708209  -1152449.29834608  -1152449.29834608
  Force two-norm initial, final = 0.15803818 0.00020919821
  Force max component initial, final = 0.067628182 3.5327456e-05
  Final line search alpha, max atom move = 1.0000000 3.5327456e-05
  Iterations, force evaluations = 229 457

MPI task timing breakdown:
Section |  min time  |  avg time  |  max time  |%varavg| %total
---------------------------------------------------------------
Pair    | 0.68955    | 1.9195     | 2.5089     |  37.6 | 71.83
Neigh   | 1.0145e-05 | 0.0029516  | 0.0042862  |   2.2 |  0.11
Comm    | 0.040958   | 0.43569    | 1.2978     |  54.9 | 16.30
Output  | 0          | 0          | 0          |   0.0 |  0.00
Modify  | 2.7156e-05 | 0.0037644  | 0.0080336  |   2.9 |  0.14
Other   |            | 0.3103     |            |       | 11.61

Nlocal:        2776.45 ave        3960 max           0 min
Histogram: 8 4 4 0 4 12 8 2 28 34
Nghost:        3879.01 ave        5424 max         232 min
Histogram: 8 0 8 0 16 0 8 8 16 40
Neighs:        79213.4 ave      115434 max           0 min
Histogram: 8 4 4 0 10 6 8 8 24 32

Total # of neighbors = 8238193
Ave neighs/atom = 28.530440
Neighbor list builds = 1
Dangerous builds = 0
The dot product: 7.24170583864668e-07
Setting atom values ...
  1 settings made for x
  1 settings made for y
  1 settings made for z
Setting up cg style minimization ...
  Unit style    : metal
  Current step  : 6409
Per MPI rank memory allocation (min/avg/max) = 5.441 | 5.816 | 6.074 Mbytes
Step PotEng KinEng TotEng v_fx v_fy v_fz 
    6409   -1152449.3            0   -1152449.3  0.063761369 -0.0040522659   -0.0583863 
    6622   -1152449.3            0   -1152449.3 -8.7235646e-07 -5.6149982e-06 1.8127316e-05 
Loop time of 2.49727 on 104 procs for 213 steps with 288751 atoms

99.9% CPU use with 104 MPI tasks x 1 OpenMP threads

Minimization stats:
  Stopping criterion = energy tolerance
  Energy initial, next-to-last, final = 
     -1152449.30956461  -1152449.31181233  -1152449.31181233
  Force two-norm initial, final = 0.16192521 7.5734926e-05
  Force max component initial, final = 0.063761369 1.8127316e-05
  Final line search alpha, max atom move = 1.0000000 1.8127316e-05
  Iterations, force evaluations = 213 426

MPI task timing breakdown:
Section |  min time  |  avg time  |  max time  |%varavg| %total
---------------------------------------------------------------
Pair    | 0.63842    | 1.7987     | 2.3385     |  36.2 | 72.03
Neigh   | 0          | 0          | 0          |   0.0 |  0.00
Comm    | 0.037713   | 0.40581    | 1.22       |  53.5 | 16.25
Output  | 0          | 0          | 0          |   0.0 |  0.00
Modify  | 2.5235e-05 | 0.0035131  | 0.0075239  |   2.8 |  0.14
Other   |            | 0.2893     |            |       | 11.58

Nlocal:        2776.45 ave        3960 max           0 min
Histogram: 8 4 4 0 4 12 8 4 26 34
Nghost:        3879.01 ave        5424 max         232 min
Histogram: 8 0 8 0 16 0 8 8 16 40
Neighs:        79213.4 ave      115438 max           0 min
Histogram: 8 4 4 0 10 6 8 8 24 32

Total # of neighbors = 8238197
Ave neighs/atom = 28.530454
Neighbor list builds = 0
Dangerous builds = 0
The dot product: -1.01879914863447e-07
Setting atom values ...
  1 settings made for x
  1 settings made for y
  1 settings made for z
Setting up cg style minimization ...
  Unit style    : metal
  Current step  : 6622
Per MPI rank memory allocation (min/avg/max) = 5.441 | 5.816 | 6.074 Mbytes
Step PotEng KinEng TotEng v_fx v_fy v_fz 
    6622   -1152449.3            0   -1152449.3 -0.064372306  0.030307635 -0.027185064 
    6729   -1152449.3            0   -1152449.3 -1.8882804e-05 -1.5026948e-05 6.3702645e-05 
Loop time of 1.27842 on 104 procs for 107 steps with 288751 atoms

99.9% CPU use with 104 MPI tasks x 1 OpenMP threads

Minimization stats:
  Stopping criterion = energy tolerance
  Energy initial, next-to-last, final = 
     -1152449.32106557  -1152449.32230953  -1152449.32230953
  Force two-norm initial, final = 0.16163507 0.00033651338
  Force max component initial, final = 0.064372306 6.6169795e-05
  Final line search alpha, max atom move = 1.0000000 6.6169795e-05
  Iterations, force evaluations = 107 214

MPI task timing breakdown:
Section |  min time  |  avg time  |  max time  |%varavg| %total
---------------------------------------------------------------
Pair    | 0.32187    | 0.90334    | 1.1761     |  25.9 | 70.66
Neigh   | 0          | 0          | 0          |   0.0 |  0.00
Comm    | 0.019269   | 0.20761    | 0.61016    |  37.1 | 16.24
Output  | 0          | 0          | 0          |   0.0 |  0.00
Modify  | 1.3084e-05 | 0.0017878  | 0.0037641  |   2.0 |  0.14
Other   |            | 0.1657     |            |       | 12.96

Nlocal:        2776.45 ave        3960 max           0 min
Histogram: 8 4 4 0 4 12 8 4 26 34
Nghost:        3879.03 ave        5424 max         232 min
Histogram: 8 0 8 0 16 0 8 8 16 40
Neighs:        79213.4 ave      115438 max           0 min
Histogram: 8 4 4 0 10 6 8 8 24 32

Total # of neighbors = 8238195
Ave neighs/atom = 28.530447
Neighbor list builds = 0
Dangerous builds = 0
The dot product: 1.72244213742861e-08
Setting atom values ...
  1 settings made for x
  1 settings made for y
  1 settings made for z
Setting up cg style minimization ...
  Unit style    : metal
  Current step  : 6729
Per MPI rank memory allocation (min/avg/max) = 5.441 | 5.816 | 6.074 Mbytes
Step PotEng KinEng TotEng v_fx v_fy v_fz 
    6729   -1152449.3            0   -1152449.3 -0.047057657  0.026539521 -0.031346213 
    6880   -1152449.3            0   -1152449.3 2.058457e-05 -2.2230684e-05 4.5296228e-05 
Loop time of 1.77666 on 104 procs for 151 steps with 288751 atoms

99.9% CPU use with 104 MPI tasks x 1 OpenMP threads

Minimization stats:
  Stopping criterion = energy tolerance
  Energy initial, next-to-last, final = 
     -1152449.32999096  -1152449.33117815  -1152449.33117815
  Force two-norm initial, final = 0.15664774 0.0003293005
  Force max component initial, final = 0.056545998 4.5296228e-05
  Final line search alpha, max atom move = 1.0000000 4.5296228e-05
  Iterations, force evaluations = 151 302

MPI task timing breakdown:
Section |  min time  |  avg time  |  max time  |%varavg| %total
---------------------------------------------------------------
Pair    | 0.45164    | 1.2758     | 1.6764     |  30.8 | 71.81
Neigh   | 0          | 0          | 0          |   0.0 |  0.00
Comm    | 0.025721   | 0.29159    | 0.87812    |  44.6 | 16.41
Output  | 0          | 0          | 0          |   0.0 |  0.00
Modify  | 1.7895e-05 | 0.0024962  | 0.0053087  |   2.4 |  0.14
Other   |            | 0.2068     |            |       | 11.64

Nlocal:        2776.45 ave        3960 max           0 min
Histogram: 8 4 4 0 4 12 8 4 26 34
Nghost:        3879.03 ave        5424 max         232 min
Histogram: 8 0 8 0 16 0 8 8 16 40
Neighs:        79213.4 ave      115438 max           0 min
Histogram: 8 4 4 0 10 6 8 8 24 32

Total # of neighbors = 8238197
Ave neighs/atom = 28.530454
Neighbor list builds = 0
Dangerous builds = 0
The dot product: -1.58058875724916e-07
Setting atom values ...
  1 settings made for x
  1 settings made for y
  1 settings made for z
Setting up cg style minimization ...
  Unit style    : metal
  Current step  : 6880
Per MPI rank memory allocation (min/avg/max) = 5.441 | 5.816 | 6.074 Mbytes
Step PotEng KinEng TotEng v_fx v_fy v_fz 
    6880   -1152449.3            0   -1152449.3 -0.051106365  0.028027814 -0.030826194 
    7000   -1152449.3            0   -1152449.3 1.1120128e-05 1.1279664e-05 -4.4501684e-05 
    7128   -1152449.3            0   -1152449.3 1.4007189e-06 -8.204987e-08 -1.1769817e-06 
[...]
Histogram: 8 0 8 0 16 0 8 8 16 40
Neighs:        79213.2 ave      115456 max           0 min
Histogram: 8 4 4 0 10 6 8 8 24 32

Total # of neighbors = 8238175
Ave neighs/atom = 28.530377
Neighbor list builds = 0
Dangerous builds = 0
The dot product: 2.11244747071884e-08
Setting atom values ...
  1 settings made for x
  1 settings made for y
  1 settings made for z
Setting up cg style minimization ...
  Unit style    : metal
  Current step  : 27358
Per MPI rank memory allocation (min/avg/max) = 5.441 | 5.816 | 6.074 Mbytes
Step PotEng KinEng TotEng v_fx v_fy v_fz 
   27358   -1152449.1            0   -1152449.1 -0.00073801347 0.0083569401  0.010880368 
   27527   -1152449.1            0   -1152449.1 2.8409306e-05 -8.9248091e-06 -3.145667e-05 
Loop time of 1.97344 on 104 procs for 169 steps with 288751 atoms

99.9% CPU use with 104 MPI tasks x 1 OpenMP threads

Minimization stats:
  Stopping criterion = energy tolerance
  Energy initial, next-to-last, final = 
     -1152449.12591471  -1152449.12726285  -1152449.12726285
  Force two-norm initial, final = 0.16244843 0.00015066522
  Force max component initial, final = 0.093605729 3.1456670e-05
  Final line search alpha, max atom move = 1.0000000 3.1456670e-05
  Iterations, force evaluations = 169 338

MPI task timing breakdown:
Section |  min time  |  avg time  |  max time  |%varavg| %total
---------------------------------------------------------------
Pair    | 0.50887    | 1.4236     | 1.8585     |  32.4 | 72.14
Neigh   | 0          | 0          | 0          |   0.0 |  0.00
Comm    | 0.028699   | 0.32638    | 0.98575    |  47.0 | 16.54
Output  | 0          | 0          | 0          |   0.0 |  0.00
Modify  | 2.0548e-05 | 0.0027957  | 0.0059821  |   2.5 |  0.14
Other   |            | 0.2206     |            |       | 11.18

Nlocal:        2776.45 ave        3961 max           0 min
Histogram: 8 4 4 0 6 10 8 4 26 34
Nghost:        3879.11 ave        5425 max         232 min
Histogram: 8 0 8 0 16 0 8 8 16 40
Neighs:        79213.2 ave      115454 max           0 min
Histogram: 8 4 4 0 10 6 8 8 24 32

Total # of neighbors = 8238174
Ave neighs/atom = 28.530374
Neighbor list builds = 0
Dangerous builds = 0
The dot product: -2.02979346098273e-08
Setting atom values ...
  1 settings made for x
  1 settings made for y
  1 settings made for z
Setting up cg style minimization ...
  Unit style    : metal
  Current step  : 27527
Per MPI rank memory allocation (min/avg/max) = 5.441 | 5.816 | 6.074 Mbytes
Step PotEng KinEng TotEng v_fx v_fy v_fz 
   27527   -1152449.1            0   -1152449.1 -0.00088639502 0.0072889702 0.0096765399 
   27678   -1152449.1            0   -1152449.1 1.5074966e-05 -1.1645875e-05 -2.5268136e-05 
Loop time of 1.7961 on 104 procs for 151 steps with 288751 atoms

99.9% CPU use with 104 MPI tasks x 1 OpenMP threads

Minimization stats:
  Stopping criterion = energy tolerance
  Energy initial, next-to-last, final = 
     -1152449.10719668  -1152449.10855537  -1152449.10855537
  Force two-norm initial, final = 0.16202929 0.00023164388
  Force max component initial, final = 0.094528125 5.9361213e-05
  Final line search alpha, max atom move = 1.0000000 5.9361213e-05
  Iterations, force evaluations = 151 302

MPI task timing breakdown:
Section |  min time  |  avg time  |  max time  |%varavg| %total
---------------------------------------------------------------
Pair    | 0.45563    | 1.2755     | 1.6655     |  30.7 | 71.02
Neigh   | 0          | 0          | 0          |   0.0 |  0.00
Comm    | 0.027289   | 0.29123    | 0.86286    |  44.1 | 16.21
Output  | 0          | 0          | 0          |   0.0 |  0.00
Modify  | 1.8477e-05 | 0.0025047  | 0.0053097  |   2.4 |  0.14
Other   |            | 0.2268     |            |       | 12.63

Nlocal:        2776.45 ave        3961 max           0 min
Histogram: 8 4 4 0 6 10 8 4 26 34
Nghost:        3879.11 ave        5425 max         232 min
Histogram: 8 0 8 0 16 0 8 8 16 40
Neighs:        79213.2 ave      115454 max           0 min
Histogram: 8 4 4 0 10 6 8 8 24 32

Total # of neighbors = 8238172
Ave neighs/atom = 28.530367
Neighbor list builds = 0
Dangerous builds = 0
The dot product: -2.57628941004049e-08
Setting atom values ...
  1 settings made for x
  1 settings made for y
  1 settings made for z
Setting up cg style minimization ...
  Unit style    : metal
  Current step  : 27678
Per MPI rank memory allocation (min/avg/max) = 5.441 | 5.816 | 6.074 Mbytes
Step PotEng KinEng TotEng v_fx v_fy v_fz 
   27678   -1152449.1            0   -1152449.1 -0.0010485412 0.0061459014 0.0083844057 
   27842   -1152449.1            0   -1152449.1 -3.7063856e-05 3.559329e-06 3.1024727e-05 
Loop time of 1.91219 on 104 procs for 164 steps with 288751 atoms

99.9% CPU use with 104 MPI tasks x 1 OpenMP threads

Minimization stats:
  Stopping criterion = energy tolerance
  Energy initial, next-to-last, final = 
      -1152449.0874257  -1152449.08882111  -1152449.08882111
  Force two-norm initial, final = 0.16176856 0.00018690959
  Force max component initial, final = 0.095301976 5.2872051e-05
  Final line search alpha, max atom move = 1.0000000 5.2872051e-05
  Iterations, force evaluations = 164 328

MPI task timing breakdown:
Section |  min time  |  avg time  |  max time  |%varavg| %total
---------------------------------------------------------------
Pair    | 0.49387    | 1.3814     | 1.8033     |  31.9 | 72.24
Neigh   | 0          | 0          | 0          |   0.0 |  0.00
Comm    | 0.028123   | 0.31537    | 0.95698    |  46.7 | 16.49
Output  | 0          | 0          | 0          |   0.0 |  0.00
Modify  | 2.0723e-05 | 0.0027104  | 0.0058216  |   2.5 |  0.14
Other   |            | 0.2127     |            |       | 11.12

Nlocal:        2776.45 ave        3961 max           0 min
Histogram: 8 4 4 0 6 10 8 4 26 34
Nghost:        3879.11 ave        5425 max         232 min
Histogram: 8 0 8 0 16 0 8 8 16 40
Neighs:        79213.2 ave      115454 max           0 min
Histogram: 8 4 4 0 10 6 8 8 24 32

Total # of neighbors = 8238172
Ave neighs/atom = 28.530367
Neighbor list builds = 0
Dangerous builds = 0
The dot product: -1.29861354798534e-08
Setting atom values ...
  1 settings made for x
  1 settings made for y
  1 settings made for z
Setting up cg style minimization ...
  Unit style    : metal
  Current step  : 27842
Per MPI rank memory allocation (min/avg/max) = 5.441 | 5.816 | 6.074 Mbytes
Step PotEng KinEng TotEng v_fx v_fy v_fz 
   27842   -1152449.1            0   -1152449.1 -0.0012192725 0.0052141882 0.0073575315 
   27992   -1152449.1            0   -1152449.1 -6.3495153e-06 -8.8683723e-07 3.4530101e-06 
Loop time of 1.74591 on 104 procs for 150 steps with 288751 atoms

99.9% CPU use with 104 MPI tasks x 1 OpenMP threads

Minimization stats:
  Stopping criterion = energy tolerance
  Energy initial, next-to-last, final = 
     -1152449.06664725    -1152449.068034    -1152449.068034
  Force two-norm initial, final = 0.16180089 0.000262054
  Force max component initial, final = 0.096056986 2.3281047e-05
  Final line search alpha, max atom move = 1.0000000 2.3281047e-05
  Iterations, force evaluations = 150 300

MPI task timing breakdown:
Section |  min time  |  avg time  |  max time  |%varavg| %total
---------------------------------------------------------------
Pair    | 0.45135    | 1.2615     | 1.644      |  30.4 | 72.25
Neigh   | 0          | 0          | 0          |   0.0 |  0.00
Comm    | 0.027166   | 0.28355    | 0.85706    |  44.6 | 16.24
Output  | 0          | 0          | 0          |   0.0 |  0.00
Modify  | 1.8141e-05 | 0.0024709  | 0.0052852  |   2.4 |  0.14
Other   |            | 0.1984     |            |       | 11.36

Nlocal:        2776.45 ave        3961 max           0 min
Histogram: 8 4 4 0 6 10 8 4 26 34
Nghost:        3879.14 ave        5425 max         232 min
Histogram: 8 0 8 0 16 0 8 8 16 40
Neighs:        79213.2 ave      115467 max           0 min
Histogram: 8 4 4 0 10 6 8 8 24 32

Total # of neighbors = 8238171
Ave neighs/atom = 28.530364
Neighbor list builds = 0
Dangerous builds = 0
The dot product: -5.687059175725e-09
Setting atom values ...
  1 settings made for x
  1 settings made for y
  1 settings made for z
Setting up cg style minimization ...
  Unit style    : metal
  Current step  : 27992
Per MPI rank memory allocation (min/avg/max) = 5.441 | 5.816 | 6.074 Mbytes
Step PotEng KinEng TotEng v_fx v_fy v_fz 
   27992     -1152449            0     -1152449 -0.0011715743  0.004320123 0.0062172803 
   28000     -1152449            0     -1152449 -0.0018746436 -7.8531974e-05  0.001246699 
   28197     -1152449            0     -1152449 8.243075e-06 -3.2600033e-06 -9.9692887e-06 
Loop time of 2.4089 on 104 procs for 205 steps with 288751 atoms

99.9% CPU use with 104 MPI tasks x 1 OpenMP threads

Minimization stats:
  Stopping criterion = energy tolerance
  Energy initial, next-to-last, final = 
      -1152449.0447128  -1152449.04606652  -1152449.04606652
  Force two-norm initial, final = 0.16192032 5.9554461e-05
  Force max component initial, final = 0.096771059 1.1530003e-05
  Final line search alpha, max atom move = 1.0000000 1.1530003e-05
  Iterations, force evaluations = 205 410

MPI task timing breakdown:
Section |  min time  |  avg time  |  max time  |%varavg| %total
---------------------------------------------------------------
Pair    | 0.61482    | 1.7283     | 2.261      |  35.7 | 71.75
Neigh   | 0          | 0          | 0          |   0.0 |  0.00
Comm    | 0.036331   | 0.39229    | 1.173      |  52.0 | 16.29
Output  | 9.0156e-05 | 9.6217e-05 | 0.00017346 |   0.0 |  0.00
Modify  | 2.5969e-05 | 0.0033839  | 0.0072373  |   2.8 |  0.14
Other   |            | 0.2848     |            |       | 11.82

Nlocal:        2776.45 ave        3961 max           0 min
Histogram: 8 4 4 0 6 10 8 4 26 34
Nghost:        3879.14 ave        5425 max         232 min
Histogram: 8 0 8 0 16 0 8 8 16 40
Neighs:        79213.2 ave      115468 max           0 min
Histogram: 8 4 4 0 10 6 8 8 24 32

Total # of neighbors = 8238170
Ave neighs/atom = 28.530360
Neighbor list builds = 0
Dangerous builds = 0
The dot product: -2.16275288788888e-09
Setting atom values ...
  1 settings made for x
  1 settings made for y
  1 settings made for z
Setting up cg style minimization ...
  Unit style    : metal
  Current step  : 28197
Per MPI rank memory allocation (min/avg/max) = 5.441 | 5.816 | 6.074 Mbytes
Step PotEng KinEng TotEng v_fx v_fy v_fz 
   28197     -1152449            0     -1152449 -0.00084642079 0.0035302148 0.0050045407 
   28387     -1152449            0     -1152449 -2.2067247e-05 5.8513277e-06 2.3108924e-05 
Loop time of 2.22931 on 104 procs for 190 steps with 288751 atoms

99.9% CPU use with 104 MPI tasks x 1 OpenMP threads

Minimization stats:
  Stopping criterion = energy tolerance
  Energy initial, next-to-last, final = 
     -1152449.02147744  -1152449.02281024  -1152449.02281024
  Force two-norm initial, final = 0.16217352 9.4785960e-05
  Force max component initial, final = 0.097453212 2.3108924e-05
  Final line search alpha, max atom move = 1.0000000 2.3108924e-05
  Iterations, force evaluations = 190 380

MPI task timing breakdown:
Section |  min time  |  avg time  |  max time  |%varavg| %total
---------------------------------------------------------------
Pair    | 0.57216    | 1.5978     | 2.0812     |  34.3 | 71.67
Neigh   | 0          | 0          | 0          |   0.0 |  0.00
Comm    | 0.037085   | 0.36267    | 1.0956     |  50.1 | 16.27
Output  | 0          | 0          | 0          |   0.0 |  0.00
Modify  | 2.2625e-05 | 0.0031284  | 0.0067035  |   2.6 |  0.14
Other   |            | 0.2657     |            |       | 11.92

Nlocal:        2776.45 ave        3960 max           0 min
Histogram: 8 4 4 0 4 12 8 4 26 34
Nghost:        3879.16 ave        5425 max         232 min
Histogram: 8 0 8 0 16 0 8 8 16 40
Neighs:        79213.2 ave      115426 max           0 min
Histogram: 8 4 4 0 10 6 8 8 24 32

Total # of neighbors = 8238171
Ave neighs/atom = 28.530364
Neighbor list builds = 0
Dangerous builds = 0
The dot product: -2.79130383499545e-09
Setting atom values ...
  1 settings made for x
  1 settings made for y
  1 settings made for z
Setting up cg style minimization ...
  Unit style    : metal
  Current step  : 28387
Per MPI rank memory allocation (min/avg/max) = 5.441 | 5.816 | 6.074 Mbytes
Step PotEng KinEng TotEng v_fx v_fy v_fz 
   28387     -1152449            0     -1152449 -0.00027556199 0.0028665003 0.0037710157 
   28575     -1152449            0     -1152449 -3.1813648e-06 1.5593279e-06 4.2236335e-06 
Loop time of 2.20469 on 104 procs for 188 steps with 288751 atoms

99.9% CPU use with 104 MPI tasks x 1 OpenMP threads

Minimization stats:
  Stopping criterion = energy tolerance
  Energy initial, next-to-last, final = 
     -1152448.99685162  -1152448.99816649  -1152448.99816649
  Force two-norm initial, final = 0.16261556 0.00010239353
  Force max component initial, final = 0.098072069 1.8559736e-05
  Final line search alpha, max atom move = 1.0000000 1.8559736e-05
  Iterations, force evaluations = 188 376

MPI task timing breakdown:
Section |  min time  |  avg time  |  max time  |%varavg| %total
---------------------------------------------------------------
Pair    | 0.56431    | 1.587      | 2.0728     |  34.2 | 71.98
Neigh   | 0          | 0          | 0          |   0.0 |  0.00
Comm    | 0.037196   | 0.36013    | 1.0683     |  49.2 | 16.33
Output  | 0          | 0          | 0          |   0.0 |  0.00
Modify  | 2.3395e-05 | 0.0030992  | 0.0066752  |   2.6 |  0.14
Other   |            | 0.2544     |            |       | 11.54

Nlocal:        2776.45 ave        3960 max           0 min
Histogram: 8 4 4 0 4 12 8 4 26 34
Nghost:        3879.18 ave        5425 max         232 min
Histogram: 8 0 8 0 16 0 8 8 16 40
Neighs:        79213.2 ave      115432 max           0 min
Histogram: 8 4 4 0 10 6 8 8 24 32

Total # of neighbors = 8238173
Ave neighs/atom = 28.530370
Neighbor list builds = 0
Dangerous builds = 0
The dot product: -5.5453784772432e-10
Setting atom values ...
  1 settings made for x
  1 settings made for y
  1 settings made for z
Setting up cg style minimization ...
  Unit style    : metal
  Current step  : 28575
Per MPI rank memory allocation (min/avg/max) = 5.441 | 5.816 | 6.074 Mbytes
Step PotEng KinEng TotEng v_fx v_fy v_fz 
   28575     -1152449            0     -1152449 0.00055184839 0.0022654488 0.0024305589 
   28778     -1152449            0     -1152449 1.2726131e-05 -1.9156328e-06 -1.1503256e-05 
Loop time of 2.35699 on 104 procs for 203 steps with 288751 atoms

99.9% CPU use with 104 MPI tasks x 1 OpenMP threads

Minimization stats:
  Stopping criterion = energy tolerance
  Energy initial, next-to-last, final = 
     -1152448.97073557  -1152448.97203566  -1152448.97203566
  Force two-norm initial, final = 0.16325236 7.4818601e-05
  Force max component initial, final = 0.098653424 1.5191565e-05
  Final line search alpha, max atom move = 1.0000000 1.5191565e-05
  Iterations, force evaluations = 203 406

MPI task timing breakdown:
Section |  min time  |  avg time  |  max time  |%varavg| %total
---------------------------------------------------------------
Pair    | 0.61184    | 1.7046     | 2.2187     |  35.3 | 72.32
Neigh   | 0          | 0          | 0          |   0.0 |  0.00
Comm    | 0.035684   | 0.38315    | 1.1705     |  52.2 | 16.26
Output  | 0          | 0          | 0          |   0.0 |  0.00
Modify  | 2.5492e-05 | 0.0033436  | 0.0071469  |   2.7 |  0.14
Other   |            | 0.2659     |            |       | 11.28

Nlocal:        2776.45 ave        3960 max           0 min
Histogram: 8 4 4 0 4 12 8 4 26 34
Nghost:        3879.16 ave        5425 max         232 min
Histogram: 8 0 8 0 16 0 8 8 16 40
Neighs:        79213.2 ave      115430 max           0 min
Histogram: 8 4 4 0 10 6 8 8 24 32

Total # of neighbors = 8238172
Ave neighs/atom = 28.530367
Neighbor list builds = 0
Dangerous builds = 0
The dot product: 1.19123638752052e-08
Setting atom values ...
  1 settings made for x
  1 settings made for y
  1 settings made for z
Setting up cg style minimization ...
  Unit style    : metal
  Current step  : 28778
Per MPI rank memory allocation (min/avg/max) = 5.441 | 5.816 | 6.074 Mbytes
Step PotEng KinEng TotEng v_fx v_fy v_fz 
   28778   -1152448.9            0   -1152448.9 0.0014177204 0.0017455027   0.00116344 
   28958   -1152448.9            0   -1152448.9 1.3258604e-05 7.2184254e-06 -4.8093717e-07 
Loop time of 2.10498 on 104 procs for 180 steps with 288751 atoms

99.9% CPU use with 104 MPI tasks x 1 OpenMP threads

Minimization stats:
  Stopping criterion = energy tolerance
  Energy initial, next-to-last, final = 
     -1152448.94303729  -1152448.94433138  -1152448.94433138
  Force two-norm initial, final = 0.16413606 0.00014640542
  Force max component initial, final = 0.099241911 3.6519462e-05
  Final line search alpha, max atom move = 1.0000000 3.6519462e-05
  Iterations, force evaluations = 180 360

MPI task timing breakdown:
Section |  min time  |  avg time  |  max time  |%varavg| %total
---------------------------------------------------------------
Pair    | 0.54265    | 1.5169     | 1.9814     |  33.4 | 72.06
Neigh   | 0          | 0          | 0          |   0.0 |  0.00
Comm    | 0.031594   | 0.34597    | 1.0381     |  48.4 | 16.44
Output  | 0          | 0          | 0          |   0.0 |  0.00
Modify  | 2.2154e-05 | 0.0029666  | 0.0063394  |   2.6 |  0.14
Other   |            | 0.2391     |            |       | 11.36

Nlocal:        2776.45 ave        3960 max           0 min
Histogram: 8 4 4 0 4 12 8 4 26 34
Nghost:        3879.12 ave        5426 max         232 min
Histogram: 8 0 8 0 16 0 8 8 16 40
Neighs:        79213.2 ave      115429 max           0 min
Histogram: 8 4 4 0 10 6 8 8 24 32

Total # of neighbors = 8238172
Ave neighs/atom = 28.530367
Neighbor list builds = 0
Dangerous builds = 0
The dot product: 1.99337771837572e-08
Setting atom values ...
  1 settings made for x
  1 settings made for y
  1 settings made for z
Setting up cg style minimization ...
  Unit style    : metal
  Current step  : 28958
Per MPI rank memory allocation (min/avg/max) = 5.441 | 5.816 | 6.074 Mbytes
Step PotEng KinEng TotEng v_fx v_fy v_fz 
   28958   -1152448.9            0   -1152448.9 0.0020866013 0.0013096295 0.00014264476 
   29000   -1152448.9            0   -1152448.9 -0.00013355169 -0.00021371426 -0.00017123224 
   29146   -1152448.9            0   -1152448.9 1.8435829e-05 1.2375393e-05 2.2641521e-06 
Loop time of 2.19609 on 104 procs for 188 steps with 288751 atoms

99.9% CPU use with 104 MPI tasks x 1 OpenMP threads

Minimization stats:
  Stopping criterion = energy tolerance
  Energy initial, next-to-last, final = 
      -1152448.9136867   -1152448.9149806   -1152448.9149806
  Force two-norm initial, final = 0.16520987 0.00012058498
  Force max component initial, final = 0.099788054 3.9016938e-05
  Final line search alpha, max atom move = 1.0000000 3.9016938e-05
  Iterations, force evaluations = 188 376

MPI task timing breakdown:
Section |  min time  |  avg time  |  max time  |%varavg| %total
---------------------------------------------------------------
Pair    | 0.56862    | 1.5796     | 2.0561     |  34.0 | 71.93
Neigh   | 0          | 0          | 0          |   0.0 |  0.00
Comm    | 0.034364   | 0.3553     | 1.0796     |  50.0 | 16.18
Output  | 0.00016821 | 0.00017143 | 0.0002912  |   0.0 |  0.01
Modify  | 2.2603e-05 | 0.0031025  | 0.0065962  |   2.6 |  0.14
Other   |            | 0.2579     |            |       | 11.74

Nlocal:        2776.45 ave        3960 max           0 min
Histogram: 8 4 4 0 4 12 8 4 26 34
Nghost:        3879.08 ave        5426 max         232 min
Histogram: 8 0 8 0 16 0 8 8 16 40
Neighs:        79213.2 ave      115434 max           0 min
Histogram: 8 4 4 0 10 6 8 8 24 32

Total # of neighbors = 8238170
Ave neighs/atom = 28.530360
Neighbor list builds = 0
Dangerous builds = 0
The dot product: 2.84311645190902e-08
