LAMMPS (29 Oct 2020)
OMP_NUM_THREADS environment is not set. Defaulting to 1 thread. (../comm.cpp:94)
  using 1 OpenMP thread(s) per MPI task
OMP_NUM_THREADS environment is not set. Defaulting to 1 thread. (../comm.cpp:94)
  using 1 OpenMP thread(s) per MPI task
Reading data file ...
  orthogonal box = (-122.39241 -121.13707 -37.090501) to (122.39241 121.13707 37.090501)
  13 by 4 by 2 MPI processor grid
  reading atoms ...
  288751 atoms
  read_data CPU = 0.494 seconds
199981 atoms in group inner
88770 atoms in group outer
1 atoms in group carbon
Neighbor list info ...
  update every 1 steps, delay 0 steps, check yes
  max neighbors/atom: 2000, page size: 100000
  master list distance cutoff = 5.6
  ghost atom cutoff = 5.6
  binsize = 2.8, bins = 88 87 27
  1 neighbor lists, perpetual/occasional/extra = 1 0 0
  (1) pair eam/alloy, perpetual
      attributes: half, newton on
      pair build: half/bin/atomonly/newton
      stencil: half/bin/3d/newton
      bin: standard
Setting up cg style minimization ...
  Unit style    : metal
  Current step  : 0
Per MPI rank memory allocation (min/avg/max) = 5.441 | 5.816 | 6.074 Mbytes
Step v_fx v_fy v_fz PotEng KinEng TotEng 
       0   -26.388923  -0.83356811    7.7948751   -1152441.8            0   -1152441.8 
     233 -2.8142977e-05 -2.8621782e-06 3.0503845e-05     -1152449            0     -1152449 
Loop time of 2.78078 on 104 procs for 233 steps with 288751 atoms

99.8% CPU use with 104 MPI tasks x 1 OpenMP threads

Minimization stats:
  Stopping criterion = energy tolerance
  Energy initial, next-to-last, final = 
     -1152441.80747462  -1152448.97218898  -1152448.97218898
  Force two-norm initial, final = 45.148443 0.00013958709
  Force max component initial, final = 34.040460 4.2720909e-05
  Final line search alpha, max atom move = 1.0000000 4.2720909e-05
  Iterations, force evaluations = 233 462

MPI task timing breakdown:
Section |  min time  |  avg time  |  max time  |%varavg| %total
---------------------------------------------------------------
Pair    | 0.74938    | 1.9713     | 2.5451     |  36.8 | 70.89
Neigh   | 9.2595e-05 | 0.028575   | 0.042086   |   7.0 |  1.03
Comm    | 0.059243   | 0.4581     | 1.3466     |  54.2 | 16.47
Output  | 0          | 0          | 0          |   0.0 |  0.00
Modify  | 2.8607e-05 | 0.0025227  | 0.0064626  |   3.1 |  0.09
Other   |            | 0.3203     |            |       | 11.52

Nlocal:        2776.45 ave        3955 max           0 min
Histogram: 8 4 4 0 4 12 8 0 30 34
Nghost:        3879.07 ave        5424 max         232 min
Histogram: 8 0 8 0 16 0 8 8 16 40
Neighs:        79213.5 ave      115256 max           0 min
Histogram: 8 4 4 0 10 6 8 8 24 32

Total # of neighbors = 8238208
Ave neighs/atom = 28.530492
Neighbor list builds = 9
Dangerous builds = 0
Setting atom values ...
  1 settings made for x
  1 settings made for y
  1 settings made for z
Setting up cg style minimization ...
  Unit style    : metal
  Current step  : 233
Per MPI rank memory allocation (min/avg/max) = 5.441 | 5.816 | 6.074 Mbytes
Step PotEng KinEng TotEng v_fx v_fy v_fz 
     233     -1152449            0     -1152449   0.01143818 -0.020158535 -0.035842241 
     367     -1152449            0     -1152449 -3.6164407e-06 4.4561188e-06 5.210355e-06 
Loop time of 1.58181 on 104 procs for 134 steps with 288751 atoms

99.9% CPU use with 104 MPI tasks x 1 OpenMP threads

Minimization stats:
  Stopping criterion = energy tolerance
  Energy initial, next-to-last, final = 
     -1152448.97135137   -1152448.9719415   -1152448.9719415
  Force two-norm initial, final = 0.11485611 8.7321853e-05
  Force max component initial, final = 0.04959367 6.9462035e-06
  Final line search alpha, max atom move = 1.0000000 6.9462035e-06
  Iterations, force evaluations = 134 268

MPI task timing breakdown:
Section |  min time  |  avg time  |  max time  |%varavg| %total
---------------------------------------------------------------
Pair    | 0.40793    | 1.1362     | 1.4725     |  28.8 | 71.83
Neigh   | 0          | 0          | 0          |   0.0 |  0.00
Comm    | 0.023409   | 0.25821    | 0.76832    |  42.0 | 16.32
Output  | 0          | 0          | 0          |   0.0 |  0.00
Modify  | 1.6365e-05 | 0.0022188  | 0.0047742  |   2.2 |  0.14
Other   |            | 0.1852     |            |       | 11.71

Nlocal:        2776.45 ave        3956 max           0 min
Histogram: 8 4 4 0 4 12 8 0 30 34
Nghost:        3879.16 ave        5424 max         232 min
Histogram: 8 0 8 0 16 0 8 8 16 40
Neighs:        79213.5 ave      115276 max           0 min
Histogram: 8 4 4 0 10 6 8 8 24 32

Total # of neighbors = 8238206
Ave neighs/atom = 28.530485
Neighbor list builds = 0
Dangerous builds = 0
Setting atom values ...
  1 settings made for x
  1 settings made for y
  1 settings made for z
Setting up cg style minimization ...
  Unit style    : metal
  Current step  : 367
Per MPI rank memory allocation (min/avg/max) = 5.441 | 5.816 | 6.074 Mbytes
Step PotEng KinEng TotEng v_fx v_fy v_fz 
     367     -1152449            0     -1152449  0.017171028 -0.031786164 -0.060314798 
     586     -1152449            0     -1152449 -7.7746598e-07 9.2484079e-07 9.6738858e-07 
Loop time of 2.60771 on 104 procs for 219 steps with 288751 atoms

99.9% CPU use with 104 MPI tasks x 1 OpenMP threads

Minimization stats:
  Stopping criterion = energy tolerance
  Energy initial, next-to-last, final = 
     -1152448.96884003  -1152448.97056592  -1152448.97056592
  Force two-norm initial, final = 0.19133337 0.00016701343
  Force max component initial, final = 0.083009043 2.6212276e-05
  Final line search alpha, max atom move = 1.0000000 2.6212276e-05
  Iterations, force evaluations = 219 438

MPI task timing breakdown:
Section |  min time  |  avg time  |  max time  |%varavg| %total
---------------------------------------------------------------
Pair    | 0.66322    | 1.846      | 2.3983     |  36.8 | 70.79
Neigh   | 0          | 0          | 0          |   0.0 |  0.00
Comm    | 0.047217   | 0.42715    | 1.2566     |  52.6 | 16.38
Output  | 0          | 0          | 0          |   0.0 |  0.00
Modify  | 2.7311e-05 | 0.0036165  | 0.0077776  |   2.8 |  0.14
Other   |            | 0.331      |            |       | 12.69

Nlocal:        2776.45 ave        3956 max           0 min
Histogram: 8 4 4 0 4 12 8 0 30 34
Nghost:        3879.16 ave        5424 max         232 min
Histogram: 8 0 8 0 16 0 8 8 16 40
Neighs:        79213.5 ave      115278 max           0 min
Histogram: 8 4 4 0 10 6 8 8 24 32

Total # of neighbors = 8238205
Ave neighs/atom = 28.530481
Neighbor list builds = 0
Dangerous builds = 0
The dot product: 8.06818128967382e-09
Setting atom values ...
  1 settings made for x
  1 settings made for y
  1 settings made for z
Setting up cg style minimization ...
  Unit style    : metal
  Current step  : 586
Per MPI rank memory allocation (min/avg/max) = 5.441 | 5.816 | 6.074 Mbytes
Step PotEng KinEng TotEng v_fx v_fy v_fz 
     586     -1152449            0     -1152449  0.012331584 -0.033902767  -0.03831663 
     802     -1152449            0     -1152449 3.6652133e-06 -5.5569592e-06 -3.6391066e-06 
Loop time of 2.55279 on 104 procs for 216 steps with 288751 atoms

99.9% CPU use with 104 MPI tasks x 1 OpenMP threads

Minimization stats:
  Stopping criterion = energy tolerance
  Energy initial, next-to-last, final = 
     -1152448.96613593  -1152448.96836238  -1152448.96836238
  Force two-norm initial, final = 0.19962155 5.9385271e-05
  Force max component initial, final = 0.094279935 1.1252020e-05
  Final line search alpha, max atom move = 1.0000000 1.1252020e-05
  Iterations, force evaluations = 216 432

MPI task timing breakdown:
Section |  min time  |  avg time  |  max time  |%varavg| %total
---------------------------------------------------------------
Pair    | 0.65329    | 1.8302     | 2.3949     |  36.7 | 71.69
Neigh   | 0          | 0          | 0          |   0.0 |  0.00
Comm    | 0.03652    | 0.41778    | 1.2561     |  53.2 | 16.37
Output  | 0          | 0          | 0          |   0.0 |  0.00
Modify  | 2.6973e-05 | 0.0035577  | 0.007609   |   2.8 |  0.14
Other   |            | 0.3013     |            |       | 11.80

Nlocal:        2776.45 ave        3957 max           0 min
Histogram: 8 4 4 0 4 12 8 2 28 34
Nghost:        3879.16 ave        5423 max         232 min
Histogram: 8 0 8 0 16 0 8 8 16 40
Neighs:        79213.5 ave      115317 max           0 min
Histogram: 8 4 4 0 10 6 8 8 24 32

Total # of neighbors = 8238203
Ave neighs/atom = 28.530474
Neighbor list builds = 0
Dangerous builds = 0
The dot product: -9.21756205215659e-08
Setting atom values ...
  1 settings made for x
  1 settings made for y
  1 settings made for z
Setting up cg style minimization ...
  Unit style    : metal
  Current step  : 802
Per MPI rank memory allocation (min/avg/max) = 5.441 | 5.816 | 6.074 Mbytes
Step PotEng KinEng TotEng v_fx v_fy v_fz 
     802     -1152449            0     -1152449  0.015504712 -0.017721379 0.0004905725 
    1000     -1152449            0     -1152449 -1.808401e-06 2.0165411e-06 -9.745427e-08 
    1018     -1152449            0     -1152449 -1.4841571e-06 -5.5011167e-07 -1.8403043e-06 
Loop time of 2.51876 on 104 procs for 216 steps with 288751 atoms

99.9% CPU use with 104 MPI tasks x 1 OpenMP threads

Minimization stats:
  Stopping criterion = energy tolerance
  Energy initial, next-to-last, final = 
      -1152448.9629253  -1152448.96679177  -1152448.96679177
  Force two-norm initial, final = 0.21119289 5.4701221e-05
  Force max component initial, final = 0.11363014 1.5182544e-05
  Final line search alpha, max atom move = 1.0000000 1.5182544e-05
  Iterations, force evaluations = 216 432

MPI task timing breakdown:
Section |  min time  |  avg time  |  max time  |%varavg| %total
---------------------------------------------------------------
Pair    | 0.65413    | 1.8136     | 2.3565     |  36.3 | 72.00
Neigh   | 0          | 0          | 0          |   0.0 |  0.00
Comm    | 0.041312   | 0.41109    | 1.2329     |  53.2 | 16.32
Output  | 0.00016268 | 0.0001733  | 0.0003276  |   0.0 |  0.01
Modify  | 2.5941e-05 | 0.0035579  | 0.0076311  |   2.8 |  0.14
Other   |            | 0.2904     |            |       | 11.53

Nlocal:        2776.45 ave        3957 max           0 min
Histogram: 8 4 4 0 4 12 8 2 28 34
Nghost:        3879.18 ave        5423 max         232 min
Histogram: 8 0 8 0 16 0 8 8 16 40
Neighs:        79213.6 ave      115314 max           0 min
Histogram: 8 4 4 0 10 6 8 8 24 32

Total # of neighbors = 8238210
Ave neighs/atom = 28.530499
Neighbor list builds = 0
Dangerous builds = 0
The dot product: -7.43725690696279e-08
Setting atom values ...
  1 settings made for x
  1 settings made for y
  1 settings made for z
Setting up cg style minimization ...
  Unit style    : metal
  Current step  : 1018
Per MPI rank memory allocation (min/avg/max) = 5.441 | 5.816 | 6.074 Mbytes
Step PotEng KinEng TotEng v_fx v_fy v_fz 
    1018     -1152449            0     -1152449  0.054311522  0.031994344  0.032915247 
    1173     -1152449            0     -1152449 -7.8589808e-06 3.0445208e-07 -3.6491949e-06 
Loop time of 1.82895 on 104 procs for 155 steps with 288751 atoms

99.9% CPU use with 104 MPI tasks x 1 OpenMP threads

Minimization stats:
  Stopping criterion = energy tolerance
  Energy initial, next-to-last, final = 
     -1152448.96178877  -1152448.96537791  -1152448.96537791
  Force two-norm initial, final = 0.22699687 0.00011163407
  Force max component initial, final = 0.12059269 2.5981325e-05
  Final line search alpha, max atom move = 1.0000000 2.5981325e-05
  Iterations, force evaluations = 155 310

MPI task timing breakdown:
Section |  min time  |  avg time  |  max time  |%varavg| %total
---------------------------------------------------------------
Pair    | 0.46875    | 1.3095     | 1.7127     |  30.9 | 71.60
Neigh   | 0          | 0          | 0          |   0.0 |  0.00
Comm    | 0.027126   | 0.29919    | 0.89792    |  45.0 | 16.36
Output  | 0          | 0          | 0          |   0.0 |  0.00
Modify  | 1.9123e-05 | 0.0025606  | 0.0054814  |   2.4 |  0.14
Other   |            | 0.2177     |            |       | 11.90

Nlocal:        2776.45 ave        3958 max           0 min
Histogram: 8 4 4 0 4 12 8 2 28 34
Nghost:        3879.14 ave        5424 max         232 min
Histogram: 8 0 8 0 16 0 8 8 16 40
Neighs:        79213.6 ave      115363 max           0 min
Histogram: 8 4 4 0 10 6 8 8 24 32

Total # of neighbors = 8238218
Ave neighs/atom = 28.530526
Neighbor list builds = 0
Dangerous builds = 0
The dot product: -1.17093457810341e-07
Setting atom values ...
  1 settings made for x
  1 settings made for y
  1 settings made for z
Setting up cg style minimization ...
  Unit style    : metal
  Current step  : 1173
Per MPI rank memory allocation (min/avg/max) = 5.441 | 5.816 | 6.074 Mbytes
Step PotEng KinEng TotEng v_fx v_fy v_fz 
    1173     -1152449            0     -1152449  0.060862951  0.036132206  0.020606736 
    1354     -1152449            0     -1152449 3.0737931e-06 -3.6712989e-07 9.6133539e-07 
Loop time of 2.12987 on 104 procs for 181 steps with 288751 atoms

99.9% CPU use with 104 MPI tasks x 1 OpenMP threads

Minimization stats:
  Stopping criterion = energy tolerance
  Energy initial, next-to-last, final = 
     -1152448.96091819  -1152448.96408947  -1152448.96408947
  Force two-norm initial, final = 0.22205687 9.8524922e-05
  Force max component initial, final = 0.11443307 7.7925562e-06
  Final line search alpha, max atom move = 1.0000000 7.7925562e-06
  Iterations, force evaluations = 181 362

MPI task timing breakdown:
Section |  min time  |  avg time  |  max time  |%varavg| %total
---------------------------------------------------------------
Pair    | 0.55748    | 1.5219     | 1.9758     |  33.0 | 71.46
Neigh   | 0          | 0          | 0          |   0.0 |  0.00
Comm    | 0.041232   | 0.34365    | 1.0321     |  49.0 | 16.13
Output  | 0          | 0          | 0          |   0.0 |  0.00
Modify  | 2.2599e-05 | 0.0029902  | 0.0064799  |   2.6 |  0.14
Other   |            | 0.2613     |            |       | 12.27

Nlocal:        2776.45 ave        3958 max           0 min
Histogram: 8 4 4 0 4 12 8 2 28 34
Nghost:        3879.11 ave        5424 max         232 min
Histogram: 8 0 8 0 16 0 8 8 16 40
Neighs:        79213.6 ave      115366 max           0 min
Histogram: 8 4 4 0 10 6 8 8 24 32

Total # of neighbors = 8238218
Ave neighs/atom = 28.530526
Neighbor list builds = 0
Dangerous builds = 0
The dot product: 1.06457120564087e-08
Setting atom values ...
  1 settings made for x
  1 settings made for y
  1 settings made for z
Setting up cg style minimization ...
  Unit style    : metal
  Current step  : 1354
Per MPI rank memory allocation (min/avg/max) = 5.441 | 5.816 | 6.074 Mbytes
Step PotEng KinEng TotEng v_fx v_fy v_fz 
    1354     -1152449            0     -1152449  0.059697461  0.032544331  0.016431052 
    1619     -1152449            0     -1152449 1.4581929e-08 -8.3355232e-09 4.2294741e-09 
Loop time of 3.08001 on 104 procs for 265 steps with 288751 atoms

99.9% CPU use with 104 MPI tasks x 1 OpenMP threads

Minimization stats:
  Stopping criterion = energy tolerance
  Energy initial, next-to-last, final = 
     -1152448.95984058   -1152448.9623973   -1152448.9623973
  Force two-norm initial, final = 0.21912598 6.9638807e-06
  Force max component initial, final = 0.11250381 1.9403749e-06
  Final line search alpha, max atom move = 1.0000000 1.9403749e-06
  Iterations, force evaluations = 265 530

MPI task timing breakdown:
Section |  min time  |  avg time  |  max time  |%varavg| %total
---------------------------------------------------------------
Pair    | 0.80435    | 2.2316     | 2.8883     |  40.2 | 72.45
Neigh   | 0          | 0          | 0          |   0.0 |  0.00
Comm    | 0.047996   | 0.49893    | 1.5054     |  59.7 | 16.20
Output  | 0          | 0          | 0          |   0.0 |  0.00
Modify  | 3.2763e-05 | 0.00437    | 0.0093918  |   3.1 |  0.14
Other   |            | 0.3451     |            |       | 11.20

Nlocal:        2776.45 ave        3958 max           0 min
Histogram: 8 4 4 0 4 12 8 2 28 34
Nghost:        3879.11 ave        5424 max         232 min
Histogram: 8 0 8 0 16 0 8 8 16 40
Neighs:        79213.6 ave      115353 max           0 min
Histogram: 8 4 4 0 10 6 8 8 24 32

Total # of neighbors = 8238211
Ave neighs/atom = 28.530502
Neighbor list builds = 0
Dangerous builds = 0
The dot product: 5.44323958657281e-11
Setting up cg style minimization ...
  Unit style    : metal
  Current step  : 1619
Per MPI rank memory allocation (min/avg/max) = 5.441 | 5.816 | 6.074 Mbytes
Step PotEng KinEng TotEng v_fx v_fy v_fz 
    1619     -1152449            0     -1152449    0.0277961 -0.0013049978 -0.098404266 
    1873     -1152449            0     -1152449 -3.936041e-05 -4.1566707e-06 4.6121383e-05 
Loop time of 2.94831 on 104 procs for 254 steps with 288751 atoms

99.9% CPU use with 104 MPI tasks x 1 OpenMP threads

Minimization stats:
  Stopping criterion = energy tolerance
  Energy initial, next-to-last, final = 
      -1152448.9623973  -1152448.97218895  -1152448.97218895
  Force two-norm initial, final = 0.10226302 0.00021194471
  Force max component initial, final = 0.098404266 6.6121860e-05
  Final line search alpha, max atom move = 1.0000000 6.6121860e-05
  Iterations, force evaluations = 254 508

MPI task timing breakdown:
Section |  min time  |  avg time  |  max time  |%varavg| %total
---------------------------------------------------------------
Pair    | 0.77427    | 2.1331     | 2.7707     |  39.3 | 72.35
Neigh   | 1.0592e-05 | 0.0029295  | 0.0042124  |   2.2 |  0.10
Comm    | 0.043752   | 0.47973    | 1.4491     |  58.0 | 16.27
Output  | 0          | 0          | 0          |   0.0 |  0.00
Modify  | 2.7345e-05 | 0.002722   | 0.0070165  |   3.3 |  0.09
Other   |            | 0.3298     |            |       | 11.19

Nlocal:        2776.45 ave        3958 max           0 min
Histogram: 8 4 4 0 4 12 8 2 28 34
Nghost:        3879.09 ave        5424 max         232 min
Histogram: 8 0 8 0 16 0 8 8 16 40
Neighs:        79213.7 ave      115361 max           0 min
Histogram: 8 4 4 0 10 6 8 8 24 32

Total # of neighbors = 8238222
Ave neighs/atom = 28.530540
Neighbor list builds = 1
Dangerous builds = 0
OMP_NUM_THREADS environment is not set. Defaulting to 1 thread. (../comm.cpp:94)
  using 1 OpenMP thread(s) per MPI task
Reading data file ...
  orthogonal box = (-122.39241 -121.13707 -37.090501) to (122.39241 121.13707 37.090501)
  13 by 4 by 2 MPI processor grid
  reading atoms ...
  288751 atoms
  read_data CPU = 0.342 seconds
199981 atoms in group inner
88770 atoms in group outer
1 atoms in group carbon
Neighbor list info ...
  update every 1 steps, delay 0 steps, check yes
  max neighbors/atom: 2000, page size: 100000
  master list distance cutoff = 5.6
  ghost atom cutoff = 5.6
  binsize = 2.8, bins = 88 87 27
  1 neighbor lists, perpetual/occasional/extra = 1 0 0
  (1) pair eam/alloy, perpetual
      attributes: half, newton on
      pair build: half/bin/atomonly/newton
      stencil: half/bin/3d/newton
      bin: standard
Setting up cg style minimization ...
  Unit style    : metal
  Current step  : 0
Per MPI rank memory allocation (min/avg/max) = 5.441 | 5.816 | 6.074 Mbytes
Step v_fx v_fy v_fz PotEng KinEng TotEng 
       0   -26.388923  -0.83356811    7.7948751   -1152441.8            0   -1152441.8 
     233 -2.8142977e-05 -2.8621782e-06 3.0503845e-05     -1152449            0     -1152449 
Loop time of 2.74295 on 104 procs for 233 steps with 288751 atoms

99.9% CPU use with 104 MPI tasks x 1 OpenMP threads

Minimization stats:
  Stopping criterion = energy tolerance
  Energy initial, next-to-last, final = 
     -1152441.80747462  -1152448.97218898  -1152448.97218898
  Force two-norm initial, final = 45.148443 0.00013958709
  Force max component initial, final = 34.040460 4.2720909e-05
  Final line search alpha, max atom move = 1.0000000 4.2720909e-05
  Iterations, force evaluations = 233 462

MPI task timing breakdown:
Section |  min time  |  avg time  |  max time  |%varavg| %total
---------------------------------------------------------------
Pair    | 0.73331    | 1.956      | 2.5475     |  37.0 | 71.31
Neigh   | 9.0196e-05 | 0.026631   | 0.038468   |   6.7 |  0.97
Comm    | 0.04979    | 0.44227    | 1.3276     |  55.2 | 16.12
Output  | 0          | 0          | 0          |   0.0 |  0.00
Modify  | 2.8326e-05 | 0.0024812  | 0.0063844  |   3.1 |  0.09
Other   |            | 0.3156     |            |       | 11.50

Nlocal:        2776.45 ave        3955 max           0 min
Histogram: 8 4 4 0 4 12 8 0 30 34
Nghost:        3879.07 ave        5424 max         232 min
Histogram: 8 0 8 0 16 0 8 8 16 40
Neighs:        79213.5 ave      115256 max           0 min
Histogram: 8 4 4 0 10 6 8 8 24 32

Total # of neighbors = 8238208
Ave neighs/atom = 28.530492
Neighbor list builds = 9
Dangerous builds = 0
Setting atom values ...
  1 settings made for x
  1 settings made for y
  1 settings made for z
Setting up cg style minimization ...
  Unit style    : metal
  Current step  : 233
Per MPI rank memory allocation (min/avg/max) = 5.441 | 5.816 | 6.074 Mbytes
Step PotEng KinEng TotEng v_fx v_fy v_fz 
     233     -1152449            0     -1152449 -0.022783077 -0.023858165  0.025586327 
     349     -1152449            0     -1152449 1.0098302e-05 1.0600157e-05 -8.4900554e-06 
Loop time of 1.36088 on 104 procs for 116 steps with 288751 atoms

99.9% CPU use with 104 MPI tasks x 1 OpenMP threads

Minimization stats:
  Stopping criterion = energy tolerance
  Energy initial, next-to-last, final = 
     -1152448.96959186  -1152448.97136351  -1152448.97136351
  Force two-norm initial, final = 0.18698753 0.0001791253
  Force max component initial, final = 0.079152675 4.8640103e-05
  Final line search alpha, max atom move = 1.0000000 4.8640103e-05
  Iterations, force evaluations = 116 232

MPI task timing breakdown:
Section |  min time  |  avg time  |  max time  |%varavg| %total
---------------------------------------------------------------
Pair    | 0.35061    | 0.97549    | 1.2839     |  26.8 | 71.68
Neigh   | 0          | 0          | 0          |   0.0 |  0.00
Comm    | 0.020921   | 0.22193    | 0.6602     |  39.1 | 16.31
Output  | 0          | 0          | 0          |   0.0 |  0.00
Modify  | 1.4553e-05 | 0.0019094  | 0.0041184  |   2.1 |  0.14
Other   |            | 0.1616     |            |       | 11.87

Nlocal:        2776.45 ave        3956 max           0 min
Histogram: 8 4 4 0 4 12 8 0 30 34
Nghost:        3879.16 ave        5424 max         232 min
Histogram: 8 0 8 0 16 0 8 8 16 40
Neighs:        79213.5 ave      115276 max           0 min
Histogram: 8 4 4 0 10 6 8 8 24 32

Total # of neighbors = 8238206
Ave neighs/atom = 28.530485
Neighbor list builds = 0
Dangerous builds = 0
Setting atom values ...
  1 settings made for x
  1 settings made for y
  1 settings made for z
Setting up cg style minimization ...
  Unit style    : metal
  Current step  : 349
Per MPI rank memory allocation (min/avg/max) = 5.441 | 5.816 | 6.074 Mbytes
Step PotEng KinEng TotEng v_fx v_fy v_fz 
     349     -1152449            0     -1152449 -0.014466518 -0.010974921  0.033354095 
     560     -1152449            0     -1152449 2.7785646e-07 1.9650209e-07 -7.2228935e-07 
Loop time of 2.47521 on 104 procs for 211 steps with 288751 atoms

99.9% CPU use with 104 MPI tasks x 1 OpenMP threads

Minimization stats:
  Stopping criterion = energy tolerance
  Energy initial, next-to-last, final = 
     -1152448.96764412  -1152448.96918374  -1152448.96918374
  Force two-norm initial, final = 0.16969413 3.4807143e-05
  Force max component initial, final = 0.069478046 1.2677443e-06
  Final line search alpha, max atom move = 1.0000000 1.2677443e-06
  Iterations, force evaluations = 211 422

MPI task timing breakdown:
Section |  min time  |  avg time  |  max time  |%varavg| %total
---------------------------------------------------------------
Pair    | 0.6375     | 1.7793     | 2.3364     |  36.2 | 71.89
Neigh   | 0          | 0          | 0          |   0.0 |  0.00
Comm    | 0.039808   | 0.40459    | 1.2024     |  52.7 | 16.35
Output  | 0          | 0          | 0          |   0.0 |  0.00
Modify  | 2.566e-05  | 0.0034679  | 0.0074144  |   2.8 |  0.14
Other   |            | 0.2878     |            |       | 11.63

Nlocal:        2776.45 ave        3956 max           0 min
Histogram: 8 4 4 0 4 12 8 0 30 34
Nghost:        3879.16 ave        5424 max         232 min
Histogram: 8 0 8 0 16 0 8 8 16 40
Neighs:        79213.5 ave      115278 max           0 min
Histogram: 8 4 4 0 10 6 8 8 24 32

Total # of neighbors = 8238207
Ave neighs/atom = 28.530488
Neighbor list builds = 0
Dangerous builds = 0
The dot product: -3.94546262402909e-09
Setting atom values ...
  1 settings made for x
  1 settings made for y
  1 settings made for z
Setting up cg style minimization ...
  Unit style    : metal
  Current step  : 560
Per MPI rank memory allocation (min/avg/max) = 5.441 | 5.816 | 6.074 Mbytes
Step PotEng KinEng TotEng v_fx v_fy v_fz 
     560     -1152449            0     -1152449 -0.010355891 0.0054954643  0.041757699 
     773     -1152449            0     -1152449 -1.7006829e-05 -9.9008225e-06 2.7509338e-05 
Loop time of 2.47998 on 104 procs for 213 steps with 288751 atoms

99.9% CPU use with 104 MPI tasks x 1 OpenMP threads

Minimization stats:
  Stopping criterion = energy tolerance
  Energy initial, next-to-last, final = 
      -1152448.9641971  -1152448.96596946  -1152448.96596946
  Force two-norm initial, final = 0.16661248 0.00011754866
  Force max component initial, final = 0.063793435 2.9754790e-05
  Final line search alpha, max atom move = 1.0000000 2.9754790e-05
  Iterations, force evaluations = 213 426

MPI task timing breakdown:
Section |  min time  |  avg time  |  max time  |%varavg| %total
---------------------------------------------------------------
Pair    | 0.64506    | 1.7877     | 2.3323     |  36.1 | 72.09
Neigh   | 0          | 0          | 0          |   0.0 |  0.00
Comm    | 0.041998   | 0.40315    | 1.2095     |  53.2 | 16.26
Output  | 0          | 0          | 0          |   0.0 |  0.00
Modify  | 2.7443e-05 | 0.003504   | 0.0074654  |   2.8 |  0.14
Other   |            | 0.2856     |            |       | 11.52

Nlocal:        2776.45 ave        3956 max           0 min
Histogram: 8 4 4 0 4 12 8 0 30 34
Nghost:        3879.20 ave        5424 max         232 min
Histogram: 8 0 8 0 16 0 8 8 16 40
Neighs:        79213.5 ave      115273 max           0 min
Histogram: 8 4 4 0 10 6 8 8 24 32

Total # of neighbors = 8238205
Ave neighs/atom = 28.530481
Neighbor list builds = 0
Dangerous builds = 0
The dot product: 3.99348506982476e-07
Setting atom values ...
  1 settings made for x
  1 settings made for y
  1 settings made for z
Setting up cg style minimization ...
  Unit style    : metal
  Current step  : 773
Per MPI rank memory allocation (min/avg/max) = 5.441 | 5.816 | 6.074 Mbytes
Step PotEng KinEng TotEng v_fx v_fy v_fz 
     773     -1152449            0     -1152449 -0.014273162  0.029762881  0.048433154 
    1000     -1152449            0     -1152449 4.9241945e-06 1.7728941e-06 -5.4337086e-06 
    1021     -1152449            0     -1152449 6.2471253e-06 1.7061675e-06 -7.402037e-06 
Loop time of 2.90464 on 104 procs for 248 steps with 288751 atoms

99.9% CPU use with 104 MPI tasks x 1 OpenMP threads

Minimization stats:
  Stopping criterion = energy tolerance
  Energy initial, next-to-last, final = 
     -1152448.96005488  -1152448.96233895  -1152448.96233895
  Force two-norm initial, final = 0.1652769 3.3257869e-05
  Force max component initial, final = 0.077870618 7.4020370e-06
  Final line search alpha, max atom move = 1.0000000 7.4020370e-06
  Iterations, force evaluations = 248 496

MPI task timing breakdown:
Section |  min time  |  avg time  |  max time  |%varavg| %total
---------------------------------------------------------------
Pair    | 0.75231    | 2.0914     | 2.7326     |  39.2 | 72.00
Neigh   | 0          | 0          | 0          |   0.0 |  0.00
Comm    | 0.050753   | 0.47617    | 1.4161     |  57.3 | 16.39
Output  | 0.0001436  | 0.00014891 | 0.00028984 |   0.0 |  0.01
Modify  | 3.0712e-05 | 0.0040824  | 0.0087724  |   3.0 |  0.14
Other   |            | 0.3328     |            |       | 11.46

Nlocal:        2776.45 ave        3957 max           0 min
Histogram: 8 4 4 0 4 12 8 2 28 34
Nghost:        3879.20 ave        5424 max         232 min
Histogram: 8 0 8 0 16 0 8 8 16 40
Neighs:        79213.5 ave      115312 max           0 min
Histogram: 8 4 4 0 10 6 8 8 24 32

Total # of neighbors = 8238203
Ave neighs/atom = 28.530474
Neighbor list builds = 0
Dangerous builds = 0
The dot product: -1.90971603506565e-07
Setting atom values ...
  1 settings made for x
  1 settings made for y
  1 settings made for z
Setting up cg style minimization ...
  Unit style    : metal
  Current step  : 1021
Per MPI rank memory allocation (min/avg/max) = 5.441 | 5.816 | 6.074 Mbytes
Step PotEng KinEng TotEng v_fx v_fy v_fz 
    1021     -1152449            0     -1152449 -0.015935024  0.056662176  0.037203268 
    1285     -1152449            0     -1152449 -8.5617776e-05 -6.4648928e-06 6.8300268e-05 
Loop time of 3.15105 on 104 procs for 264 steps with 288751 atoms

99.9% CPU use with 104 MPI tasks x 1 OpenMP threads

Minimization stats:
  Stopping criterion = energy tolerance
  Energy initial, next-to-last, final = 
     -1152448.95581631   -1152448.9607579   -1152448.9607579
  Force two-norm initial, final = 0.16816859 0.00028574672
  Force max component initial, final = 0.094007869 8.5617776e-05
  Final line search alpha, max atom move = 1.0000000 8.5617776e-05
  Iterations, force evaluations = 264 528

MPI task timing breakdown:
Section |  min time  |  avg time  |  max time  |%varavg| %total
---------------------------------------------------------------
Pair    | 0.81302    | 2.2227     | 2.9169     |  40.0 | 70.54
Neigh   | 1.0767e-05 | 0.002941   | 0.0042481  |   2.2 |  0.09
Comm    | 0.051659   | 0.50999    | 1.5027     |  58.0 | 16.18
Output  | 0          | 0          | 0          |   0.0 |  0.00
Modify  | 3.3451e-05 | 0.004346   | 0.0092962  |   3.1 |  0.14
Other   |            | 0.4111     |            |       | 13.05

Nlocal:        2776.45 ave        3959 max           0 min
Histogram: 8 4 4 0 4 12 8 2 28 34
Nghost:        3879.12 ave        5424 max         232 min
Histogram: 8 0 8 0 16 0 8 8 16 40
Neighs:        79213.6 ave      115390 max           0 min
Histogram: 8 4 4 0 10 6 8 8 24 32

Total # of neighbors = 8238213
Ave neighs/atom = 28.530509
Neighbor list builds = 1
Dangerous builds = 0
The dot product: 1.00814058959067e-05
Setting atom values ...
  1 settings made for x
  1 settings made for y
  1 settings made for z
Setting up cg style minimization ...
  Unit style    : metal
  Current step  : 1285
Per MPI rank memory allocation (min/avg/max) = 5.441 | 5.816 | 6.074 Mbytes
Step PotEng KinEng TotEng v_fx v_fy v_fz 
    1285     -1152449            0     -1152449 -0.012267662  0.064520395  0.002787548 
    1473     -1152449            0     -1152449 6.0329127e-05 4.0753983e-07 2.3866361e-07 
Loop time of 2.20167 on 104 procs for 188 steps with 288751 atoms

99.9% CPU use with 104 MPI tasks x 1 OpenMP threads

Minimization stats:
  Stopping criterion = energy tolerance
  Energy initial, next-to-last, final = 
     -1152448.95624055  -1152448.95959043  -1152448.95959043
  Force two-norm initial, final = 0.19861161 0.00020982744
  Force max component initial, final = 0.085377254 7.6745725e-05
  Final line search alpha, max atom move = 1.0000000 7.6745725e-05
  Iterations, force evaluations = 188 376

MPI task timing breakdown:
Section |  min time  |  avg time  |  max time  |%varavg| %total
---------------------------------------------------------------
Pair    | 0.56903    | 1.5847     | 2.0719     |  34.0 | 71.98
Neigh   | 0          | 0          | 0          |   0.0 |  0.00
Comm    | 0.031508   | 0.35912    | 1.0771     |  50.0 | 16.31
Output  | 0          | 0          | 0          |   0.0 |  0.00
Modify  | 2.4722e-05 | 0.0030952  | 0.0066455  |   2.6 |  0.14
Other   |            | 0.2547     |            |       | 11.57

Nlocal:        2776.45 ave        3959 max           0 min
Histogram: 8 4 4 0 4 12 8 2 28 34
Nghost:        3879.11 ave        5424 max         232 min
Histogram: 8 0 8 0 16 0 8 8 16 40
Neighs:        79213.6 ave      115391 max           0 min
Histogram: 8 4 4 0 10 6 8 8 24 32

Total # of neighbors = 8238212
Ave neighs/atom = 28.530506
Neighbor list builds = 0
Dangerous builds = 0
The dot product: -1.41065013754571e-06
Setting atom values ...
  1 settings made for x
  1 settings made for y
  1 settings made for z
Setting up cg style minimization ...
  Unit style    : metal
  Current step  : 1473
Per MPI rank memory allocation (min/avg/max) = 5.441 | 5.816 | 6.074 Mbytes
Step PotEng KinEng TotEng v_fx v_fy v_fz 
    1473     -1152449            0     -1152449  0.051614097  0.043083451 0.0059805171 
    1701     -1152449            0     -1152449 1.0289469e-05 7.7465309e-07 1.4591186e-06 
Loop time of 2.65162 on 104 procs for 228 steps with 288751 atoms

99.9% CPU use with 104 MPI tasks x 1 OpenMP threads

Minimization stats:
  Stopping criterion = energy tolerance
  Energy initial, next-to-last, final = 
       -1152448.954339  -1152448.95686882  -1152448.95686882
  Force two-norm initial, final = 0.20841454 4.2750903e-05
  Force max component initial, final = 0.10039299 1.5390883e-05
  Final line search alpha, max atom move = 1.0000000 1.5390883e-05
  Iterations, force evaluations = 228 456

MPI task timing breakdown:
Section |  min time  |  avg time  |  max time  |%varavg| %total
---------------------------------------------------------------
Pair    | 0.6895     | 1.9135     | 2.5019     |  37.4 | 72.16
Neigh   | 0          | 0          | 0          |   0.0 |  0.00
Comm    | 0.042365   | 0.43027    | 1.2908     |  55.1 | 16.23
Output  | 0          | 0          | 0          |   0.0 |  0.00
Modify  | 2.8645e-05 | 0.0037494  | 0.0080027  |   2.9 |  0.14
Other   |            | 0.3041     |            |       | 11.47

Nlocal:        2776.45 ave        3959 max           0 min
Histogram: 8 4 4 0 4 12 8 2 28 34
Nghost:        3879.12 ave        5424 max         232 min
Histogram: 8 0 8 0 16 0 8 8 16 40
Neighs:        79213.5 ave      115395 max           0 min
Histogram: 8 4 4 0 10 6 8 8 24 32

Total # of neighbors = 8238207
Ave neighs/atom = 28.530488
Neighbor list builds = 0
Dangerous builds = 0
The dot product: -2.78108917531315e-08
Setting atom values ...
  1 settings made for x
  1 settings made for y
  1 settings made for z
Setting up cg style minimization ...
  Unit style    : metal
  Current step  : 1701
Per MPI rank memory allocation (min/avg/max) = 5.441 | 5.816 | 6.074 Mbytes
Step PotEng KinEng TotEng v_fx v_fy v_fz 
    1701     -1152449            0     -1152449  0.068569027  0.039341019 0.0086556985 
    1869     -1152449            0     -1152449 3.1524288e-07 -2.2761215e-08 5.2093428e-08 
Loop time of 1.98685 on 104 procs for 168 steps with 288751 atoms

99.9% CPU use with 104 MPI tasks x 1 OpenMP threads

Minimization stats:
  Stopping criterion = energy tolerance
  Energy initial, next-to-last, final = 
     -1152448.95111304  -1152448.95333715  -1152448.95333715
  Force two-norm initial, final = 0.21310201 0.00020396795
  Force max component initial, final = 0.10261748 3.1467264e-05
  Final line search alpha, max atom move = 1.0000000 3.1467264e-05
  Iterations, force evaluations = 168 336

MPI task timing breakdown:
Section |  min time  |  avg time  |  max time  |%varavg| %total
---------------------------------------------------------------
Pair    | 0.508      | 1.413      | 1.8758     |  32.2 | 71.12
Neigh   | 0          | 0          | 0          |   0.0 |  0.00
Comm    | 0.030735   | 0.32214    | 0.95467    |  46.7 | 16.21
Output  | 0          | 0          | 0          |   0.0 |  0.00
Modify  | 2.0774e-05 | 0.0027673  | 0.0059177  |   2.5 |  0.14
Other   |            | 0.2489     |            |       | 12.53

Nlocal:        2776.45 ave        3959 max           0 min
Histogram: 8 4 4 0 4 12 8 2 28 34
Nghost:        3879.09 ave        5424 max         232 min
Histogram: 8 0 8 0 16 0 8 8 16 40
Neighs:        79213.5 ave      115395 max           0 min
Histogram: 8 4 4 0 10 6 8 8 24 32

Total # of neighbors = 8238202
Ave neighs/atom = 28.530471
Neighbor list builds = 0
Dangerous builds = 0
The dot product: 1.38316974416923e-09
Setting atom values ...
  1 settings made for x
  1 settings made for y
  1 settings made for z
Setting up cg style minimization ...
  Unit style    : metal
  Current step  : 1869
Per MPI rank memory allocation (min/avg/max) = 5.441 | 5.816 | 6.074 Mbytes
Step PotEng KinEng TotEng v_fx v_fy v_fz 
    1869   -1152448.9            0   -1152448.9  0.077343993  0.039836191 0.0076524704 
    2000   -1152448.9            0   -1152448.9 -2.594376e-05 -2.5082079e-06 -3.3991954e-06 
    2030   -1152448.9            0   -1152448.9 3.7747435e-05 2.7103634e-06 5.0177363e-06 
Loop time of 1.88605 on 104 procs for 161 steps with 288751 atoms

99.9% CPU use with 104 MPI tasks x 1 OpenMP threads

Minimization stats:
  Stopping criterion = energy tolerance
  Energy initial, next-to-last, final = 
      -1152448.9468092  -1152448.94901701  -1152448.94901701
  Force two-norm initial, final = 0.21378718 0.00022145954
  Force max component initial, final = 0.10037178 7.5474782e-05
  Final line search alpha, max atom move = 1.0000000 7.5474782e-05
  Iterations, force evaluations = 161 322

MPI task timing breakdown:
Section |  min time  |  avg time  |  max time  |%varavg| %total
---------------------------------------------------------------
Pair    | 0.48935    | 1.3591     | 1.7789     |  31.6 | 72.06
Neigh   | 0          | 0          | 0          |   0.0 |  0.00
Comm    | 0.03032    | 0.30724    | 0.92573    |  46.5 | 16.29
Output  | 9.2654e-05 | 9.6743e-05 | 0.00021618 |   0.0 |  0.01
Modify  | 2.0942e-05 | 0.0026519  | 0.0056858  |   2.4 |  0.14
Other   |            | 0.217      |            |       | 11.51

Nlocal:        2776.45 ave        3960 max           0 min
Histogram: 8 4 4 0 4 12 8 2 28 34
Nghost:        3879.09 ave        5424 max         232 min
Histogram: 8 0 8 0 16 0 8 8 16 40
Neighs:        79213.5 ave      115446 max           0 min
Histogram: 8 4 4 0 10 6 8 8 24 32

Total # of neighbors = 8238202
Ave neighs/atom = 28.530471
Neighbor list builds = 0
Dangerous builds = 0
The dot product: 2.886703246731e-07
Setting atom values ...
  1 settings made for x
  1 settings made for y
  1 settings made for z
Setting up cg style minimization ...
  Unit style    : metal
  Current step  : 2030
Per MPI rank memory allocation (min/avg/max) = 5.441 | 5.816 | 6.074 Mbytes
Step PotEng KinEng TotEng v_fx v_fy v_fz 
    2030   -1152448.9            0   -1152448.9  0.082458394  0.040432735 0.0050836182 
    2192   -1152448.9            0   -1152448.9 1.2911872e-05 2.1369973e-06 1.1723443e-06 
Loop time of 1.90375 on 104 procs for 162 steps with 288751 atoms

99.9% CPU use with 104 MPI tasks x 1 OpenMP threads

Minimization stats:
  Stopping criterion = energy tolerance
  Energy initial, next-to-last, final = 
     -1152448.94180341   -1152448.9439564   -1152448.9439564
  Force two-norm initial, final = 0.21258172 0.00018513558
  Force max component initial, final = 0.096573265 2.4748142e-05
  Final line search alpha, max atom move = 1.0000000 2.4748142e-05
  Iterations, force evaluations = 162 324

MPI task timing breakdown:
Section |  min time  |  avg time  |  max time  |%varavg| %total
---------------------------------------------------------------
Pair    | 0.49023    | 1.3657     | 1.7923     |  31.6 | 71.74
Neigh   | 0          | 0          | 0          |   0.0 |  0.00
Comm    | 0.03179    | 0.31271    | 0.93012    |  46.2 | 16.43
Output  | 0          | 0          | 0          |   0.0 |  0.00
Modify  | 2.0971e-05 | 0.0026691  | 0.0057049  |   2.4 |  0.14
Other   |            | 0.2227     |            |       | 11.70

Nlocal:        2776.45 ave        3960 max           0 min
Histogram: 8 4 4 0 4 12 8 2 28 34
Nghost:        3879.12 ave        5424 max         232 min
Histogram: 8 0 8 0 16 0 8 8 16 40
Neighs:        79213.5 ave      115446 max           0 min
Histogram: 8 4 4 0 10 6 8 8 24 32

Total # of neighbors = 8238207
Ave neighs/atom = 28.530488
Neighbor list builds = 0
Dangerous builds = 0
The dot product: 1.05953213373893e-07
Setting atom values ...
  1 settings made for x
  1 settings made for y
  1 settings made for z
Setting up cg style minimization ...
  Unit style    : metal
  Current step  : 2192
Per MPI rank memory allocation (min/avg/max) = 5.441 | 5.816 | 6.074 Mbytes
Step PotEng KinEng TotEng v_fx v_fy v_fz 
    2192   -1152448.9            0   -1152448.9  0.084297531  0.041283286 0.0020453726 
    2402   -1152448.9            0   -1152448.9 -4.6658447e-06 -1.1874171e-06 -2.2600816e-07 
Loop time of 2.47765 on 104 procs for 210 steps with 288751 atoms

99.9% CPU use with 104 MPI tasks x 1 OpenMP threads

Minimization stats:
  Stopping criterion = energy tolerance
  Energy initial, next-to-last, final = 
     -1152448.93603445   -1152448.9380861   -1152448.9380861
  Force two-norm initial, final = 0.21047823 6.1789444e-05
  Force max component initial, final = 0.092401522 7.7165393e-06
  Final line search alpha, max atom move = 1.0000000 7.7165393e-06
  Iterations, force evaluations = 210 420

MPI task timing breakdown:
Section |  min time  |  avg time  |  max time  |%varavg| %total
---------------------------------------------------------------
Pair    | 0.63799    | 1.7622     | 2.3229     |  35.8 | 71.12
Neigh   | 0          | 0          | 0          |   0.0 |  0.00
Comm    | 0.039643   | 0.40137    | 1.1892     |  52.4 | 16.20
Output  | 0          | 0          | 0          |   0.0 |  0.00
Modify  | 2.6493e-05 | 0.0034555  | 0.0073796  |   2.8 |  0.14
Other   |            | 0.3106     |            |       | 12.54

Nlocal:        2776.45 ave        3960 max           0 min
Histogram: 8 4 4 0 4 12 8 2 28 34
Nghost:        3879.12 ave        5424 max         232 min
Histogram: 8 0 8 0 16 0 8 8 16 40
Neighs:        79213.5 ave      115446 max           0 min
Histogram: 8 4 4 0 10 6 8 8 24 32

Total # of neighbors = 8238203
Ave neighs/atom = 28.530474
Neighbor list builds = 0
Dangerous builds = 0
The dot product: -3.54613028732351e-08
Setting atom values ...
  1 settings made for x
  1 settings made for y
  1 settings made for z
Setting up cg style minimization ...
  Unit style    : metal
  Current step  : 2402
Per MPI rank memory allocation (min/avg/max) = 5.441 | 5.816 | 6.074 Mbytes
Step PotEng KinEng TotEng v_fx v_fy v_fz 
    2402   -1152448.9            0   -1152448.9  0.083953548  0.041737948 -0.00070879178 
    2554   -1152448.9            0   -1152448.9 3.8403963e-05 4.2856996e-06 1.4097866e-06 
Loop time of 1.78957 on 104 procs for 152 steps with 288751 atoms

99.9% CPU use with 104 MPI tasks x 1 OpenMP threads

Minimization stats:
  Stopping criterion = energy tolerance
  Energy initial, next-to-last, final = 
     -1152448.92939775  -1152448.93135557  -1152448.93135557
  Force two-norm initial, final = 0.20813076 0.00022369355
  Force max component initial, final = 0.088800523 7.9124073e-05
  Final line search alpha, max atom move = 1.0000000 7.9124073e-05
  Iterations, force evaluations = 152 304

MPI task timing breakdown:
Section |  min time  |  avg time  |  max time  |%varavg| %total
---------------------------------------------------------------
Pair    | 0.46095    | 1.2836     | 1.677      |  30.7 | 71.73
Neigh   | 0          | 0          | 0          |   0.0 |  0.00
Comm    | 0.029388   | 0.29221    | 0.86901    |  44.9 | 16.33
Output  | 0          | 0          | 0          |   0.0 |  0.00
Modify  | 1.9553e-05 | 0.0025102  | 0.0053561  |   2.4 |  0.14
Other   |            | 0.2113     |            |       | 11.80

Nlocal:        2776.45 ave        3961 max           0 min
Histogram: 8 4 4 0 6 10 8 2 28 34
Nghost:        3879.12 ave        5424 max         232 min
Histogram: 8 0 8 0 16 0 8 8 16 40
Neighs:        79213.5 ave      115469 max           0 min
Histogram: 8 4 4 0 10 6 8 8 24 32

Total # of neighbors = 8238200
Ave neighs/atom = 28.530464
Neighbor list builds = 0
Dangerous builds = 0
The dot product: 2.47277086486608e-07
Setting atom values ...
  1 settings made for x
  1 settings made for y
  1 settings made for z
Setting up cg style minimization ...
  Unit style    : metal
  Current step  : 2554
Per MPI rank memory allocation (min/avg/max) = 5.441 | 5.816 | 6.074 Mbytes
Step PotEng KinEng TotEng v_fx v_fy v_fz 
    2554   -1152448.9            0   -1152448.9  0.083290496  0.034155408 -0.0020819784 
    2711   -1152448.9            0   -1152448.9 -1.7010398e-05 -4.2151817e-06 6.2258642e-08 
Loop time of 1.84166 on 104 procs for 157 steps with 288751 atoms

99.9% CPU use with 104 MPI tasks x 1 OpenMP threads

Minimization stats:
  Stopping criterion = energy tolerance
  Energy initial, next-to-last, final = 
     -1152448.92168995  -1152448.92357318  -1152448.92357318
  Force two-norm initial, final = 0.20431912 0.00017774348
  Force max component initial, final = 0.085605127 1.7010398e-05
  Final line search alpha, max atom move = 1.0000000 1.7010398e-05
  Iterations, force evaluations = 157 314

MPI task timing breakdown:
Section |  min time  |  avg time  |  max time  |%varavg| %total
---------------------------------------------------------------
Pair    | 0.47545    | 1.3209     | 1.7361     |  31.1 | 71.72
Neigh   | 0          | 0          | 0          |   0.0 |  0.00
Comm    | 0.028249   | 0.29813    | 0.88951    |  45.5 | 16.19
Output  | 0          | 0          | 0          |   0.0 |  0.00
Modify  | 2.0087e-05 | 0.0025869  | 0.0055276  |   2.4 |  0.14
Other   |            | 0.2201     |            |       | 11.95

Nlocal:        2776.45 ave        3961 max           0 min
Histogram: 8 4 4 0 6 10 8 2 28 34
Nghost:        3879.12 ave        5424 max         232 min
Histogram: 8 0 8 0 16 0 8 8 16 40
Neighs:        79213.5 ave      115469 max           0 min
Histogram: 8 4 4 0 10 6 8 8 24 32

Total # of neighbors = 8238200
Ave neighs/atom = 28.530464
Neighbor list builds = 0
Dangerous builds = 0
The dot product: -9.97869986157768e-08
Setting atom values ...
  1 settings made for x
  1 settings made for y
  1 settings made for z
Setting up cg style minimization ...
  Unit style    : metal
  Current step  : 2711
Per MPI rank memory allocation (min/avg/max) = 5.441 | 5.816 | 6.074 Mbytes
Step PotEng KinEng TotEng v_fx v_fy v_fz 
    2711   -1152448.9            0   -1152448.9  0.082639999  0.024676557 -0.0024698811 
    2894   -1152448.9            0   -1152448.9 -1.9603337e-06 -6.8514211e-07 7.2489357e-08 
Loop time of 2.14536 on 104 procs for 183 steps with 288751 atoms

99.9% CPU use with 104 MPI tasks x 1 OpenMP threads

Minimization stats:
  Stopping criterion = energy tolerance
  Energy initial, next-to-last, final = 
     -1152448.91264143  -1152448.91451075  -1152448.91451075
  Force two-norm initial, final = 0.20163278 8.5664352e-05
  Force max component initial, final = 0.083563186 1.9661513e-05
  Final line search alpha, max atom move = 1.0000000 1.9661513e-05
  Iterations, force evaluations = 183 366

MPI task timing breakdown:
Section |  min time  |  avg time  |  max time  |%varavg| %total
---------------------------------------------------------------
Pair    | 0.55403    | 1.5444     | 2.0199     |  33.7 | 71.99
Neigh   | 0          | 0          | 0          |   0.0 |  0.00
Comm    | 0.034266   | 0.34977    | 1.0425     |  49.5 | 16.30
Output  | 0          | 0          | 0          |   0.0 |  0.00
Modify  | 2.3555e-05 | 0.0030124  | 0.0064506  |   2.6 |  0.14
Other   |            | 0.2482     |            |       | 11.57

Nlocal:        2776.45 ave        3961 max           0 min
Histogram: 8 4 4 0 6 10 8 2 28 34
Nghost:        3879.12 ave        5424 max         232 min
Histogram: 8 0 8 0 16 0 8 8 16 40
Neighs:        79213.4 ave      115469 max           0 min
Histogram: 8 4 4 0 10 6 8 8 24 32

Total # of neighbors = 8238197
Ave neighs/atom = 28.530454
Neighbor list builds = 0
Dangerous builds = 0
The dot product: -9.58575246689277e-09
Setting atom values ...
  1 settings made for x
  1 settings made for y
  1 settings made for z
Setting up cg style minimization ...
  Unit style    : metal
  Current step  : 2894
Per MPI rank memory allocation (min/avg/max) = 5.441 | 5.816 | 6.074 Mbytes
Step PotEng KinEng TotEng v_fx v_fy v_fz 
    2894   -1152448.9            0   -1152448.9  0.082321908  0.019696992 -0.0029952584 
    3000   -1152448.9            0   -1152448.9 0.00030442672 6.0514172e-05 -9.3335438e-06 
    3060   -1152448.9            0   -1152448.9 -3.8021582e-05 -7.4916989e-06 1.1563495e-06 
Loop time of 1.93194 on 104 procs for 166 steps with 288751 atoms

99.9% CPU use with 104 MPI tasks x 1 OpenMP threads

Minimization stats:
  Stopping criterion = energy tolerance
  Energy initial, next-to-last, final = 
     -1152448.90222662  -1152448.90408961  -1152448.90408961
  Force two-norm initial, final = 0.20024212 0.00014503074
  Force max component initial, final = 0.082821682 3.8021582e-05
  Final line search alpha, max atom move = 1.0000000 3.8021582e-05
  Iterations, force evaluations = 166 332

MPI task timing breakdown:
Section |  min time  |  avg time  |  max time  |%varavg| %total
---------------------------------------------------------------
Pair    | 0.50159    | 1.394      | 1.8148     |  31.9 | 72.15
Neigh   | 0          | 0          | 0          |   0.0 |  0.00
Comm    | 0.030257   | 0.31336    | 0.94129    |  47.1 | 16.22
Output  | 9.5129e-05 | 0.00010228 | 0.00022111 |   0.0 |  0.01
Modify  | 2.0995e-05 | 0.0027332  | 0.0058364  |   2.5 |  0.14
Other   |            | 0.2218     |            |       | 11.48

Nlocal:        2776.45 ave        3961 max           0 min
Histogram: 8 4 4 0 6 10 8 2 28 34
Nghost:        3879.11 ave        5424 max         232 min
Histogram: 8 0 8 0 16 0 8 8 16 40
Neighs:        79213.5 ave      115470 max           0 min
Histogram: 8 4 4 0 10 6 8 8 24 32

Total # of neighbors = 8238199
Ave neighs/atom = 28.530461
Neighbor list builds = 0
Dangerous builds = 0
The dot product: -1.52096155348185e-07
Setting atom values ...
  1 settings made for x
  1 settings made for y
  1 settings made for z
Setting up cg style minimization ...
  Unit style    : metal
  Current step  : 3060
Per MPI rank memory allocation (min/avg/max) = 5.441 | 5.816 | 6.074 Mbytes
Step PotEng KinEng TotEng v_fx v_fy v_fz 
    3060   -1152448.9            0   -1152448.9  0.081729225  0.016477484 -0.0034835645 
    3259   -1152448.9            0   -1152448.9 2.5737274e-05 4.4554126e-06 -9.9344492e-07 
Loop time of 2.35765 on 104 procs for 199 steps with 288751 atoms

99.9% CPU use with 104 MPI tasks x 1 OpenMP threads

Minimization stats:
  Stopping criterion = energy tolerance
  Energy initial, next-to-last, final = 
     -1152448.89045288  -1152448.89232963  -1152448.89232963
  Force two-norm initial, final = 0.19928038 7.7009813e-05
  Force max component initial, final = 0.084482773 2.5737274e-05
  Final line search alpha, max atom move = 1.0000000 2.5737274e-05
  Iterations, force evaluations = 199 398

MPI task timing breakdown:
Section |  min time  |  avg time  |  max time  |%varavg| %total
---------------------------------------------------------------
Pair    | 0.60284    | 1.676      | 2.2173     |  35.2 | 71.09
Neigh   | 0          | 0          | 0          |   0.0 |  0.00
Comm    | 0.034747   | 0.38668    | 1.1404     |  50.4 | 16.40
Output  | 0          | 0          | 0          |   0.0 |  0.00
Modify  | 2.5359e-05 | 0.0032799  | 0.0070226  |   2.7 |  0.14
Other   |            | 0.2917     |            |       | 12.37

Nlocal:        2776.45 ave        3960 max           0 min
Histogram: 8 4 4 0 4 12 8 2 28 34
Nghost:        3879.12 ave        5425 max         232 min
Histogram: 8 0 8 0 16 0 8 8 16 40
Neighs:        79213.5 ave      115443 max           0 min
Histogram: 8 4 4 0 10 6 8 8 24 32

Total # of neighbors = 8238200
Ave neighs/atom = 28.530464
Neighbor list builds = 0
Dangerous builds = 0
The dot product: 6.6915083338005e-08
Setting atom values ...
  1 settings made for x
  1 settings made for y
  1 settings made for z
Setting up cg style minimization ...
  Unit style    : metal
  Current step  : 3259
Per MPI rank memory allocation (min/avg/max) = 5.441 | 5.816 | 6.074 Mbytes
Step PotEng KinEng TotEng v_fx v_fy v_fz 
    3259   -1152448.9            0   -1152448.9  0.079931244  0.014123716 -0.0036936892 
    3500   -1152448.9            0   -1152448.9 -5.0790072e-06 -8.6055311e-07 2.2953707e-07 
Loop time of 2.83599 on 104 procs for 241 steps with 288751 atoms

99.9% CPU use with 104 MPI tasks x 1 OpenMP threads

Minimization stats:
  Stopping criterion = energy tolerance
  Energy initial, next-to-last, final = 
     -1152448.87739228  -1152448.87947964  -1152448.87947964
  Force two-norm initial, final = 0.19842071 2.8021139e-05
  Force max component initial, final = 0.08580042 6.0129634e-06
  Final line search alpha, max atom move = 1.0000000 6.0129634e-06
  Iterations, force evaluations = 241 482

MPI task timing breakdown:
Section |  min time  |  avg time  |  max time  |%varavg| %total
---------------------------------------------------------------
Pair    | 0.73225    | 2.0269     | 2.6686     |  38.5 | 71.47
Neigh   | 0          | 0          | 0          |   0.0 |  0.00
Comm    | 0.042279   | 0.46194    | 1.3726     |  56.4 | 16.29
Output  | 0          | 0          | 0          |   0.0 |  0.00
Modify  | 3.018e-05  | 0.0039737  | 0.0085718  |   3.0 |  0.14
Other   |            | 0.3432     |            |       | 12.10

Nlocal:        2776.45 ave        3960 max           0 min
Histogram: 8 4 4 0 4 12 8 2 28 34
Nghost:        3879.11 ave        5425 max         232 min
Histogram: 8 0 8 0 16 0 8 8 16 40
Neighs:        79213.4 ave      115442 max           0 min
Histogram: 8 4 4 0 10 6 8 8 24 32

Total # of neighbors = 8238198
Ave neighs/atom = 28.530457
Neighbor list builds = 0
Dangerous builds = 0
The dot product: 5.20186508947102e-08
Setting atom values ...
  1 settings made for x
  1 settings made for y
  1 settings made for z
Setting up cg style minimization ...
  Unit style    : metal
  Current step  : 3500
Per MPI rank memory allocation (min/avg/max) = 5.441 | 5.816 | 6.074 Mbytes
Step PotEng KinEng TotEng v_fx v_fy v_fz 
    3500   -1152448.9            0   -1152448.9  0.060692733   0.01396149 -0.0016411327 
    3652   -1152448.9            0   -1152448.9 4.9502844e-05 1.3152994e-05 -1.5830549e-06 
Loop time of 1.78429 on 104 procs for 152 steps with 288751 atoms

99.9% CPU use with 104 MPI tasks x 1 OpenMP threads

Minimization stats:
  Stopping criterion = energy tolerance
  Energy initial, next-to-last, final = 
     -1152448.86405297  -1152448.86656316  -1152448.86656316
  Force two-norm initial, final = 0.19409318 0.00027374245
  Force max component initial, final = 0.083668092 9.4935938e-05
  Final line search alpha, max atom move = 1.0000000 9.4935938e-05
  Iterations, force evaluations = 152 304

MPI task timing breakdown:
Section |  min time  |  avg time  |  max time  |%varavg| %total
---------------------------------------------------------------
Pair    | 0.46223    | 1.2834     | 1.6765     |  30.6 | 71.93
Neigh   | 0          | 0          | 0          |   0.0 |  0.00
Comm    | 0.02987    | 0.29281    | 0.87391    |  44.8 | 16.41
Output  | 0          | 0          | 0          |   0.0 |  0.00
Modify  | 1.9159e-05 | 0.0025105  | 0.0053812  |   2.4 |  0.14
Other   |            | 0.2056     |            |       | 11.52

Nlocal:        2776.45 ave        3960 max           0 min
Histogram: 8 4 4 0 4 12 8 2 28 34
Nghost:        3879.12 ave        5425 max         232 min
Histogram: 8 0 8 0 16 0 8 8 16 40
Neighs:        79213.4 ave      115441 max           0 min
Histogram: 8 4 4 0 10 6 8 8 24 32

Total # of neighbors = 8238192
Ave neighs/atom = 28.530436
Neighbor list builds = 0
Dangerous builds = 0
The dot product: -8.33546552886781e-07
Setting atom values ...
  1 settings made for x
  1 settings made for y
  1 settings made for z
Setting up cg style minimization ...
  Unit style    : metal
  Current step  : 3652
Per MPI rank memory allocation (min/avg/max) = 5.441 | 5.816 | 6.074 Mbytes
Step PotEng KinEng TotEng v_fx v_fy v_fz 
    3652   -1152448.9            0   -1152448.9  0.051957689  0.012974119 0.00060723823 
    3855   -1152448.9            0   -1152448.9 3.5413615e-05 7.0607925e-06 6.550803e-07 
Loop time of 2.41269 on 104 procs for 203 steps with 288751 atoms

99.9% CPU use with 104 MPI tasks x 1 OpenMP threads

Minimization stats:
  Stopping criterion = energy tolerance
  Energy initial, next-to-last, final = 
     -1152448.85042079  -1152448.85252668  -1152448.85252668
  Force two-norm initial, final = 0.19512522 0.00010438483
  Force max component initial, final = 0.087673002 3.5413615e-05
  Final line search alpha, max atom move = 1.0000000 3.5413615e-05
  Iterations, force evaluations = 203 406

MPI task timing breakdown:
Section |  min time  |  avg time  |  max time  |%varavg| %total
---------------------------------------------------------------
Pair    | 0.61581    | 1.7114     | 2.2614     |  35.6 | 70.93
Neigh   | 0          | 0          | 0          |   0.0 |  0.00
Comm    | 0.035958   | 0.39085    | 1.1463     |  50.8 | 16.20
Output  | 0          | 0          | 0          |   0.0 |  0.00
Modify  | 2.5354e-05 | 0.0033395  | 0.0071151  |   2.7 |  0.14
Other   |            | 0.3071     |            |       | 12.73

Nlocal:        2776.45 ave        3960 max           0 min
Histogram: 8 4 4 0 4 12 8 2 28 34
Nghost:        3879.12 ave        5425 max         232 min
Histogram: 8 0 8 0 16 0 8 8 16 40
Neighs:        79213.4 ave      115440 max           0 min
Histogram: 8 4 4 0 10 6 8 8 24 32

Total # of neighbors = 8238193
Ave neighs/atom = 28.530440
Neighbor list builds = 0
Dangerous builds = 0
The dot product: -4.03913692402028e-07
Setting atom values ...
  1 settings made for x
  1 settings made for y
  1 settings made for z
Setting up cg style minimization ...
  Unit style    : metal
  Current step  : 3855
Per MPI rank memory allocation (min/avg/max) = 5.441 | 5.816 | 6.074 Mbytes
Step PotEng KinEng TotEng v_fx v_fy v_fz 
    3855   -1152448.8            0   -1152448.8  0.060450708  0.011001389 0.0028771247 
    4000   -1152448.8            0   -1152448.8 -8.5271916e-05 -1.6138627e-05 -3.9772709e-06 
    4051   -1152448.8            0   -1152448.8 2.3786788e-05 4.3211795e-06 1.1331385e-06 
Loop time of 2.29857 on 104 procs for 196 steps with 288751 atoms

99.9% CPU use with 104 MPI tasks x 1 OpenMP threads

Minimization stats:
  Stopping criterion = energy tolerance
  Energy initial, next-to-last, final = 
     -1152448.83501899  -1152448.83712715  -1152448.83712715
  Force two-norm initial, final = 0.1996348 0.00011166664
  Force max component initial, final = 0.092342405 2.3786788e-05
  Final line search alpha, max atom move = 1.0000000 2.3786788e-05
  Iterations, force evaluations = 196 392

MPI task timing breakdown:
Section |  min time  |  avg time  |  max time  |%varavg| %total
---------------------------------------------------------------
Pair    | 0.59528    | 1.6548     | 2.1645     |  34.8 | 71.99
Neigh   | 0          | 0          | 0          |   0.0 |  0.00
Comm    | 0.044465   | 0.3783     | 1.1312     |  51.0 | 16.46
Output  | 9.6094e-05 | 0.00011479 | 0.00024496 |   0.0 |  0.00
Modify  | 2.4339e-05 | 0.0032345  | 0.0069167  |   2.7 |  0.14
Other   |            | 0.2621     |            |       | 11.40

Nlocal:        2776.45 ave        3960 max           0 min
Histogram: 8 4 4 0 4 12 8 2 28 34
Nghost:        3879.20 ave        5425 max         232 min
Histogram: 8 0 8 0 16 0 8 8 16 40
Neighs:        79213.4 ave      115440 max           0 min
Histogram: 8 4 4 0 10 6 8 8 24 32

Total # of neighbors = 8238191
Ave neighs/atom = 28.530433
Neighbor list builds = 0
Dangerous builds = 0
The dot product: -2.68681133955889e-07
Setting atom values ...
  1 settings made for x
  1 settings made for y
  1 settings made for z
Setting up cg style minimization ...
  Unit style    : metal
  Current step  : 4051
Per MPI rank memory allocation (min/avg/max) = 5.441 | 5.816 | 6.074 Mbytes
Step PotEng KinEng TotEng v_fx v_fy v_fz 
    4051   -1152448.8            0   -1152448.8   0.06088922   0.00819704 0.0048039944 
    4238   -1152448.8            0   -1152448.8 -1.0731356e-05 -6.6367296e-07 -9.4394544e-07 
Loop time of 2.19159 on 104 procs for 187 steps with 288751 atoms

99.9% CPU use with 104 MPI tasks x 1 OpenMP threads

Minimization stats:
  Stopping criterion = energy tolerance
  Energy initial, next-to-last, final = 
     -1152448.81836706  -1152448.82041956  -1152448.82041956
  Force two-norm initial, final = 0.20168334 0.00011687521
  Force max component initial, final = 0.09682209 2.5653576e-05
  Final line search alpha, max atom move = 1.0000000 2.5653576e-05
  Iterations, force evaluations = 187 374

MPI task timing breakdown:
Section |  min time  |  avg time  |  max time  |%varavg| %total
---------------------------------------------------------------
Pair    | 0.56615    | 1.5697     | 2.0673     |  33.9 | 71.62
Neigh   | 0          | 0          | 0          |   0.0 |  0.00
Comm    | 0.034024   | 0.35579    | 1.0596     |  49.6 | 16.23
Output  | 0          | 0          | 0          |   0.0 |  0.00
Modify  | 2.3187e-05 | 0.0030727  | 0.0065848  |   2.6 |  0.14
Other   |            | 0.263      |            |       | 12.00

Nlocal:        2776.45 ave        3960 max           0 min
Histogram: 8 4 4 0 4 12 8 2 28 34
Nghost:        3879.20 ave        5425 max         232 min
Histogram: 8 0 8 0 16 0 8 8 16 40
Neighs:        79213.4 ave      115433 max           0 min
Histogram: 8 4 4 0 10 6 8 8 24 32

Total # of neighbors = 8238191
Ave neighs/atom = 28.530433
Neighbor list builds = 0
Dangerous builds = 0
The dot product: 6.97087018810536e-08
Setting atom values ...
  1 settings made for x
  1 settings made for y
  1 settings made for z
Setting up cg style minimization ...
  Unit style    : metal
  Current step  : 4238
Per MPI rank memory allocation (min/avg/max) = 5.441 | 5.816 | 6.074 Mbytes
Step PotEng KinEng TotEng v_fx v_fy v_fz 
    4238   -1152448.8            0   -1152448.8  0.069113485 0.0084920248 0.0065418553 
    4417   -1152448.8            0   -1152448.8 -2.3712787e-05 -4.552275e-06 -2.0483904e-06 
Loop time of 2.12922 on 104 procs for 179 steps with 288751 atoms

99.9% CPU use with 104 MPI tasks x 1 OpenMP threads

Minimization stats:
  Stopping criterion = energy tolerance
  Energy initial, next-to-last, final = 
     -1152448.80027809  -1152448.80227718  -1152448.80227718
  Force two-norm initial, final = 0.20542342 0.00012429433
  Force max component initial, final = 0.099365708 2.3712787e-05
  Final line search alpha, max atom move = 1.0000000 2.3712787e-05
  Iterations, force evaluations = 179 358

MPI task timing breakdown:
Section |  min time  |  avg time  |  max time  |%varavg| %total
---------------------------------------------------------------
Pair    | 0.54157    | 1.5101     | 1.9783     |  33.3 | 70.92
Neigh   | 0          | 0          | 0          |   0.0 |  0.00
Comm    | 0.035203   | 0.34798    | 1.0477     |  48.4 | 16.34
Output  | 0          | 0          | 0          |   0.0 |  0.00
Modify  | 2.2733e-05 | 0.0029456  | 0.006339   |   2.6 |  0.14
Other   |            | 0.2682     |            |       | 12.60

Nlocal:        2776.45 ave        3960 max           0 min
Histogram: 8 4 4 0 4 12 8 2 28 34
Nghost:        3879.12 ave        5425 max         232 min
Histogram: 8 0 8 0 16 0 8 8 16 40
Neighs:        79213.4 ave      115433 max           0 min
Histogram: 8 4 4 0 10 6 8 8 24 32

Total # of neighbors = 8238190
Ave neighs/atom = 28.530429
Neighbor list builds = 0
Dangerous builds = 0
The dot product: 8.22867732989279e-08
Setting atom values ...
  1 settings made for x
  1 settings made for y
  1 settings made for z
Setting up cg style minimization ...
  Unit style    : metal
  Current step  : 4417
Per MPI rank memory allocation (min/avg/max) = 5.441 | 5.816 | 6.074 Mbytes
Step PotEng KinEng TotEng v_fx v_fy v_fz 
    4417   -1152448.8            0   -1152448.8  0.075546527 0.0087507389 0.0077348938 
    4730   -1152448.8            0   -1152448.8 -2.7354381e-07 -4.676545e-08 -2.625845e-08 
Loop time of 3.64315 on 104 procs for 313 steps with 288751 atoms

99.9% CPU use with 104 MPI tasks x 1 OpenMP threads

Minimization stats:
  Stopping criterion = energy tolerance
  Energy initial, next-to-last, final = 
     -1152448.78075605  -1152448.78267683  -1152448.78267683
  Force two-norm initial, final = 0.20808111 1.3705129e-06
  Force max component initial, final = 0.10062885 3.9661157e-07
  Final line search alpha, max atom move = 1.0000000 3.9661157e-07
  Iterations, force evaluations = 313 626

MPI task timing breakdown:
Section |  min time  |  avg time  |  max time  |%varavg| %total
---------------------------------------------------------------
Pair    | 0.94272    | 2.6254     | 3.4309     |  43.8 | 72.06
Neigh   | 0          | 0          | 0          |   0.0 |  0.00
Comm    | 0.057846   | 0.5911     | 1.768      |  64.4 | 16.22
Output  | 0          | 0          | 0          |   0.0 |  0.00
Modify  | 3.9023e-05 | 0.0051426  | 0.010994   |   3.4 |  0.14
Other   |            | 0.4215     |            |       | 11.57

Nlocal:        2776.45 ave        3960 max           0 min
Histogram: 8 4 4 0 4 12 8 2 28 34
Nghost:        3879.12 ave        5424 max         232 min
Histogram: 8 0 8 0 16 0 8 8 16 40
Neighs:        79213.3 ave      115426 max           0 min
Histogram: 8 4 4 0 10 6 8 8 24 32

Total # of neighbors = 8238188
Ave neighs/atom = 28.530422
Neighbor list builds = 0
Dangerous builds = 0
The dot product: -6.94148426896106e-11
Setting up cg style minimization ...
  Unit style    : metal
  Current step  : 4730
Per MPI rank memory allocation (min/avg/max) = 5.441 | 5.816 | 6.074 Mbytes
Step PotEng KinEng TotEng v_fx v_fy v_fz 
    4730   -1152448.8            0   -1152448.8   0.11636493   -0.1164999   -1.0047361 
    5000     -1152449            0     -1152449 -4.0033184e-05 -3.0372794e-06 4.4588367e-05 
    5044     -1152449            0     -1152449 -3.5246332e-05 -4.4104614e-06 3.5901117e-05 
Loop time of 3.75974 on 104 procs for 314 steps with 288751 atoms

99.9% CPU use with 104 MPI tasks x 1 OpenMP threads

Minimization stats:
  Stopping criterion = energy tolerance
  Energy initial, next-to-last, final = 
     -1152448.78267683  -1152448.97218898  -1152448.97218898
  Force two-norm initial, final = 1.0181393 0.00014344377
  Force max component initial, final = 1.0047361 3.5901117e-05
  Final line search alpha, max atom move = 1.0000000 3.5901117e-05
  Iterations, force evaluations = 314 628

MPI task timing breakdown:
Section |  min time  |  avg time  |  max time  |%varavg| %total
---------------------------------------------------------------
Pair    | 0.97335    | 2.6499     | 3.4985     |  43.7 | 70.48
Neigh   | 6.0756e-05 | 0.017761   | 0.025763   |   5.5 |  0.47
Comm    | 0.065333   | 0.61288    | 1.7973     |  62.9 | 16.30
Output  | 9.88e-05   | 0.00010595 | 0.0002642  |   0.0 |  0.00
Modify  | 3.7458e-05 | 0.0033667  | 0.0086644  |   3.6 |  0.09
Other   |            | 0.4758     |            |       | 12.65

Nlocal:        2776.45 ave        3957 max           0 min
Histogram: 8 4 4 0 4 12 8 2 28 34
Nghost:        3879.09 ave        5423 max         232 min
Histogram: 8 0 8 0 16 0 8 8 16 40
Neighs:        79213.6 ave      115303 max           0 min
Histogram: 8 4 4 0 10 6 8 8 24 32

Total # of neighbors = 8238210
Ave neighs/atom = 28.530499
Neighbor list builds = 6
Dangerous builds = 0
OMP_NUM_THREADS environment is not set. Defaulting to 1 thread. (../comm.cpp:94)
  using 1 OpenMP thread(s) per MPI task
Reading data file ...
  orthogonal box = (-122.39241 -121.13707 -37.090501) to (122.39241 121.13707 37.090501)
  13 by 4 by 2 MPI processor grid
  reading atoms ...
  288751 atoms
  read_data CPU = 0.341 seconds
199981 atoms in group inner
88770 atoms in group outer
1 atoms in group carbon
Neighbor list info ...
  update every 1 steps, delay 0 steps, check yes
  max neighbors/atom: 2000, page size: 100000
  master list distance cutoff = 5.6
  ghost atom cutoff = 5.6
  binsize = 2.8, bins = 88 87 27
  1 neighbor lists, perpetual/occasional/extra = 1 0 0
  (1) pair eam/alloy, perpetual
      attributes: half, newton on
      pair build: half/bin/atomonly/newton
      stencil: half/bin/3d/newton
      bin: standard
Setting up cg style minimization ...
  Unit style    : metal
  Current step  : 0
Per MPI rank memory allocation (min/avg/max) = 5.441 | 5.816 | 6.074 Mbytes
Step v_fx v_fy v_fz PotEng KinEng TotEng 
       0   -26.388923  -0.83356811    7.7948751   -1152441.8            0   -1152441.8 
     233 -2.8142977e-05 -2.8621782e-06 3.0503845e-05     -1152449            0     -1152449 
Loop time of 2.73358 on 104 procs for 233 steps with 288751 atoms

99.9% CPU use with 104 MPI tasks x 1 OpenMP threads

Minimization stats:
  Stopping criterion = energy tolerance
  Energy initial, next-to-last, final = 
     -1152441.80747462  -1152448.97218898  -1152448.97218898
  Force two-norm initial, final = 45.148443 0.00013958709
  Force max component initial, final = 34.040460 4.2720909e-05
  Final line search alpha, max atom move = 1.0000000 4.2720909e-05
  Iterations, force evaluations = 233 462

MPI task timing breakdown:
Section |  min time  |  avg time  |  max time  |%varavg| %total
---------------------------------------------------------------
Pair    | 0.73412    | 1.9514     | 2.5342     |  36.7 | 71.38
Neigh   | 9.1098e-05 | 0.026601   | 0.038446   |   6.7 |  0.97
Comm    | 0.044546   | 0.44285    | 1.3296     |  55.1 | 16.20
Output  | 0          | 0          | 0          |   0.0 |  0.00
Modify  | 2.5828e-05 | 0.0024834  | 0.0063716  |   3.1 |  0.09
Other   |            | 0.3103     |            |       | 11.35

Nlocal:        2776.45 ave        3955 max           0 min
Histogram: 8 4 4 0 4 12 8 0 30 34
Nghost:        3879.07 ave        5424 max         232 min
Histogram: 8 0 8 0 16 0 8 8 16 40
Neighs:        79213.5 ave      115256 max           0 min
Histogram: 8 4 4 0 10 6 8 8 24 32

Total # of neighbors = 8238208
Ave neighs/atom = 28.530492
Neighbor list builds = 9
Dangerous builds = 0
Setting atom values ...
  1 settings made for x
  1 settings made for y
  1 settings made for z
Setting up cg style minimization ...
  Unit style    : metal
  Current step  : 233
Per MPI rank memory allocation (min/avg/max) = 5.441 | 5.816 | 6.074 Mbytes
Step PotEng KinEng TotEng v_fx v_fy v_fz 
     233     -1152449            0     -1152449 -0.0022647365 -0.0068028773 0.0054042963 
     370     -1152449            0     -1152449 9.3809279e-06 1.4039311e-06 -7.6724667e-06 
Loop time of 1.60407 on 104 procs for 137 steps with 288751 atoms

99.9% CPU use with 104 MPI tasks x 1 OpenMP threads

Minimization stats:
  Stopping criterion = energy tolerance
  Energy initial, next-to-last, final = 
     -1152448.97199437  -1152448.97214221  -1152448.97214221
  Force two-norm initial, final = 0.049373037 0.00012121153
  Force max component initial, final = 0.027758508 9.3809279e-06
  Final line search alpha, max atom move = 1.0000000 9.3809279e-06
  Iterations, force evaluations = 137 274

MPI task timing breakdown:
Section |  min time  |  avg time  |  max time  |%varavg| %total
---------------------------------------------------------------
Pair    | 0.4141     | 1.1581     | 1.5035     |  29.1 | 72.20
Neigh   | 0          | 0          | 0          |   0.0 |  0.00
Comm    | 0.025445   | 0.26092    | 0.78321    |  42.4 | 16.27
Output  | 0          | 0          | 0          |   0.0 |  0.00
Modify  | 1.7835e-05 | 0.0022574  | 0.0048107  |   2.2 |  0.14
Other   |            | 0.1827     |            |       | 11.39

Nlocal:        2776.45 ave        3956 max           0 min
Histogram: 8 4 4 0 4 12 8 0 30 34
Nghost:        3879.16 ave        5424 max         232 min
Histogram: 8 0 8 0 16 0 8 8 16 40
Neighs:        79213.5 ave      115276 max           0 min
Histogram: 8 4 4 0 10 6 8 8 24 32

Total # of neighbors = 8238206
Ave neighs/atom = 28.530485
Neighbor list builds = 0
Dangerous builds = 0
Setting atom values ...
  1 settings made for x
  1 settings made for y
  1 settings made for z
Setting up cg style minimization ...
  Unit style    : metal
  Current step  : 370
Per MPI rank memory allocation (min/avg/max) = 5.441 | 5.816 | 6.074 Mbytes
Step PotEng KinEng TotEng v_fx v_fy v_fz 
     370     -1152449            0     -1152449 -0.023931736  -0.02135325  0.020827582 
     511     -1152449            0     -1152449 -0.00010719183 -1.360119e-05 6.5563306e-05 
Loop time of 1.65008 on 104 procs for 141 steps with 288751 atoms

99.9% CPU use with 104 MPI tasks x 1 OpenMP threads

Minimization stats:
  Stopping criterion = energy tolerance
  Energy initial, next-to-last, final = 
     -1152448.96990077  -1152448.97149826  -1152448.97149826
  Force two-norm initial, final = 0.15802126 0.00034711335
  Force max component initial, final = 0.085911378 0.00010719183
  Final line search alpha, max atom move = 1.0000000 0.00010719183
  Iterations, force evaluations = 141 282

MPI task timing breakdown:
Section |  min time  |  avg time  |  max time  |%varavg| %total
---------------------------------------------------------------
Pair    | 0.42722    | 1.1857     | 1.5489     |  29.4 | 71.86
Neigh   | 0          | 0          | 0          |   0.0 |  0.00
Comm    | 0.024769   | 0.26853    | 0.80318    |  42.9 | 16.27
Output  | 0          | 0          | 0          |   0.0 |  0.00
Modify  | 1.693e-05  | 0.0023205  | 0.0049505  |   2.3 |  0.14
Other   |            | 0.1935     |            |       | 11.73

Nlocal:        2776.45 ave        3956 max           0 min
Histogram: 8 4 4 0 4 12 8 0 30 34
Nghost:        3879.16 ave        5424 max         232 min
Histogram: 8 0 8 0 16 0 8 8 16 40
Neighs:        79213.5 ave      115275 max           0 min
Histogram: 8 4 4 0 10 6 8 8 24 32

Total # of neighbors = 8238203
Ave neighs/atom = 28.530474
Neighbor list builds = 0
Dangerous builds = 0
The dot product: -2.11608906326173e-07
Setting atom values ...
  1 settings made for x
  1 settings made for y
  1 settings made for z
Setting up cg style minimization ...
  Unit style    : metal
  Current step  : 511
Per MPI rank memory allocation (min/avg/max) = 5.441 | 5.816 | 6.074 Mbytes
Step PotEng KinEng TotEng v_fx v_fy v_fz 
     511     -1152449            0     -1152449 -0.033783818 -0.013189218  0.019379599 
     713     -1152449            0     -1152449 3.5178486e-05 2.3995146e-06 -1.8241062e-05 
Loop time of 2.35286 on 104 procs for 202 steps with 288751 atoms

99.9% CPU use with 104 MPI tasks x 1 OpenMP threads

Minimization stats:
  Stopping criterion = energy tolerance
  Energy initial, next-to-last, final = 
     -1152448.96834448  -1152448.97050283  -1152448.97050283
  Force two-norm initial, final = 0.16487794 0.00021559965
  Force max component initial, final = 0.087156311 3.5178486e-05
  Final line search alpha, max atom move = 1.0000000 3.5178486e-05
  Iterations, force evaluations = 202 404

MPI task timing breakdown:
Section |  min time  |  avg time  |  max time  |%varavg| %total
---------------------------------------------------------------
Pair    | 0.61036    | 1.7031     | 2.2203     |  35.1 | 72.38
Neigh   | 0          | 0          | 0          |   0.0 |  0.00
Comm    | 0.034158   | 0.38348    | 1.1537     |  51.7 | 16.30
Output  | 0          | 0          | 0          |   0.0 |  0.00
Modify  | 2.5599e-05 | 0.003329   | 0.0071439  |   2.7 |  0.14
Other   |            | 0.263      |            |       | 11.18

Nlocal:        2776.45 ave        3956 max           0 min
Histogram: 8 4 4 0 4 12 8 0 30 34
Nghost:        3879.20 ave        5424 max         232 min
Histogram: 8 0 8 0 16 0 8 8 16 40
Neighs:        79213.5 ave      115256 max           0 min
Histogram: 8 4 4 0 10 6 8 8 24 32

Total # of neighbors = 8238201
Ave neighs/atom = 28.530467
Neighbor list builds = 0
Dangerous builds = 0
The dot product: 1.70678278427105e-07
Setting atom values ...
  1 settings made for x
  1 settings made for y
  1 settings made for z
Setting up cg style minimization ...
  Unit style    : metal
  Current step  : 713
Per MPI rank memory allocation (min/avg/max) = 5.441 | 5.816 | 6.074 Mbytes
Step PotEng KinEng TotEng v_fx v_fy v_fz 
     713     -1152449            0     -1152449 -0.038588778 -0.0081281749  0.015604137 
     955     -1152449            0     -1152449 -6.6933288e-05 -1.7712336e-06 2.7459107e-05 
Loop time of 2.81529 on 104 procs for 242 steps with 288751 atoms

99.9% CPU use with 104 MPI tasks x 1 OpenMP threads

Minimization stats:
  Stopping criterion = energy tolerance
  Energy initial, next-to-last, final = 
     -1152448.96736357  -1152448.96955506  -1152448.96955506
  Force two-norm initial, final = 0.17441051 0.00018454539
  Force max component initial, final = 0.088346194 6.6933288e-05
  Final line search alpha, max atom move = 1.0000000 6.6933288e-05
  Iterations, force evaluations = 242 484

MPI task timing breakdown:
Section |  min time  |  avg time  |  max time  |%varavg| %total
---------------------------------------------------------------
Pair    | 0.73279    | 2.0315     | 2.6562     |  38.5 | 72.16
Neigh   | 0          | 0          | 0          |   0.0 |  0.00
Comm    | 0.040546   | 0.46144    | 1.3884     |  56.5 | 16.39
Output  | 0          | 0          | 0          |   0.0 |  0.00
Modify  | 3.0909e-05 | 0.0039818  | 0.0085318  |   3.0 |  0.14
Other   |            | 0.3184     |            |       | 11.31

Nlocal:        2776.45 ave        3954 max           0 min
Histogram: 8 4 4 0 4 12 8 0 30 34
Nghost:        3879.16 ave        5423 max         232 min
Histogram: 8 0 8 0 16 0 8 8 16 40
Neighs:        79213.5 ave      115191 max           0 min
Histogram: 8 4 4 0 10 6 8 8 24 32

Total # of neighbors = 8238207
Ave neighs/atom = 28.530488
Neighbor list builds = 0
Dangerous builds = 0
The dot product: -3.28657074218327e-07
Setting atom values ...
  1 settings made for x
  1 settings made for y
  1 settings made for z
Setting up cg style minimization ...
  Unit style    : metal
  Current step  : 955
Per MPI rank memory allocation (min/avg/max) = 5.441 | 5.816 | 6.074 Mbytes
Step PotEng KinEng TotEng v_fx v_fy v_fz 
     955     -1152449            0     -1152449  -0.04176364 -0.0070895477   0.01344928 
    1000     -1152449            0     -1152449  0.001090452 -0.0011914132 -0.00046562818 
    1306   -1152449.2            0   -1152449.2 -1.3375264e-05 -2.8713819e-06 4.2573129e-06 
Loop time of 4.1631 on 104 procs for 351 steps with 288751 atoms

99.9% CPU use with 104 MPI tasks x 1 OpenMP threads

Minimization stats:
  Stopping criterion = energy tolerance
  Energy initial, next-to-last, final = 
     -1152448.96590318  -1152449.19649634  -1152449.19649634
  Force two-norm initial, final = 0.18020034 0.0001026318
  Force max component initial, final = 0.08701258 2.8719458e-05
  Final line search alpha, max atom move = 1.0000000 2.8719458e-05
  Iterations, force evaluations = 351 702

MPI task timing breakdown:
Section |  min time  |  avg time  |  max time  |%varavg| %total
---------------------------------------------------------------
Pair    | 1.0828     | 2.9677     | 3.89       |  46.1 | 71.28
Neigh   | 5.061e-05  | 0.014761   | 0.021324   |   5.0 |  0.35
Comm    | 0.063188   | 0.67594    | 2.0277     |  67.7 | 16.24
[...]
Histogram: 8 0 8 0 16 0 8 8 16 40
Neighs:        79213.5 ave      115521 max           0 min
Histogram: 8 4 4 0 10 6 8 8 24 32

Total # of neighbors = 8238207
Ave neighs/atom = 28.530488
Neighbor list builds = 0
Dangerous builds = 0
The dot product: 2.80494997627926e-08
Setting atom values ...
  1 settings made for x
  1 settings made for y
  1 settings made for z
Setting up cg style minimization ...
  Unit style    : metal
  Current step  : 26724
Per MPI rank memory allocation (min/avg/max) = 5.441 | 5.816 | 6.074 Mbytes
Step PotEng KinEng TotEng v_fx v_fy v_fz 
   26724     -1152449            0     -1152449  0.010739951 0.0067575179 -0.018124135 
   26910     -1152449            0     -1152449 1.9612645e-05 -1.9876535e-05 1.3192043e-05 
Loop time of 2.18163 on 104 procs for 186 steps with 288751 atoms

99.9% CPU use with 104 MPI tasks x 1 OpenMP threads

Minimization stats:
  Stopping criterion = energy tolerance
  Energy initial, next-to-last, final = 
     -1152448.98339249  -1152448.98495433  -1152448.98495433
  Force two-norm initial, final = 0.16117645 0.00016681301
  Force max component initial, final = 0.090054914 3.3563401e-05
  Final line search alpha, max atom move = 1.0000000 3.3563401e-05
  Iterations, force evaluations = 186 372

MPI task timing breakdown:
Section |  min time  |  avg time  |  max time  |%varavg| %total
---------------------------------------------------------------
Pair    | 0.55798    | 1.5638     | 2.0538     |  34.0 | 71.68
Neigh   | 0          | 0          | 0          |   0.0 |  0.00
Comm    | 0.036022   | 0.35676    | 1.0566     |  49.1 | 16.35
Output  | 0          | 0          | 0          |   0.0 |  0.00
Modify  | 2.2314e-05 | 0.0030635  | 0.0065558  |   2.6 |  0.14
Other   |            | 0.258      |            |       | 11.83

Nlocal:        2776.45 ave        3961 max           0 min
Histogram: 8 4 4 0 6 10 8 4 26 34
Nghost:        3879.02 ave        5424 max         232 min
Histogram: 8 0 8 0 16 0 8 8 16 40
Neighs:        79213.5 ave      115521 max           0 min
Histogram: 8 4 4 0 10 6 8 8 24 32

Total # of neighbors = 8238209
Ave neighs/atom = 28.530495
Neighbor list builds = 0
Dangerous builds = 0
The dot product: 2.99582984840424e-07
Setting atom values ...
  1 settings made for x
  1 settings made for y
  1 settings made for z
Setting up cg style minimization ...
  Unit style    : metal
  Current step  : 26910
Per MPI rank memory allocation (min/avg/max) = 5.441 | 5.816 | 6.074 Mbytes
Step PotEng KinEng TotEng v_fx v_fy v_fz 
   26910   -1152448.9            0   -1152448.9  0.013687349 0.0064773643 -0.019987742 
   27000   -1152448.9            0   -1152448.9 -0.00011906882 9.8776191e-05 -4.7716343e-05 
   27096   -1152448.9            0   -1152448.9 -8.4637768e-06 4.9989295e-06 -5.0286215e-07 
Loop time of 2.18145 on 104 procs for 186 steps with 288751 atoms

99.9% CPU use with 104 MPI tasks x 1 OpenMP threads

Minimization stats:
  Stopping criterion = energy tolerance
  Energy initial, next-to-last, final = 
      -1152448.9461915  -1152448.94756955  -1152448.94756955
  Force two-norm initial, final = 0.15841608 0.00016016963
  Force max component initial, final = 0.08887299 1.3745525e-05
  Final line search alpha, max atom move = 1.0000000 1.3745525e-05
  Iterations, force evaluations = 186 372

MPI task timing breakdown:
Section |  min time  |  avg time  |  max time  |%varavg| %total
---------------------------------------------------------------
Pair    | 0.55884    | 1.5626     | 2.051      |  34.0 | 71.63
Neigh   | 0          | 0          | 0          |   0.0 |  0.00
Comm    | 0.034127   | 0.35609    | 1.0519     |  49.0 | 16.32
Output  | 9.1773e-05 | 0.00010354 | 0.00024372 |   0.0 |  0.00
Modify  | 2.1938e-05 | 0.0030662  | 0.0065322  |   2.6 |  0.14
Other   |            | 0.2596     |            |       | 11.90

Nlocal:        2776.45 ave        3961 max           0 min
Histogram: 8 4 4 0 6 10 8 4 26 34
Nghost:        3879.01 ave        5424 max         232 min
Histogram: 8 0 8 0 16 0 8 8 16 40
Neighs:        79213.5 ave      115522 max           0 min
Histogram: 8 4 4 0 10 6 8 8 24 32

Total # of neighbors = 8238207
Ave neighs/atom = 28.530488
Neighbor list builds = 0
Dangerous builds = 0
The dot product: -5.77720538193135e-08
Setting atom values ...
  1 settings made for x
  1 settings made for y
  1 settings made for z
Setting up cg style minimization ...
  Unit style    : metal
  Current step  : 27096
Per MPI rank memory allocation (min/avg/max) = 5.441 | 5.816 | 6.074 Mbytes
Step PotEng KinEng TotEng v_fx v_fy v_fz 
   27096   -1152448.9            0   -1152448.9  0.016418008 0.0068502578 -0.022644941 
   27300   -1152448.9            0   -1152448.9 -9.1516185e-06 1.0590087e-05 -7.8866039e-06 
Loop time of 2.42208 on 104 procs for 204 steps with 288751 atoms

99.9% CPU use with 104 MPI tasks x 1 OpenMP threads

Minimization stats:
  Stopping criterion = energy tolerance
  Energy initial, next-to-last, final = 
     -1152448.90742181   -1152448.9087034   -1152448.9087034
  Force two-norm initial, final = 0.15594545 9.2508607e-05
  Force max component initial, final = 0.088115246 1.4525397e-05
  Final line search alpha, max atom move = 1.0000000 1.4525397e-05
  Iterations, force evaluations = 204 408

MPI task timing breakdown:
Section |  min time  |  avg time  |  max time  |%varavg| %total
---------------------------------------------------------------
Pair    | 0.61188    | 1.7151     | 2.2521     |  35.6 | 70.81
Neigh   | 0          | 0          | 0          |   0.0 |  0.00
Comm    | 0.037426   | 0.39463    | 1.1658     |  50.8 | 16.29
Output  | 0          | 0          | 0          |   0.0 |  0.00
Modify  | 2.4843e-05 | 0.0033593  | 0.0071622  |   2.7 |  0.14
Other   |            | 0.309      |            |       | 12.76

Nlocal:        2776.45 ave        3961 max           0 min
Histogram: 8 4 4 0 6 10 8 4 26 34
Nghost:        3878.90 ave        5424 max         232 min
Histogram: 8 0 8 0 16 0 8 8 16 40
Neighs:        79213.6 ave      115515 max           0 min
Histogram: 8 4 4 0 10 6 8 8 24 32

Total # of neighbors = 8238210
Ave neighs/atom = 28.530499
Neighbor list builds = 0
Dangerous builds = 0
The dot product: -9.16292561787065e-08
Setting atom values ...
  1 settings made for x
  1 settings made for y
  1 settings made for z
Setting up cg style minimization ...
  Unit style    : metal
  Current step  : 27300
Per MPI rank memory allocation (min/avg/max) = 5.441 | 5.816 | 6.074 Mbytes
Step PotEng KinEng TotEng v_fx v_fy v_fz 
   27300   -1152448.9            0   -1152448.9  0.021616922 0.0064631171 -0.026184426 
   27520   -1152448.9            0   -1152448.9 -7.2131057e-07 -1.0716825e-06 2.0888968e-06 
Loop time of 2.57726 on 104 procs for 220 steps with 288751 atoms

99.9% CPU use with 104 MPI tasks x 1 OpenMP threads

Minimization stats:
  Stopping criterion = energy tolerance
  Energy initial, next-to-last, final = 
     -1152448.86730131  -1152448.86847382  -1152448.86847382
  Force two-norm initial, final = 0.15399506 4.6267020e-05
  Force max component initial, final = 0.087462387 6.5629330e-06
  Final line search alpha, max atom move = 1.0000000 6.5629330e-06
  Iterations, force evaluations = 220 440

MPI task timing breakdown:
Section |  min time  |  avg time  |  max time  |%varavg| %total
---------------------------------------------------------------
Pair    | 0.65987    | 1.847      | 2.4215     |  36.9 | 71.67
Neigh   | 0          | 0          | 0          |   0.0 |  0.00
Comm    | 0.039918   | 0.42375    | 1.2401     |  53.0 | 16.44
Output  | 0          | 0          | 0          |   0.0 |  0.00
Modify  | 2.5951e-05 | 0.0036237  | 0.0077122  |   2.8 |  0.14
Other   |            | 0.3029     |            |       | 11.75

Nlocal:        2776.45 ave        3961 max           0 min
Histogram: 8 4 4 0 6 10 8 4 26 34
Nghost:        3878.92 ave        5423 max         232 min
Histogram: 8 0 8 0 16 0 8 8 16 40
Neighs:        79213.6 ave      115514 max           0 min
Histogram: 8 4 4 0 10 6 8 8 24 32

Total # of neighbors = 8238211
Ave neighs/atom = 28.530502
Neighbor list builds = 0
Dangerous builds = 0
The dot product: -1.1802439201358e-10
Setting atom values ...
  1 settings made for x
  1 settings made for y
  1 settings made for z
Setting up cg style minimization ...
  Unit style    : metal
  Current step  : 27520
Per MPI rank memory allocation (min/avg/max) = 5.441 | 5.816 | 6.074 Mbytes
Step PotEng KinEng TotEng v_fx v_fy v_fz 
   27520   -1152448.8            0   -1152448.8  0.029983737 0.0063795663 -0.032717453 
   27621   -1152448.8            0   -1152448.8 3.7092033e-06 1.6975251e-05 -2.6996887e-05 
Loop time of 1.18755 on 104 procs for 101 steps with 288751 atoms

99.9% CPU use with 104 MPI tasks x 1 OpenMP threads

Minimization stats:
  Stopping criterion = energy tolerance
  Energy initial, next-to-last, final = 
     -1152448.82606332  -1152448.82732124  -1152448.82732124
  Force two-norm initial, final = 0.15505285 0.00021876824
  Force max component initial, final = 0.086892986 5.3122534e-05
  Final line search alpha, max atom move = 1.0000000 5.3122534e-05
  Iterations, force evaluations = 101 202

MPI task timing breakdown:
Section |  min time  |  avg time  |  max time  |%varavg| %total
---------------------------------------------------------------
Pair    | 0.30252    | 0.84935    | 1.1191     |  25.1 | 71.52
Neigh   | 0          | 0          | 0          |   0.0 |  0.00
Comm    | 0.017449   | 0.19364    | 0.56971    |  36.2 | 16.31
Output  | 0          | 0          | 0          |   0.0 |  0.00
Modify  | 1.1981e-05 | 0.0016715  | 0.0035837  |   1.9 |  0.14
Other   |            | 0.1429     |            |       | 12.03

Nlocal:        2776.45 ave        3961 max           0 min
Histogram: 8 4 4 0 6 10 8 4 26 34
Nghost:        3878.89 ave        5423 max         232 min
Histogram: 8 0 8 0 16 0 8 8 16 40
Neighs:        79213.6 ave      115509 max           0 min
Histogram: 8 4 4 0 10 6 8 8 24 32

Total # of neighbors = 8238211
Ave neighs/atom = 28.530502
Neighbor list builds = 0
Dangerous builds = 0
The dot product: 1.56696964423874e-07
Setting atom values ...
  1 settings made for x
  1 settings made for y
  1 settings made for z
Setting up cg style minimization ...
  Unit style    : metal
  Current step  : 27621
Per MPI rank memory allocation (min/avg/max) = 5.441 | 5.816 | 6.074 Mbytes
Step PotEng KinEng TotEng v_fx v_fy v_fz 
   27621   -1152448.8            0   -1152448.8  0.044668207 0.0060789458 -0.044294139 
   27820   -1152448.8            0   -1152448.8 -4.2923301e-06 -6.6293991e-06 1.2849028e-05 
Loop time of 2.33512 on 104 procs for 199 steps with 288751 atoms

99.9% CPU use with 104 MPI tasks x 1 OpenMP threads

Minimization stats:
  Stopping criterion = energy tolerance
  Energy initial, next-to-last, final = 
     -1152448.78491071  -1152448.78767694  -1152448.78767694
  Force two-norm initial, final = 0.16317217 0.0001596697
  Force max component initial, final = 0.086110605 1.7574433e-05
  Final line search alpha, max atom move = 1.0000000 1.7574433e-05
  Iterations, force evaluations = 199 398

MPI task timing breakdown:
Section |  min time  |  avg time  |  max time  |%varavg| %total
---------------------------------------------------------------
Pair    | 0.59667    | 1.6722     | 2.1969     |  35.2 | 71.61
Neigh   | 0          | 0          | 0          |   0.0 |  0.00
Comm    | 0.035128   | 0.38059    | 1.124      |  50.7 | 16.30
Output  | 0          | 0          | 0          |   0.0 |  0.00
Modify  | 2.3869e-05 | 0.0032746  | 0.0069994  |   2.7 |  0.14
Other   |            | 0.2791     |            |       | 11.95

Nlocal:        2776.45 ave        3961 max           0 min
Histogram: 8 4 4 0 6 10 8 4 26 34
Nghost:        3878.89 ave        5423 max         232 min
Histogram: 8 0 8 0 16 0 8 8 16 40
Neighs:        79213.6 ave      115510 max           0 min
Histogram: 8 4 4 0 10 6 8 8 24 32

Total # of neighbors = 8238211
Ave neighs/atom = 28.530502
Neighbor list builds = 0
Dangerous builds = 0
The dot product: -3.67925749302461e-07
Setting atom values ...
  1 settings made for x
  1 settings made for y
  1 settings made for z
Setting up cg style minimization ...
  Unit style    : metal
  Current step  : 27820
Per MPI rank memory allocation (min/avg/max) = 5.441 | 5.816 | 6.074 Mbytes
Step PotEng KinEng TotEng v_fx v_fy v_fz 
   27820   -1152448.7            0   -1152448.7  0.055930446 0.0048123494 -0.052991123 
   27961   -1152448.7            0   -1152448.7 1.536966e-05 -4.5972672e-05 5.3432615e-05 
Loop time of 1.65305 on 104 procs for 141 steps with 288751 atoms

99.9% CPU use with 104 MPI tasks x 1 OpenMP threads

Minimization stats:
  Stopping criterion = energy tolerance
  Energy initial, next-to-last, final = 
     -1152448.74755197  -1152448.74939235  -1152448.74939235
  Force two-norm initial, final = 0.16567374 0.00024764
  Force max component initial, final = 0.084286047 7.5777761e-05
  Final line search alpha, max atom move = 1.0000000 7.5777761e-05
  Iterations, force evaluations = 141 282

MPI task timing breakdown:
Section |  min time  |  avg time  |  max time  |%varavg| %total
---------------------------------------------------------------
Pair    | 0.4232     | 1.1857     | 1.5578     |  29.6 | 71.73
Neigh   | 0          | 0          | 0          |   0.0 |  0.00
Comm    | 0.024503   | 0.27071    | 0.80562    |  42.8 | 16.38
Output  | 0          | 0          | 0          |   0.0 |  0.00
Modify  | 1.6897e-05 | 0.0023254  | 0.0049836  |   2.3 |  0.14
Other   |            | 0.1943     |            |       | 11.76

Nlocal:        2776.45 ave        3961 max           0 min
Histogram: 8 4 4 0 6 10 8 4 26 34
Nghost:        3878.95 ave        5424 max         232 min
Histogram: 8 0 8 0 16 0 8 8 16 40
Neighs:        79213.6 ave      115516 max           0 min
Histogram: 8 4 4 0 10 6 8 8 24 32

Total # of neighbors = 8238212
Ave neighs/atom = 28.530506
Neighbor list builds = 0
Dangerous builds = 0
The dot product: -3.10930359334307e-07
Setting atom values ...
  1 settings made for x
  1 settings made for y
  1 settings made for z
Setting up cg style minimization ...
  Unit style    : metal
  Current step  : 27961
Per MPI rank memory allocation (min/avg/max) = 5.441 | 5.816 | 6.074 Mbytes
Step PotEng KinEng TotEng v_fx v_fy v_fz 
   27961   -1152448.7            0   -1152448.7  0.048912424 0.0032192623 -0.045738293 
   28000   -1152448.7            0   -1152448.7 9.8679454e-06 -1.6388673e-05 1.5427632e-05 
   28073   -1152448.7            0   -1152448.7 3.2712729e-05 -1.0341472e-06 -2.5977803e-05 
Loop time of 1.31413 on 104 procs for 112 steps with 288751 atoms

99.9% CPU use with 104 MPI tasks x 1 OpenMP threads

Minimization stats:
  Stopping criterion = energy tolerance
  Energy initial, next-to-last, final = 
     -1152448.70976032  -1152448.71116108  -1152448.71116108
  Force two-norm initial, final = 0.15833357 0.00020505023
  Force max component initial, final = 0.082889071 5.3341603e-05
  Final line search alpha, max atom move = 1.0000000 5.3341603e-05
  Iterations, force evaluations = 112 224

MPI task timing breakdown:
Section |  min time  |  avg time  |  max time  |%varavg| %total
---------------------------------------------------------------
Pair    | 0.3344     | 0.94203    | 1.2387     |  26.4 | 71.68
Neigh   | 0          | 0          | 0          |   0.0 |  0.00
Comm    | 0.019594   | 0.21474    | 0.63622    |  38.1 | 16.34
Output  | 0.00010201 | 0.0001096  | 0.00021201 |   0.0 |  0.01
Modify  | 1.3663e-05 | 0.0018517  | 0.0039541  |   2.0 |  0.14
Other   |            | 0.1554     |            |       | 11.82

Nlocal:        2776.45 ave        3961 max           0 min
Histogram: 8 4 4 0 6 10 8 4 26 34
Nghost:        3878.94 ave        5424 max         232 min
Histogram: 8 0 8 0 16 0 8 8 16 40
Neighs:        79213.5 ave      115513 max           0 min
Histogram: 8 4 4 0 10 6 8 8 24 32

Total # of neighbors = 8238209
Ave neighs/atom = 28.530495
Neighbor list builds = 0
Dangerous builds = 0
The dot product: 6.32109464350395e-07
Setting atom values ...
  1 settings made for x
  1 settings made for y
  1 settings made for z
Setting up cg style minimization ...
  Unit style    : metal
  Current step  : 28073
Per MPI rank memory allocation (min/avg/max) = 5.441 | 5.816 | 6.074 Mbytes
Step PotEng KinEng TotEng v_fx v_fy v_fz 
   28073   -1152448.7            0   -1152448.7   0.04783885 0.0019104312 -0.043509775 
   28340   -1152448.7            0   -1152448.7 4.5832126e-07 -1.0161824e-06 1.0862876e-06 
Loop time of 3.12421 on 104 procs for 267 steps with 288751 atoms

99.9% CPU use with 104 MPI tasks x 1 OpenMP threads

Minimization stats:
  Stopping criterion = energy tolerance
  Energy initial, next-to-last, final = 
     -1152448.67162624   -1152448.6731745   -1152448.6731745
  Force two-norm initial, final = 0.15577061 7.6259193e-06
  Force max component initial, final = 0.081371874 2.3806889e-06
  Final line search alpha, max atom move = 1.0000000 2.3806889e-06
  Iterations, force evaluations = 267 534

MPI task timing breakdown:
Section |  min time  |  avg time  |  max time  |%varavg| %total
---------------------------------------------------------------
Pair    | 0.79872    | 2.2418     | 2.9437     |  40.7 | 71.76
Neigh   | 0          | 0          | 0          |   0.0 |  0.00
Comm    | 0.047291   | 0.50863    | 1.5094     |  59.1 | 16.28
Output  | 0          | 0          | 0          |   0.0 |  0.00
Modify  | 3.3224e-05 | 0.0043947  | 0.0093815  |   3.1 |  0.14
Other   |            | 0.3693     |            |       | 11.82

Nlocal:        2776.45 ave        3961 max           0 min
Histogram: 8 4 4 0 6 10 8 4 26 34
Nghost:        3878.94 ave        5424 max         232 min
Histogram: 8 0 8 0 16 0 8 8 16 40
Neighs:        79213.6 ave      115510 max           0 min
Histogram: 8 4 4 0 10 6 8 8 24 32

Total # of neighbors = 8238212
Ave neighs/atom = 28.530506
Neighbor list builds = 0
Dangerous builds = 0
The dot product: -3.17948272566533e-09
Setting atom values ...
  1 settings made for x
  1 settings made for y
  1 settings made for z
Setting up cg style minimization ...
  Unit style    : metal
  Current step  : 28340
Per MPI rank memory allocation (min/avg/max) = 5.441 | 5.816 | 6.074 Mbytes
Step PotEng KinEng TotEng v_fx v_fy v_fz 
   28340   -1152448.6            0   -1152448.6  0.065563276 0.00014742452 -0.057232164 
   28585   -1152448.7            0   -1152448.7 -8.1754451e-06 1.4770079e-05 -1.4499962e-05 
Loop time of 2.88633 on 104 procs for 245 steps with 288751 atoms

99.9% CPU use with 104 MPI tasks x 1 OpenMP threads

Minimization stats:
  Stopping criterion = energy tolerance
  Energy initial, next-to-last, final = 
     -1152448.63519495   -1152448.6649356   -1152448.6649356
  Force two-norm initial, final = 0.16921635 8.1665850e-05
  Force max component initial, final = 0.078956333 2.0337079e-05
  Final line search alpha, max atom move = 1.0000000 2.0337079e-05
  Iterations, force evaluations = 245 490

MPI task timing breakdown:
Section |  min time  |  avg time  |  max time  |%varavg| %total
---------------------------------------------------------------
Pair    | 0.73688    | 2.0577     | 2.698      |  38.9 | 71.29
Neigh   | 1.0125e-05 | 0.0029506  | 0.0042785  |   2.2 |  0.10
Comm    | 0.045165   | 0.47097    | 1.3973     |  56.1 | 16.32
Output  | 0          | 0          | 0          |   0.0 |  0.00
Modify  | 2.9113e-05 | 0.0040358  | 0.0086362  |   3.0 |  0.14
Other   |            | 0.3507     |            |       | 12.15

Nlocal:        2776.45 ave        3961 max           0 min
Histogram: 8 4 4 0 6 10 8 4 26 34
Nghost:        3878.97 ave        5424 max         232 min
Histogram: 8 0 8 0 16 0 8 8 16 40
Neighs:        79213.6 ave      115511 max           0 min
Histogram: 8 4 4 0 10 6 8 8 24 32

Total # of neighbors = 8238214
Ave neighs/atom = 28.530512
Neighbor list builds = 1
Dangerous builds = 0
The dot product: -5.15030726702728e-08
