LAMMPS (29 Oct 2020)
OMP_NUM_THREADS environment is not set. Defaulting to 1 thread. (../comm.cpp:94)
  using 1 OpenMP thread(s) per MPI task
OMP_NUM_THREADS environment is not set. Defaulting to 1 thread. (../comm.cpp:94)
  using 1 OpenMP thread(s) per MPI task
Reading data file ...
  orthogonal box = (-122.39241 -121.13707 -37.090501) to (122.39241 121.13707 37.090501)
  13 by 4 by 2 MPI processor grid
  reading atoms ...
  288751 atoms
  read_data CPU = 0.402 seconds
199981 atoms in group inner
88770 atoms in group outer
1 atoms in group carbon
Neighbor list info ...
  update every 1 steps, delay 0 steps, check yes
  max neighbors/atom: 2000, page size: 100000
  master list distance cutoff = 5.6
  ghost atom cutoff = 5.6
  binsize = 2.8, bins = 88 87 27
  1 neighbor lists, perpetual/occasional/extra = 1 0 0
  (1) pair eam/alloy, perpetual
      attributes: half, newton on
      pair build: half/bin/atomonly/newton
      stencil: half/bin/3d/newton
      bin: standard
Setting up cg style minimization ...
  Unit style    : metal
  Current step  : 0
Per MPI rank memory allocation (min/avg/max) = 5.441 | 5.816 | 6.074 Mbytes
Step v_fx v_fy v_fz PotEng KinEng TotEng 
       0    26.434117    15.688578   -51.908943   -1152432.8            0   -1152432.8 
     174 7.4582274e-07 1.4577629e-07 -2.7909546e-06   -1152449.5            0   -1152449.5 
Loop time of 2.03943 on 104 procs for 174 steps with 288751 atoms

99.8% CPU use with 104 MPI tasks x 1 OpenMP threads

Minimization stats:
  Stopping criterion = energy tolerance
  Energy initial, next-to-last, final = 
     -1152432.81282088  -1152449.45035262  -1152449.45035262
  Force two-norm initial, final = 90.183009 7.2344042e-05
  Force max component initial, final = 58.954978 4.0890564e-06
  Final line search alpha, max atom move = 1.0000000 4.0890564e-06
  Iterations, force evaluations = 174 339

MPI task timing breakdown:
Section |  min time  |  avg time  |  max time  |%varavg| %total
---------------------------------------------------------------
Pair    | 0.53785    | 1.4374     | 1.864      |  31.8 | 70.48
Neigh   | 5.2579e-05 | 0.014587   | 0.021175   |   5.0 |  0.72
Comm    | 0.035078   | 0.32858    | 0.97203    |  46.7 | 16.11
Output  | 0          | 0          | 0          |   0.0 |  0.00
Modify  | 1.9015e-05 | 0.001839   | 0.0046786  |   2.7 |  0.09
Other   |            | 0.257      |            |       | 12.60

Nlocal:        2776.45 ave        3959 max           0 min
Histogram: 8 4 4 0 4 12 8 2 28 34
Nghost:        3879.01 ave        5424 max         232 min
Histogram: 8 0 8 0 16 0 8 8 16 40
Neighs:        79213.5 ave      115391 max           0 min
Histogram: 8 4 4 0 10 6 8 8 24 32

Total # of neighbors = 8238207
Ave neighs/atom = 28.530488
Neighbor list builds = 5
Dangerous builds = 0
Setting atom values ...
  1 settings made for x
  1 settings made for y
  1 settings made for z
Setting up cg style minimization ...
  Unit style    : metal
  Current step  : 174
Per MPI rank memory allocation (min/avg/max) = 5.441 | 5.816 | 6.074 Mbytes
Step PotEng KinEng TotEng v_fx v_fy v_fz 
     174   -1152449.4            0   -1152449.4 0.0074160103 -0.015067629 -0.024559934 
     344   -1152449.5            0   -1152449.5 1.7604931e-05 -1.5446739e-05 -4.0918146e-05 
Loop time of 2.00688 on 104 procs for 170 steps with 288751 atoms

99.9% CPU use with 104 MPI tasks x 1 OpenMP threads

Minimization stats:
  Stopping criterion = energy tolerance
  Energy initial, next-to-last, final = 
     -1152449.44965284  -1152449.45007931  -1152449.45007931
  Force two-norm initial, final = 0.094093778 0.00014093498
  Force max component initial, final = 0.043955925 4.0918146e-05
  Final line search alpha, max atom move = 1.0000000 4.0918146e-05
  Iterations, force evaluations = 170 340

MPI task timing breakdown:
Section |  min time  |  avg time  |  max time  |%varavg| %total
---------------------------------------------------------------
Pair    | 0.51091    | 1.4372     | 1.8665     |  32.5 | 71.62
Neigh   | 0          | 0          | 0          |   0.0 |  0.00
Comm    | 0.032067   | 0.32647    | 0.97849    |  47.4 | 16.27
Output  | 0          | 0          | 0          |   0.0 |  0.00
Modify  | 2.0187e-05 | 0.002817   | 0.0060277  |   2.5 |  0.14
Other   |            | 0.2404     |            |       | 11.98

Nlocal:        2776.45 ave        3958 max           0 min
Histogram: 8 4 4 0 4 12 8 2 28 34
Nghost:        3879.01 ave        5424 max         232 min
Histogram: 8 0 8 0 16 0 8 8 16 40
Neighs:        79213.4 ave      115366 max           0 min
Histogram: 8 4 4 0 10 6 8 8 24 32

Total # of neighbors = 8238197
Ave neighs/atom = 28.530454
Neighbor list builds = 0
Dangerous builds = 0
Setting atom values ...
  1 settings made for x
  1 settings made for y
  1 settings made for z
Setting up cg style minimization ...
  Unit style    : metal
  Current step  : 344
Per MPI rank memory allocation (min/avg/max) = 5.441 | 5.816 | 6.074 Mbytes
Step PotEng KinEng TotEng v_fx v_fy v_fz 
     344   -1152449.4            0   -1152449.4 0.0084607963 -0.017022018 -0.038899896 
     485   -1152449.4            0   -1152449.4 1.6848597e-05 -5.6858499e-05 -0.00010670586 
Loop time of 1.67 on 104 procs for 141 steps with 288751 atoms

99.9% CPU use with 104 MPI tasks x 1 OpenMP threads

Minimization stats:
  Stopping criterion = energy tolerance
  Energy initial, next-to-last, final = 
       -1152449.446963  -1152449.44825548  -1152449.44825548
  Force two-norm initial, final = 0.16109398 0.00031342978
  Force max component initial, final = 0.087251946 0.00010670586
  Final line search alpha, max atom move = 1.0000000 0.00010670586
  Iterations, force evaluations = 141 282

MPI task timing breakdown:
Section |  min time  |  avg time  |  max time  |%varavg| %total
---------------------------------------------------------------
Pair    | 0.43067    | 1.1895     | 1.5475     |  29.5 | 71.23
Neigh   | 0          | 0          | 0          |   0.0 |  0.00
Comm    | 0.027689   | 0.27076    | 0.79995    |  42.8 | 16.21
Output  | 0          | 0          | 0          |   0.0 |  0.00
Modify  | 1.6876e-05 | 0.0023379  | 0.004986   |   2.3 |  0.14
Other   |            | 0.2074     |            |       | 12.42

Nlocal:        2776.45 ave        3958 max           0 min
Histogram: 8 4 4 0 4 12 8 2 28 34
Nghost:        3879.01 ave        5424 max         232 min
Histogram: 8 0 8 0 16 0 8 8 16 40
Neighs:        79213.4 ave      115366 max           0 min
Histogram: 8 4 4 0 10 6 8 8 24 32

Total # of neighbors = 8238196
Ave neighs/atom = 28.530450
Neighbor list builds = 0
Dangerous builds = 0
The dot product: 3.1908342618338e-07
Setting atom values ...
  1 settings made for x
  1 settings made for y
  1 settings made for z
Setting up cg style minimization ...
  Unit style    : metal
  Current step  : 485
Per MPI rank memory allocation (min/avg/max) = 5.441 | 5.816 | 6.074 Mbytes
Step PotEng KinEng TotEng v_fx v_fy v_fz 
     485   -1152449.4            0   -1152449.4 0.0058954811 -0.0096645507 -0.031514518 
     612   -1152449.4            0   -1152449.4 1.5232532e-06 8.9115758e-06 1.1238263e-05 
Loop time of 1.52169 on 104 procs for 127 steps with 288751 atoms

99.9% CPU use with 104 MPI tasks x 1 OpenMP threads

Minimization stats:
  Stopping criterion = energy tolerance
  Energy initial, next-to-last, final = 
     -1152449.44358773  -1152449.44482241  -1152449.44482241
  Force two-norm initial, final = 0.15526975 0.00022951872
  Force max component initial, final = 0.092336663 2.3737818e-05
  Final line search alpha, max atom move = 1.0000000 2.3737818e-05
  Iterations, force evaluations = 127 254

MPI task timing breakdown:
Section |  min time  |  avg time  |  max time  |%varavg| %total
---------------------------------------------------------------
Pair    | 0.38055    | 1.081      | 1.3926     |  27.9 | 71.04
Neigh   | 0          | 0          | 0          |   0.0 |  0.00
Comm    | 0.030048   | 0.2485     | 0.75071    |  40.9 | 16.33
Output  | 0          | 0          | 0          |   0.0 |  0.00
Modify  | 1.5391e-05 | 0.0021072  | 0.0044898  |   2.2 |  0.14
Other   |            | 0.1901     |            |       | 12.49

Nlocal:        2776.45 ave        3957 max           0 min
Histogram: 8 4 4 0 4 12 8 2 28 34
Nghost:        3879.01 ave        5424 max         232 min
Histogram: 8 0 8 0 16 0 8 8 16 40
Neighs:        79213.4 ave      115337 max           0 min
Histogram: 8 4 4 0 10 6 8 8 24 32

Total # of neighbors = 8238193
Ave neighs/atom = 28.530440
Neighbor list builds = 0
Dangerous builds = 0
The dot product: -2.91792185956566e-08
Setting atom values ...
  1 settings made for x
  1 settings made for y
  1 settings made for z
Setting up cg style minimization ...
  Unit style    : metal
  Current step  : 612
Per MPI rank memory allocation (min/avg/max) = 5.441 | 5.816 | 6.074 Mbytes
Step PotEng KinEng TotEng v_fx v_fy v_fz 
     612   -1152449.4            0   -1152449.4 0.0022975236 -0.0089627268 -0.024906279 
     780   -1152449.4            0   -1152449.4 2.3254185e-05 5.9980929e-06 -5.7531999e-05 
Loop time of 1.98603 on 104 procs for 168 steps with 288751 atoms

99.9% CPU use with 104 MPI tasks x 1 OpenMP threads

Minimization stats:
  Stopping criterion = energy tolerance
  Energy initial, next-to-last, final = 
     -1152449.43869495  -1152449.43988036  -1152449.43988036
  Force two-norm initial, final = 0.1516626 0.00018378137
  Force max component initial, final = 0.096033015 5.7531999e-05
  Final line search alpha, max atom move = 1.0000000 5.7531999e-05
  Iterations, force evaluations = 168 336

MPI task timing breakdown:
Section |  min time  |  avg time  |  max time  |%varavg| %total
---------------------------------------------------------------
Pair    | 0.50727    | 1.413      | 1.8364     |  32.2 | 71.15
Neigh   | 0          | 0          | 0          |   0.0 |  0.00
Comm    | 0.031057   | 0.31917    | 0.95129    |  47.0 | 16.07
Output  | 0          | 0          | 0          |   0.0 |  0.00
Modify  | 2.0169e-05 | 0.0027849  | 0.0058977  |   2.5 |  0.14
Other   |            | 0.251      |            |       | 12.64

Nlocal:        2776.45 ave        3957 max           0 min
Histogram: 8 4 4 0 4 12 8 2 28 34
Nghost:        3879.01 ave        5424 max         232 min
Histogram: 8 0 8 0 16 0 8 8 16 40
Neighs:        79213.4 ave      115337 max           0 min
Histogram: 8 4 4 0 10 6 8 8 24 32

Total # of neighbors = 8238194
Ave neighs/atom = 28.530443
Neighbor list builds = 0
Dangerous builds = 0
The dot product: 9.44750113510797e-08
Setting atom values ...
  1 settings made for x
  1 settings made for y
  1 settings made for z
Setting up cg style minimization ...
  Unit style    : metal
  Current step  : 780
Per MPI rank memory allocation (min/avg/max) = 5.441 | 5.816 | 6.074 Mbytes
Step PotEng KinEng TotEng v_fx v_fy v_fz 
     780   -1152449.4            0   -1152449.4 -0.0028996834 -0.012779178 -0.019356968 
     973   -1152449.4            0   -1152449.4 8.6462206e-06 1.3099688e-05 1.1639798e-06 
Loop time of 2.26372 on 104 procs for 193 steps with 288751 atoms

99.9% CPU use with 104 MPI tasks x 1 OpenMP threads

Minimization stats:
  Stopping criterion = energy tolerance
  Energy initial, next-to-last, final = 
     -1152449.43236549   -1152449.4335317   -1152449.4335317
  Force two-norm initial, final = 0.15009118 4.8744355e-05
  Force max component initial, final = 0.099059825 1.3099688e-05
  Final line search alpha, max atom move = 1.0000000 1.3099688e-05
  Iterations, force evaluations = 193 386

MPI task timing breakdown:
Section |  min time  |  avg time  |  max time  |%varavg| %total
---------------------------------------------------------------
Pair    | 0.57906    | 1.6293     | 2.1103     |  34.6 | 71.98
Neigh   | 0          | 0          | 0          |   0.0 |  0.00
Comm    | 0.038275   | 0.36699    | 1.0978     |  50.4 | 16.21
Output  | 0          | 0          | 0          |   0.0 |  0.00
Modify  | 2.2866e-05 | 0.0031927  | 0.0067791  |   2.6 |  0.14
Other   |            | 0.2642     |            |       | 11.67

Nlocal:        2776.45 ave        3956 max           0 min
Histogram: 8 4 4 0 4 12 8 0 30 34
Nghost:        3879.01 ave        5424 max         232 min
Histogram: 8 0 8 0 16 0 8 8 16 40
Neighs:        79213.4 ave      115307 max           0 min
Histogram: 8 4 4 0 10 6 8 8 24 32

Total # of neighbors = 8238194
Ave neighs/atom = 28.530443
Neighbor list builds = 0
Dangerous builds = 0
The dot product: -4.36004965931599e-08
Setting atom values ...
  1 settings made for x
  1 settings made for y
  1 settings made for z
Setting up cg style minimization ...
  Unit style    : metal
  Current step  : 973
Per MPI rank memory allocation (min/avg/max) = 5.441 | 5.816 | 6.074 Mbytes
Step PotEng KinEng TotEng v_fx v_fy v_fz 
     973   -1152449.4            0   -1152449.4 -0.0078803257 -0.016450696 -0.014374308 
    1000   -1152449.4            0   -1152449.4 -2.5704845e-05 8.6081364e-05 0.00030629508 
    1096   -1152449.4            0   -1152449.4 1.6379946e-05 2.5373059e-05 7.5837413e-06 
Loop time of 1.44305 on 104 procs for 123 steps with 288751 atoms

99.9% CPU use with 104 MPI tasks x 1 OpenMP threads

Minimization stats:
  Stopping criterion = energy tolerance
  Energy initial, next-to-last, final = 
     -1152449.42472304  -1152449.42589672  -1152449.42589672
  Force two-norm initial, final = 0.14949194 0.00014366583
  Force max component initial, final = 0.10166327 2.8251867e-05
  Final line search alpha, max atom move = 1.0000000 2.8251867e-05
  Iterations, force evaluations = 123 246

MPI task timing breakdown:
Section |  min time  |  avg time  |  max time  |%varavg| %total
---------------------------------------------------------------
Pair    | 0.37262    | 1.036      | 1.3453     |  27.6 | 71.79
Neigh   | 0          | 0          | 0          |   0.0 |  0.00
Comm    | 0.026949   | 0.23357    | 0.69837    |  40.4 | 16.19
Output  | 0.00022569 | 0.00022964 | 0.00032909 |   0.0 |  0.02
Modify  | 1.4747e-05 | 0.0020376  | 0.0043152  |   2.1 |  0.14
Other   |            | 0.1712     |            |       | 11.86

Nlocal:        2776.45 ave        3954 max           0 min
Histogram: 8 4 4 0 4 12 8 0 30 34
Nghost:        3879.01 ave        5424 max         232 min
Histogram: 8 0 8 0 16 0 8 8 16 40
Neighs:        79213.4 ave      115241 max           0 min
Histogram: 8 4 4 0 10 6 8 8 24 32

Total # of neighbors = 8238194
Ave neighs/atom = 28.530443
Neighbor list builds = 0
Dangerous builds = 0
The dot product: -1.47699841760599e-07
Setting atom values ...
  1 settings made for x
  1 settings made for y
  1 settings made for z
Setting up cg style minimization ...
  Unit style    : metal
  Current step  : 1096
Per MPI rank memory allocation (min/avg/max) = 5.441 | 5.816 | 6.074 Mbytes
Step PotEng KinEng TotEng v_fx v_fy v_fz 
    1096   -1152449.4            0   -1152449.4 -0.010855114 -0.017243455 -0.010266954 
    1218   -1152449.4            0   -1152449.4 1.8005751e-05 5.5998736e-06 -4.7450575e-05 
Loop time of 1.4222 on 104 procs for 122 steps with 288751 atoms

99.9% CPU use with 104 MPI tasks x 1 OpenMP threads

Minimization stats:
  Stopping criterion = energy tolerance
  Energy initial, next-to-last, final = 
     -1152449.41580158  -1152449.41698554  -1152449.41698554
  Force two-norm initial, final = 0.14931783 0.00019037377
  Force max component initial, final = 0.10382581 5.1372282e-05
  Final line search alpha, max atom move = 1.0000000 5.1372282e-05
  Iterations, force evaluations = 122 244

MPI task timing breakdown:
Section |  min time  |  avg time  |  max time  |%varavg| %total
---------------------------------------------------------------
Pair    | 0.36701    | 1.0287     | 1.3316     |  27.4 | 72.33
Neigh   | 0          | 0          | 0          |   0.0 |  0.00
Comm    | 0.023122   | 0.23064    | 0.69759    |  40.7 | 16.22
Output  | 0          | 0          | 0          |   0.0 |  0.00
Modify  | 1.4479e-05 | 0.0020226  | 0.004301   |   2.1 |  0.14
Other   |            | 0.1608     |            |       | 11.31

Nlocal:        2776.45 ave        3954 max           0 min
Histogram: 8 4 4 0 4 12 8 0 30 34
Nghost:        3879.01 ave        5424 max         232 min
Histogram: 8 0 8 0 16 0 8 8 16 40
Neighs:        79213.4 ave      115239 max           0 min
Histogram: 8 4 4 0 10 6 8 8 24 32

Total # of neighbors = 8238193
Ave neighs/atom = 28.530440
Neighbor list builds = 0
Dangerous builds = 0
The dot product: -4.32986107779863e-08
Setting atom values ...
  1 settings made for x
  1 settings made for y
  1 settings made for z
Setting up cg style minimization ...
  Unit style    : metal
  Current step  : 1218
Per MPI rank memory allocation (min/avg/max) = 5.441 | 5.816 | 6.074 Mbytes
Step PotEng KinEng TotEng v_fx v_fy v_fz 
    1218   -1152449.4            0   -1152449.4 -0.011623886 -0.015591098 -0.0070466455 
    1378   -1152449.4            0   -1152449.4 -7.2375315e-06 -1.2238807e-05 -1.2137395e-05 
Loop time of 1.87177 on 104 procs for 160 steps with 288751 atoms

99.9% CPU use with 104 MPI tasks x 1 OpenMP threads

Minimization stats:
  Stopping criterion = energy tolerance
  Energy initial, next-to-last, final = 
       -1152449.405588   -1152449.4067738   -1152449.4067738
  Force two-norm initial, final = 0.14943883 0.0001740854
  Force max component initial, final = 0.1056135 1.5386987e-05
  Final line search alpha, max atom move = 1.0000000 1.5386987e-05
  Iterations, force evaluations = 160 320

MPI task timing breakdown:
Section |  min time  |  avg time  |  max time  |%varavg| %total
---------------------------------------------------------------
Pair    | 0.48085    | 1.345      | 1.7472     |  31.4 | 71.86
Neigh   | 0          | 0          | 0          |   0.0 |  0.00
Comm    | 0.030537   | 0.30271    | 0.90474    |  46.4 | 16.17
Output  | 0          | 0          | 0          |   0.0 |  0.00
Modify  | 1.8841e-05 | 0.0026451  | 0.0056183  |   2.4 |  0.14
Other   |            | 0.2214     |            |       | 11.83

Nlocal:        2776.45 ave        3952 max           0 min
Histogram: 8 4 4 0 4 12 8 0 30 34
Nghost:        3879.01 ave        5424 max         232 min
Histogram: 8 0 8 0 16 0 8 8 16 40
Neighs:        79213.4 ave      115166 max           0 min
Histogram: 8 4 4 0 10 6 8 8 24 32

Total # of neighbors = 8238195
Ave neighs/atom = 28.530447
Neighbor list builds = 0
Dangerous builds = 0
The dot product: 9.37045483251548e-08
Setting atom values ...
  1 settings made for x
  1 settings made for y
  1 settings made for z
Setting up cg style minimization ...
  Unit style    : metal
  Current step  : 1378
Per MPI rank memory allocation (min/avg/max) = 5.441 | 5.816 | 6.074 Mbytes
Step PotEng KinEng TotEng v_fx v_fy v_fz 
    1378   -1152449.4            0   -1152449.4 -0.010501993 -0.012429917 -0.0044669536 
    1491   -1152449.4            0   -1152449.4 6.6701907e-06 2.5799242e-05 6.1697691e-05 
Loop time of 1.32307 on 104 procs for 113 steps with 288751 atoms

99.9% CPU use with 104 MPI tasks x 1 OpenMP threads

Minimization stats:
  Stopping criterion = energy tolerance
  Energy initial, next-to-last, final = 
     -1152449.39404841  -1152449.39522626  -1152449.39522626
  Force two-norm initial, final = 0.14971539 0.00023481175
  Force max component initial, final = 0.10708298 6.1697691e-05
  Final line search alpha, max atom move = 1.0000000 6.1697691e-05
  Iterations, force evaluations = 113 226

MPI task timing breakdown:
Section |  min time  |  avg time  |  max time  |%varavg| %total
---------------------------------------------------------------
Pair    | 0.33814    | 0.95636    | 1.2391     |  26.5 | 72.28
Neigh   | 0          | 0          | 0          |   0.0 |  0.00
Comm    | 0.020888   | 0.21509    | 0.64841    |  39.0 | 16.26
Output  | 0          | 0          | 0          |   0.0 |  0.00
Modify  | 1.3616e-05 | 0.0018727  | 0.0039779  |   2.0 |  0.14
Other   |            | 0.1498     |            |       | 11.32

Nlocal:        2776.45 ave        3951 max           0 min
Histogram: 8 4 4 0 4 12 8 0 30 34
Nghost:        3879.01 ave        5424 max         232 min
Histogram: 8 0 8 0 16 0 8 8 16 40
Neighs:        79213.4 ave      115128 max           0 min
Histogram: 8 4 4 0 10 6 8 8 24 32

Total # of neighbors = 8238196
Ave neighs/atom = 28.530450
Neighbor list builds = 0
Dangerous builds = 0
The dot product: -1.80639084628891e-07
Setting atom values ...
  1 settings made for x
  1 settings made for y
  1 settings made for z
Setting up cg style minimization ...
  Unit style    : metal
  Current step  : 1491
Per MPI rank memory allocation (min/avg/max) = 5.441 | 5.816 | 6.074 Mbytes
Step PotEng KinEng TotEng v_fx v_fy v_fz 
    1491   -1152449.4            0   -1152449.4 -0.0079305312 -0.0085796352 -0.0026578872 
    1605   -1152449.4            0   -1152449.4 1.8886736e-05 1.3083828e-05 -1.9259896e-05 
Loop time of 1.34577 on 104 procs for 114 steps with 288751 atoms

99.9% CPU use with 104 MPI tasks x 1 OpenMP threads

Minimization stats:
  Stopping criterion = energy tolerance
  Energy initial, next-to-last, final = 
     -1152449.38114513  -1152449.38231209  -1152449.38231209
  Force two-norm initial, final = 0.15019077 0.00024821398
  Force max component initial, final = 0.10843028 4.2156352e-05
  Final line search alpha, max atom move = 1.0000000 4.2156352e-05
  Iterations, force evaluations = 114 228

MPI task timing breakdown:
Section |  min time  |  avg time  |  max time  |%varavg| %total
---------------------------------------------------------------
Pair    | 0.34424    | 0.96314    | 1.2518     |  26.6 | 71.57
Neigh   | 0          | 0          | 0          |   0.0 |  0.00
Comm    | 0.020718   | 0.21851    | 0.65145    |  38.8 | 16.24
Output  | 0          | 0          | 0          |   0.0 |  0.00
Modify  | 1.3919e-05 | 0.0018932  | 0.0040269  |   2.0 |  0.14
Other   |            | 0.1622     |            |       | 12.05

Nlocal:        2776.45 ave        3949 max           0 min
Histogram: 8 4 4 0 4 12 8 0 28 36
Nghost:        3879.01 ave        5424 max         232 min
Histogram: 8 0 8 0 16 0 8 8 16 40
Neighs:        79213.4 ave      115046 max           0 min
Histogram: 8 4 4 0 10 6 8 8 24 32

Total # of neighbors = 8238193
Ave neighs/atom = 28.530440
Neighbor list builds = 0
Dangerous builds = 0
The dot product: -9.41708061228043e-08
Setting atom values ...
  1 settings made for x
  1 settings made for y
  1 settings made for z
Setting up cg style minimization ...
  Unit style    : metal
  Current step  : 1605
Per MPI rank memory allocation (min/avg/max) = 5.441 | 5.816 | 6.074 Mbytes
Step PotEng KinEng TotEng v_fx v_fy v_fz 
    1605   -1152449.4            0   -1152449.4 -0.0044826849 -0.004612618 -0.0015225534 
    1775   -1152449.4            0   -1152449.4 9.2044674e-06 -2.8070152e-08 -3.1537552e-05 
Loop time of 1.99133 on 104 procs for 170 steps with 288751 atoms

99.9% CPU use with 104 MPI tasks x 1 OpenMP threads

Minimization stats:
  Stopping criterion = energy tolerance
  Energy initial, next-to-last, final = 
     -1152449.36685466  -1152449.36801189  -1152449.36801189
  Force two-norm initial, final = 0.15092465 0.00015320526
  Force max component initial, final = 0.10983949 3.1537552e-05
  Final line search alpha, max atom move = 1.0000000 3.1537552e-05
  Iterations, force evaluations = 170 340

MPI task timing breakdown:
Section |  min time  |  avg time  |  max time  |%varavg| %total
---------------------------------------------------------------
Pair    | 0.50781    | 1.4343     | 1.8578     |  32.5 | 72.03
Neigh   | 0          | 0          | 0          |   0.0 |  0.00
Comm    | 0.030666   | 0.32464    | 0.97941    |  47.5 | 16.30
Output  | 0          | 0          | 0          |   0.0 |  0.00
Modify  | 2.0291e-05 | 0.002816   | 0.0059603  |   2.5 |  0.14
Other   |            | 0.2296     |            |       | 11.53

Nlocal:        2776.45 ave        3947 max           0 min
Histogram: 8 4 4 0 4 12 8 0 28 36
Nghost:        3879.03 ave        5424 max         232 min
Histogram: 8 0 8 0 16 0 8 8 16 40
Neighs:        79213.4 ave      114980 max           0 min
Histogram: 8 4 4 0 10 6 8 8 24 32

Total # of neighbors = 8238192
Ave neighs/atom = 28.530436
Neighbor list builds = 0
Dangerous builds = 0
The dot product: 1.73416009564543e-09
Setting atom values ...
  1 settings made for x
  1 settings made for y
  1 settings made for z
Setting up cg style minimization ...
  Unit style    : metal
  Current step  : 1775
Per MPI rank memory allocation (min/avg/max) = 5.441 | 5.816 | 6.074 Mbytes
Step PotEng KinEng TotEng v_fx v_fy v_fz 
    1775   -1152449.4            0   -1152449.4 -0.00067765383 -0.00076763357 -0.0005918242 
    1873   -1152449.4            0   -1152449.4 3.0628459e-07 -8.2703388e-06 -3.238825e-05 
Loop time of 1.13834 on 104 procs for 98 steps with 288751 atoms

99.9% CPU use with 104 MPI tasks x 1 OpenMP threads

Minimization stats:
  Stopping criterion = energy tolerance
  Energy initial, next-to-last, final = 
     -1152449.35116243  -1152449.35230715  -1152449.35230715
  Force two-norm initial, final = 0.15187411 0.00032968534
  Force max component initial, final = 0.11134364 6.5446833e-05
  Final line search alpha, max atom move = 1.0000000 6.5446833e-05
  Iterations, force evaluations = 98 196

MPI task timing breakdown:
Section |  min time  |  avg time  |  max time  |%varavg| %total
---------------------------------------------------------------
Pair    | 0.29465    | 0.82382    | 1.0695     |  24.6 | 72.37
Neigh   | 0          | 0          | 0          |   0.0 |  0.00
Comm    | 0.019439   | 0.18486    | 0.5544     |  36.1 | 16.24
Output  | 0          | 0          | 0          |   0.0 |  0.00
Modify  | 1.1757e-05 | 0.0016299  | 0.0034407  |   1.9 |  0.14
Other   |            | 0.128      |            |       | 11.25

Nlocal:        2776.45 ave        3945 max           0 min
Histogram: 8 4 4 0 4 12 8 0 28 36
Nghost:        3879.03 ave        5424 max         232 min
Histogram: 8 0 8 0 16 0 8 8 16 40
Neighs:        79213.4 ave      114932 max           0 min
Histogram: 8 4 4 0 10 6 8 8 22 34

Total # of neighbors = 8238192
Ave neighs/atom = 28.530436
Neighbor list builds = 0
Dangerous builds = 0
The dot product: 4.2502962310129e-08
Setting atom values ...
  1 settings made for x
  1 settings made for y
  1 settings made for z
Setting up cg style minimization ...
  Unit style    : metal
  Current step  : 1873
Per MPI rank memory allocation (min/avg/max) = 5.441 | 5.816 | 6.074 Mbytes
Step PotEng KinEng TotEng v_fx v_fy v_fz 
    1873   -1152449.3            0   -1152449.3 0.0030618159 0.0027348138 0.0001387001 
    2000   -1152449.3            0   -1152449.3 1.5884402e-05 2.3739496e-05 3.8029524e-05 
    2015   -1152449.3            0   -1152449.3 7.4123132e-06 5.0760103e-06 -5.6979545e-06 
Loop time of 1.65079 on 104 procs for 142 steps with 288751 atoms

99.9% CPU use with 104 MPI tasks x 1 OpenMP threads

Minimization stats:
  Stopping criterion = energy tolerance
  Energy initial, next-to-last, final = 
      -1152449.3340425  -1152449.33517954  -1152449.33517954
  Force two-norm initial, final = 0.15310807 0.00017441069
  Force max component initial, final = 0.11311939 1.9220381e-05
  Final line search alpha, max atom move = 1.0000000 1.9220381e-05
  Iterations, force evaluations = 142 284

MPI task timing breakdown:
Section |  min time  |  avg time  |  max time  |%varavg| %total
---------------------------------------------------------------
Pair    | 0.42535    | 1.1959     | 1.5473     |  29.6 | 72.45
Neigh   | 0          | 0          | 0          |   0.0 |  0.00
Comm    | 0.030679   | 0.26709    | 0.80961    |  43.8 | 16.18
Output  | 0.00025305 | 0.00026033 | 0.00041101 |   0.0 |  0.02
Modify  | 1.8608e-05 | 0.0023557  | 0.0050469  |   2.3 |  0.14
Other   |            | 0.1852     |            |       | 11.22

Nlocal:        2776.45 ave        3942 max           0 min
Histogram: 8 4 4 0 4 12 8 0 28 36
Nghost:        3879.01 ave        5424 max         232 min
Histogram: 8 0 8 0 16 0 8 8 16 40
Neighs:        79213.4 ave      114845 max           0 min
Histogram: 8 4 4 0 10 6 8 8 22 34

Total # of neighbors = 8238191
Ave neighs/atom = 28.530433
Neighbor list builds = 0
Dangerous builds = 0
The dot product: -8.49746484110241e-09
Setting atom values ...
  1 settings made for x
  1 settings made for y
  1 settings made for z
Setting up cg style minimization ...
  Unit style    : metal
  Current step  : 2015
Per MPI rank memory allocation (min/avg/max) = 5.441 | 5.816 | 6.074 Mbytes
Step PotEng KinEng TotEng v_fx v_fy v_fz 
    2015   -1152449.3            0   -1152449.3 0.0065860059 0.0059822092 0.00097858005 
    2166   -1152449.3            0   -1152449.3 8.4965465e-06 1.3809581e-05 2.5595338e-05 
Loop time of 1.762 on 104 procs for 151 steps with 288751 atoms

99.9% CPU use with 104 MPI tasks x 1 OpenMP threads

Minimization stats:
  Stopping criterion = energy tolerance
  Energy initial, next-to-last, final = 
     -1152449.31547797  -1152449.31661362  -1152449.31661362
  Force two-norm initial, final = 0.1545528 0.00017323835
  Force max component initial, final = 0.11499281 2.5595338e-05
  Final line search alpha, max atom move = 1.0000000 2.5595338e-05
  Iterations, force evaluations = 151 302

MPI task timing breakdown:
Section |  min time  |  avg time  |  max time  |%varavg| %total
---------------------------------------------------------------
Pair    | 0.45223    | 1.2695     | 1.6455     |  30.5 | 72.05
Neigh   | 0          | 0          | 0          |   0.0 |  0.00
Comm    | 0.027739   | 0.28559    | 0.85621    |  45.1 | 16.21
Output  | 0          | 0          | 0          |   0.0 |  0.00
Modify  | 1.8243e-05 | 0.0024982  | 0.0053239  |   2.3 |  0.14
Other   |            | 0.2044     |            |       | 11.60

Nlocal:        2776.45 ave        3932 max           0 min
Histogram: 8 4 4 0 4 12 8 0 26 38
Nghost:        3879.03 ave        5424 max         232 min
Histogram: 8 0 8 0 16 0 8 8 16 40
Neighs:        79213.4 ave      114523 max           0 min
Histogram: 8 4 4 0 8 8 8 8 20 36

Total # of neighbors = 8238191
Ave neighs/atom = 28.530433
Neighbor list builds = 0
Dangerous builds = 0
The dot product: -2.26707139590361e-08
Setting atom values ...
  1 settings made for x
  1 settings made for y
  1 settings made for z
Setting up cg style minimization ...
  Unit style    : metal
  Current step  : 2166
Per MPI rank memory allocation (min/avg/max) = 5.441 | 5.816 | 6.074 Mbytes
Step PotEng KinEng TotEng v_fx v_fy v_fz 
    2166   -1152449.3            0   -1152449.3 0.0099386637 0.0090637104 0.0017293068 
    2326   -1152449.3            0   -1152449.3 5.1969939e-06 7.4605669e-07 -1.528575e-05 
Loop time of 1.86742 on 104 procs for 160 steps with 288751 atoms

99.9% CPU use with 104 MPI tasks x 1 OpenMP threads

Minimization stats:
  Stopping criterion = energy tolerance
  Energy initial, next-to-last, final = 
      -1152449.2954564  -1152449.29659931  -1152449.29659931
  Force two-norm initial, final = 0.15631518 0.00016567963
  Force max component initial, final = 0.11709054 2.3509403e-05
  Final line search alpha, max atom move = 1.0000000 2.3509403e-05
  Iterations, force evaluations = 160 320

MPI task timing breakdown:
Section |  min time  |  avg time  |  max time  |%varavg| %total
---------------------------------------------------------------
Pair    | 0.47874    | 1.3459     | 1.7397     |  31.5 | 72.07
Neigh   | 0          | 0          | 0          |   0.0 |  0.00
Comm    | 0.03416    | 0.30173    | 0.91434    |  46.6 | 16.16
Output  | 0          | 0          | 0          |   0.0 |  0.00
Modify  | 1.9532e-05 | 0.0026491  | 0.0056125  |   2.4 |  0.14
Other   |            | 0.2171     |            |       | 11.63

Nlocal:        2776.45 ave        3930 max           0 min
Histogram: 8 4 4 0 4 12 8 0 26 38
Nghost:        3879.03 ave        5424 max         232 min
Histogram: 8 0 8 0 16 0 8 8 16 40
Neighs:        79213.4 ave      114479 max           0 min
Histogram: 8 4 4 0 8 8 8 8 20 36

Total # of neighbors = 8238191
Ave neighs/atom = 28.530433
Neighbor list builds = 0
Dangerous builds = 0
The dot product: 1.25468462510023e-08
Setting atom values ...
  1 settings made for x
  1 settings made for y
  1 settings made for z
Setting up cg style minimization ...
  Unit style    : metal
  Current step  : 2326
Per MPI rank memory allocation (min/avg/max) = 5.441 | 5.816 | 6.074 Mbytes
Step PotEng KinEng TotEng v_fx v_fy v_fz 
    2326   -1152449.3            0   -1152449.3  0.013169008  0.012057909 0.0022345636 
    2471   -1152449.3            0   -1152449.3 2.7079899e-05 2.3979166e-05 1.2590364e-06 
Loop time of 1.68657 on 104 procs for 145 steps with 288751 atoms

99.9% CPU use with 104 MPI tasks x 1 OpenMP threads

Minimization stats:
  Stopping criterion = energy tolerance
  Energy initial, next-to-last, final = 
     -1152449.27397183   -1152449.2751316   -1152449.2751316
  Force two-norm initial, final = 0.15845788 0.00015363106
  Force max component initial, final = 0.11939309 2.7079899e-05
  Final line search alpha, max atom move = 1.0000000 2.7079899e-05
  Iterations, force evaluations = 145 290

MPI task timing breakdown:
Section |  min time  |  avg time  |  max time  |%varavg| %total
---------------------------------------------------------------
Pair    | 0.43679    | 1.2194     | 1.5753     |  29.9 | 72.30
Neigh   | 0          | 0          | 0          |   0.0 |  0.00
Comm    | 0.029968   | 0.27302    | 0.8266     |  44.2 | 16.19
Output  | 0          | 0          | 0          |   0.0 |  0.00
Modify  | 1.7092e-05 | 0.0023986  | 0.0051481  |   2.3 |  0.14
Other   |            | 0.1918     |            |       | 11.37

Nlocal:        2776.45 ave        3930 max           0 min
Histogram: 8 4 4 0 4 12 8 0 26 38
Nghost:        3879.07 ave        5424 max         232 min
Histogram: 8 0 8 0 16 0 8 8 16 40
Neighs:        79213.3 ave      114479 max           0 min
Histogram: 8 4 4 0 8 8 8 8 20 36

Total # of neighbors = 8238188
Ave neighs/atom = 28.530422
Neighbor list builds = 0
Dangerous builds = 0
The dot product: 7.06752981704169e-08
Setting atom values ...
  1 settings made for x
  1 settings made for y
  1 settings made for z
Setting up cg style minimization ...
  Unit style    : metal
  Current step  : 2471
Per MPI rank memory allocation (min/avg/max) = 5.441 | 5.816 | 6.074 Mbytes
Step PotEng KinEng TotEng v_fx v_fy v_fz 
    2471   -1152449.3            0   -1152449.3  0.016297816  0.015033634 0.0024678717 
    2588   -1152449.3            0   -1152449.3 -4.0606766e-06 1.9332729e-06 2.2685204e-05 
Loop time of 1.38283 on 104 procs for 117 steps with 288751 atoms

99.9% CPU use with 104 MPI tasks x 1 OpenMP threads

Minimization stats:
  Stopping criterion = energy tolerance
  Energy initial, next-to-last, final = 
     -1152449.25102364  -1152449.25221024  -1152449.25221024
  Force two-norm initial, final = 0.16099709 0.00022661271
  Force max component initial, final = 0.12183282 4.1807846e-05
  Final line search alpha, max atom move = 1.0000000 4.1807846e-05
  Iterations, force evaluations = 117 234

MPI task timing breakdown:
Section |  min time  |  avg time  |  max time  |%varavg| %total
---------------------------------------------------------------
Pair    | 0.34958    | 0.98918    | 1.2787     |  27.0 | 71.53
Neigh   | 0          | 0          | 0          |   0.0 |  0.00
Comm    | 0.022388   | 0.22315    | 0.67223    |  39.9 | 16.14
Output  | 0          | 0          | 0          |   0.0 |  0.00
Modify  | 1.4093e-05 | 0.0019419  | 0.0041228  |   2.1 |  0.14
Other   |            | 0.1686     |            |       | 12.19

Nlocal:        2776.45 ave        3930 max           0 min
Histogram: 8 4 4 0 4 12 8 0 26 38
Nghost:        3879.07 ave        5424 max         232 min
Histogram: 8 0 8 0 16 0 8 8 16 40
Neighs:        79213.3 ave      114478 max           0 min
Histogram: 8 4 4 0 8 8 8 8 20 36

Total # of neighbors = 8238188
Ave neighs/atom = 28.530422
Neighbor list builds = 0
Dangerous builds = 0
The dot product: -1.65351745757553e-08
Setting atom values ...
  1 settings made for x
  1 settings made for y
  1 settings made for z
Setting up cg style minimization ...
  Unit style    : metal
  Current step  : 2588
Per MPI rank memory allocation (min/avg/max) = 5.441 | 5.816 | 6.074 Mbytes
Step PotEng KinEng TotEng v_fx v_fy v_fz 
    2588   -1152449.2            0   -1152449.2  0.019186493  0.017915789 0.0024518039 
    2707   -1152449.2            0   -1152449.2 3.8039984e-05 4.3809966e-05 3.8863674e-05 
Loop time of 1.38052 on 104 procs for 119 steps with 288751 atoms

99.9% CPU use with 104 MPI tasks x 1 OpenMP threads

Minimization stats:
  Stopping criterion = energy tolerance
  Energy initial, next-to-last, final = 
     -1152449.22661597  -1152449.22784003  -1152449.22784003
  Force two-norm initial, final = 0.16396848 0.00023933047
  Force max component initial, final = 0.12447334 5.5482978e-05
  Final line search alpha, max atom move = 1.0000000 5.5482978e-05
  Iterations, force evaluations = 119 238

MPI task timing breakdown:
Section |  min time  |  avg time  |  max time  |%varavg| %total
---------------------------------------------------------------
Pair    | 0.35659    | 1.0014     | 1.3023     |  27.2 | 72.54
Neigh   | 0          | 0          | 0          |   0.0 |  0.00
Comm    | 0.021376   | 0.22529    | 0.67615    |  40.1 | 16.32
Output  | 0          | 0          | 0          |   0.0 |  0.00
Modify  | 1.4218e-05 | 0.0019697  | 0.0041933  |   2.1 |  0.14
Other   |            | 0.1518     |            |       | 11.00

Nlocal:        2776.45 ave        3930 max           0 min
Histogram: 8 4 4 0 4 12 8 0 26 38
Nghost:        3879.07 ave        5424 max         232 min
Histogram: 8 0 8 0 16 0 8 8 16 40
Neighs:        79213.3 ave      114481 max           0 min
Histogram: 8 4 4 0 8 8 8 8 20 36

Total # of neighbors = 8238188
Ave neighs/atom = 28.530422
Neighbor list builds = 0
Dangerous builds = 0
The dot product: 2.2203107203494e-07
Setting atom values ...
  1 settings made for x
  1 settings made for y
  1 settings made for z
Setting up cg style minimization ...
  Unit style    : metal
  Current step  : 2707
Per MPI rank memory allocation (min/avg/max) = 5.441 | 5.816 | 6.074 Mbytes
Step PotEng KinEng TotEng v_fx v_fy v_fz 
    2707   -1152449.2            0   -1152449.2   0.02184121  0.020750474 0.0022532131 
    2888   -1152449.2            0   -1152449.2 2.6274809e-06 3.2943731e-06 3.535297e-06 
Loop time of 2.11197 on 104 procs for 181 steps with 288751 atoms

99.9% CPU use with 104 MPI tasks x 1 OpenMP threads

Minimization stats:
  Stopping criterion = energy tolerance
  Energy initial, next-to-last, final = 
     -1152449.20076102  -1152449.20203273  -1152449.20203273
  Force two-norm initial, final = 0.16738911 7.8544245e-05
  Force max component initial, final = 0.12727036 7.7938586e-06
  Final line search alpha, max atom move = 1.0000000 7.7938586e-06
  Iterations, force evaluations = 181 362

MPI task timing breakdown:
Section |  min time  |  avg time  |  max time  |%varavg| %total
---------------------------------------------------------------
Pair    | 0.54068    | 1.5291     | 1.9748     |  33.5 | 72.40
Neigh   | 0          | 0          | 0          |   0.0 |  0.00
Comm    | 0.033595   | 0.34314    | 1.0414     |  49.4 | 16.25
Output  | 0          | 0          | 0          |   0.0 |  0.00
Modify  | 2.1588e-05 | 0.0029972  | 0.0064078  |   2.6 |  0.14
Other   |            | 0.2367     |            |       | 11.21

Nlocal:        2776.45 ave        3930 max           0 min
Histogram: 8 4 4 0 4 12 8 0 26 38
Nghost:        3879.07 ave        5424 max         232 min
Histogram: 8 0 8 0 16 0 8 8 16 40
Neighs:        79213.3 ave      114480 max           0 min
Histogram: 8 4 4 0 8 8 8 8 20 36

Total # of neighbors = 8238183
Ave neighs/atom = 28.530405
Neighbor list builds = 0
Dangerous builds = 0
The dot product: 2.0172266944056e-08
Setting atom values ...
  1 settings made for x
  1 settings made for y
  1 settings made for z
Setting up cg style minimization ...
  Unit style    : metal
  Current step  : 2888
Per MPI rank memory allocation (min/avg/max) = 5.441 | 5.816 | 6.074 Mbytes
Step PotEng KinEng TotEng v_fx v_fy v_fz 
    2888   -1152449.2            0   -1152449.2  0.025214172  0.024388539 0.0015615811 
    3000   -1152449.2            0   -1152449.2 -3.4041553e-05 -3.0554161e-05 7.5447285e-06 
    3013   -1152449.2            0   -1152449.2 2.2737895e-06 1.6344246e-06 -2.157431e-06 
Loop time of 1.45367 on 104 procs for 125 steps with 288751 atoms

99.9% CPU use with 104 MPI tasks x 1 OpenMP threads

Minimization stats:
  Stopping criterion = energy tolerance
  Energy initial, next-to-last, final = 
     -1152449.17348395  -1152449.17482516  -1152449.17482516
  Force two-norm initial, final = 0.17142764 0.00014337821
  Force max component initial, final = 0.13023066 7.0258763e-06
  Final line search alpha, max atom move = 1.0000000 7.0258763e-06
  Iterations, force evaluations = 125 250

MPI task timing breakdown:
Section |  min time  |  avg time  |  max time  |%varavg| %total
---------------------------------------------------------------
Pair    | 0.37537    | 1.0555     | 1.3672     |  28.0 | 72.61
Neigh   | 0          | 0          | 0          |   0.0 |  0.00
Comm    | 0.02246    | 0.23691    | 0.71081    |  41.2 | 16.30
Output  | 0.00024301 | 0.00025321 | 0.00038888 |   0.0 |  0.02
Modify  | 1.5016e-05 | 0.0020669  | 0.0043828  |   2.1 |  0.14
Other   |            | 0.159      |            |       | 10.94

Nlocal:        2776.45 ave        3930 max           0 min
Histogram: 8 4 4 0 4 12 8 0 26 38
Nghost:        3879.07 ave        5424 max         232 min
Histogram: 8 0 8 0 16 0 8 8 16 40
Neighs:        79213.3 ave      114480 max           0 min
Histogram: 8 4 4 0 8 8 8 8 20 36

Total # of neighbors = 8238183
Ave neighs/atom = 28.530405
Neighbor list builds = 0
Dangerous builds = 0
The dot product: 2.14625823235271e-08
Setting atom values ...
  1 settings made for x
  1 settings made for y
  1 settings made for z
Setting up cg style minimization ...
  Unit style    : metal
  Current step  : 3013
Per MPI rank memory allocation (min/avg/max) = 5.441 | 5.816 | 6.074 Mbytes
Step PotEng KinEng TotEng v_fx v_fy v_fz 
    3013   -1152449.1            0   -1152449.1  0.030349326  0.029070149 -0.0036429271 
    3168   -1152449.1            0   -1152449.1 -1.7986966e-05 -2.532867e-05 -3.0637851e-05 
Loop time of 1.80477 on 104 procs for 155 steps with 288751 atoms

99.9% CPU use with 104 MPI tasks x 1 OpenMP threads

Minimization stats:
  Stopping criterion = energy tolerance
  Energy initial, next-to-last, final = 
     -1152449.14482129  -1152449.14628592  -1152449.14628592
  Force two-norm initial, final = 0.17602152 0.00015908674
  Force max component initial, final = 0.13341163 3.1786383e-05
  Final line search alpha, max atom move = 1.0000000 3.1786383e-05
  Iterations, force evaluations = 155 310

MPI task timing breakdown:
Section |  min time  |  avg time  |  max time  |%varavg| %total
---------------------------------------------------------------
Pair    | 0.46378    | 1.305      | 1.6887     |  31.0 | 72.31
Neigh   | 0          | 0          | 0          |   0.0 |  0.00
Comm    | 0.032074   | 0.29219    | 0.87738    |  45.4 | 16.19
Output  | 0          | 0          | 0          |   0.0 |  0.00
Modify  | 1.8611e-05 | 0.0025656  | 0.0054594  |   2.4 |  0.14
Other   |            | 0.205      |            |       | 11.36

Nlocal:        2776.45 ave        3930 max           0 min
Histogram: 8 4 4 0 4 12 8 0 26 38
Nghost:        3879.07 ave        5424 max         232 min
Histogram: 8 0 8 0 16 0 8 8 16 40
Neighs:        79213.3 ave      114463 max           0 min
Histogram: 8 4 4 0 8 8 8 8 20 36

Total # of neighbors = 8238185
Ave neighs/atom = 28.530412
Neighbor list builds = 0
Dangerous builds = 0
The dot product: -2.42899438437956e-07
Setting atom values ...
  1 settings made for x
  1 settings made for y
  1 settings made for z
Setting up cg style minimization ...
  Unit style    : metal
  Current step  : 3168
Per MPI rank memory allocation (min/avg/max) = 5.441 | 5.816 | 6.074 Mbytes
Step PotEng KinEng TotEng v_fx v_fy v_fz 
    3168   -1152449.1            0   -1152449.1  0.038981522    0.0362802 -0.017111643 
    3282   -1152449.1            0   -1152449.1 2.2758402e-06 1.6321256e-05 5.6916831e-05 
Loop time of 1.3243 on 104 procs for 114 steps with 288751 atoms

99.9% CPU use with 104 MPI tasks x 1 OpenMP threads

Minimization stats:
  Stopping criterion = energy tolerance
  Energy initial, next-to-last, final = 
     -1152449.11471317  -1152449.11645339  -1152449.11645339
  Force two-norm initial, final = 0.1832541 0.00023316454
  Force max component initial, final = 0.13706289 5.6916831e-05
  Final line search alpha, max atom move = 1.0000000 5.6916831e-05
  Iterations, force evaluations = 114 228

MPI task timing breakdown:
Section |  min time  |  avg time  |  max time  |%varavg| %total
---------------------------------------------------------------
Pair    | 0.3429     | 0.95774    | 1.2396     |  26.5 | 72.32
Neigh   | 0          | 0          | 0          |   0.0 |  0.00
Comm    | 0.022306   | 0.21422    | 0.64631    |  39.3 | 16.18
Output  | 0          | 0          | 0          |   0.0 |  0.00
Modify  | 1.3848e-05 | 0.0018897  | 0.0040183  |   2.0 |  0.14
Other   |            | 0.1504     |            |       | 11.36

Nlocal:        2776.45 ave        3930 max           0 min
Histogram: 8 4 4 0 4 12 8 0 26 38
Nghost:        3879.07 ave        5424 max         232 min
Histogram: 8 0 8 0 16 0 8 8 16 40
Neighs:        79213.3 ave      114462 max           0 min
Histogram: 8 4 4 0 8 8 8 8 20 36

Total # of neighbors = 8238183
Ave neighs/atom = 28.530405
Neighbor list builds = 0
Dangerous builds = 0
The dot product: -8.91068017770012e-08
Setting atom values ...
  1 settings made for x
  1 settings made for y
  1 settings made for z
Setting up cg style minimization ...
  Unit style    : metal
  Current step  : 3282
Per MPI rank memory allocation (min/avg/max) = 5.441 | 5.816 | 6.074 Mbytes
Step PotEng KinEng TotEng v_fx v_fy v_fz 
    3282   -1152449.1            0   -1152449.1  0.047948389  0.046400141   -0.0291765 
    3408   -1152449.1            0   -1152449.1 8.0988977e-06 1.6710259e-05 3.2538715e-05 
Loop time of 1.4631 on 104 procs for 126 steps with 288751 atoms

99.9% CPU use with 104 MPI tasks x 1 OpenMP threads

Minimization stats:
  Stopping criterion = energy tolerance
  Energy initial, next-to-last, final = 
     -1152449.08327829  -1152449.08534378  -1152449.08534378
  Force two-norm initial, final = 0.19292982 0.00013250597
  Force max component initial, final = 0.14125238 3.2538715e-05
  Final line search alpha, max atom move = 1.0000000 3.2538715e-05
  Iterations, force evaluations = 126 252

MPI task timing breakdown:
Section |  min time  |  avg time  |  max time  |%varavg| %total
---------------------------------------------------------------
Pair    | 0.37701    | 1.0626     | 1.3752     |  27.9 | 72.63
Neigh   | 0          | 0          | 0          |   0.0 |  0.00
Comm    | 0.023504   | 0.23887    | 0.72196    |  41.2 | 16.33
Output  | 0          | 0          | 0          |   0.0 |  0.00
Modify  | 1.5217e-05 | 0.0020928  | 0.0044462  |   2.1 |  0.14
Other   |            | 0.1595     |            |       | 10.90

Nlocal:        2776.45 ave        3930 max           0 min
Histogram: 8 4 4 0 4 12 8 0 26 38
Nghost:        3879.07 ave        5424 max         232 min
Histogram: 8 0 8 0 16 0 8 8 16 40
Neighs:        79213.3 ave      114462 max           0 min
Histogram: 8 4 4 0 8 8 8 8 20 36

Total # of neighbors = 8238183
Ave neighs/atom = 28.530405
Neighbor list builds = 0
Dangerous builds = 0
The dot product: 8.07261152537146e-08
Setting atom values ...
  1 settings made for x
  1 settings made for y
  1 settings made for z
Setting up cg style minimization ...
  Unit style    : metal
  Current step  : 3408
Per MPI rank memory allocation (min/avg/max) = 5.441 | 5.816 | 6.074 Mbytes
Step PotEng KinEng TotEng v_fx v_fy v_fz 
    3408   -1152449.1            0   -1152449.1  0.053150618  0.055575729 -0.037823955 
    3589   -1152449.1            0   -1152449.1 5.8368003e-06 7.6436981e-06 2.7691475e-06 
Loop time of 2.0917 on 104 procs for 181 steps with 288751 atoms

99.9% CPU use with 104 MPI tasks x 1 OpenMP threads

Minimization stats:
  Stopping criterion = energy tolerance
  Energy initial, next-to-last, final = 
     -1152449.05062433  -1152449.05295772  -1152449.05295772
  Force two-norm initial, final = 0.201685 0.00012785504
  Force max component initial, final = 0.14558227 2.3946651e-05
  Final line search alpha, max atom move = 1.0000000 2.3946651e-05
  Iterations, force evaluations = 181 362

MPI task timing breakdown:
Section |  min time  |  avg time  |  max time  |%varavg| %total
---------------------------------------------------------------
Pair    | 0.54215    | 1.5173     | 1.9646     |  33.4 | 72.54
Neigh   | 0          | 0          | 0          |   0.0 |  0.00
Comm    | 0.035362   | 0.33959    | 1.0245     |  49.4 | 16.23
Output  | 0          | 0          | 0          |   0.0 |  0.00
Modify  | 2.141e-05  | 0.0029904  | 0.0063399  |   2.6 |  0.14
Other   |            | 0.2319     |            |       | 11.08

Nlocal:        2776.45 ave        3930 max           0 min
Histogram: 8 4 4 0 4 12 8 0 26 38
Nghost:        3879.07 ave        5425 max         232 min
Histogram: 8 0 8 0 16 0 8 8 16 40
Neighs:        79213.3 ave      114462 max           0 min
Histogram: 8 4 4 0 8 8 8 8 20 36

Total # of neighbors = 8238182
Ave neighs/atom = 28.530402
Neighbor list builds = 0
Dangerous builds = 0
The dot product: 1.61337874236807e-07
Setting atom values ...
  1 settings made for x
  1 settings made for y
  1 settings made for z
Setting up cg style minimization ...
  Unit style    : metal
  Current step  : 3589
Per MPI rank memory allocation (min/avg/max) = 5.441 | 5.816 | 6.074 Mbytes
Step PotEng KinEng TotEng v_fx v_fy v_fz 
    3589     -1152449            0     -1152449  0.055118645  0.062077495 -0.050441698 
    3768     -1152449            0     -1152449 1.1057593e-05 1.3465598e-05 -5.1028157e-06 
Loop time of 2.08214 on 104 procs for 179 steps with 288751 atoms

99.9% CPU use with 104 MPI tasks x 1 OpenMP threads

Minimization stats:
  Stopping criterion = energy tolerance
  Energy initial, next-to-last, final = 
     -1152449.01681752  -1152449.01940356  -1152449.01940356
  Force two-norm initial, final = 0.20995239 0.00017193054
  Force max component initial, final = 0.14965621 4.5144714e-05
  Final line search alpha, max atom move = 1.0000000 4.5144714e-05
  Iterations, force evaluations = 179 358

MPI task timing breakdown:
Section |  min time  |  avg time  |  max time  |%varavg| %total
---------------------------------------------------------------
Pair    | 0.53648    | 1.513      | 1.9507     |  33.2 | 72.67
Neigh   | 0          | 0          | 0          |   0.0 |  0.00
Comm    | 0.036292   | 0.3394     | 1.0272     |  49.5 | 16.30
Output  | 0          | 0          | 0          |   0.0 |  0.00
Modify  | 2.1112e-05 | 0.0029633  | 0.0063094  |   2.6 |  0.14
Other   |            | 0.2268     |            |       | 10.89

Nlocal:        2776.45 ave        3930 max           0 min
Histogram: 8 4 4 0 4 12 8 0 26 38
Nghost:        3879.07 ave        5425 max         232 min
Histogram: 8 0 8 0 16 0 8 8 16 40
Neighs:        79213.2 ave      114462 max           0 min
Histogram: 8 4 4 0 8 8 8 8 20 36

Total # of neighbors = 8238178
Ave neighs/atom = 28.530388
Neighbor list builds = 0
Dangerous builds = 0
The dot product: 4.15059571539972e-07
Setting atom values ...
  1 settings made for x
  1 settings made for y
  1 settings made for z
Setting up cg style minimization ...
  Unit style    : metal
  Current step  : 3768
Per MPI rank memory allocation (min/avg/max) = 5.441 | 5.816 | 6.074 Mbytes
Step PotEng KinEng TotEng v_fx v_fy v_fz 
    3768     -1152449            0     -1152449  0.053647127  0.065132763 -0.068627256 
    3956     -1152449            0     -1152449 7.1068228e-06 1.0158596e-05 5.8212741e-08 
Loop time of 2.17066 on 104 procs for 188 steps with 288751 atoms

99.9% CPU use with 104 MPI tasks x 1 OpenMP threads

Minimization stats:
  Stopping criterion = energy tolerance
  Energy initial, next-to-last, final = 
      -1152448.9821084  -1152448.98488904  -1152448.98488904
  Force two-norm initial, final = 0.21843797 0.00013878752
  Force max component initial, final = 0.15353016 3.9436916e-05
  Final line search alpha, max atom move = 1.0000000 3.9436916e-05
  Iterations, force evaluations = 188 376

MPI task timing breakdown:
Section |  min time  |  avg time  |  max time  |%varavg| %total
---------------------------------------------------------------
Pair    | 0.56218    | 1.5752     | 2.0443     |  34.1 | 72.57
Neigh   | 0          | 0          | 0          |   0.0 |  0.00
Comm    | 0.035007   | 0.35257    | 1.0585     |  50.2 | 16.24
Output  | 0          | 0          | 0          |   0.0 |  0.00
Modify  | 2.2676e-05 | 0.0031018  | 0.0066048  |   2.6 |  0.14
Other   |            | 0.2398     |            |       | 11.05

Nlocal:        2776.45 ave        3930 max           0 min
Histogram: 8 4 4 0 4 12 8 0 26 38
Nghost:        3879.01 ave        5426 max         232 min
Histogram: 8 0 8 0 16 0 8 8 16 40
Neighs:        79213.2 ave      114460 max           0 min
Histogram: 8 4 4 0 8 8 8 8 20 36

Total # of neighbors = 8238178
Ave neighs/atom = 28.530388
Neighbor list builds = 0
Dangerous builds = 0
The dot product: 2.34928311844888e-07
Setting atom values ...
  1 settings made for x
  1 settings made for y
  1 settings made for z
Setting up cg style minimization ...
  Unit style    : metal
  Current step  : 3956
Per MPI rank memory allocation (min/avg/max) = 5.441 | 5.816 | 6.074 Mbytes
Step PotEng KinEng TotEng v_fx v_fy v_fz 
    3956   -1152448.9            0   -1152448.9  0.047429466  0.063630224 -0.081721685 
    4000   -1152448.9            0   -1152448.9 -0.00030193936 -0.00047865636 -9.6827448e-05 
    4279     -1152449            0     -1152449 -3.7426155e-06 -9.7360959e-06 -3.3093241e-05 
Loop time of 3.74203 on 104 procs for 323 steps with 288751 atoms

99.9% CPU use with 104 MPI tasks x 1 OpenMP threads

Minimization stats:
  Stopping criterion = energy tolerance
  Energy initial, next-to-last, final = 
      -1152448.9467254  -1152448.98110176  -1152448.98110176
  Force two-norm initial, final = 0.22434611 0.00018155726
  Force max component initial, final = 0.15704099 4.1349876e-05
  Final line search alpha, max atom move = 1.0000000 4.1349876e-05
  Iterations, force evaluations = 323 644

MPI task timing breakdown:
Section |  min time  |  avg time  |  max time  |%varavg| %total
---------------------------------------------------------------
Pair    | 0.97191    | 2.7146     | 3.5066     |  44.4 | 72.54
Neigh   | 2.1274e-05 | 0.0058306  | 0.0084749  |   3.2 |  0.16
Comm    | 0.057848   | 0.60793    | 1.8439     |  66.0 | 16.25
Output  | 0.00015569 | 0.00016285 | 0.00026563 |   0.0 |  0.00
Modify  | 3.8309e-05 | 0.0053275  | 0.011461   |   3.4 |  0.14
Other   |            | 0.4082     |            |       | 10.91

Nlocal:        2776.45 ave        3951 max           0 min
Histogram: 8 4 4 0 4 12 8 1 29 34
Nghost:        3879.01 ave        5426 max         232 min
Histogram: 8 0 8 0 16 0 8 8 16 40
Neighs:        79213.3 ave      115141 max           0 min
Histogram: 8 4 4 0 10 6 8 8 24 32

Total # of neighbors = 8238182
Ave neighs/atom = 28.530402
Neighbor list builds = 2
Dangerous builds = 0
The dot product: 1.86069346876762e-06
Setting atom values ...
  1 settings made for x
  1 settings made for y
  1 settings made for z
Setting up cg style minimization ...
  Unit style    : metal
  Current step  : 4279
Per MPI rank memory allocation (min/avg/max) = 5.441 | 5.816 | 6.074 Mbytes
Step PotEng KinEng TotEng v_fx v_fy v_fz 
    4279     -1152449            0     -1152449  0.021524549  0.051735675  -0.14003415 
    4471     -1152449            0     -1152449 -9.9406896e-06 -1.8796551e-05 1.6784251e-05 
Loop time of 2.23188 on 104 procs for 192 steps with 288751 atoms

99.9% CPU use with 104 MPI tasks x 1 OpenMP threads

Minimization stats:
  Stopping criterion = energy tolerance
  Energy initial, next-to-last, final = 
     -1152448.95875058  -1152448.96262925  -1152448.96262925
  Force two-norm initial, final = 0.2557866 0.0001794022
  Force max component initial, final = 0.16443065 4.5423145e-05
  Final line search alpha, max atom move = 1.0000000 4.5423145e-05
  Iterations, force evaluations = 192 384

MPI task timing breakdown:
Section |  min time  |  avg time  |  max time  |%varavg| %total
---------------------------------------------------------------
Pair    | 0.57437    | 1.6165     | 2.0925     |  34.6 | 72.43
Neigh   | 0          | 0          | 0          |   0.0 |  0.00
Comm    | 0.034003   | 0.36302    | 1.0911     |  51.0 | 16.27
Output  | 0          | 0          | 0          |   0.0 |  0.00
Modify  | 2.2948e-05 | 0.0031774  | 0.0067602  |   2.7 |  0.14
Other   |            | 0.2492     |            |       | 11.17

Nlocal:        2776.45 ave        3945 max           0 min
Histogram: 8 4 4 0 4 12 8 0 28 36
Nghost:        3879.03 ave        5429 max         232 min
Histogram: 8 0 8 0 16 0 8 8 16 40
Neighs:        79213.3 ave      114930 max           0 min
Histogram: 8 4 4 0 10 6 8 8 22 34

Total # of neighbors = 8238183
Ave neighs/atom = 28.530405
Neighbor list builds = 0
Dangerous builds = 0
The dot product: -6.78652730620314e-07
Setting atom values ...
  1 settings made for x
  1 settings made for y
  1 settings made for z
Setting up cg style minimization ...
  Unit style    : metal
  Current step  : 4471
Per MPI rank memory allocation (min/avg/max) = 5.441 | 5.816 | 6.074 Mbytes
Step PotEng KinEng TotEng v_fx v_fy v_fz 
    4471   -1152448.9            0   -1152448.9 0.0058919356  0.025018895 -0.068497374 
    4689   -1152448.9            0   -1152448.9 2.959836e-06 4.9668854e-06 1.4818064e-06 
Loop time of 2.54725 on 104 procs for 218 steps with 288751 atoms

99.9% CPU use with 104 MPI tasks x 1 OpenMP threads

Minimization stats:
  Stopping criterion = energy tolerance
  Energy initial, next-to-last, final = 
     -1152448.94018827  -1152448.94255133  -1152448.94255133
  Force two-norm initial, final = 0.2235855 3.0677531e-05
  Force max component initial, final = 0.16589872 6.1826461e-06
  Final line search alpha, max atom move = 1.0000000 6.1826461e-06
  Iterations, force evaluations = 218 436

MPI task timing breakdown:
Section |  min time  |  avg time  |  max time  |%varavg| %total
---------------------------------------------------------------
Pair    | 0.65964    | 1.8397     | 2.3797     |  36.6 | 72.22
Neigh   | 0          | 0          | 0          |   0.0 |  0.00
Comm    | 0.039055   | 0.41435    | 1.2533     |  54.0 | 16.27
Output  | 0          | 0          | 0          |   0.0 |  0.00
Modify  | 2.5801e-05 | 0.0036043  | 0.0076467  |   2.8 |  0.14
Other   |            | 0.2896     |            |       | 11.37

Nlocal:        2776.45 ave        3946 max           0 min
Histogram: 8 4 4 0 4 12 8 0 28 36
Nghost:        3879.01 ave        5424 max         232 min
Histogram: 8 0 8 0 16 0 8 8 16 40
Neighs:        79213.3 ave      114956 max           0 min
Histogram: 8 4 4 0 10 6 8 8 24 32

Total # of neighbors = 8238184
Ave neighs/atom = 28.530409
Neighbor list builds = 0
Dangerous builds = 0
The dot product: 3.65702242728339e-09
Setting atom values ...
  1 settings made for x
  1 settings made for y
  1 settings made for z
Setting up cg style minimization ...
  Unit style    : metal
  Current step  : 4689
Per MPI rank memory allocation (min/avg/max) = 5.441 | 5.816 | 6.074 Mbytes
Step PotEng KinEng TotEng v_fx v_fy v_fz 
    4689   -1152448.9            0   -1152448.9 0.0010491567  0.012800471 -0.041441038 
    4827   -1152448.9            0   -1152448.9 -2.9179191e-05 -4.9622757e-05 -1.2602299e-05 
Loop time of 1.60758 on 104 procs for 138 steps with 288751 atoms

99.9% CPU use with 104 MPI tasks x 1 OpenMP threads

Minimization stats:
  Stopping criterion = energy tolerance
  Energy initial, next-to-last, final = 
     -1152448.92010411  -1152448.92239165  -1152448.92239165
  Force two-norm initial, final = 0.22081057 0.00019598819
  Force max component initial, final = 0.16766364 4.9622757e-05
  Final line search alpha, max atom move = 1.0000000 4.9622757e-05
  Iterations, force evaluations = 138 276

MPI task timing breakdown:
Section |  min time  |  avg time  |  max time  |%varavg| %total
---------------------------------------------------------------
Pair    | 0.41487    | 1.1615     | 1.5047     |  29.2 | 72.25
Neigh   | 0          | 0          | 0          |   0.0 |  0.00
Comm    | 0.026143   | 0.26062    | 0.78393    |  43.1 | 16.21
Output  | 0          | 0          | 0          |   0.0 |  0.00
Modify  | 1.6499e-05 | 0.0022894  | 0.0048713  |   2.2 |  0.14
Other   |            | 0.1832     |            |       | 11.40

Nlocal:        2776.45 ave        3946 max           0 min
Histogram: 8 4 4 0 4 12 8 0 28 36
Nghost:        3879.05 ave        5425 max         232 min
Histogram: 8 0 8 0 16 0 8 8 16 40
Neighs:        79213.3 ave      114946 max           0 min
Histogram: 8 4 4 0 10 6 8 8 24 32

Total # of neighbors = 8238185
Ave neighs/atom = 28.530412
Neighbor list builds = 0
Dangerous builds = 0
The dot product: -8.56720486494055e-09
Setting atom values ...
  1 settings made for x
  1 settings made for y
  1 settings made for z
Setting up cg style minimization ...
  Unit style    : metal
  Current step  : 4827
Per MPI rank memory allocation (min/avg/max) = 5.441 | 5.816 | 6.074 Mbytes
Step PotEng KinEng TotEng v_fx v_fy v_fz 
    4827   -1152448.9            0   -1152448.9 -0.00055970464  0.007873689 -0.030271696 
    4970   -1152448.9            0   -1152448.9 5.9269197e-06 8.8229201e-06 6.8557792e-06 
Loop time of 1.66687 on 104 procs for 143 steps with 288751 atoms

99.9% CPU use with 104 MPI tasks x 1 OpenMP threads

Minimization stats:
  Stopping criterion = energy tolerance
  Energy initial, next-to-last, final = 
     -1152448.90013664  -1152448.90212579  -1152448.90212579
  Force two-norm initial, final = 0.22080074 0.00020880874
  Force max component initial, final = 0.16966615 6.7794372e-05
  Final line search alpha, max atom move = 1.0000000 6.7794372e-05
  Iterations, force evaluations = 143 286

MPI task timing breakdown:
Section |  min time  |  avg time  |  max time  |%varavg| %total
---------------------------------------------------------------
Pair    | 0.42592    | 1.2047     | 1.5611     |  29.8 | 72.28
Neigh   | 0          | 0          | 0          |   0.0 |  0.00
Comm    | 0.025296   | 0.27063    | 0.81071    |  43.9 | 16.24
Output  | 0          | 0          | 0          |   0.0 |  0.00
Modify  | 1.6988e-05 | 0.0023691  | 0.0050529  |   2.3 |  0.14
Other   |            | 0.1891     |            |       | 11.35

Nlocal:        2776.45 ave        3947 max           0 min
Histogram: 8 4 4 0 4 12 8 0 28 36
Nghost:        3879.05 ave        5425 max         232 min
Histogram: 8 0 8 0 16 0 8 8 16 40
Neighs:        79213.3 ave      114988 max           0 min
Histogram: 8 4 4 0 10 6 8 8 24 32

Total # of neighbors = 8238182
Ave neighs/atom = 28.530402
Neighbor list builds = 0
Dangerous builds = 0
The dot product: -2.46515010529022e-08
Setting atom values ...
  1 settings made for x
  1 settings made for y
  1 settings made for z
Setting up cg style minimization ...
  Unit style    : metal
  Current step  : 4970
Per MPI rank memory allocation (min/avg/max) = 5.441 | 5.816 | 6.074 Mbytes
Step PotEng KinEng TotEng v_fx v_fy v_fz 
    4970   -1152448.9            0   -1152448.9 -0.00043774149  0.005519131 -0.020310707 
    5000   -1152448.9            0   -1152448.9 -2.4024467e-05 1.2860561e-06 -0.00014572085 
    5160   -1152448.9            0   -1152448.9 1.5535025e-06 3.5554299e-06 -2.2666021e-06 
Loop time of 2.20158 on 104 procs for 190 steps with 288751 atoms

99.9% CPU use with 104 MPI tasks x 1 OpenMP threads

Minimization stats:
  Stopping criterion = energy tolerance
  Energy initial, next-to-last, final = 
     -1152448.87880982  -1152448.88061706  -1152448.88061706
  Force two-norm initial, final = 0.2192557 9.1703437e-05
  Force max component initial, final = 0.17168625 3.5455144e-05
  Final line search alpha, max atom move = 1.0000000 3.5455144e-05
  Iterations, force evaluations = 190 380

MPI task timing breakdown:
Section |  min time  |  avg time  |  max time  |%varavg| %total
---------------------------------------------------------------
Pair    | 0.5693     | 1.5952     | 2.0725     |  34.3 | 72.46
Neigh   | 0          | 0          | 0          |   0.0 |  0.00
Comm    | 0.036199   | 0.35648    | 1.0714     |  50.4 | 16.19
Output  | 0.00015301 | 0.00016321 | 0.00024959 |   0.0 |  0.01
Modify  | 2.2638e-05 | 0.0031443  | 0.0066828  |   2.6 |  0.14
Other   |            | 0.2466     |            |       | 11.20

Nlocal:        2776.45 ave        3946 max           0 min
Histogram: 8 4 4 0 4 12 8 0 28 36
Nghost:        3879.03 ave        5425 max         232 min
Histogram: 8 0 8 0 16 0 8 8 16 40
Neighs:        79213.3 ave      114945 max           0 min
Histogram: 8 4 4 0 10 6 8 8 24 32

Total # of neighbors = 8238180
Ave neighs/atom = 28.530395
Neighbor list builds = 0
Dangerous builds = 0
The dot product: 4.72761532898206e-09
Setting atom values ...
  1 settings made for x
  1 settings made for y
  1 settings made for z
Setting up cg style minimization ...
  Unit style    : metal
  Current step  : 5160
Per MPI rank memory allocation (min/avg/max) = 5.441 | 5.816 | 6.074 Mbytes
Step PotEng KinEng TotEng v_fx v_fy v_fz 
    5160   -1152448.9            0   -1152448.9 -0.00023419321 0.0038625777 -0.013476651 
    5308   -1152448.9            0   -1152448.9 1.7237045e-05 3.7350741e-05 -1.8015135e-05 
Loop time of 1.71243 on 104 procs for 148 steps with 288751 atoms

99.9% CPU use with 104 MPI tasks x 1 OpenMP threads

Minimization stats:
  Stopping criterion = energy tolerance
  Energy initial, next-to-last, final = 
     -1152448.85530157  -1152448.85722096  -1152448.85722096
  Force two-norm initial, final = 0.22319477 0.0002164895
  Force max component initial, final = 0.17396377 4.9945122e-05
  Final line search alpha, max atom move = 1.0000000 4.9945122e-05
  Iterations, force evaluations = 148 296

MPI task timing breakdown:
Section |  min time  |  avg time  |  max time  |%varavg| %total
---------------------------------------------------------------
Pair    | 0.44298    | 1.2497     | 1.615      |  30.3 | 72.98
Neigh   | 0          | 0          | 0          |   0.0 |  0.00
Comm    | 0.025281   | 0.27972    | 0.85325    |  44.9 | 16.33
Output  | 0          | 0          | 0          |   0.0 |  0.00
Modify  | 1.7572e-05 | 0.0024527  | 0.0052461  |   2.3 |  0.14
Other   |            | 0.1806     |            |       | 10.55

Nlocal:        2776.45 ave        3945 max           0 min
Histogram: 8 4 4 0 4 12 8 0 28 36
Nghost:        3879.01 ave        5425 max         232 min
Histogram: 8 0 8 0 16 0 8 8 16 40
Neighs:        79213.3 ave      114920 max           0 min
Histogram: 8 4 4 0 10 6 8 8 22 34

Total # of neighbors = 8238179
Ave neighs/atom = 28.530391
Neighbor list builds = 0
Dangerous builds = 0
The dot product: -1.01091654948966e-08
Setting atom values ...
  1 settings made for x
  1 settings made for y
  1 settings made for z
Setting up cg style minimization ...
  Unit style    : metal
  Current step  : 5308
Per MPI rank memory allocation (min/avg/max) = 5.441 | 5.816 | 6.074 Mbytes
Step PotEng KinEng TotEng v_fx v_fy v_fz 
    5308   -1152448.8            0   -1152448.8 -8.7913938e-05 0.0029794567 -0.0098037442 
    5501   -1152448.8            0   -1152448.8 -4.6936616e-06 -1.088724e-05 7.1701434e-06 
Loop time of 2.24375 on 104 procs for 193 steps with 288751 atoms

99.9% CPU use with 104 MPI tasks x 1 OpenMP threads

Minimization stats:
  Stopping criterion = energy tolerance
  Energy initial, next-to-last, final = 
     -1152448.82967383  -1152448.83170565  -1152448.83170565
  Force two-norm initial, final = 0.22783992 9.9009835e-05
  Force max component initial, final = 0.17624048 3.6509541e-05
  Final line search alpha, max atom move = 1.0000000 3.6509541e-05
  Iterations, force evaluations = 193 386

MPI task timing breakdown:
Section |  min time  |  avg time  |  max time  |%varavg| %total
---------------------------------------------------------------
Pair    | 0.57852    | 1.6203     | 2.1071     |  34.6 | 72.22
Neigh   | 0          | 0          | 0          |   0.0 |  0.00
Comm    | 0.035184   | 0.36354    | 1.0881     |  50.8 | 16.20
Output  | 0          | 0          | 0          |   0.0 |  0.00
Modify  | 2.2869e-05 | 0.0031904  | 0.006777   |   2.7 |  0.14
Other   |            | 0.2567     |            |       | 11.44

Nlocal:        2776.45 ave        3943 max           0 min
Histogram: 8 4 4 0 4 12 8 0 28 36
Nghost:        3879.01 ave        5425 max         232 min
Histogram: 8 0 8 0 16 0 8 8 16 40
Neighs:        79213.2 ave      114869 max           0 min
Histogram: 8 4 4 0 10 6 8 8 22 34

Total # of neighbors = 8238177
Ave neighs/atom = 28.530384
Neighbor list builds = 0
Dangerous builds = 0
The dot product: 8.86948543244027e-09
Setting atom values ...
  1 settings made for x
  1 settings made for y
  1 settings made for z
Setting up cg style minimization ...
  Unit style    : metal
  Current step  : 5501
Per MPI rank memory allocation (min/avg/max) = 5.441 | 5.816 | 6.074 Mbytes
Step PotEng KinEng TotEng v_fx v_fy v_fz 
    5501   -1152448.8            0   -1152448.8 2.5174427e-05 0.0025242103 -0.0077464341 
    5630   -1152448.8            0   -1152448.8 8.8948868e-06 4.4118562e-06 3.6950074e-05 
Loop time of 1.50917 on 104 procs for 129 steps with 288751 atoms

99.9% CPU use with 104 MPI tasks x 1 OpenMP threads

Minimization stats:
  Stopping criterion = energy tolerance
  Energy initial, next-to-last, final = 
     -1152448.80181459  -1152448.80394532  -1152448.80394532
  Force two-norm initial, final = 0.23236436 0.00025041042
  Force max component initial, final = 0.17848071 7.3124204e-05
  Final line search alpha, max atom move = 1.0000000 7.3124204e-05
  Iterations, force evaluations = 129 258

MPI task timing breakdown:
Section |  min time  |  avg time  |  max time  |%varavg| %total
---------------------------------------------------------------
Pair    | 0.38792    | 1.0907     | 1.4032     |  28.2 | 72.27
Neigh   | 0          | 0          | 0          |   0.0 |  0.00
Comm    | 0.024092   | 0.24553    | 0.74227    |  41.6 | 16.27
Output  | 0          | 0          | 0          |   0.0 |  0.00
Modify  | 1.5522e-05 | 0.0021409  | 0.0045671  |   2.2 |  0.14
Other   |            | 0.1708     |            |       | 11.32

Nlocal:        2776.45 ave        3940 max           0 min
Histogram: 8 4 4 0 4 12 8 0 28 36
Nghost:        3878.97 ave        5425 max         232 min
Histogram: 8 0 8 0 16 0 8 8 16 40
Neighs:        79213.2 ave      114779 max           0 min
Histogram: 8 4 4 0 10 6 8 8 22 34

Total # of neighbors = 8238176
Ave neighs/atom = 28.530381
Neighbor list builds = 0
Dangerous builds = 0
The dot product: 4.69545791036059e-09
Setting atom values ...
  1 settings made for x
  1 settings made for y
  1 settings made for z
Setting up cg style minimization ...
  Unit style    : metal
  Current step  : 5630
Per MPI rank memory allocation (min/avg/max) = 5.441 | 5.816 | 6.074 Mbytes
Step PotEng KinEng TotEng v_fx v_fy v_fz 
    5630   -1152448.8            0   -1152448.8 0.00028830161 0.0025502627 -0.006366388 
    5822   -1152448.8            0   -1152448.8 -1.3532087e-06 -2.0358372e-06 -1.3393209e-06 
Loop time of 2.23892 on 104 procs for 192 steps with 288751 atoms

99.9% CPU use with 104 MPI tasks x 1 OpenMP threads

Minimization stats:
  Stopping criterion = energy tolerance
  Energy initial, next-to-last, final = 
     -1152448.77164676   -1152448.7738542   -1152448.7738542
  Force two-norm initial, final = 0.23631443 0.00011086548
  Force max component initial, final = 0.18081467 3.1276854e-05
  Final line search alpha, max atom move = 1.0000000 3.1276854e-05
  Iterations, force evaluations = 192 384

MPI task timing breakdown:
Section |  min time  |  avg time  |  max time  |%varavg| %total
---------------------------------------------------------------
Pair    | 0.57456    | 1.6175     | 2.0821     |  34.3 | 72.25
Neigh   | 0          | 0          | 0          |   0.0 |  0.00
Comm    | 0.038799   | 0.36545    | 1.1121     |  51.3 | 16.32
Output  | 0          | 0          | 0          |   0.0 |  0.00
Modify  | 2.3024e-05 | 0.0031809  | 0.006742   |   2.7 |  0.14
Other   |            | 0.2528     |            |       | 11.29

Nlocal:        2776.45 ave        3930 max           0 min
Histogram: 8 4 4 0 4 12 8 0 26 38
Nghost:        3878.97 ave        5425 max         232 min
Histogram: 8 0 8 0 16 0 8 8 16 40
Neighs:        79213.2 ave      114460 max           0 min
Histogram: 8 4 4 0 8 8 8 8 20 36

Total # of neighbors = 8238169
Ave neighs/atom = 28.530357
Neighbor list builds = 0
Dangerous builds = 0
The dot product: 1.51004390876793e-09
Setting atom values ...
  1 settings made for x
  1 settings made for y
  1 settings made for z
Setting up cg style minimization ...
  Unit style    : metal
  Current step  : 5822
Per MPI rank memory allocation (min/avg/max) = 5.441 | 5.816 | 6.074 Mbytes
Step PotEng KinEng TotEng v_fx v_fy v_fz 
    5822   -1152448.7            0   -1152448.7 0.00055194581  0.002858993 -0.0058785361 
    5954   -1152448.7            0   -1152448.7 2.4159832e-06 2.5505913e-06 5.7968926e-06 
Loop time of 1.52526 on 104 procs for 132 steps with 288751 atoms

99.9% CPU use with 104 MPI tasks x 1 OpenMP threads

Minimization stats:
  Stopping criterion = energy tolerance
  Energy initial, next-to-last, final = 
     -1152448.73911504  -1152448.74137525  -1152448.74137525
  Force two-norm initial, final = 0.23962646 0.00023623718
  Force max component initial, final = 0.18332051 7.4498588e-05
  Final line search alpha, max atom move = 1.0000000 7.4498588e-05
  Iterations, force evaluations = 132 264

MPI task timing breakdown:
Section |  min time  |  avg time  |  max time  |%varavg| %total
---------------------------------------------------------------
Pair    | 0.39567    | 1.1118     | 1.4377     |  28.6 | 72.89
Neigh   | 0          | 0          | 0          |   0.0 |  0.00
Comm    | 0.025432   | 0.24772    | 0.75196    |  42.4 | 16.24
Output  | 0          | 0          | 0          |   0.0 |  0.00
Modify  | 1.5734e-05 | 0.0021844  | 0.0046371  |   2.2 |  0.14
Other   |            | 0.1636     |            |       | 10.72

Nlocal:        2776.45 ave        3930 max           0 min
Histogram: 8 4 4 0 4 12 8 0 26 38
Nghost:        3879.04 ave        5426 max         232 min
Histogram: 8 0 8 0 16 0 8 8 16 40
Neighs:        79213.1 ave      114459 max           0 min
Histogram: 8 4 4 0 8 8 8 8 20 36

Total # of neighbors = 8238166
Ave neighs/atom = 28.530346
Neighbor list builds = 0
Dangerous builds = 0
The dot product: 1.06770986405455e-09
Setting atom values ...
  1 settings made for x
  1 settings made for y
  1 settings made for z
Setting up cg style minimization ...
  Unit style    : metal
  Current step  : 5954
Per MPI rank memory allocation (min/avg/max) = 5.441 | 5.816 | 6.074 Mbytes
Step PotEng KinEng TotEng v_fx v_fy v_fz 
    5954   -1152448.7            0   -1152448.7 0.00086731009 0.0033328654 -0.0056270772 
    6000   -1152448.7            0   -1152448.7 1.2223422e-05 -5.3154613e-06 8.750339e-05 
    6113   -1152448.7            0   -1152448.7 -6.1925306e-07 8.3944911e-07 -6.2519772e-06 
Loop time of 1.85133 on 104 procs for 159 steps with 288751 atoms

99.9% CPU use with 104 MPI tasks x 1 OpenMP threads

Minimization stats:
  Stopping criterion = energy tolerance
  Energy initial, next-to-last, final = 
      -1152448.7041875  -1152448.70648008  -1152448.70648008
  Force two-norm initial, final = 0.24217365 0.00027730601
  Force max component initial, final = 0.18578832 8.0427700e-05
  Final line search alpha, max atom move = 1.0000000 8.0427700e-05
  Iterations, force evaluations = 159 318

MPI task timing breakdown:
Section |  min time  |  avg time  |  max time  |%varavg| %total
---------------------------------------------------------------
Pair    | 0.47598    | 1.3363     | 1.7301     |  31.4 | 72.18
Neigh   | 0          | 0          | 0          |   0.0 |  0.00
Comm    | 0.029329   | 0.30051    | 0.90005    |  46.4 | 16.23
Output  | 0.00025248 | 0.00025476 | 0.000357   |   0.0 |  0.01
Modify  | 1.8821e-05 | 0.0026324  | 0.0055913  |   2.4 |  0.14
Other   |            | 0.2116     |            |       | 11.43

Nlocal:        2776.45 ave        3930 max           0 min
Histogram: 8 4 4 0 4 12 8 0 26 38
Nghost:        3878.98 ave        5426 max         232 min
Histogram: 8 0 8 0 16 0 8 8 16 40
Neighs:        79213.1 ave      114459 max           0 min
Histogram: 8 4 4 0 8 8 8 8 20 36

Total # of neighbors = 8238166
Ave neighs/atom = 28.530346
Neighbor list builds = 0
Dangerous builds = 0
The dot product: -4.97973614038897e-09
Setting atom values ...
  1 settings made for x
  1 settings made for y
  1 settings made for z
Setting up cg style minimization ...
  Unit style    : metal
  Current step  : 6113
Per MPI rank memory allocation (min/avg/max) = 5.441 | 5.816 | 6.074 Mbytes
Step PotEng KinEng TotEng v_fx v_fy v_fz 
    6113   -1152448.7            0   -1152448.7 0.0011812515 0.0039826149 -0.0059538324 
    6306   -1152448.7            0   -1152448.7 -2.1117989e-06 -2.1757246e-06 -5.2618324e-06 
Loop time of 2.23782 on 104 procs for 193 steps with 288751 atoms

99.9% CPU use with 104 MPI tasks x 1 OpenMP threads

Minimization stats:
  Stopping criterion = energy tolerance
  Energy initial, next-to-last, final = 
     -1152448.66685822  -1152448.66916348  -1152448.66916348
  Force two-norm initial, final = 0.24401224 0.000125953
  Force max component initial, final = 0.18807519 4.6555138e-05
  Final line search alpha, max atom move = 1.0000000 4.6555138e-05
  Iterations, force evaluations = 193 386

MPI task timing breakdown:
Section |  min time  |  avg time  |  max time  |%varavg| %total
---------------------------------------------------------------
Pair    | 0.57823    | 1.6278     | 2.1025     |  34.6 | 72.74
Neigh   | 0          | 0          | 0          |   0.0 |  0.00
Comm    | 0.033615   | 0.36544    | 1.1074     |  51.2 | 16.33
Output  | 0          | 0          | 0          |   0.0 |  0.00
Modify  | 2.2949e-05 | 0.0031929  | 0.0068555  |   2.7 |  0.14
Other   |            | 0.2414     |            |       | 10.79

Nlocal:        2776.45 ave        3930 max           0 min
Histogram: 8 4 4 0 4 12 8 0 26 38
Nghost:        3878.95 ave        5426 max         232 min
Histogram: 8 0 8 0 16 0 8 8 16 40
Neighs:        79213.1 ave      114460 max           0 min
Histogram: 8 4 4 0 8 8 8 8 20 36

Total # of neighbors = 8238163
Ave neighs/atom = 28.530336
Neighbor list builds = 0
Dangerous builds = 0
The dot product: -2.14448028229273e-09
Setting atom values ...
  1 settings made for x
  1 settings made for y
  1 settings made for z
Setting up cg style minimization ...
  Unit style    : metal
  Current step  : 6306
Per MPI rank memory allocation (min/avg/max) = 5.441 | 5.816 | 6.074 Mbytes
Step PotEng KinEng TotEng v_fx v_fy v_fz 
    6306   -1152448.6            0   -1152448.6 0.0015230361 0.0047979537 -0.0066643474 
    6441   -1152448.6            0   -1152448.6 3.9837345e-06 4.337059e-06 9.2061921e-06 
Loop time of 1.57187 on 104 procs for 135 steps with 288751 atoms

99.9% CPU use with 104 MPI tasks x 1 OpenMP threads

Minimization stats:
[...]
Histogram: 8 0 8 0 16 0 8 8 16 40
Neighs:        79213.2 ave      115336 max           0 min
Histogram: 8 4 4 0 10 6 8 8 24 32

Total # of neighbors = 8238174
Ave neighs/atom = 28.530374
Neighbor list builds = 0
Dangerous builds = 0
The dot product: 3.68592685979227e-09
Setting atom values ...
  1 settings made for x
  1 settings made for y
  1 settings made for z
Setting up cg style minimization ...
  Unit style    : metal
  Current step  : 27441
Per MPI rank memory allocation (min/avg/max) = 5.441 | 5.816 | 6.074 Mbytes
Step PotEng KinEng TotEng v_fx v_fy v_fz 
   27441   -1152449.1            0   -1152449.1 0.0067345591 -0.0028190028 0.0096469548 
   27709   -1152449.1            0   -1152449.1 2.3858822e-08 -1.2274852e-07 3.3988028e-08 
Loop time of 3.13132 on 104 procs for 268 steps with 288751 atoms

99.9% CPU use with 104 MPI tasks x 1 OpenMP threads

Minimization stats:
  Stopping criterion = linesearch alpha is zero
  Energy initial, next-to-last, final = 
     -1152449.10619839  -1152449.10755828  -1152449.10755828
  Force two-norm initial, final = 0.16202494 2.5710040e-06
  Force max component initial, final = 0.076809597 1.2274852e-07
  Final line search alpha, max atom move = 0.5 6.1374259e-08
  Iterations, force evaluations = 268 537

MPI task timing breakdown:
Section |  min time  |  avg time  |  max time  |%varavg| %total
---------------------------------------------------------------
Pair    | 0.81004    | 2.2572     | 2.9472     |  40.6 | 72.08
Neigh   | 0          | 0          | 0          |   0.0 |  0.00
Comm    | 0.048062   | 0.51059    | 1.5194     |  59.3 | 16.31
Output  | 0          | 0          | 0          |   0.0 |  0.00
Modify  | 3.2292e-05 | 0.0044358  | 0.0093997  |   3.1 |  0.14
Other   |            | 0.3591     |            |       | 11.47

Nlocal:        2776.45 ave        3957 max           0 min
Histogram: 8 4 4 0 4 12 8 6 24 34
Nghost:        3879.14 ave        5427 max         232 min
Histogram: 8 0 8 0 16 0 8 8 16 40
Neighs:        79213.2 ave      115336 max           0 min
Histogram: 8 4 4 0 10 6 8 8 24 32

Total # of neighbors = 8238172
Ave neighs/atom = 28.530367
Neighbor list builds = 0
Dangerous builds = 0
The dot product: 2.64157056229047e-10
Setting atom values ...
  1 settings made for x
  1 settings made for y
  1 settings made for z
Setting up cg style minimization ...
  Unit style    : metal
  Current step  : 27709
Per MPI rank memory allocation (min/avg/max) = 5.441 | 5.816 | 6.074 Mbytes
Step PotEng KinEng TotEng v_fx v_fy v_fz 
   27709   -1152449.1            0   -1152449.1 0.0058198262 -0.0021249237 0.0083460872 
   27873   -1152449.1            0   -1152449.1 3.3305622e-05 3.743082e-05 4.7798158e-05 
Loop time of 1.90171 on 104 procs for 164 steps with 288751 atoms

99.9% CPU use with 104 MPI tasks x 1 OpenMP threads

Minimization stats:
  Stopping criterion = energy tolerance
  Energy initial, next-to-last, final = 
      -1152449.0863735  -1152449.08777143  -1152449.08777143
  Force two-norm initial, final = 0.16179254 0.00018924007
  Force max component initial, final = 0.07718992 4.7798158e-05
  Final line search alpha, max atom move = 1.0000000 4.7798158e-05
  Iterations, force evaluations = 164 328

MPI task timing breakdown:
Section |  min time  |  avg time  |  max time  |%varavg| %total
---------------------------------------------------------------
Pair    | 0.49681    | 1.3846     | 1.7897     |  31.9 | 72.81
Neigh   | 0          | 0          | 0          |   0.0 |  0.00
Comm    | 0.027283   | 0.3193     | 0.94153    |  46.5 | 16.79
Output  | 0          | 0          | 0          |   0.0 |  0.00
Modify  | 1.9243e-05 | 0.0027119  | 0.0057968  |   2.5 |  0.14
Other   |            | 0.1951     |            |       | 10.26

Nlocal:        2776.45 ave        3957 max           0 min
Histogram: 8 4 4 0 4 12 8 6 24 34
Nghost:        3879.14 ave        5427 max         232 min
Histogram: 8 0 8 0 16 0 8 8 16 40
Neighs:        79213.2 ave      115336 max           0 min
Histogram: 8 4 4 0 10 6 8 8 24 32

Total # of neighbors = 8238172
Ave neighs/atom = 28.530367
Neighbor list builds = 0
Dangerous builds = 0
The dot product: -1.08930490772289e-09
Setting atom values ...
  1 settings made for x
  1 settings made for y
  1 settings made for z
Setting up cg style minimization ...
  Unit style    : metal
  Current step  : 27873
Per MPI rank memory allocation (min/avg/max) = 5.441 | 5.816 | 6.074 Mbytes
Step PotEng KinEng TotEng v_fx v_fy v_fz 
   27873   -1152449.1            0   -1152449.1 0.0051020551 -0.0015183221 0.0073245832 
   28000   -1152449.1            0   -1152449.1 -2.6818763e-05 4.1084387e-05 -3.8512916e-05 
   28036   -1152449.1            0   -1152449.1 -1.5584527e-05 -1.6151853e-05 -2.2366138e-05 
Loop time of 1.90258 on 104 procs for 163 steps with 288751 atoms

99.9% CPU use with 104 MPI tasks x 1 OpenMP threads

Minimization stats:
  Stopping criterion = energy tolerance
  Energy initial, next-to-last, final = 
     -1152449.06554152  -1152449.06692633  -1152449.06692633
  Force two-norm initial, final = 0.16182462 0.00021103302
  Force max component initial, final = 0.077516766 4.3898262e-05
  Final line search alpha, max atom move = 1.0000000 4.3898262e-05
  Iterations, force evaluations = 163 326

MPI task timing breakdown:
Section |  min time  |  avg time  |  max time  |%varavg| %total
---------------------------------------------------------------
Pair    | 0.49359    | 1.3739     | 1.7889     |  31.7 | 72.21
Neigh   | 0          | 0          | 0          |   0.0 |  0.00
Comm    | 0.02899    | 0.31089    | 0.92551    |  46.4 | 16.34
Output  | 0.00015335 | 0.00016193 | 0.00031749 |   0.0 |  0.01
Modify  | 1.9393e-05 | 0.0026962  | 0.0057077  |   2.4 |  0.14
Other   |            | 0.2149     |            |       | 11.30

Nlocal:        2776.45 ave        3958 max           0 min
Histogram: 8 4 4 0 4 12 8 6 24 34
Nghost:        3879.14 ave        5427 max         232 min
Histogram: 8 0 8 0 16 0 8 8 16 40
Neighs:        79213.2 ave      115357 max           0 min
Histogram: 8 4 4 0 10 6 8 8 24 32

Total # of neighbors = 8238171
Ave neighs/atom = 28.530364
Neighbor list builds = 0
Dangerous builds = 0
The dot product: -1.44926334039901e-09
Setting atom values ...
  1 settings made for x
  1 settings made for y
  1 settings made for z
Setting up cg style minimization ...
  Unit style    : metal
  Current step  : 28036
Per MPI rank memory allocation (min/avg/max) = 5.441 | 5.816 | 6.074 Mbytes
Step PotEng KinEng TotEng v_fx v_fy v_fz 
   28036     -1152449            0     -1152449 0.0042663888   -0.0011517  0.006130263 
   28206     -1152449            0     -1152449 1.7320791e-05 3.583239e-05 2.4835922e-05 
Loop time of 1.98779 on 104 procs for 170 steps with 288751 atoms

99.9% CPU use with 104 MPI tasks x 1 OpenMP threads

Minimization stats:
  Stopping criterion = energy tolerance
  Energy initial, next-to-last, final = 
     -1152449.04354243  -1152449.04489452  -1152449.04489452
  Force two-norm initial, final = 0.16191106 0.00019599132
  Force max component initial, final = 0.077777254 5.2756382e-05
  Final line search alpha, max atom move = 1.0000000 5.2756382e-05
  Iterations, force evaluations = 170 340

MPI task timing breakdown:
Section |  min time  |  avg time  |  max time  |%varavg| %total
---------------------------------------------------------------
Pair    | 0.51458    | 1.4349     | 1.8738     |  32.4 | 72.19
Neigh   | 0          | 0          | 0          |   0.0 |  0.00
Comm    | 0.028312   | 0.32979    | 0.97849    |  47.5 | 16.59
Output  | 0          | 0          | 0          |   0.0 |  0.00
Modify  | 2.0021e-05 | 0.0028174  | 0.0060059  |   2.5 |  0.14
Other   |            | 0.2203     |            |       | 11.08

Nlocal:        2776.45 ave        3958 max           0 min
Histogram: 8 4 4 0 4 12 8 6 24 34
Nghost:        3879.11 ave        5427 max         232 min
Histogram: 8 0 8 0 16 0 8 8 16 40
Neighs:        79213.2 ave      115357 max           0 min
Histogram: 8 4 4 0 10 6 8 8 24 32

Total # of neighbors = 8238170
Ave neighs/atom = 28.530360
Neighbor list builds = 0
Dangerous builds = 0
The dot product: -2.65102842084185e-08
Setting atom values ...
  1 settings made for x
  1 settings made for y
  1 settings made for z
Setting up cg style minimization ...
  Unit style    : metal
  Current step  : 28206
Per MPI rank memory allocation (min/avg/max) = 5.441 | 5.816 | 6.074 Mbytes
Step PotEng KinEng TotEng v_fx v_fy v_fz 
   28206     -1152449            0     -1152449 0.0034632079 -0.00099470735 0.0049798554 
   28383     -1152449            0     -1152449 -2.2602698e-05 -2.6076444e-05 -3.24336e-05 
Loop time of 2.05701 on 104 procs for 177 steps with 288751 atoms

99.9% CPU use with 104 MPI tasks x 1 OpenMP threads

Minimization stats:
  Stopping criterion = energy tolerance
  Energy initial, next-to-last, final = 
       -1152449.020237  -1152449.02156888  -1152449.02156888
  Force two-norm initial, final = 0.16217664 0.00014956392
  Force max component initial, final = 0.078033262 3.2433600e-05
  Final line search alpha, max atom move = 1.0000000 3.2433600e-05
  Iterations, force evaluations = 177 354

MPI task timing breakdown:
Section |  min time  |  avg time  |  max time  |%varavg| %total
---------------------------------------------------------------
Pair    | 0.53547    | 1.4899     | 1.9328     |  33.0 | 72.43
Neigh   | 0          | 0          | 0          |   0.0 |  0.00
Comm    | 0.031642   | 0.33751    | 1.003      |  48.5 | 16.41
Output  | 0          | 0          | 0          |   0.0 |  0.00
Modify  | 2.0729e-05 | 0.0029266  | 0.0062442  |   2.5 |  0.14
Other   |            | 0.2267     |            |       | 11.02

Nlocal:        2776.45 ave        3958 max           0 min
Histogram: 8 4 4 0 4 12 8 6 24 34
Nghost:        3879.18 ave        5427 max         232 min
Histogram: 8 0 8 0 16 0 8 8 16 40
Neighs:        79213.2 ave      115357 max           0 min
Histogram: 8 4 4 0 10 6 8 8 24 32

Total # of neighbors = 8238171
Ave neighs/atom = 28.530364
Neighbor list builds = 0
Dangerous builds = 0
The dot product: 8.74104636925093e-09
Setting atom values ...
  1 settings made for x
  1 settings made for y
  1 settings made for z
Setting up cg style minimization ...
  Unit style    : metal
  Current step  : 28383
Per MPI rank memory allocation (min/avg/max) = 5.441 | 5.816 | 6.074 Mbytes
Step PotEng KinEng TotEng v_fx v_fy v_fz 
   28383     -1152449            0     -1152449 0.0025339133 -0.0012518819 0.0036471696 
   28562     -1152449            0     -1152449 -1.271519e-05 1.0372919e-06 -1.8286849e-05 
Loop time of 2.0765 on 104 procs for 179 steps with 288751 atoms

99.9% CPU use with 104 MPI tasks x 1 OpenMP threads

Minimization stats:
  Stopping criterion = energy tolerance
  Energy initial, next-to-last, final = 
     -1152448.99553673  -1152448.99685051  -1152448.99685051
  Force two-norm initial, final = 0.16263661 0.00014587609
  Force max component initial, final = 0.078282828 3.3752578e-05
  Final line search alpha, max atom move = 1.0000000 3.3752578e-05
  Iterations, force evaluations = 179 358

MPI task timing breakdown:
Section |  min time  |  avg time  |  max time  |%varavg| %total
---------------------------------------------------------------
Pair    | 0.5415     | 1.5096     | 1.9572     |  33.2 | 72.70
Neigh   | 0          | 0          | 0          |   0.0 |  0.00
Comm    | 0.031025   | 0.33974    | 1.0153     |  49.0 | 16.36
Output  | 0          | 0          | 0          |   0.0 |  0.00
Modify  | 2.1013e-05 | 0.0029626  | 0.0063383  |   2.6 |  0.14
Other   |            | 0.2242     |            |       | 10.80

Nlocal:        2776.45 ave        3958 max           0 min
Histogram: 8 4 4 0 4 12 8 6 24 34
Nghost:        3879.18 ave        5427 max         232 min
Histogram: 8 0 8 0 16 0 8 8 16 40
Neighs:        79213.2 ave      115357 max           0 min
Histogram: 8 4 4 0 10 6 8 8 24 32

Total # of neighbors = 8238173
Ave neighs/atom = 28.530370
Neighbor list builds = 0
Dangerous builds = 0
The dot product: -9.62097615658987e-09
Setting atom values ...
  1 settings made for x
  1 settings made for y
  1 settings made for z
Setting up cg style minimization ...
  Unit style    : metal
  Current step  : 28562
Per MPI rank memory allocation (min/avg/max) = 5.441 | 5.816 | 6.074 Mbytes
Step PotEng KinEng TotEng v_fx v_fy v_fz 
   28562     -1152449            0     -1152449 0.0016220349  -0.00163618 0.0023387121 
   28731     -1152449            0     -1152449 -2.262588e-05 6.162795e-06 -3.2564598e-05 
Loop time of 1.97107 on 104 procs for 169 steps with 288751 atoms

99.9% CPU use with 104 MPI tasks x 1 OpenMP threads

Minimization stats:
  Stopping criterion = energy tolerance
  Energy initial, next-to-last, final = 
     -1152448.96934068  -1152448.97064015  -1152448.97064015
  Force two-norm initial, final = 0.16328117 0.00022276905
  Force max component initial, final = 0.078458944 3.4103330e-05
  Final line search alpha, max atom move = 1.0000000 3.4103330e-05
  Iterations, force evaluations = 169 338

MPI task timing breakdown:
Section |  min time  |  avg time  |  max time  |%varavg| %total
---------------------------------------------------------------
Pair    | 0.51233    | 1.4223     | 1.854      |  32.2 | 72.16
Neigh   | 0          | 0          | 0          |   0.0 |  0.00
Comm    | 0.030847   | 0.32058    | 0.95971    |  47.2 | 16.26
Output  | 0          | 0          | 0          |   0.0 |  0.00
Modify  | 2.0224e-05 | 0.0027997  | 0.0059643  |   2.5 |  0.14
Other   |            | 0.2254     |            |       | 11.44

Nlocal:        2776.45 ave        3958 max           0 min
Histogram: 8 4 4 0 4 12 8 6 24 34
Nghost:        3879.22 ave        5427 max         232 min
Histogram: 8 0 8 0 16 0 8 8 16 40
Neighs:        79213.2 ave      115357 max           0 min
Histogram: 8 4 4 0 10 6 8 8 24 32

Total # of neighbors = 8238171
Ave neighs/atom = 28.530364
Neighbor list builds = 0
Dangerous builds = 0
The dot product: -1.11258669005106e-08
Setting atom values ...
  1 settings made for x
  1 settings made for y
  1 settings made for z
Setting up cg style minimization ...
  Unit style    : metal
  Current step  : 28731
Per MPI rank memory allocation (min/avg/max) = 5.441 | 5.816 | 6.074 Mbytes
Step PotEng KinEng TotEng v_fx v_fy v_fz 
   28731   -1152448.9            0   -1152448.9 0.00074815783 -0.002107377 0.0010849726 
   28933   -1152448.9            0   -1152448.9 -4.569975e-06 -6.0678004e-06 -6.5479436e-06 
Loop time of 2.37535 on 104 procs for 202 steps with 288751 atoms

99.9% CPU use with 104 MPI tasks x 1 OpenMP threads

Minimization stats:
  Stopping criterion = energy tolerance
  Energy initial, next-to-last, final = 
      -1152448.9415584  -1152448.94285237  -1152448.94285237
  Force two-norm initial, final = 0.16416898 7.7195525e-05
  Force max component initial, final = 0.078649802 9.4713041e-06
  Final line search alpha, max atom move = 1.0000000 9.4713041e-06
  Iterations, force evaluations = 202 404

MPI task timing breakdown:
Section |  min time  |  avg time  |  max time  |%varavg| %total
---------------------------------------------------------------
Pair    | 0.61143    | 1.7035     | 2.2278     |  35.4 | 71.72
Neigh   | 0          | 0          | 0          |   0.0 |  0.00
Comm    | 0.035773   | 0.39197    | 1.1557     |  51.3 | 16.50
Output  | 0          | 0          | 0          |   0.0 |  0.00
Modify  | 2.3704e-05 | 0.0033467  | 0.0071566  |   2.7 |  0.14
Other   |            | 0.2765     |            |       | 11.64

Nlocal:        2776.45 ave        3958 max           0 min
Histogram: 8 4 4 0 4 12 8 6 24 34
Nghost:        3879.21 ave        5427 max         232 min
Histogram: 8 0 8 0 16 0 8 8 16 40
Neighs:        79213.2 ave      115356 max           0 min
Histogram: 8 4 4 0 10 6 8 8 24 32

Total # of neighbors = 8238172
Ave neighs/atom = 28.530367
Neighbor list builds = 0
Dangerous builds = 0
The dot product: 9.40635844608466e-09
Setting atom values ...
  1 settings made for x
  1 settings made for y
  1 settings made for z
Setting up cg style minimization ...
  Unit style    : metal
  Current step  : 28933
Per MPI rank memory allocation (min/avg/max) = 5.441 | 5.816 | 6.074 Mbytes
Step PotEng KinEng TotEng v_fx v_fy v_fz 
   28933   -1152448.9            0   -1152448.9 5.0199514e-05 -0.0024634839 8.4244803e-05 
   29000   -1152448.9            0   -1152448.9 1.7110189e-05 0.00032812176 2.3003597e-05 
   29136   -1152448.9            0   -1152448.9 1.3358573e-06 -2.2254247e-06 1.9321368e-06 
Loop time of 2.38914 on 104 procs for 203 steps with 288751 atoms

99.9% CPU use with 104 MPI tasks x 1 OpenMP threads

Minimization stats:
  Stopping criterion = energy tolerance
  Energy initial, next-to-last, final = 
     -1152448.91212073  -1152448.91341454  -1152448.91341454
  Force two-norm initial, final = 0.16524756 8.2339713e-05
  Force max component initial, final = 0.078797258 1.7403362e-05
  Final line search alpha, max atom move = 1.0000000 1.7403362e-05
  Iterations, force evaluations = 203 406

MPI task timing breakdown:
Section |  min time  |  avg time  |  max time  |%varavg| %total
---------------------------------------------------------------
Pair    | 0.61839    | 1.7085     | 2.2258     |  35.2 | 71.51
Neigh   | 0          | 0          | 0          |   0.0 |  0.00
Comm    | 0.037418   | 0.38745    | 1.1524     |  51.7 | 16.22
Output  | 0.00015497 | 0.00015783 | 0.00031405 |   0.0 |  0.01
Modify  | 2.4781e-05 | 0.0033583  | 0.0071304  |   2.7 |  0.14
Other   |            | 0.2896     |            |       | 12.12

Nlocal:        2776.45 ave        3959 max           0 min
Histogram: 8 4 4 0 4 12 8 6 24 34
Nghost:        3879.08 ave        5426 max         232 min
Histogram: 8 0 8 0 16 0 8 8 16 40
Neighs:        79213.2 ave      115379 max           0 min
Histogram: 8 4 4 0 10 6 8 8 24 32

Total # of neighbors = 8238170
Ave neighs/atom = 28.530360
Neighbor list builds = 0
Dangerous builds = 0
The dot product: 2.16767973336443e-09
Setting atom values ...
  1 settings made for x
  1 settings made for y
  1 settings made for z
Setting up cg style minimization ...
  Unit style    : metal
  Current step  : 29136
Per MPI rank memory allocation (min/avg/max) = 5.441 | 5.816 | 6.074 Mbytes
Step PotEng KinEng TotEng v_fx v_fy v_fz 
   29136   -1152448.9            0   -1152448.9 -0.00041195552 -0.0024787182 -0.00057850374 
   29328   -1152448.9            0   -1152448.9 -8.5240074e-07 1.405009e-05 -1.3041933e-06 
Loop time of 2.24202 on 104 procs for 192 steps with 288751 atoms

99.9% CPU use with 104 MPI tasks x 1 OpenMP threads

Minimization stats:
  Stopping criterion = energy tolerance
  Energy initial, next-to-last, final = 
     -1152448.88096852  -1152448.88226466  -1152448.88226466
  Force two-norm initial, final = 0.16638311 0.00011514026
  Force max component initial, final = 0.078897712 1.4050090e-05
  Final line search alpha, max atom move = 1.0000000 1.4050090e-05
  Iterations, force evaluations = 192 384

MPI task timing breakdown:
Section |  min time  |  avg time  |  max time  |%varavg| %total
---------------------------------------------------------------
Pair    | 0.59243    | 1.6237     | 2.096      |  34.2 | 72.42
Neigh   | 0          | 0          | 0          |   0.0 |  0.00
Comm    | 0.034587   | 0.37313    | 1.1072     |  49.8 | 16.64
Output  | 0          | 0          | 0          |   0.0 |  0.00
Modify  | 2.2107e-05 | 0.0031704  | 0.0067402  |   2.6 |  0.14
Other   |            | 0.242      |            |       | 10.80

Nlocal:        2776.45 ave        3959 max           0 min
Histogram: 8 4 4 0 4 12 8 6 24 34
Nghost:        3879.03 ave        5426 max         232 min
Histogram: 8 0 8 0 16 0 8 8 16 40
Neighs:        79213.2 ave      115371 max           0 min
Histogram: 8 4 4 0 10 6 8 8 24 32

Total # of neighbors = 8238169
Ave neighs/atom = 28.530357
Neighbor list builds = 0
Dangerous builds = 0
The dot product: -1.76020452495996e-08
