LAMMPS (29 Oct 2020)
OMP_NUM_THREADS environment is not set. Defaulting to 1 thread. (../comm.cpp:94)
  using 1 OpenMP thread(s) per MPI task
OMP_NUM_THREADS environment is not set. Defaulting to 1 thread. (../comm.cpp:94)
  using 1 OpenMP thread(s) per MPI task
Reading data file ...
  orthogonal box = (-122.39241 -121.13707 -37.090501) to (122.39241 121.13707 37.090501)
  13 by 4 by 2 MPI processor grid
  reading atoms ...
  288751 atoms
  read_data CPU = 0.374 seconds
199981 atoms in group inner
88770 atoms in group outer
1 atoms in group carbon
Neighbor list info ...
  update every 1 steps, delay 0 steps, check yes
  max neighbors/atom: 2000, page size: 100000
  master list distance cutoff = 5.6
  ghost atom cutoff = 5.6
  binsize = 2.8, bins = 88 87 27
  1 neighbor lists, perpetual/occasional/extra = 1 0 0
  (1) pair eam/alloy, perpetual
      attributes: half, newton on
      pair build: half/bin/atomonly/newton
      stencil: half/bin/3d/newton
      bin: standard
Setting up cg style minimization ...
  Unit style    : metal
  Current step  : 0
Per MPI rank memory allocation (min/avg/max) = 5.441 | 5.816 | 6.074 Mbytes
Step v_fx v_fy v_fz PotEng KinEng TotEng 
       0   0.12117862   -29.778772    49.981668   -1152433.4            0   -1152433.4 
     178 -2.5204504e-06 -4.5198994e-06 -1.3263902e-05   -1152449.5            0   -1152449.5 
Loop time of 2.1103 on 104 procs for 178 steps with 288751 atoms

99.8% CPU use with 104 MPI tasks x 1 OpenMP threads

Minimization stats:
  Stopping criterion = energy tolerance
  Energy initial, next-to-last, final = 
     -1152433.44828284  -1152449.45035271  -1152449.45035271
  Force two-norm initial, final = 87.250173 6.1269368e-05
  Force max component initial, final = 57.158790 1.3263902e-05
  Final line search alpha, max atom move = 1.0000000 1.3263902e-05
  Iterations, force evaluations = 178 348

MPI task timing breakdown:
Section |  min time  |  avg time  |  max time  |%varavg| %total
---------------------------------------------------------------
Pair    | 0.54581    | 1.4776     | 1.9163     |  32.5 | 70.02
Neigh   | 5.1054e-05 | 0.014625   | 0.021166   |   5.0 |  0.69
Comm    | 0.039995   | 0.34317    | 1.0001     |  46.5 | 16.26
Output  | 0          | 0          | 0          |   0.0 |  0.00
Modify  | 2.0941e-05 | 0.0018889  | 0.0048381  |   2.7 |  0.09
Other   |            | 0.273      |            |       | 12.94

Nlocal:        2776.45 ave        3957 max           0 min
Histogram: 8 4 4 0 4 12 8 2 28 34
Nghost:        3879.03 ave        5424 max         232 min
Histogram: 8 0 8 0 16 0 8 8 16 40
Neighs:        79213.5 ave      115352 max           0 min
Histogram: 8 4 4 0 10 6 8 8 24 32

Total # of neighbors = 8238207
Ave neighs/atom = 28.530488
Neighbor list builds = 5
Dangerous builds = 0
Setting atom values ...
  1 settings made for x
  1 settings made for y
  1 settings made for z
Setting up cg style minimization ...
  Unit style    : metal
  Current step  : 178
Per MPI rank memory allocation (min/avg/max) = 5.441 | 5.816 | 6.074 Mbytes
Step PotEng KinEng TotEng v_fx v_fy v_fz 
     178   -1152449.4            0   -1152449.4 -0.0077713031  0.006446368 0.0012053305 
     278   -1152449.5            0   -1152449.5 -3.5854179e-06 -1.151997e-05 -4.5720058e-05 
Loop time of 1.194 on 104 procs for 100 steps with 288751 atoms

99.9% CPU use with 104 MPI tasks x 1 OpenMP threads

Minimization stats:
  Stopping criterion = energy tolerance
  Energy initial, next-to-last, final = 
     -1152449.44945352  -1152449.45006278  -1152449.45006278
  Force two-norm initial, final = 0.11540578 0.00022417372
  Force max component initial, final = 0.051738209 4.5720058e-05
  Final line search alpha, max atom move = 1.0000000 4.5720058e-05
  Iterations, force evaluations = 100 200

MPI task timing breakdown:
Section |  min time  |  avg time  |  max time  |%varavg| %total
---------------------------------------------------------------
Pair    | 0.30225    | 0.85072    | 1.1118     |  25.1 | 71.25
Neigh   | 0          | 0          | 0          |   0.0 |  0.00
Comm    | 0.018603   | 0.19456    | 0.57824    |  36.1 | 16.29
Output  | 0          | 0          | 0          |   0.0 |  0.00
Modify  | 1.2535e-05 | 0.0016586  | 0.0035355  |   1.9 |  0.14
Other   |            | 0.1471     |            |       | 12.32

Nlocal:        2776.45 ave        3958 max           0 min
Histogram: 8 4 4 0 4 12 8 2 28 34
Nghost:        3879.01 ave        5425 max         232 min
Histogram: 8 0 8 0 16 0 8 8 16 40
Neighs:        79213.4 ave      115399 max           0 min
Histogram: 8 4 4 0 10 6 8 8 24 32

Total # of neighbors = 8238198
Ave neighs/atom = 28.530457
Neighbor list builds = 0
Dangerous builds = 0
Setting atom values ...
  1 settings made for x
  1 settings made for y
  1 settings made for z
Setting up cg style minimization ...
  Unit style    : metal
  Current step  : 278
Per MPI rank memory allocation (min/avg/max) = 5.441 | 5.816 | 6.074 Mbytes
Step PotEng KinEng TotEng v_fx v_fy v_fz 
     278   -1152449.4            0   -1152449.4 -0.018710734  0.018067887 0.0026415107 
     412   -1152449.4            0   -1152449.4 -5.0814418e-07 -1.5298996e-06 -7.8770767e-06 
Loop time of 1.60337 on 104 procs for 134 steps with 288751 atoms

99.8% CPU use with 104 MPI tasks x 1 OpenMP threads

Minimization stats:
  Stopping criterion = energy tolerance
  Energy initial, next-to-last, final = 
     -1152449.44670587   -1152449.4483821   -1152449.4483821
  Force two-norm initial, final = 0.19212758 0.00018326486
  Force max component initial, final = 0.080054825 7.8770767e-06
  Final line search alpha, max atom move = 1.0000000 7.8770767e-06
  Iterations, force evaluations = 134 268

MPI task timing breakdown:
Section |  min time  |  avg time  |  max time  |%varavg| %total
---------------------------------------------------------------
Pair    | 0.40533    | 1.1332     | 1.4778     |  29.0 | 70.68
Neigh   | 0          | 0          | 0          |   0.0 |  0.00
Comm    | 0.026459   | 0.2636     | 0.77104    |  41.1 | 16.44
Output  | 0          | 0          | 0          |   0.0 |  0.00
Modify  | 1.7207e-05 | 0.0022255  | 0.0047364  |   2.2 |  0.14
Other   |            | 0.2044     |            |       | 12.75

Nlocal:        2776.45 ave        3958 max           0 min
Histogram: 8 4 4 0 4 12 8 2 28 34
Nghost:        3879.03 ave        5426 max         232 min
Histogram: 8 0 8 0 16 0 8 8 16 40
Neighs:        79213.5 ave      115400 max           0 min
Histogram: 8 4 4 0 10 6 8 8 24 32

Total # of neighbors = 8238199
Ave neighs/atom = 28.530461
Neighbor list builds = 0
Dangerous builds = 0
The dot product: 1.04851401063159e-08
Setting atom values ...
  1 settings made for x
  1 settings made for y
  1 settings made for z
Setting up cg style minimization ...
  Unit style    : metal
  Current step  : 412
Per MPI rank memory allocation (min/avg/max) = 5.441 | 5.816 | 6.074 Mbytes
Step PotEng KinEng TotEng v_fx v_fy v_fz 
     412   -1152449.4            0   -1152449.4 -0.023609732   0.02677244 0.0027062873 
     548   -1152449.4            0   -1152449.4 9.1842301e-07 6.7452795e-06 3.8123485e-05 
Loop time of 1.60067 on 104 procs for 136 steps with 288751 atoms

99.9% CPU use with 104 MPI tasks x 1 OpenMP threads

Minimization stats:
  Stopping criterion = energy tolerance
  Energy initial, next-to-last, final = 
     -1152449.44354954  -1152449.44522694  -1152449.44522694
  Force two-norm initial, final = 0.19233996 0.00010515791
  Force max component initial, final = 0.076145898 3.8123485e-05
  Final line search alpha, max atom move = 1.0000000 3.8123485e-05
  Iterations, force evaluations = 136 272

MPI task timing breakdown:
Section |  min time  |  avg time  |  max time  |%varavg| %total
---------------------------------------------------------------
Pair    | 0.40891    | 1.1527     | 1.4954     |  29.3 | 72.01
Neigh   | 0          | 0          | 0          |   0.0 |  0.00
Comm    | 0.02454    | 0.26215    | 0.79198    |  42.5 | 16.38
Output  | 0          | 0          | 0          |   0.0 |  0.00
Modify  | 1.6738e-05 | 0.0022504  | 0.0047914  |   2.2 |  0.14
Other   |            | 0.1836     |            |       | 11.47

Nlocal:        2776.45 ave        3958 max           0 min
Histogram: 8 4 4 0 4 12 8 2 28 34
Nghost:        3879.03 ave        5424 max         232 min
Histogram: 8 0 8 0 16 0 8 8 16 40
Neighs:        79213.5 ave      115400 max           0 min
Histogram: 8 4 4 0 10 6 8 8 24 32

Total # of neighbors = 8238201
Ave neighs/atom = 28.530467
Neighbor list builds = 0
Dangerous builds = 0
The dot product: -5.73834385425187e-08
Setting atom values ...
  1 settings made for x
  1 settings made for y
  1 settings made for z
Setting up cg style minimization ...
  Unit style    : metal
  Current step  : 548
Per MPI rank memory allocation (min/avg/max) = 5.441 | 5.816 | 6.074 Mbytes
Step PotEng KinEng TotEng v_fx v_fy v_fz 
     548   -1152449.4            0   -1152449.4 -0.025608903  0.033928245 0.0040301679 
     670   -1152449.4            0   -1152449.4 -7.8466007e-07 5.4780121e-06 2.769444e-05 
Loop time of 1.49194 on 104 procs for 122 steps with 288751 atoms

99.8% CPU use with 104 MPI tasks x 1 OpenMP threads

Minimization stats:
  Stopping criterion = energy tolerance
  Energy initial, next-to-last, final = 
     -1152449.43890929  -1152449.44057845  -1152449.44057845
  Force two-norm initial, final = 0.19192307 0.00011998624
  Force max component initial, final = 0.073467786 2.7694440e-05
  Final line search alpha, max atom move = 1.0000000 2.7694440e-05
  Iterations, force evaluations = 122 244

MPI task timing breakdown:
Section |  min time  |  avg time  |  max time  |%varavg| %total
---------------------------------------------------------------
Pair    | 0.37114    | 1.0345     | 1.3542     |  27.7 | 69.34
Neigh   | 0          | 0          | 0          |   0.0 |  0.00
Comm    | 0.021942   | 0.24143    | 0.6987     |  38.7 | 16.18
Output  | 0          | 0          | 0          |   0.0 |  0.00
Modify  | 1.4918e-05 | 0.0020216  | 0.0043009  |   2.1 |  0.14
Other   |            | 0.214      |            |       | 14.34

Nlocal:        2776.45 ave        3957 max           0 min
Histogram: 8 4 4 0 4 12 8 2 28 34
Nghost:        3879.03 ave        5424 max         232 min
Histogram: 8 0 8 0 16 0 8 8 16 40
Neighs:        79213.5 ave      115359 max           0 min
Histogram: 8 4 4 0 10 6 8 8 24 32

Total # of neighbors = 8238201
Ave neighs/atom = 28.530467
Neighbor list builds = 0
Dangerous builds = 0
The dot product: -3.36522380787038e-08
Setting atom values ...
  1 settings made for x
  1 settings made for y
  1 settings made for z
Setting up cg style minimization ...
  Unit style    : metal
  Current step  : 670
Per MPI rank memory allocation (min/avg/max) = 5.441 | 5.816 | 6.074 Mbytes
Step PotEng KinEng TotEng v_fx v_fy v_fz 
     670   -1152449.4            0   -1152449.4 -0.025937711  0.039470879 0.0062368632 
     813   -1152449.4            0   -1152449.4 3.5965154e-07 -2.0385169e-06 -1.1974645e-05 
Loop time of 1.69013 on 104 procs for 143 steps with 288751 atoms

99.9% CPU use with 104 MPI tasks x 1 OpenMP threads

Minimization stats:
  Stopping criterion = energy tolerance
  Energy initial, next-to-last, final = 
     -1152449.43275222   -1152449.4344061   -1152449.4344061
  Force two-norm initial, final = 0.19102574 4.1438261e-05
  Force max component initial, final = 0.073821642 1.1974645e-05
  Final line search alpha, max atom move = 1.0000000 1.1974645e-05
  Iterations, force evaluations = 143 286

MPI task timing breakdown:
Section |  min time  |  avg time  |  max time  |%varavg| %total
---------------------------------------------------------------
Pair    | 0.43589    | 1.2119     | 1.574      |  29.8 | 71.70
Neigh   | 0          | 0          | 0          |   0.0 |  0.00
Comm    | 0.026056   | 0.27622    | 0.82978    |  43.2 | 16.34
Output  | 0          | 0          | 0          |   0.0 |  0.00
Modify  | 1.8134e-05 | 0.0023663  | 0.0050283  |   2.3 |  0.14
Other   |            | 0.1996     |            |       | 11.81

Nlocal:        2776.45 ave        3955 max           0 min
Histogram: 8 4 4 0 4 12 8 0 30 34
Nghost:        3879.03 ave        5424 max         232 min
Histogram: 8 0 8 0 16 0 8 8 16 40
Neighs:        79213.5 ave      115297 max           0 min
Histogram: 8 4 4 0 10 6 8 8 24 32

Total # of neighbors = 8238200
Ave neighs/atom = 28.530464
Neighbor list builds = 0
Dangerous builds = 0
The dot product: 1.27545957050232e-08
Setting atom values ...
  1 settings made for x
  1 settings made for y
  1 settings made for z
Setting up cg style minimization ...
  Unit style    : metal
  Current step  : 813
Per MPI rank memory allocation (min/avg/max) = 5.441 | 5.816 | 6.074 Mbytes
Step PotEng KinEng TotEng v_fx v_fy v_fz 
     813   -1152449.4            0   -1152449.4 -0.025538436  0.043955028 0.0091416185 
     939   -1152449.4            0   -1152449.4 1.1279831e-07 3.4512824e-06 3.7517555e-05 
Loop time of 1.48379 on 104 procs for 126 steps with 288751 atoms

99.9% CPU use with 104 MPI tasks x 1 OpenMP threads

Minimization stats:
  Stopping criterion = energy tolerance
  Energy initial, next-to-last, final = 
      -1152449.4250438  -1152449.42667934  -1152449.42667934
  Force two-norm initial, final = 0.18989154 0.00012012547
  Force max component initial, final = 0.073460116 3.7517555e-05
  Final line search alpha, max atom move = 1.0000000 3.7517555e-05
  Iterations, force evaluations = 126 252

MPI task timing breakdown:
Section |  min time  |  avg time  |  max time  |%varavg| %total
---------------------------------------------------------------
Pair    | 0.3793     | 1.0603     | 1.3826     |  28.0 | 71.46
Neigh   | 0          | 0          | 0          |   0.0 |  0.00
Comm    | 0.022576   | 0.24191    | 0.71918    |  40.3 | 16.30
Output  | 0          | 0          | 0          |   0.0 |  0.00
Modify  | 1.541e-05  | 0.0020875  | 0.0044387  |   2.2 |  0.14
Other   |            | 0.1795     |            |       | 12.10

Nlocal:        2776.45 ave        3955 max           0 min
Histogram: 8 4 4 0 4 12 8 0 30 34
Nghost:        3879.03 ave        5427 max         232 min
Histogram: 8 0 8 0 16 0 8 8 16 40
Neighs:        79213.5 ave      115297 max           0 min
Histogram: 8 4 4 0 10 6 8 8 24 32

Total # of neighbors = 8238202
Ave neighs/atom = 28.530471
Neighbor list builds = 0
Dangerous builds = 0
The dot product: -4.30483061706573e-08
Setting atom values ...
  1 settings made for x
  1 settings made for y
  1 settings made for z
Setting up cg style minimization ...
  Unit style    : metal
  Current step  : 939
Per MPI rank memory allocation (min/avg/max) = 5.441 | 5.816 | 6.074 Mbytes
Step PotEng KinEng TotEng v_fx v_fy v_fz 
     939   -1152449.4            0   -1152449.4 -0.024909558  0.047962843  0.012675031 
    1000   -1152449.4            0   -1152449.4 4.3572077e-06 -1.9383694e-05 -0.00014695165 
    1064   -1152449.4            0   -1152449.4 -1.50143e-06 5.5969954e-07 -2.9926959e-05 
Loop time of 1.47108 on 104 procs for 125 steps with 288751 atoms

99.9% CPU use with 104 MPI tasks x 1 OpenMP threads

Minimization stats:
  Stopping criterion = energy tolerance
  Energy initial, next-to-last, final = 
     -1152449.41575801   -1152449.4173751   -1152449.4173751
  Force two-norm initial, final = 0.18875668 0.00012888876
  Force max component initial, final = 0.072581083 2.9926959e-05
  Final line search alpha, max atom move = 1.0000000 2.9926959e-05
  Iterations, force evaluations = 125 250

MPI task timing breakdown:
Section |  min time  |  avg time  |  max time  |%varavg| %total
---------------------------------------------------------------
Pair    | 0.37615    | 1.0571     | 1.3766     |  27.9 | 71.86
Neigh   | 0          | 0          | 0          |   0.0 |  0.00
Comm    | 0.025899   | 0.23933    | 0.71492    |  40.6 | 16.27
Output  | 0.00023886 | 0.00024145 | 0.00035141 |   0.0 |  0.02
Modify  | 1.534e-05  | 0.0020719  | 0.0044028  |   2.1 |  0.14
Other   |            | 0.1724     |            |       | 11.72

Nlocal:        2776.45 ave        3955 max           0 min
Histogram: 8 4 4 0 4 12 8 0 30 34
Nghost:        3879.03 ave        5426 max         232 min
Histogram: 8 0 8 0 16 0 8 8 16 40
Neighs:        79213.5 ave      115295 max           0 min
Histogram: 8 4 4 0 10 6 8 8 24 32

Total # of neighbors = 8238201
Ave neighs/atom = 28.530467
Neighbor list builds = 0
Dangerous builds = 0
The dot product: 4.07612845303836e-08
Setting atom values ...
  1 settings made for x
  1 settings made for y
  1 settings made for z
Setting up cg style minimization ...
  Unit style    : metal
  Current step  : 1064
Per MPI rank memory allocation (min/avg/max) = 5.441 | 5.816 | 6.074 Mbytes
Step PotEng KinEng TotEng v_fx v_fy v_fz 
    1064   -1152449.4            0   -1152449.4 -0.024300758  0.052061484  0.016681755 
    1174   -1152449.4            0   -1152449.4 -6.1838154e-06 1.4816716e-05 2.9218301e-05 
Loop time of 1.28267 on 104 procs for 110 steps with 288751 atoms

99.9% CPU use with 104 MPI tasks x 1 OpenMP threads

Minimization stats:
  Stopping criterion = energy tolerance
  Energy initial, next-to-last, final = 
     -1152449.40488153  -1152449.40648229  -1152449.40648229
  Force two-norm initial, final = 0.18774403 0.0002300872
  Force max component initial, final = 0.071104719 3.1473176e-05
  Final line search alpha, max atom move = 1.0000000 3.1473176e-05
  Iterations, force evaluations = 110 220

MPI task timing breakdown:
Section |  min time  |  avg time  |  max time  |%varavg| %total
---------------------------------------------------------------
Pair    | 0.32935    | 0.92459    | 1.2029     |  26.2 | 72.08
Neigh   | 0          | 0          | 0          |   0.0 |  0.00
Comm    | 0.019037   | 0.20848    | 0.6271     |  38.4 | 16.25
Output  | 0          | 0          | 0          |   0.0 |  0.00
Modify  | 1.3708e-05 | 0.0018206  | 0.0038813  |   2.0 |  0.14
Other   |            | 0.1478     |            |       | 11.52

Nlocal:        2776.45 ave        3954 max           0 min
Histogram: 8 4 4 0 4 12 8 0 30 34
Nghost:        3879.01 ave        5425 max         232 min
Histogram: 8 0 8 0 16 0 8 8 16 40
Neighs:        79213.5 ave      115259 max           0 min
Histogram: 8 4 4 0 10 6 8 8 24 32

Total # of neighbors = 8238200
Ave neighs/atom = 28.530464
Neighbor list builds = 0
Dangerous builds = 0
The dot product: 8.18833121923642e-08
Setting atom values ...
  1 settings made for x
  1 settings made for y
  1 settings made for z
Setting up cg style minimization ...
  Unit style    : metal
  Current step  : 1174
Per MPI rank memory allocation (min/avg/max) = 5.441 | 5.816 | 6.074 Mbytes
Step PotEng KinEng TotEng v_fx v_fy v_fz 
    1174   -1152449.4            0   -1152449.4 -0.023823609  0.056924872  0.021579825 
    1281   -1152449.4            0   -1152449.4 7.3841761e-06 -2.1258827e-05 -6.7703197e-05 
Loop time of 1.24345 on 104 procs for 107 steps with 288751 atoms

99.9% CPU use with 104 MPI tasks x 1 OpenMP threads

Minimization stats:
  Stopping criterion = energy tolerance
  Energy initial, next-to-last, final = 
     -1152449.39241339  -1152449.39400777  -1152449.39400777
  Force two-norm initial, final = 0.18719547 0.00025269685
  Force max component initial, final = 0.069135568 6.7703197e-05
  Final line search alpha, max atom move = 1.0000000 6.7703197e-05
  Iterations, force evaluations = 107 214

MPI task timing breakdown:
Section |  min time  |  avg time  |  max time  |%varavg| %total
---------------------------------------------------------------
Pair    | 0.32043    | 0.90474    | 1.1709     |  25.8 | 72.76
Neigh   | 0          | 0          | 0          |   0.0 |  0.00
Comm    | 0.019334   | 0.20289    | 0.61092    |  38.1 | 16.32
Output  | 0          | 0          | 0          |   0.0 |  0.00
Modify  | 1.3213e-05 | 0.0017684  | 0.0037827  |   2.0 |  0.14
Other   |            | 0.1341     |            |       | 10.78

Nlocal:        2776.45 ave        3954 max           0 min
Histogram: 8 4 4 0 4 12 8 1 29 34
Nghost:        3879.01 ave        5425 max         232 min
Histogram: 8 0 8 0 16 0 8 8 16 40
Neighs:        79213.4 ave      115259 max           0 min
Histogram: 8 4 4 0 10 6 8 8 24 32

Total # of neighbors = 8238198
Ave neighs/atom = 28.530457
Neighbor list builds = 0
Dangerous builds = 0
The dot product: -1.69575866482458e-07
Setting atom values ...
  1 settings made for x
  1 settings made for y
  1 settings made for z
Setting up cg style minimization ...
  Unit style    : metal
  Current step  : 1281
Per MPI rank memory allocation (min/avg/max) = 5.441 | 5.816 | 6.074 Mbytes
Step PotEng KinEng TotEng v_fx v_fy v_fz 
    1281   -1152449.4            0   -1152449.4 -0.023442608   0.06328872  0.027465359 
    1408   -1152449.4            0   -1152449.4 -1.5746246e-06 2.6064118e-06 -2.2036395e-05 
Loop time of 1.49963 on 104 procs for 127 steps with 288751 atoms

99.9% CPU use with 104 MPI tasks x 1 OpenMP threads

Minimization stats:
  Stopping criterion = energy tolerance
  Energy initial, next-to-last, final = 
       -1152449.378381  -1152449.37999003  -1152449.37999003
  Force two-norm initial, final = 0.18733318 0.00011094576
  Force max component initial, final = 0.066250178 2.2036395e-05
  Final line search alpha, max atom move = 1.0000000 2.2036395e-05
  Iterations, force evaluations = 127 254

MPI task timing breakdown:
Section |  min time  |  avg time  |  max time  |%varavg| %total
---------------------------------------------------------------
Pair    | 0.38515    | 1.0726     | 1.3969     |  28.1 | 71.53
Neigh   | 0          | 0          | 0          |   0.0 |  0.00
Comm    | 0.024946   | 0.24754    | 0.74722    |  40.9 | 16.51
Output  | 0          | 0          | 0          |   0.0 |  0.00
Modify  | 1.687e-05  | 0.0021053  | 0.0044842  |   2.2 |  0.14
Other   |            | 0.1774     |            |       | 11.83

Nlocal:        2776.45 ave        3954 max           0 min
Histogram: 8 4 4 0 4 12 8 2 28 34
Nghost:        3879.01 ave        5424 max         232 min
Histogram: 8 0 8 0 16 0 8 8 16 40
Neighs:        79213.4 ave      115261 max           0 min
Histogram: 8 4 4 0 10 6 8 8 24 32

Total # of neighbors = 8238198
Ave neighs/atom = 28.530457
Neighbor list builds = 0
Dangerous builds = 0
The dot product: -7.19966107511223e-09
Setting atom values ...
  1 settings made for x
  1 settings made for y
  1 settings made for z
Setting up cg style minimization ...
  Unit style    : metal
  Current step  : 1408
Per MPI rank memory allocation (min/avg/max) = 5.441 | 5.816 | 6.074 Mbytes
Step PotEng KinEng TotEng v_fx v_fy v_fz 
    1408   -1152449.4            0   -1152449.4 -0.023605163  0.074669959  0.038022456 
    1538   -1152449.4            0   -1152449.4 6.6837793e-06 -1.881191e-05 1.2214801e-05 
Loop time of 1.57037 on 104 procs for 130 steps with 288751 atoms

99.8% CPU use with 104 MPI tasks x 1 OpenMP threads

Minimization stats:
  Stopping criterion = energy tolerance
  Energy initial, next-to-last, final = 
     -1152449.36286887  -1152449.36461494  -1152449.36461494
  Force two-norm initial, final = 0.19052155 0.00011964999
  Force max component initial, final = 0.074669959 2.5397249e-05
  Final line search alpha, max atom move = 1.0000000 2.5397249e-05
  Iterations, force evaluations = 130 260

MPI task timing breakdown:
Section |  min time  |  avg time  |  max time  |%varavg| %total
---------------------------------------------------------------
Pair    | 0.39024    | 1.1033     | 1.4429     |  28.7 | 70.26
Neigh   | 0          | 0          | 0          |   0.0 |  0.00
Comm    | 0.024914   | 0.25506    | 0.74137    |  40.6 | 16.24
Output  | 0          | 0          | 0          |   0.0 |  0.00
Modify  | 1.6147e-05 | 0.002154   | 0.0045907  |   2.2 |  0.14
Other   |            | 0.2098     |            |       | 13.36

Nlocal:        2776.45 ave        3954 max           0 min
Histogram: 8 4 4 0 4 12 8 2 28 34
Nghost:        3879.05 ave        5425 max         232 min
Histogram: 8 0 8 0 16 0 8 8 16 40
Neighs:        79213.4 ave      115261 max           0 min
Histogram: 8 4 4 0 10 6 8 8 24 32

Total # of neighbors = 8238197
Ave neighs/atom = 28.530454
Neighbor list builds = 0
Dangerous builds = 0
The dot product: -1.94504818288193e-07
Setting atom values ...
  1 settings made for x
  1 settings made for y
  1 settings made for z
Setting up cg style minimization ...
  Unit style    : metal
  Current step  : 1538
Per MPI rank memory allocation (min/avg/max) = 5.441 | 5.816 | 6.074 Mbytes
Step PotEng KinEng TotEng v_fx v_fy v_fz 
    1538   -1152449.3            0   -1152449.3 -0.023551989    0.1024521  0.062646525 
    1739   -1152449.4            0   -1152449.4 5.1950322e-07 -5.6105949e-06 -1.6322662e-05 
Loop time of 2.34123 on 104 procs for 201 steps with 288751 atoms

99.9% CPU use with 104 MPI tasks x 1 OpenMP threads

Minimization stats:
  Stopping criterion = energy tolerance
  Energy initial, next-to-last, final = 
     -1152449.34635867  -1152449.35088612  -1152449.35088612
  Force two-norm initial, final = 0.20592279 8.3325869e-05
  Force max component initial, final = 0.1024521 1.6322662e-05
  Final line search alpha, max atom move = 1.0000000 1.6322662e-05
  Iterations, force evaluations = 201 402

MPI task timing breakdown:
Section |  min time  |  avg time  |  max time  |%varavg| %total
---------------------------------------------------------------
Pair    | 0.6021     | 1.6862     | 2.1918     |  35.3 | 72.02
Neigh   | 0          | 0          | 0          |   0.0 |  0.00
Comm    | 0.03466    | 0.38349    | 1.1451     |  51.3 | 16.38
Output  | 0          | 0          | 0          |   0.0 |  0.00
Modify  | 2.5334e-05 | 0.0033183  | 0.0070809  |   2.7 |  0.14
Other   |            | 0.2682     |            |       | 11.45

Nlocal:        2776.45 ave        3954 max           0 min
Histogram: 8 4 4 0 4 12 8 2 28 34
Nghost:        3879.05 ave        5425 max         232 min
Histogram: 8 0 8 0 16 0 8 8 16 40
Neighs:        79213.4 ave      115259 max           0 min
Histogram: 8 4 4 0 10 6 8 8 24 32

Total # of neighbors = 8238192
Ave neighs/atom = 28.530436
Neighbor list builds = 0
Dangerous builds = 0
The dot product: -9.38163382601593e-07
Setting atom values ...
  1 settings made for x
  1 settings made for y
  1 settings made for z
Setting up cg style minimization ...
  Unit style    : metal
  Current step  : 1739
Per MPI rank memory allocation (min/avg/max) = 5.441 | 5.816 | 6.074 Mbytes
Step PotEng KinEng TotEng v_fx v_fy v_fz 
    1739   -1152449.3            0   -1152449.3  0.023746643    0.2179301   0.13889397 
    1947   -1152449.3            0   -1152449.3 -1.3207914e-05 -2.2157371e-05 -6.2894895e-05 
Loop time of 2.43079 on 104 procs for 208 steps with 288751 atoms

99.9% CPU use with 104 MPI tasks x 1 OpenMP threads

Minimization stats:
  Stopping criterion = energy tolerance
  Energy initial, next-to-last, final = 
     -1152449.33554598  -1152449.34591668  -1152449.34591668
  Force two-norm initial, final = 0.29929702 0.0002041796
  Force max component initial, final = 0.2179301 6.2894895e-05
  Final line search alpha, max atom move = 1.0000000 6.2894895e-05
  Iterations, force evaluations = 208 416

MPI task timing breakdown:
Section |  min time  |  avg time  |  max time  |%varavg| %total
---------------------------------------------------------------
Pair    | 0.62584    | 1.7522     | 2.2773     |  35.9 | 72.08
Neigh   | 1.0081e-05 | 0.0029366  | 0.0042833  |   2.2 |  0.12
Comm    | 0.036935   | 0.39593    | 1.2043     |  52.6 | 16.29
Output  | 0          | 0          | 0          |   0.0 |  0.00
Modify  | 2.5278e-05 | 0.0034345  | 0.0073124  |   2.8 |  0.14
Other   |            | 0.2763     |            |       | 11.37

Nlocal:        2776.45 ave        3958 max           0 min
Histogram: 8 4 4 0 4 12 8 2 28 34
Nghost:        3879.03 ave        5424 max         232 min
Histogram: 8 0 8 0 16 0 8 8 16 40
Neighs:        79213.4 ave      115401 max           0 min
Histogram: 8 4 4 0 10 6 8 8 24 32

Total # of neighbors = 8238196
Ave neighs/atom = 28.530450
Neighbor list builds = 1
Dangerous builds = 0
The dot product: -3.81390373476958e-06
Setting atom values ...
  1 settings made for x
  1 settings made for y
  1 settings made for z
Setting up cg style minimization ...
  Unit style    : metal
  Current step  : 1947
Per MPI rank memory allocation (min/avg/max) = 5.441 | 5.816 | 6.074 Mbytes
Step PotEng KinEng TotEng v_fx v_fy v_fz 
    1947   -1152449.3            0   -1152449.3  0.070466638   0.17558299  0.080038574 
    2000   -1152449.3            0   -1152449.3 -0.000772748 -0.0018606529 -0.00091858504 
    2241   -1152449.3            0   -1152449.3 -6.3827519e-07 -8.4412868e-07 -1.1955298e-06 
Loop time of 3.43 on 104 procs for 294 steps with 288751 atoms

99.9% CPU use with 104 MPI tasks x 1 OpenMP threads

Minimization stats:
  Stopping criterion = energy tolerance
  Energy initial, next-to-last, final = 
     -1152449.33327855  -1152449.34468489  -1152449.34468489
  Force two-norm initial, final = 0.24755481 2.2218189e-05
  Force max component initial, final = 0.17558299 1.8633758e-06
  Final line search alpha, max atom move = 1.0000000 1.8633758e-06
  Iterations, force evaluations = 294 588

MPI task timing breakdown:
Section |  min time  |  avg time  |  max time  |%varavg| %total
---------------------------------------------------------------
Pair    | 0.87982    | 2.4654     | 3.2177     |  42.7 | 71.88
Neigh   | 1.0345e-05 | 0.0029316  | 0.0042562  |   2.2 |  0.09
Comm    | 0.051513   | 0.56003    | 1.6717     |  62.2 | 16.33
Output  | 0.00022174 | 0.00022778 | 0.00034041 |   0.0 |  0.01
Modify  | 3.5961e-05 | 0.0048466  | 0.01039    |   3.3 |  0.14
Other   |            | 0.3966     |            |       | 11.56

Nlocal:        2776.45 ave        3958 max           0 min
Histogram: 8 4 4 0 4 12 8 2 28 34
Nghost:        3879.05 ave        5424 max         232 min
Histogram: 8 0 8 0 16 0 8 8 16 40
Neighs:        79213.4 ave      115393 max           0 min
Histogram: 8 4 4 0 10 6 8 8 24 32

Total # of neighbors = 8238189
Ave neighs/atom = 28.530426
Neighbor list builds = 1
Dangerous builds = 0
The dot product: -1.5288266396854e-07
Setting atom values ...
  1 settings made for x
  1 settings made for y
  1 settings made for z
Setting up cg style minimization ...
  Unit style    : metal
  Current step  : 2241
Per MPI rank memory allocation (min/avg/max) = 5.441 | 5.816 | 6.074 Mbytes
Step PotEng KinEng TotEng v_fx v_fy v_fz 
    2241   -1152449.3            0   -1152449.3 -0.049985721 -0.030027448 -0.047954787 
    2386   -1152449.3            0   -1152449.3 2.4900852e-05 2.2696885e-05 1.7791961e-05 
Loop time of 1.68913 on 104 procs for 145 steps with 288751 atoms

99.9% CPU use with 104 MPI tasks x 1 OpenMP threads

Minimization stats:
  Stopping criterion = energy tolerance
  Energy initial, next-to-last, final = 
     -1152449.34688133   -1152449.3481901   -1152449.3481901
  Force two-norm initial, final = 0.14640437 0.00013098157
  Force max component initial, final = 0.049985721 2.8351628e-05
  Final line search alpha, max atom move = 1.0000000 2.8351628e-05
  Iterations, force evaluations = 145 290

MPI task timing breakdown:
Section |  min time  |  avg time  |  max time  |%varavg| %total
---------------------------------------------------------------
Pair    | 0.43977    | 1.2235     | 1.5826     |  29.9 | 72.43
Neigh   | 0          | 0          | 0          |   0.0 |  0.00
Comm    | 0.025369   | 0.27634    | 0.84185    |  44.1 | 16.36
Output  | 0          | 0          | 0          |   0.0 |  0.00
Modify  | 1.8507e-05 | 0.002396   | 0.0051166  |   2.3 |  0.14
Other   |            | 0.1869     |            |       | 11.07

Nlocal:        2776.45 ave        3959 max           0 min
Histogram: 8 4 4 0 4 12 8 2 28 34
Nghost:        3879.09 ave        5428 max         232 min
Histogram: 8 0 8 0 16 0 8 8 16 40
Neighs:        79213.4 ave      115402 max           0 min
Histogram: 8 4 4 0 10 6 8 8 24 32

Total # of neighbors = 8238192
Ave neighs/atom = 28.530436
Neighbor list builds = 0
Dangerous builds = 0
The dot product: -4.27609150585885e-07
Setting atom values ...
  1 settings made for x
  1 settings made for y
  1 settings made for z
Setting up cg style minimization ...
  Unit style    : metal
  Current step  : 2386
Per MPI rank memory allocation (min/avg/max) = 5.441 | 5.816 | 6.074 Mbytes
Step PotEng KinEng TotEng v_fx v_fy v_fz 
    2386   -1152449.3            0   -1152449.3 -0.0066522748 0.0096529338  -0.01751568 
    2531   -1152449.4            0   -1152449.4 2.8458934e-05 -2.7519888e-05 6.4345526e-05 
Loop time of 1.69094 on 104 procs for 145 steps with 288751 atoms

99.9% CPU use with 104 MPI tasks x 1 OpenMP threads

Minimization stats:
  Stopping criterion = energy tolerance
  Energy initial, next-to-last, final = 
     -1152449.34955164  -1152449.35045775  -1152449.35045775
  Force two-norm initial, final = 0.12493031 0.00025703548
  Force max component initial, final = 0.047687742 6.4345526e-05
  Final line search alpha, max atom move = 1.0000000 6.4345526e-05
  Iterations, force evaluations = 145 290

MPI task timing breakdown:
Section |  min time  |  avg time  |  max time  |%varavg| %total
---------------------------------------------------------------
Pair    | 0.43388    | 1.2162     | 1.5915     |  30.0 | 71.93
Neigh   | 0          | 0          | 0          |   0.0 |  0.00
Comm    | 0.026145   | 0.27585    | 0.82694    |  43.7 | 16.31
Output  | 0          | 0          | 0          |   0.0 |  0.00
Modify  | 1.7722e-05 | 0.0023969  | 0.0051119  |   2.3 |  0.14
Other   |            | 0.1965     |            |       | 11.62

Nlocal:        2776.45 ave        3959 max           0 min
Histogram: 8 4 4 0 4 12 8 2 28 34
Nghost:        3879.09 ave        5427 max         232 min
Histogram: 8 0 8 0 16 0 8 8 16 40
Neighs:        79213.4 ave      115400 max           0 min
Histogram: 8 4 4 0 10 6 8 8 24 32

Total # of neighbors = 8238193
Ave neighs/atom = 28.530440
Neighbor list builds = 0
Dangerous builds = 0
The dot product: -1.16253180973992e-08
Setting atom values ...
  1 settings made for x
  1 settings made for y
  1 settings made for z
Setting up cg style minimization ...
  Unit style    : metal
  Current step  : 2531
Per MPI rank memory allocation (min/avg/max) = 5.441 | 5.816 | 6.074 Mbytes
Step PotEng KinEng TotEng v_fx v_fy v_fz 
    2531   -1152449.4            0   -1152449.4 -0.010198042 0.0062809066 -0.020312394 
    2715   -1152449.4            0   -1152449.4 -2.1422958e-05 -2.3036955e-06 -3.0685852e-05 
Loop time of 2.1671 on 104 procs for 184 steps with 288751 atoms

99.9% CPU use with 104 MPI tasks x 1 OpenMP threads

Minimization stats:
  Stopping criterion = energy tolerance
  Energy initial, next-to-last, final = 
     -1152449.35060895  -1152449.35151129  -1152449.35151129
  Force two-norm initial, final = 0.12556017 0.00011471679
  Force max component initial, final = 0.047070648 3.0685852e-05
  Final line search alpha, max atom move = 1.0000000 3.0685852e-05
  Iterations, force evaluations = 184 368

MPI task timing breakdown:
Section |  min time  |  avg time  |  max time  |%varavg| %total
---------------------------------------------------------------
Pair    | 0.55127    | 1.5581     | 2.0269     |  34.1 | 71.90
Neigh   | 0          | 0          | 0          |   0.0 |  0.00
Comm    | 0.034909   | 0.35351    | 1.0502     |  49.2 | 16.31
Output  | 0          | 0          | 0          |   0.0 |  0.00
Modify  | 2.2549e-05 | 0.0030377  | 0.006482   |   2.6 |  0.14
Other   |            | 0.2525     |            |       | 11.65

Nlocal:        2776.45 ave        3959 max           0 min
Histogram: 8 4 4 0 4 12 8 2 28 34
Nghost:        3879.09 ave        5424 max         232 min
Histogram: 8 0 8 0 16 0 8 8 16 40
Neighs:        79213.4 ave      115410 max           0 min
Histogram: 8 4 4 0 10 6 8 8 24 32

Total # of neighbors = 8238189
Ave neighs/atom = 28.530426
Neighbor list builds = 0
Dangerous builds = 0
The dot product: 1.59128557188581e-08
Setting atom values ...
  1 settings made for x
  1 settings made for y
  1 settings made for z
Setting up cg style minimization ...
  Unit style    : metal
  Current step  : 2715
Per MPI rank memory allocation (min/avg/max) = 5.441 | 5.816 | 6.074 Mbytes
Step PotEng KinEng TotEng v_fx v_fy v_fz 
    2715   -1152449.4            0   -1152449.4 -0.0095029782 0.0065624712 -0.019537413 
    2948   -1152449.4            0   -1152449.4 4.7353653e-07 -1.7888697e-06 2.1084032e-06 
Loop time of 2.71711 on 104 procs for 233 steps with 288751 atoms

99.9% CPU use with 104 MPI tasks x 1 OpenMP threads

Minimization stats:
  Stopping criterion = energy tolerance
  Energy initial, next-to-last, final = 
     -1152449.35035444  -1152449.35124992  -1152449.35124992
  Force two-norm initial, final = 0.1251762 2.0052041e-05
  Force max component initial, final = 0.046484916 4.6227575e-06
  Final line search alpha, max atom move = 1.0000000 4.6227575e-06
  Iterations, force evaluations = 233 466

MPI task timing breakdown:
Section |  min time  |  avg time  |  max time  |%varavg| %total
---------------------------------------------------------------
Pair    | 0.69653    | 1.956      | 2.5546     |  38.1 | 71.99
Neigh   | 0          | 0          | 0          |   0.0 |  0.00
Comm    | 0.039904   | 0.44603    | 1.3332     |  55.6 | 16.42
Output  | 0          | 0          | 0          |   0.0 |  0.00
Modify  | 2.8037e-05 | 0.0038467  | 0.0081857  |   2.9 |  0.14
Other   |            | 0.3112     |            |       | 11.45

Nlocal:        2776.45 ave        3958 max           0 min
Histogram: 8 4 4 0 4 12 8 2 28 34
Nghost:        3879.05 ave        5424 max         232 min
Histogram: 8 0 8 0 16 0 8 8 16 40
Neighs:        79213.4 ave      115389 max           0 min
Histogram: 8 4 4 0 10 6 8 8 24 32

Total # of neighbors = 8238191
Ave neighs/atom = 28.530433
Neighbor list builds = 0
Dangerous builds = 0
The dot product: -1.57928038421438e-09
Setting atom values ...
  1 settings made for x
  1 settings made for y
  1 settings made for z
Setting up cg style minimization ...
  Unit style    : metal
  Current step  : 2948
Per MPI rank memory allocation (min/avg/max) = 5.441 | 5.816 | 6.074 Mbytes
Step PotEng KinEng TotEng v_fx v_fy v_fz 
    2948   -1152449.3            0   -1152449.3 -0.008567478 0.0064530638 -0.018087163 
    3000   -1152449.3            0   -1152449.3 -0.00019513445 0.00016582089 -0.00042665037 
    3085   -1152449.3            0   -1152449.3 3.753819e-05 1.312724e-06 5.6178814e-05 
Loop time of 1.60356 on 104 procs for 137 steps with 288751 atoms

99.9% CPU use with 104 MPI tasks x 1 OpenMP threads

Minimization stats:
  Stopping criterion = energy tolerance
  Energy initial, next-to-last, final = 
     -1152449.34875653  -1152449.34963963  -1152449.34963963
  Force two-norm initial, final = 0.12425734 0.0003614044
  Force max component initial, final = 0.045828137 8.4191527e-05
  Final line search alpha, max atom move = 1.0000000 8.4191527e-05
  Iterations, force evaluations = 137 274

MPI task timing breakdown:
Section |  min time  |  avg time  |  max time  |%varavg| %total
---------------------------------------------------------------
Pair    | 0.41059    | 1.1576     | 1.5059     |  29.2 | 72.19
Neigh   | 0          | 0          | 0          |   0.0 |  0.00
Comm    | 0.028445   | 0.26115    | 0.78056    |  42.9 | 16.29
Output  | 0.00017276 | 0.00018159 | 0.00028726 |   0.0 |  0.01
Modify  | 1.7065e-05 | 0.0022669  | 0.0048312  |   2.2 |  0.14
Other   |            | 0.1824     |            |       | 11.37

Nlocal:        2776.45 ave        3958 max           0 min
Histogram: 8 4 4 0 4 12 8 2 28 34
Nghost:        3879.03 ave        5424 max         232 min
Histogram: 8 0 8 0 16 0 8 8 16 40
Neighs:        79213.4 ave      115389 max           0 min
Histogram: 8 4 4 0 10 6 8 8 24 32

Total # of neighbors = 8238191
Ave neighs/atom = 28.530433
Neighbor list builds = 0
Dangerous builds = 0
The dot product: -2.89182424018186e-08
Setting atom values ...
  1 settings made for x
  1 settings made for y
  1 settings made for z
Setting up cg style minimization ...
  Unit style    : metal
  Current step  : 3085
Per MPI rank memory allocation (min/avg/max) = 5.441 | 5.816 | 6.074 Mbytes
Step PotEng KinEng TotEng v_fx v_fy v_fz 
    3085   -1152449.3            0   -1152449.3 -0.0075675113 0.0060964243 -0.016335714 
    3259   -1152449.3            0   -1152449.3 4.8451752e-05 2.8200078e-05 5.1933035e-05 
Loop time of 2.0293 on 104 procs for 174 steps with 288751 atoms

99.9% CPU use with 104 MPI tasks x 1 OpenMP threads

Minimization stats:
  Stopping criterion = energy tolerance
  Energy initial, next-to-last, final = 
     -1152449.34580335  -1152449.34667322  -1152449.34667322
  Force two-norm initial, final = 0.12321316 0.00018698053
  Force max component initial, final = 0.045094691 5.1933035e-05
  Final line search alpha, max atom move = 1.0000000 5.1933035e-05
  Iterations, force evaluations = 174 348

MPI task timing breakdown:
Section |  min time  |  avg time  |  max time  |%varavg| %total
---------------------------------------------------------------
Pair    | 0.51893    | 1.4652     | 1.9083     |  33.1 | 72.20
Neigh   | 0          | 0          | 0          |   0.0 |  0.00
Comm    | 0.029508   | 0.33347    | 1.001      |  48.4 | 16.43
Output  | 0          | 0          | 0          |   0.0 |  0.00
Modify  | 2.1493e-05 | 0.0028749  | 0.0061608  |   2.5 |  0.14
Other   |            | 0.2277     |            |       | 11.22

Nlocal:        2776.45 ave        3958 max           0 min
Histogram: 8 4 4 0 4 12 8 2 28 34
Nghost:        3879.03 ave        5424 max         232 min
Histogram: 8 0 8 0 16 0 8 8 16 40
Neighs:        79213.4 ave      115393 max           0 min
Histogram: 8 4 4 0 10 6 8 8 24 32

Total # of neighbors = 8238190
Ave neighs/atom = 28.530429
Neighbor list builds = 0
Dangerous builds = 0
The dot product: -1.05236820519836e-08
Setting atom values ...
  1 settings made for x
  1 settings made for y
  1 settings made for z
Setting up cg style minimization ...
  Unit style    : metal
  Current step  : 3259
Per MPI rank memory allocation (min/avg/max) = 5.441 | 5.816 | 6.074 Mbytes
Step PotEng KinEng TotEng v_fx v_fy v_fz 
    3259   -1152449.3            0   -1152449.3 -0.0067268125 0.0054750686   -0.0145978 
    3401   -1152449.3            0   -1152449.3 7.4265035e-05 6.921871e-05 5.9243378e-05 
Loop time of 1.64758 on 104 procs for 142 steps with 288751 atoms

99.9% CPU use with 104 MPI tasks x 1 OpenMP threads

Minimization stats:
  Stopping criterion = energy tolerance
  Energy initial, next-to-last, final = 
     -1152449.34148811  -1152449.34234432  -1152449.34234432
  Force two-norm initial, final = 0.12241219 0.00033182951
  Force max component initial, final = 0.044410203 7.7827463e-05
  Final line search alpha, max atom move = 1.0000000 7.7827463e-05
  Iterations, force evaluations = 142 284

MPI task timing breakdown:
Section |  min time  |  avg time  |  max time  |%varavg| %total
---------------------------------------------------------------
Pair    | 0.42466    | 1.195      | 1.5528     |  29.7 | 72.53
Neigh   | 0          | 0          | 0          |   0.0 |  0.00
Comm    | 0.025818   | 0.26865    | 0.80724    |  43.5 | 16.31
Output  | 0          | 0          | 0          |   0.0 |  0.00
Modify  | 1.7805e-05 | 0.0023506  | 0.0049956  |   2.3 |  0.14
Other   |            | 0.1816     |            |       | 11.02

Nlocal:        2776.45 ave        3958 max           0 min
Histogram: 8 4 4 0 4 12 8 2 28 34
Nghost:        3879.01 ave        5424 max         232 min
Histogram: 8 0 8 0 16 0 8 8 16 40
Neighs:        79213.4 ave      115393 max           0 min
Histogram: 8 4 4 0 10 6 8 8 24 32

Total # of neighbors = 8238191
Ave neighs/atom = 28.530433
Neighbor list builds = 0
Dangerous builds = 0
The dot product: -3.99818782106013e-09
Setting atom values ...
  1 settings made for x
  1 settings made for y
  1 settings made for z
Setting up cg style minimization ...
  Unit style    : metal
  Current step  : 3401
Per MPI rank memory allocation (min/avg/max) = 5.441 | 5.816 | 6.074 Mbytes
Step PotEng KinEng TotEng v_fx v_fy v_fz 
    3401   -1152449.3            0   -1152449.3 -0.0060990998 0.0045753429 -0.012957888 
    3611   -1152449.3            0   -1152449.3 -3.0928828e-06 -1.2595862e-06 -3.7480181e-06 
Loop time of 2.44565 on 104 procs for 210 steps with 288751 atoms

99.9% CPU use with 104 MPI tasks x 1 OpenMP threads

Minimization stats:
  Stopping criterion = energy tolerance
  Energy initial, next-to-last, final = 
     -1152449.33579397  -1152449.33664333  -1152449.33664333
  Force two-norm initial, final = 0.12193788 5.1130634e-05
  Force max component initial, final = 0.044190463 3.7480181e-06
  Final line search alpha, max atom move = 1.0000000 3.7480181e-06
  Iterations, force evaluations = 210 420

MPI task timing breakdown:
Section |  min time  |  avg time  |  max time  |%varavg| %total
---------------------------------------------------------------
Pair    | 0.62616    | 1.7622     | 2.2975     |  36.2 | 72.05
Neigh   | 0          | 0          | 0          |   0.0 |  0.00
Comm    | 0.036028   | 0.40036    | 1.1943     |  52.6 | 16.37
Output  | 0          | 0          | 0          |   0.0 |  0.00
Modify  | 2.629e-05  | 0.003474   | 0.0073936  |   2.8 |  0.14
Other   |            | 0.2796     |            |       | 11.43

Nlocal:        2776.45 ave        3958 max           0 min
Histogram: 8 4 4 0 4 12 8 2 28 34
Nghost:        3879.03 ave        5424 max         232 min
Histogram: 8 0 8 0 16 0 8 8 16 40
Neighs:        79213.4 ave      115395 max           0 min
Histogram: 8 4 4 0 10 6 8 8 24 32

Total # of neighbors = 8238192
Ave neighs/atom = 28.530436
Neighbor list builds = 0
Dangerous builds = 0
The dot product: 7.91802098375857e-10
Setting atom values ...
  1 settings made for x
  1 settings made for y
  1 settings made for z
Setting up cg style minimization ...
  Unit style    : metal
  Current step  : 3611
Per MPI rank memory allocation (min/avg/max) = 5.441 | 5.816 | 6.074 Mbytes
Step PotEng KinEng TotEng v_fx v_fy v_fz 
    3611   -1152449.3            0   -1152449.3 -0.0058038528 0.0032454364 -0.011473161 
    3803   -1152449.3            0   -1152449.3 2.4305718e-05 1.0638015e-05 2.8896105e-05 
Loop time of 2.2756 on 104 procs for 192 steps with 288751 atoms

99.9% CPU use with 104 MPI tasks x 1 OpenMP threads

Minimization stats:
  Stopping criterion = energy tolerance
  Energy initial, next-to-last, final = 
     -1152449.32870429  -1152449.32955059  -1152449.32955059
  Force two-norm initial, final = 0.12186346 9.6543575e-05
  Force max component initial, final = 0.044027657 2.8896105e-05
  Final line search alpha, max atom move = 1.0000000 2.8896105e-05
  Iterations, force evaluations = 192 384

MPI task timing breakdown:
Section |  min time  |  avg time  |  max time  |%varavg| %total
---------------------------------------------------------------
Pair    | 0.57376    | 1.6199     | 2.1097     |  34.6 | 71.18
Neigh   | 0          | 0          | 0          |   0.0 |  0.00
Comm    | 0.034044   | 0.36973    | 1.104      |  50.0 | 16.25
Output  | 0          | 0          | 0          |   0.0 |  0.00
Modify  | 2.447e-05  | 0.0031699  | 0.0067544  |   2.6 |  0.14
Other   |            | 0.2828     |            |       | 12.43

Nlocal:        2776.45 ave        3958 max           0 min
Histogram: 8 4 4 0 4 12 8 2 28 34
Nghost:        3879.05 ave        5424 max         232 min
Histogram: 8 0 8 0 16 0 8 8 16 40
Neighs:        79213.4 ave      115394 max           0 min
Histogram: 8 4 4 0 10 6 8 8 24 32

Total # of neighbors = 8238190
Ave neighs/atom = 28.530429
Neighbor list builds = 0
Dangerous builds = 0
The dot product: -7.81614765887937e-09
Setting atom values ...
  1 settings made for x
  1 settings made for y
  1 settings made for z
Setting up cg style minimization ...
  Unit style    : metal
  Current step  : 3803
Per MPI rank memory allocation (min/avg/max) = 5.441 | 5.816 | 6.074 Mbytes
Step PotEng KinEng TotEng v_fx v_fy v_fz 
    3803   -1152449.3            0   -1152449.3 -0.0057177029 0.0017200265 -0.010148805 
    4000   -1152449.3            0   -1152449.3 1.1010661e-06 6.7725654e-06 -3.6710259e-06 
    4012   -1152449.3            0   -1152449.3 -7.2127937e-06 1.5094976e-06 -1.2279687e-05 
Loop time of 2.43392 on 104 procs for 209 steps with 288751 atoms

99.9% CPU use with 104 MPI tasks x 1 OpenMP threads

Minimization stats:
  Stopping criterion = energy tolerance
  Energy initial, next-to-last, final = 
     -1152449.32018831  -1152449.32103815  -1152449.32103815
  Force two-norm initial, final = 0.12212106 5.1906050e-05
  Force max component initial, final = 0.043890376 1.2279687e-05
  Final line search alpha, max atom move = 1.0000000 1.2279687e-05
  Iterations, force evaluations = 209 418

MPI task timing breakdown:
Section |  min time  |  avg time  |  max time  |%varavg| %total
---------------------------------------------------------------
Pair    | 0.62341    | 1.7533     | 2.2908     |  36.0 | 72.03
Neigh   | 0          | 0          | 0          |   0.0 |  0.00
Comm    | 0.036475   | 0.39894    | 1.1906     |  52.4 | 16.39
Output  | 0.00015644 | 0.0001616  | 0.00029707 |   0.0 |  0.01
Modify  | 2.5502e-05 | 0.0034501  | 0.0073873  |   2.8 |  0.14
Other   |            | 0.2781     |            |       | 11.43

Nlocal:        2776.45 ave        3958 max           0 min
Histogram: 8 4 4 0 4 12 8 2 28 34
Nghost:        3879.05 ave        5424 max         232 min
Histogram: 8 0 8 0 16 0 8 8 16 40
Neighs:        79213.3 ave      115394 max           0 min
Histogram: 8 4 4 0 10 6 8 8 24 32

Total # of neighbors = 8238188
Ave neighs/atom = 28.530422
Neighbor list builds = 0
Dangerous builds = 0
The dot product: 3.75707286309692e-09
Setting atom values ...
  1 settings made for x
  1 settings made for y
  1 settings made for z
Setting up cg style minimization ...
  Unit style    : metal
  Current step  : 4012
Per MPI rank memory allocation (min/avg/max) = 5.441 | 5.816 | 6.074 Mbytes
Step PotEng KinEng TotEng v_fx v_fy v_fz 
    4012   -1152449.3            0   -1152449.3 -0.0059489249 -9.2762494e-05 -0.0090795618 
    4202   -1152449.3            0   -1152449.3 -3.6029446e-06 2.1762156e-06 -7.2688136e-06 
Loop time of 2.21587 on 104 procs for 190 steps with 288751 atoms

99.9% CPU use with 104 MPI tasks x 1 OpenMP threads

Minimization stats:
  Stopping criterion = linesearch alpha is zero
  Energy initial, next-to-last, final = 
      -1152449.3102151  -1152449.31107171  -1152449.31107171
  Force two-norm initial, final = 0.12266388 9.5505749e-05
  Force max component initial, final = 0.043697032 1.0136979e-05
  Final line search alpha, max atom move = 0.5 5.0684894e-06
  Iterations, force evaluations = 190 381

MPI task timing breakdown:
Section |  min time  |  avg time  |  max time  |%varavg| %total
---------------------------------------------------------------
Pair    | 0.57078    | 1.612      | 2.0866     |  34.6 | 72.75
Neigh   | 0          | 0          | 0          |   0.0 |  0.00
Comm    | 0.033671   | 0.36505    | 1.1095     |  51.0 | 16.47
Output  | 0          | 0          | 0          |   0.0 |  0.00
Modify  | 2.4222e-05 | 0.0031487  | 0.0067568  |   2.6 |  0.14
Other   |            | 0.2357     |            |       | 10.64

Nlocal:        2776.45 ave        3959 max           0 min
Histogram: 8 4 4 0 4 12 8 2 28 34
Nghost:        3879.03 ave        5424 max         232 min
Histogram: 8 0 8 0 16 0 8 8 16 40
Neighs:        79213.4 ave      115423 max           0 min
Histogram: 8 4 4 0 10 6 8 8 24 32

Total # of neighbors = 8238189
Ave neighs/atom = 28.530426
Neighbor list builds = 0
Dangerous builds = 0
The dot product: 2.12698626770498e-09
Setting atom values ...
  1 settings made for x
  1 settings made for y
  1 settings made for z
Setting up cg style minimization ...
  Unit style    : metal
  Current step  : 4202
Per MPI rank memory allocation (min/avg/max) = 5.441 | 5.816 | 6.074 Mbytes
Step PotEng KinEng TotEng v_fx v_fy v_fz 
    4202   -1152449.3            0   -1152449.3 -0.006463775 -0.0020966634 -0.0082950046 
    4387   -1152449.3            0   -1152449.3 -2.6891001e-05 -2.5911743e-05 -2.0875119e-05 
Loop time of 2.16507 on 104 procs for 185 steps with 288751 atoms

99.9% CPU use with 104 MPI tasks x 1 OpenMP threads

Minimization stats:
  Stopping criterion = energy tolerance
  Energy initial, next-to-last, final = 
     -1152449.29875617   -1152449.2996191   -1152449.2996191
  Force two-norm initial, final = 0.12332784 0.00011141984
  Force max component initial, final = 0.043516855 2.6891001e-05
  Final line search alpha, max atom move = 1.0000000 2.6891001e-05
  Iterations, force evaluations = 185 370

MPI task timing breakdown:
Section |  min time  |  avg time  |  max time  |%varavg| %total
---------------------------------------------------------------
Pair    | 0.55404    | 1.552      | 2.0378     |  33.9 | 71.69
Neigh   | 0          | 0          | 0          |   0.0 |  0.00
Comm    | 0.032685   | 0.35611    | 1.0559     |  49.0 | 16.45
Output  | 0          | 0          | 0          |   0.0 |  0.00
Modify  | 2.2516e-05 | 0.0030527  | 0.0064962  |   2.6 |  0.14
Other   |            | 0.2539     |            |       | 11.73

Nlocal:        2776.45 ave        3959 max           0 min
Histogram: 8 4 4 0 4 12 8 2 28 34
Nghost:        3879.07 ave        5424 max         232 min
Histogram: 8 0 8 0 16 0 8 8 16 40
Neighs:        79213.4 ave      115424 max           0 min
Histogram: 8 4 4 0 10 6 8 8 24 32

Total # of neighbors = 8238189
Ave neighs/atom = 28.530426
Neighbor list builds = 0
Dangerous builds = 0
The dot product: 1.670254167517e-08
Setting atom values ...
  1 settings made for x
  1 settings made for y
  1 settings made for z
Setting up cg style minimization ...
  Unit style    : metal
  Current step  : 4387
Per MPI rank memory allocation (min/avg/max) = 5.441 | 5.816 | 6.074 Mbytes
Step PotEng KinEng TotEng v_fx v_fy v_fz 
    4387   -1152449.3            0   -1152449.3 -0.0074139567 -0.0042481165 -0.0080689411 
    4565   -1152449.3            0   -1152449.3 -1.3791568e-05 -9.6168451e-06 -1.36502e-05 
Loop time of 2.10079 on 104 procs for 178 steps with 288751 atoms

99.9% CPU use with 104 MPI tasks x 1 OpenMP threads

Minimization stats:
  Stopping criterion = energy tolerance
  Energy initial, next-to-last, final = 
     -1152449.28579092  -1152449.28665621  -1152449.28665621
  Force two-norm initial, final = 0.12399569 0.00013857349
  Force max component initial, final = 0.043328289 3.3324603e-05
  Final line search alpha, max atom move = 1.0000000 3.3324603e-05
  Iterations, force evaluations = 178 356

MPI task timing breakdown:
Section |  min time  |  avg time  |  max time  |%varavg| %total
---------------------------------------------------------------
Pair    | 0.53173    | 1.5054     | 1.9486     |  33.5 | 71.66
Neigh   | 0          | 0          | 0          |   0.0 |  0.00
Comm    | 0.032896   | 0.344      | 1.0107     |  48.0 | 16.37
Output  | 0          | 0          | 0          |   0.0 |  0.00
Modify  | 2.154e-05  | 0.0029366  | 0.0062767  |   2.6 |  0.14
Other   |            | 0.2484     |            |       | 11.83

Nlocal:        2776.45 ave        3959 max           0 min
Histogram: 8 4 4 0 4 12 8 2 28 34
Nghost:        3879.13 ave        5424 max         232 min
Histogram: 8 0 8 0 16 0 8 8 16 40
Neighs:        79213.3 ave      115424 max           0 min
Histogram: 8 4 4 0 10 6 8 8 24 32

Total # of neighbors = 8238187
Ave neighs/atom = 28.530419
Neighbor list builds = 0
Dangerous builds = 0
The dot product: 1.20607308126594e-08
Setting atom values ...
  1 settings made for x
  1 settings made for y
  1 settings made for z
Setting up cg style minimization ...
  Unit style    : metal
  Current step  : 4565
Per MPI rank memory allocation (min/avg/max) = 5.441 | 5.816 | 6.074 Mbytes
Step PotEng KinEng TotEng v_fx v_fy v_fz 
    4565   -1152449.3            0   -1152449.3 -0.008870308 -0.0063246368 -0.0086961737 
    4727   -1152449.3            0   -1152449.3 -2.73165e-05 -4.1273583e-05 -9.5010667e-06 
Loop time of 1.90317 on 104 procs for 162 steps with 288751 atoms

99.9% CPU use with 104 MPI tasks x 1 OpenMP threads

Minimization stats:
  Stopping criterion = energy tolerance
  Energy initial, next-to-last, final = 
     -1152449.27131581  -1152449.27217641  -1152449.27217641
  Force two-norm initial, final = 0.12456043 0.00025457954
  Force max component initial, final = 0.043159299 4.1273583e-05
  Final line search alpha, max atom move = 1.0000000 4.1273583e-05
  Iterations, force evaluations = 162 324

MPI task timing breakdown:
Section |  min time  |  avg time  |  max time  |%varavg| %total
---------------------------------------------------------------
Pair    | 0.48425    | 1.365      | 1.7783     |  31.9 | 71.72
Neigh   | 0          | 0          | 0          |   0.0 |  0.00
Comm    | 0.028244   | 0.31077    | 0.92999    |  46.5 | 16.33
Output  | 0          | 0          | 0          |   0.0 |  0.00
Modify  | 1.9929e-05 | 0.0026777  | 0.0057324  |   2.4 |  0.14
Other   |            | 0.2247     |            |       | 11.81

Nlocal:        2776.45 ave        3959 max           0 min
Histogram: 8 4 4 0 4 12 8 2 28 34
Nghost:        3879.12 ave        5424 max         232 min
Histogram: 8 0 8 0 16 0 8 8 16 40
Neighs:        79213.3 ave      115424 max           0 min
Histogram: 8 4 4 0 10 6 8 8 24 32

Total # of neighbors = 8238186
Ave neighs/atom = 28.530415
Neighbor list builds = 0
Dangerous builds = 0
The dot product: 3.7682345787555e-08
Setting atom values ...
  1 settings made for x
  1 settings made for y
  1 settings made for z
Setting up cg style minimization ...
  Unit style    : metal
  Current step  : 4727
Per MPI rank memory allocation (min/avg/max) = 5.441 | 5.816 | 6.074 Mbytes
Step PotEng KinEng TotEng v_fx v_fy v_fz 
    4727   -1152449.3            0   -1152449.3 -0.011050222 -0.0081835106 -0.010640246 
    4917   -1152449.3            0   -1152449.3 -1.7786284e-05 5.1441157e-07 -2.7970723e-05 
Loop time of 2.22635 on 104 procs for 190 steps with 288751 atoms

99.9% CPU use with 104 MPI tasks x 1 OpenMP threads

Minimization stats:
  Stopping criterion = energy tolerance
  Energy initial, next-to-last, final = 
     -1152449.25535586  -1152449.25620384  -1152449.25620384
  Force two-norm initial, final = 0.12513376 0.00010151496
  Force max component initial, final = 0.044205543 2.7970723e-05
  Final line search alpha, max atom move = 1.0000000 2.7970723e-05
  Iterations, force evaluations = 190 380

MPI task timing breakdown:
Section |  min time  |  avg time  |  max time  |%varavg| %total
---------------------------------------------------------------
Pair    | 0.56805    | 1.6029     | 2.0995     |  34.4 | 72.00
Neigh   | 0          | 0          | 0          |   0.0 |  0.00
Comm    | 0.035875   | 0.36242    | 1.0809     |  50.2 | 16.28
Output  | 0          | 0          | 0          |   0.0 |  0.00
Modify  | 2.3066e-05 | 0.0031328  | 0.0066897  |   2.6 |  0.14
Other   |            | 0.2579     |            |       | 11.58

Nlocal:        2776.45 ave        3959 max           0 min
Histogram: 8 4 4 0 4 12 8 2 28 34
Nghost:        3879.12 ave        5424 max         232 min
Histogram: 8 0 8 0 16 0 8 8 16 40
Neighs:        79213.3 ave      115422 max           0 min
Histogram: 8 4 4 0 10 6 8 8 24 32

Total # of neighbors = 8238187
Ave neighs/atom = 28.530419
Neighbor list builds = 0
Dangerous builds = 0
The dot product: 3.43004589711542e-08
Setting atom values ...
  1 settings made for x
  1 settings made for y
  1 settings made for z
Setting up cg style minimization ...
  Unit style    : metal
  Current step  : 4917
Per MPI rank memory allocation (min/avg/max) = 5.441 | 5.816 | 6.074 Mbytes
Step PotEng KinEng TotEng v_fx v_fy v_fz 
    4917   -1152449.2            0   -1152449.2 -0.014289379 -0.009629468 -0.014604492 
    5000   -1152449.2            0   -1152449.2 0.0001533059 5.4547182e-05 0.00019532755 
    5062   -1152449.2            0   -1152449.2 1.4881051e-05 -3.8523753e-05 5.3682006e-05 
Loop time of 1.69842 on 104 procs for 145 steps with 288751 atoms

99.9% CPU use with 104 MPI tasks x 1 OpenMP threads

Minimization stats:
  Stopping criterion = energy tolerance
  Energy initial, next-to-last, final = 
     -1152449.23799367   -1152449.2388297   -1152449.2388297
  Force two-norm initial, final = 0.12633805 0.00029458362
  Force max component initial, final = 0.047475445 6.9771261e-05
  Final line search alpha, max atom move = 1.0000000 6.9771261e-05
  Iterations, force evaluations = 145 290

MPI task timing breakdown:
Section |  min time  |  avg time  |  max time  |%varavg| %total
---------------------------------------------------------------
Pair    | 0.43441    | 1.2203     | 1.5883     |  30.1 | 71.85
Neigh   | 0          | 0          | 0          |   0.0 |  0.00
Comm    | 0.024471   | 0.27852    | 0.83199    |  43.9 | 16.40
Output  | 0.00025384 | 0.00026355 | 0.00038035 |   0.0 |  0.02
Modify  | 1.7708e-05 | 0.0024012  | 0.0051476  |   2.3 |  0.14
Other   |            | 0.1969     |            |       | 11.59

Nlocal:        2776.45 ave        3960 max           0 min
Histogram: 8 4 4 0 4 12 8 2 28 34
Nghost:        3879.12 ave        5424 max         232 min
Histogram: 8 0 8 0 16 0 8 8 16 40
Neighs:        79213.3 ave      115437 max           0 min
Histogram: 8 4 4 0 10 6 8 8 24 32

Total # of neighbors = 8238185
Ave neighs/atom = 28.530412
Neighbor list builds = 0
Dangerous builds = 0
The dot product: -8.21320278219505e-08
Setting atom values ...
  1 settings made for x
  1 settings made for y
  1 settings made for z
Setting up cg style minimization ...
  Unit style    : metal
  Current step  : 5062
Per MPI rank memory allocation (min/avg/max) = 5.441 | 5.816 | 6.074 Mbytes
Step PotEng KinEng TotEng v_fx v_fy v_fz 
    5062   -1152449.2            0   -1152449.2 -0.019320601  -0.01043563 -0.022004907 
    5339   -1152449.3            0   -1152449.3 2.2967784e-06 -2.0321701e-06 5.2163519e-06 
Loop time of 3.23816 on 104 procs for 277 steps with 288751 atoms

99.9% CPU use with 104 MPI tasks x 1 OpenMP threads

Minimization stats:
  Stopping criterion = energy tolerance
  Energy initial, next-to-last, final = 
     -1152449.21945648  -1152449.25004415  -1152449.25004415
  Force two-norm initial, final = 0.13030969 4.8763687e-05
  Force max component initial, final = 0.050678914 1.0281084e-05
  Final line search alpha, max atom move = 1.0000000 1.0281084e-05
  Iterations, force evaluations = 277 552

MPI task timing breakdown:
Section |  min time  |  avg time  |  max time  |%varavg| %total
---------------------------------------------------------------
Pair    | 0.82736    | 2.3259     | 3.0306     |  41.3 | 71.83
Neigh   | 1.034e-05  | 0.0029317  | 0.0042624  |   2.2 |  0.09
Comm    | 0.051972   | 0.52614    | 1.5681     |  60.5 | 16.25
Output  | 0          | 0          | 0          |   0.0 |  0.00
Modify  | 3.353e-05  | 0.0045539  | 0.0097019  |   3.2 |  0.14
Other   |            | 0.3787     |            |       | 11.69

Nlocal:        2776.45 ave        3960 max           0 min
Histogram: 8 4 4 0 4 12 8 2 28 34
Nghost:        3879.12 ave        5424 max         232 min
Histogram: 8 0 8 0 16 0 8 8 16 40
Neighs:        79213.2 ave      115436 max           0 min
Histogram: 8 4 4 0 10 6 8 8 24 32

Total # of neighbors = 8238174
Ave neighs/atom = 28.530374
Neighbor list builds = 1
Dangerous builds = 0
The dot product: -4.93604281607298e-07
Setting atom values ...
  1 settings made for x
  1 settings made for y
  1 settings made for z
Setting up cg style minimization ...
  Unit style    : metal
  Current step  : 5339
Per MPI rank memory allocation (min/avg/max) = 5.441 | 5.816 | 6.074 Mbytes
Step PotEng KinEng TotEng v_fx v_fy v_fz 
    5339   -1152449.2            0   -1152449.2 -0.027978417 -0.033890612 -0.023803632 
    5566   -1152449.2            0   -1152449.2 -7.1923767e-06 1.4916707e-06 -1.7225544e-05 
Loop time of 2.62486 on 104 procs for 227 steps with 288751 atoms

99.9% CPU use with 104 MPI tasks x 1 OpenMP threads

Minimization stats:
  Stopping criterion = energy tolerance
  Energy initial, next-to-last, final = 
     -1152449.24564046  -1152449.24930728  -1152449.24930728
  Force two-norm initial, final = 0.15067813 0.00010172188
  Force max component initial, final = 0.055814334 1.9406528e-05
  Final line search alpha, max atom move = 1.0000000 1.9406528e-05
  Iterations, force evaluations = 227 454

MPI task timing breakdown:
Section |  min time  |  avg time  |  max time  |%varavg| %total
---------------------------------------------------------------
Pair    | 0.67723    | 1.9001     | 2.4739     |  37.4 | 72.39
Neigh   | 0          | 0          | 0          |   0.0 |  0.00
Comm    | 0.039744   | 0.42833    | 1.2868     |  54.9 | 16.32
Output  | 0          | 0          | 0          |   0.0 |  0.00
Modify  | 2.7446e-05 | 0.0037467  | 0.0080103  |   2.9 |  0.14
Other   |            | 0.2927     |            |       | 11.15

Nlocal:        2776.45 ave        3958 max           0 min
Histogram: 8 4 4 0 4 12 8 2 28 34
Nghost:        3879.03 ave        5424 max         232 min
Histogram: 8 0 8 0 16 0 8 8 16 40
Neighs:        79213.3 ave      115390 max           0 min
Histogram: 8 4 4 0 10 6 8 8 24 32

Total # of neighbors = 8238183
Ave neighs/atom = 28.530405
Neighbor list builds = 0
Dangerous builds = 0
The dot product: 5.38903347615151e-07
Setting atom values ...
  1 settings made for x
  1 settings made for y
  1 settings made for z
Setting up cg style minimization ...
  Unit style    : metal
  Current step  : 5566
Per MPI rank memory allocation (min/avg/max) = 5.441 | 5.816 | 6.074 Mbytes
Step PotEng KinEng TotEng v_fx v_fy v_fz 
    5566   -1152449.3            0   -1152449.3 -0.014987984 -0.038235848 0.00099842675 
    5758   -1152449.3            0   -1152449.3 5.7855951e-06 3.7370402e-06 1.0722852e-05 
Loop time of 2.27104 on 104 procs for 192 steps with 288751 atoms

99.9% CPU use with 104 MPI tasks x 1 OpenMP threads

Minimization stats:
  Stopping criterion = energy tolerance
  Energy initial, next-to-last, final = 
      -1152449.2502835  -1152449.25218995  -1152449.25218995
  Force two-norm initial, final = 0.1535761 7.9442829e-05
  Force max component initial, final = 0.05504018 1.3648214e-05
  Final line search alpha, max atom move = 1.0000000 1.3648214e-05
  Iterations, force evaluations = 192 384

MPI task timing breakdown:
Section |  min time  |  avg time  |  max time  |%varavg| %total
---------------------------------------------------------------
Pair    | 0.57726    | 1.6281     | 2.1182     |  34.7 | 71.69
Neigh   | 0          | 0          | 0          |   0.0 |  0.00
Comm    | 0.03641    | 0.37089    | 1.1009     |  50.4 | 16.33
Output  | 0          | 0          | 0          |   0.0 |  0.00
Modify  | 2.4147e-05 | 0.0031728  | 0.006814   |   2.7 |  0.14
Other   |            | 0.2689     |            |       | 11.84

Nlocal:        2776.45 ave        3957 max           0 min
Histogram: 8 4 4 0 4 12 8 2 28 34
Nghost:        3879.11 ave        5424 max         232 min
Histogram: 8 0 8 0 16 0 8 8 16 40
Neighs:        79213.3 ave      115335 max           0 min
Histogram: 8 4 4 0 10 6 8 8 24 32

Total # of neighbors = 8238186
Ave neighs/atom = 28.530415
Neighbor list builds = 0
Dangerous builds = 0
The dot product: -1.31844526402723e-07
Setting atom values ...
  1 settings made for x
  1 settings made for y
  1 settings made for z
Setting up cg style minimization ...
  Unit style    : metal
  Current step  : 5758
Per MPI rank memory allocation (min/avg/max) = 5.441 | 5.816 | 6.074 Mbytes
Step PotEng KinEng TotEng v_fx v_fy v_fz 
    5758   -1152449.3            0   -1152449.3 -0.014271462 -0.049349094  0.012780534 
    5882   -1152449.3            0   -1152449.3 7.9934366e-06 6.2853813e-06 1.4453829e-05 
Loop time of 1.44523 on 104 procs for 124 steps with 288751 atoms

99.9% CPU use with 104 MPI tasks x 1 OpenMP threads

Minimization stats:
  Stopping criterion = energy tolerance
  Energy initial, next-to-last, final = 
     -1152449.25427176  -1152449.25547181  -1152449.25547181
  Force two-norm initial, final = 0.15226071 9.2481580e-05
  Force max component initial, final = 0.055466624 2.1826120e-05
  Final line search alpha, max atom move = 1.0000000 2.1826120e-05
  Iterations, force evaluations = 124 248

MPI task timing breakdown:
Section |  min time  |  avg time  |  max time  |%varavg| %total
---------------------------------------------------------------
Pair    | 0.36946    | 1.0408     | 1.3632     |  27.8 | 72.02
Neigh   | 0          | 0          | 0          |   0.0 |  0.00
Comm    | 0.020924   | 0.23733    | 0.70819    |  40.4 | 16.42
Output  | 0          | 0          | 0          |   0.0 |  0.00
Modify  | 1.5025e-05 | 0.0020477  | 0.0043627  |   2.1 |  0.14
Other   |            | 0.165      |            |       | 11.42

Nlocal:        2776.45 ave        3957 max           0 min
Histogram: 8 4 4 0 4 12 8 2 28 34
Nghost:        3879.11 ave        5424 max         232 min
Histogram: 8 0 8 0 16 0 8 8 16 40
Neighs:        79213.3 ave      115333 max           0 min
Histogram: 8 4 4 0 10 6 8 8 24 32

Total # of neighbors = 8238182
Ave neighs/atom = 28.530402
Neighbor list builds = 0
Dangerous builds = 0
The dot product: -1.17520998203412e-07
Setting atom values ...
  1 settings made for x
  1 settings made for y
  1 settings made for z
Setting up cg style minimization ...
  Unit style    : metal
  Current step  : 5882
Per MPI rank memory allocation (min/avg/max) = 5.441 | 5.816 | 6.074 Mbytes
Step PotEng KinEng TotEng v_fx v_fy v_fz 
    5882   -1152449.3            0   -1152449.3   -0.0136304 -0.057460841  0.020592656 
    6000   -1152449.3            0   -1152449.3 0.00012758172 8.8409543e-05 0.00025026061 
    6133   -1152449.3            0   -1152449.3 9.0811814e-06 -3.5187353e-06 2.7484908e-05 
Loop time of 2.90998 on 104 procs for 251 steps with 288751 atoms

99.9% CPU use with 104 MPI tasks x 1 OpenMP threads

Minimization stats:
  Stopping criterion = energy tolerance
  Energy initial, next-to-last, final = 
     -1152449.25693194   -1152449.2975567   -1152449.2975567
  Force two-norm initial, final = 0.15748062 8.8058628e-05
  Force max component initial, final = 0.057460841 2.7484908e-05
  Final line search alpha, max atom move = 1.0000000 2.7484908e-05
  Iterations, force evaluations = 251 501

MPI task timing breakdown:
Section |  min time  |  avg time  |  max time  |%varavg| %total
---------------------------------------------------------------
Pair    | 0.75155    | 2.114      | 2.7426     |  39.5 | 72.65
Neigh   | 1.025e-05  | 0.0029383  | 0.0042895  |   2.2 |  0.10
Comm    | 0.04293    | 0.47721    | 1.4519     |  58.3 | 16.40
Output  | 0.00015406 | 0.00016399 | 0.00029011 |   0.0 |  0.01
Modify  | 3.0546e-05 | 0.0041352  | 0.0088936  |   3.0 |  0.14
Other   |            | 0.3115     |            |       | 10.70

Nlocal:        2776.45 ave        3959 max           0 min
Histogram: 8 4 4 0 4 12 8 2 28 34
Nghost:        3879.14 ave        5424 max         232 min
Histogram: 8 0 8 0 16 0 8 8 16 40
Neighs:        79213.4 ave      115406 max           0 min
Histogram: 8 4 4 0 10 6 8 8 24 32

Total # of neighbors = 8238197
Ave neighs/atom = 28.530454
Neighbor list builds = 1
Dangerous builds = 0
The dot product: -7.93651342414191e-07
Setting atom values ...
  1 settings made for x
  1 settings made for y
  1 settings made for z
Setting up cg style minimization ...
  Unit style    : metal
  Current step  : 6133
Per MPI rank memory allocation (min/avg/max) = 5.441 | 5.816 | 6.074 Mbytes
Step PotEng KinEng TotEng v_fx v_fy v_fz 
    6133   -1152449.3            0   -1152449.3  0.028779404  0.058996492  0.058785837 
    6341   -1152449.3            0   -1152449.3 5.5468502e-06 1.6246754e-06 1.6851567e-05 
Loop time of 2.43326 on 104 procs for 208 steps with 288751 atoms

99.9% CPU use with 104 MPI tasks x 1 OpenMP threads

Minimization stats:
  Stopping criterion = energy tolerance
  Energy initial, next-to-last, final = 
     -1152449.30887244  -1152449.31115431  -1152449.31115431
  Force two-norm initial, final = 0.16260435 9.6697539e-05
  Force max component initial, final = 0.058996492 1.6851567e-05
  Final line search alpha, max atom move = 1.0000000 1.6851567e-05
  Iterations, force evaluations = 208 416

MPI task timing breakdown:
Section |  min time  |  avg time  |  max time  |%varavg| %total
---------------------------------------------------------------
Pair    | 0.6217     | 1.7475     | 2.2755     |  35.9 | 71.82
Neigh   | 0          | 0          | 0          |   0.0 |  0.00
Comm    | 0.038216   | 0.39776    | 1.193      |  52.4 | 16.35
Output  | 0          | 0          | 0          |   0.0 |  0.00
Modify  | 2.6005e-05 | 0.0034333  | 0.0073642  |   2.8 |  0.14
Other   |            | 0.2845     |            |       | 11.69

Nlocal:        2776.45 ave        3955 max           0 min
Histogram: 8 4 4 0 4 12 8 0 30 34
Nghost:        3879.07 ave        5424 max         232 min
Histogram: 8 0 8 0 16 0 8 8 16 40
Neighs:        79213.4 ave      115261 max           0 min
Histogram: 8 4 4 0 10 6 8 8 24 32

Total # of neighbors = 8238197
Ave neighs/atom = 28.530454
Neighbor list builds = 0
Dangerous builds = 0
The dot product: 1.7526194548647e-07
Setting atom values ...
  1 settings made for x
  1 settings made for y
  1 settings made for z
Setting up cg style minimization ...
  Unit style    : metal
  Current step  : 6341
Per MPI rank memory allocation (min/avg/max) = 5.441 | 5.816 | 6.074 Mbytes
Step PotEng KinEng TotEng v_fx v_fy v_fz 
    6341   -1152449.3            0   -1152449.3 -0.0060477001 -0.071119058  0.027069428 
    6491   -1152449.3            0   -1152449.3 1.7036312e-05 -7.0747417e-06 5.7204428e-05 
Loop time of 1.74753 on 104 procs for 150 steps with 288751 atoms

99.9% CPU use with 104 MPI tasks x 1 OpenMP threads

Minimization stats:
  Stopping criterion = energy tolerance
  Energy initial, next-to-last, final = 
     -1152449.32050126  -1152449.32174556  -1152449.32174556
  Force two-norm initial, final = 0.16163053 0.00022290686
  Force max component initial, final = 0.071119058 5.7204428e-05
  Final line search alpha, max atom move = 1.0000000 5.7204428e-05
  Iterations, force evaluations = 150 300

MPI task timing breakdown:
Section |  min time  |  avg time  |  max time  |%varavg| %total
---------------------------------------------------------------
Pair    | 0.45108    | 1.2642     | 1.6414     |  30.5 | 72.34
Neigh   | 0          | 0          | 0          |   0.0 |  0.00
Comm    | 0.027403   | 0.28337    | 0.85164    |  44.8 | 16.22
Output  | 0          | 0          | 0          |   0.0 |  0.00
Modify  | 1.8781e-05 | 0.0024781  | 0.0052923  |   2.3 |  0.14
Other   |            | 0.1974     |            |       | 11.30

Nlocal:        2776.45 ave        3959 max           0 min
Histogram: 8 4 4 0 4 12 8 4 26 34
Nghost:        3879.09 ave        5424 max         232 min
Histogram: 8 0 8 0 16 0 8 8 16 40
Neighs:        79213.4 ave      115405 max           0 min
Histogram: 8 4 4 0 10 6 8 8 24 32

Total # of neighbors = 8238195
Ave neighs/atom = 28.530447
Neighbor list builds = 0
Dangerous builds = 0
The dot product: 8.8737089777909e-08
Setting atom values ...
  1 settings made for x
  1 settings made for y
  1 settings made for z
Setting up cg style minimization ...
  Unit style    : metal
  Current step  : 6491
Per MPI rank memory allocation (min/avg/max) = 5.441 | 5.816 | 6.074 Mbytes
Step PotEng KinEng TotEng v_fx v_fy v_fz 
    6491   -1152449.3            0   -1152449.3 -0.00048239721 -0.053813956  0.031457951 
    6648   -1152449.3            0   -1152449.3 -2.1881533e-05 -2.2604058e-05 -5.3596904e-05 
Loop time of 1.83324 on 104 procs for 157 steps with 288751 atoms

99.9% CPU use with 104 MPI tasks x 1 OpenMP threads

Minimization stats:
  Stopping criterion = energy tolerance
  Energy initial, next-to-last, final = 
      -1152449.3295221  -1152449.33070691  -1152449.33070691
  Force two-norm initial, final = 0.15654457 0.00028206355
  Force max component initial, final = 0.054013119 5.3596904e-05
  Final line search alpha, max atom move = 1.0000000 5.3596904e-05
  Iterations, force evaluations = 157 314

MPI task timing breakdown:
Section |  min time  |  avg time  |  max time  |%varavg| %total
---------------------------------------------------------------
Pair    | 0.46898    | 1.3197     | 1.7206     |  31.3 | 71.99
Neigh   | 0          | 0          | 0          |   0.0 |  0.00
Comm    | 0.027147   | 0.2996     | 0.89519    |  45.7 | 16.34
Output  | 0          | 0          | 0          |   0.0 |  0.00
Modify  | 1.9091e-05 | 0.0025948  | 0.0055534  |   2.4 |  0.14
Other   |            | 0.2114     |            |       | 11.53

Nlocal:        2776.45 ave        3959 max           0 min
Histogram: 8 4 4 0 4 12 8 4 26 34
Nghost:        3879.12 ave        5424 max         232 min
Histogram: 8 0 8 0 16 0 8 8 16 40
Neighs:        79213.4 ave      115405 max           0 min
Histogram: 8 4 4 0 10 6 8 8 24 32

Total # of neighbors = 8238197
Ave neighs/atom = 28.530454
Neighbor list builds = 0
Dangerous builds = 0
The dot product: -3.67073691842821e-08
Setting atom values ...
  1 settings made for x
  1 settings made for y
  1 settings made for z
Setting up cg style minimization ...
  Unit style    : metal
  Current step  : 6648
Per MPI rank memory allocation (min/avg/max) = 5.441 | 5.816 | 6.074 Mbytes
Step PotEng KinEng TotEng v_fx v_fy v_fz 
    6648   -1152449.3            0   -1152449.3 -0.0012900338 -0.058265918  0.030849658 
    6827   -1152449.3            0   -1152449.3 -4.3330219e-06 1.1128125e-06 -1.392169e-05 
Loop time of 2.09878 on 104 procs for 179 steps with 288751 atoms

99.9% CPU use with 104 MPI tasks x 1 OpenMP threads

Minimization stats:
  Stopping criterion = energy tolerance
  Energy initial, next-to-last, final = 
      -1152449.3368505  -1152449.33806685  -1152449.33806685
  Force two-norm initial, final = 0.15888015 0.0001323581
  Force max component initial, final = 0.058265918 1.3921690e-05
  Final line search alpha, max atom move = 1.0000000 1.3921690e-05
  Iterations, force evaluations = 179 358

MPI task timing breakdown:
Section |  min time  |  avg time  |  max time  |%varavg| %total
---------------------------------------------------------------
Pair    | 0.5391     | 1.5124     | 1.9775     |  33.4 | 72.06
Neigh   | 0          | 0          | 0          |   0.0 |  0.00
Comm    | 0.03434    | 0.34229    | 1.0192     |  48.8 | 16.31
Output  | 0          | 0          | 0          |   0.0 |  0.00
Modify  | 2.1864e-05 | 0.0029567  | 0.0063427  |   2.6 |  0.14
Other   |            | 0.2411     |            |       | 11.49

Nlocal:        2776.45 ave        3959 max           0 min
Histogram: 8 4 4 0 4 12 8 4 26 34
Nghost:        3879.12 ave        5425 max         232 min
Histogram: 8 0 8 0 16 0 8 8 16 40
Neighs:        79213.4 ave      115405 max           0 min
Histogram: 8 4 4 0 10 6 8 8 24 32

Total # of neighbors = 8238197
Ave neighs/atom = 28.530454
Neighbor list builds = 0
Dangerous builds = 0
The dot product: -2.84670511103081e-08
Setting atom values ...
  1 settings made for x
  1 settings made for y
  1 settings made for z
Setting up cg style minimization ...
  Unit style    : metal
  Current step  : 6827
Per MPI rank memory allocation (min/avg/max) = 5.441 | 5.816 | 6.074 Mbytes
Step PotEng KinEng TotEng v_fx v_fy v_fz 
    6827   -1152449.3            0   -1152449.3 -0.0013066447 -0.058784657  0.030099687 
    7000   -1152449.3            0   -1152449.3 -4.3969794e-06 1.9515068e-05 -2.4669873e-05 
    7016   -1152449.3            0   -1152449.3 -4.6868514e-06 5.368219e-06 -1.7351539e-05 
[...]
Histogram: 8 4 4 0 4 12 8 4 26 34
Nghost:        3879.11 ave        5424 max         232 min
Histogram: 8 0 8 0 16 0 8 8 16 40
Neighs:        79213.5 ave      115335 max           0 min
Histogram: 8 4 4 0 10 6 8 8 24 32

Total # of neighbors = 8238200
Ave neighs/atom = 28.530464
Neighbor list builds = 0
Dangerous builds = 0
The dot product: -8.0167943318187e-09
Setting atom values ...
  1 settings made for x
  1 settings made for y
  1 settings made for z
Setting up cg style minimization ...
  Unit style    : metal
  Current step  : 27295
Per MPI rank memory allocation (min/avg/max) = 5.441 | 5.816 | 6.074 Mbytes
Step PotEng KinEng TotEng v_fx v_fy v_fz 
   27295   -1152449.4            0   -1152449.4 -0.029766717 0.0082561693 -0.042305763 
   27495   -1152449.4            0   -1152449.4 -8.5628945e-06 9.8895437e-06 -1.2159254e-05 
Loop time of 2.3127 on 104 procs for 200 steps with 288751 atoms

99.9% CPU use with 104 MPI tasks x 1 OpenMP threads

Minimization stats:
  Stopping criterion = energy tolerance
  Energy initial, next-to-last, final = 
      -1152449.4334309    -1152449.434881    -1152449.434881
  Force two-norm initial, final = 0.17373769 8.9284721e-05
  Force max component initial, final = 0.074394029 1.2159254e-05
  Final line search alpha, max atom move = 1.0000000 1.2159254e-05
  Iterations, force evaluations = 200 400

MPI task timing breakdown:
Section |  min time  |  avg time  |  max time  |%varavg| %total
---------------------------------------------------------------
Pair    | 0.60414    | 1.6841     | 2.178      |  35.2 | 72.82
Neigh   | 0          | 0          | 0          |   0.0 |  0.00
Comm    | 0.033234   | 0.38408    | 1.1551     |  51.5 | 16.61
Output  | 0          | 0          | 0          |   0.0 |  0.00
Modify  | 2.3588e-05 | 0.0033102  | 0.0071065  |   2.7 |  0.14
Other   |            | 0.2413     |            |       | 10.43

Nlocal:        2776.45 ave        3958 max           0 min
Histogram: 8 4 4 0 4 12 8 4 26 34
Nghost:        3879.11 ave        5424 max         232 min
Histogram: 8 0 8 0 16 0 8 8 16 40
Neighs:        79213.5 ave      115332 max           0 min
Histogram: 8 4 4 0 10 6 8 8 24 32

Total # of neighbors = 8238200
Ave neighs/atom = 28.530464
Neighbor list builds = 0
Dangerous builds = 0
The dot product: 4.19724139866455e-08
Setting atom values ...
  1 settings made for x
  1 settings made for y
  1 settings made for z
Setting up cg style minimization ...
  Unit style    : metal
  Current step  : 27495
Per MPI rank memory allocation (min/avg/max) = 5.441 | 5.816 | 6.074 Mbytes
Step PotEng KinEng TotEng v_fx v_fy v_fz 
   27495   -1152449.4            0   -1152449.4 -0.028436774  0.012005581 -0.040505191 
   27680   -1152449.4            0   -1152449.4 1.9578488e-07 1.0742071e-05 3.0060686e-07 
Loop time of 2.14855 on 104 procs for 185 steps with 288751 atoms

99.9% CPU use with 104 MPI tasks x 1 OpenMP threads

Minimization stats:
  Stopping criterion = energy tolerance
  Energy initial, next-to-last, final = 
     -1152449.42793937  -1152449.42934131  -1152449.42934131
  Force two-norm initial, final = 0.17103204 0.00012647507
  Force max component initial, final = 0.073584511 1.4690849e-05
  Final line search alpha, max atom move = 1.0000000 1.4690849e-05
  Iterations, force evaluations = 185 370

MPI task timing breakdown:
Section |  min time  |  avg time  |  max time  |%varavg| %total
---------------------------------------------------------------
Pair    | 0.56037    | 1.5549     | 2.0254     |  33.7 | 72.37
Neigh   | 0          | 0          | 0          |   0.0 |  0.00
Comm    | 0.031584   | 0.35426    | 1.0591     |  49.3 | 16.49
Output  | 0          | 0          | 0          |   0.0 |  0.00
Modify  | 2.2463e-05 | 0.0030534  | 0.0065916  |   2.6 |  0.14
Other   |            | 0.2363     |            |       | 11.00

Nlocal:        2776.45 ave        3957 max           0 min
Histogram: 8 4 4 0 4 12 8 4 26 34
Nghost:        3879.11 ave        5425 max         232 min
Histogram: 8 0 8 0 16 0 8 8 16 40
Neighs:        79213.5 ave      115301 max           0 min
Histogram: 8 4 4 0 10 6 8 8 24 32

Total # of neighbors = 8238205
Ave neighs/atom = 28.530481
Neighbor list builds = 0
Dangerous builds = 0
The dot product: -7.31690266337389e-09
Setting atom values ...
  1 settings made for x
  1 settings made for y
  1 settings made for z
Setting up cg style minimization ...
  Unit style    : metal
  Current step  : 27680
Per MPI rank memory allocation (min/avg/max) = 5.441 | 5.816 | 6.074 Mbytes
Step PotEng KinEng TotEng v_fx v_fy v_fz 
   27680   -1152449.4            0   -1152449.4 -0.026845504  0.016687316 -0.038313156 
   27857   -1152449.4            0   -1152449.4 1.4020341e-05 3.4980092e-05 2.0112163e-05 
Loop time of 2.05585 on 104 procs for 177 steps with 288751 atoms

99.9% CPU use with 104 MPI tasks x 1 OpenMP threads

Minimization stats:
  Stopping criterion = energy tolerance
  Energy initial, next-to-last, final = 
     -1152449.42084569  -1152449.42219349  -1152449.42219349
  Force two-norm initial, final = 0.16832802 0.00017451555
  Force max component initial, final = 0.072752683 3.4980092e-05
  Final line search alpha, max atom move = 1.0000000 3.4980092e-05
  Iterations, force evaluations = 177 354

MPI task timing breakdown:
Section |  min time  |  avg time  |  max time  |%varavg| %total
---------------------------------------------------------------
Pair    | 0.53756    | 1.4925     | 1.9333     |  33.0 | 72.60
Neigh   | 0          | 0          | 0          |   0.0 |  0.00
Comm    | 0.029927   | 0.34051    | 1.0277     |  48.3 | 16.56
Output  | 0          | 0          | 0          |   0.0 |  0.00
Modify  | 2.0676e-05 | 0.0029257  | 0.0062797  |   2.6 |  0.14
Other   |            | 0.2199     |            |       | 10.70

Nlocal:        2776.45 ave        3957 max           0 min
Histogram: 8 4 4 0 4 12 8 4 26 34
Nghost:        3879.18 ave        5426 max         232 min
Histogram: 8 0 8 0 16 0 8 8 16 40
Neighs:        79213.5 ave      115302 max           0 min
Histogram: 8 4 4 0 10 6 8 8 24 32

Total # of neighbors = 8238206
Ave neighs/atom = 28.530485
Neighbor list builds = 0
Dangerous builds = 0
The dot product: -7.58299439734654e-08
Setting atom values ...
  1 settings made for x
  1 settings made for y
  1 settings made for z
Setting up cg style minimization ...
  Unit style    : metal
  Current step  : 27857
Per MPI rank memory allocation (min/avg/max) = 5.441 | 5.816 | 6.074 Mbytes
Step PotEng KinEng TotEng v_fx v_fy v_fz 
   27857   -1152449.4            0   -1152449.4 -0.024845201  0.022713117 -0.035519132 
   28000   -1152449.4            0   -1152449.4 5.1536214e-05 7.3774644e-05 7.3963607e-05 
   28037   -1152449.4            0   -1152449.4 -1.8366802e-05 -7.0893009e-06 -2.6314101e-05 
Loop time of 2.0854 on 104 procs for 180 steps with 288751 atoms

99.9% CPU use with 104 MPI tasks x 1 OpenMP threads

Minimization stats:
  Stopping criterion = energy tolerance
  Energy initial, next-to-last, final = 
     -1152449.41221883   -1152449.4135111   -1152449.4135111
  Force two-norm initial, final = 0.16593632 0.00014793609
  Force max component initial, final = 0.071945475 2.6314101e-05
  Final line search alpha, max atom move = 1.0000000 2.6314101e-05
  Iterations, force evaluations = 180 360

MPI task timing breakdown:
Section |  min time  |  avg time  |  max time  |%varavg| %total
---------------------------------------------------------------
Pair    | 0.54573    | 1.5121     | 1.9651     |  33.3 | 72.51
Neigh   | 0          | 0          | 0          |   0.0 |  0.00
Comm    | 0.030148   | 0.34306    | 1.0316     |  48.9 | 16.45
Output  | 0.0001547  | 0.00016064 | 0.00034379 |   0.0 |  0.01
Modify  | 2.1444e-05 | 0.0029762  | 0.006363   |   2.6 |  0.14
Other   |            | 0.2271     |            |       | 10.89

Nlocal:        2776.45 ave        3957 max           0 min
Histogram: 8 4 4 0 4 12 8 4 26 34
Nghost:        3879.18 ave        5426 max         232 min
Histogram: 8 0 8 0 16 0 8 8 16 40
Neighs:        79213.5 ave      115299 max           0 min
Histogram: 8 4 4 0 10 6 8 8 24 32

Total # of neighbors = 8238207
Ave neighs/atom = 28.530488
Neighbor list builds = 0
Dangerous builds = 0
The dot product: 8.3914467129847e-08
Setting atom values ...
  1 settings made for x
  1 settings made for y
  1 settings made for z
Setting up cg style minimization ...
  Unit style    : metal
  Current step  : 28037
Per MPI rank memory allocation (min/avg/max) = 5.441 | 5.816 | 6.074 Mbytes
Step PotEng KinEng TotEng v_fx v_fy v_fz 
   28037   -1152449.4            0   -1152449.4 -0.021862827  0.031771913 -0.031305075 
   28194   -1152449.4            0   -1152449.4 1.2217262e-05 5.6854418e-05 1.7635751e-05 
Loop time of 1.82315 on 104 procs for 157 steps with 288751 atoms

99.9% CPU use with 104 MPI tasks x 1 OpenMP threads

Minimization stats:
  Stopping criterion = energy tolerance
  Energy initial, next-to-last, final = 
     -1152449.40223468  -1152449.40349499  -1152449.40349499
  Force two-norm initial, final = 0.16489236 0.00022330175
  Force max component initial, final = 0.071619106 5.6854418e-05
  Final line search alpha, max atom move = 1.0000000 5.6854418e-05
  Iterations, force evaluations = 157 314

MPI task timing breakdown:
Section |  min time  |  avg time  |  max time  |%varavg| %total
---------------------------------------------------------------
Pair    | 0.47569    | 1.3247     | 1.7127     |  31.2 | 72.66
Neigh   | 0          | 0          | 0          |   0.0 |  0.00
Comm    | 0.025667   | 0.30715    | 0.93692    |  45.5 | 16.85
Output  | 0          | 0          | 0          |   0.0 |  0.00
Modify  | 1.8699e-05 | 0.0025943  | 0.0055358  |   2.4 |  0.14
Other   |            | 0.1887     |            |       | 10.35

Nlocal:        2776.45 ave        3957 max           0 min
Histogram: 8 4 4 0 4 12 8 4 26 34
Nghost:        3879.16 ave        5424 max         232 min
Histogram: 8 0 8 0 16 0 8 8 16 40
Neighs:        79213.5 ave      115299 max           0 min
Histogram: 8 4 4 0 10 6 8 8 24 32

Total # of neighbors = 8238204
Ave neighs/atom = 28.530478
Neighbor list builds = 0
Dangerous builds = 0
The dot product: 1.21514374984329e-07
Setting atom values ...
  1 settings made for x
  1 settings made for y
  1 settings made for z
Setting up cg style minimization ...
  Unit style    : metal
  Current step  : 28194
Per MPI rank memory allocation (min/avg/max) = 5.441 | 5.816 | 6.074 Mbytes
Step PotEng KinEng TotEng v_fx v_fy v_fz 
   28194   -1152449.4            0   -1152449.4  -0.01822354  0.042881588 -0.026180449 
   28246   -1152449.4            0   -1152449.4 -2.306611e-05 -1.8394117e-05 -3.3148458e-05 
Loop time of 0.61421 on 104 procs for 52 steps with 288751 atoms

99.9% CPU use with 104 MPI tasks x 1 OpenMP threads

Minimization stats:
  Stopping criterion = energy tolerance
  Energy initial, next-to-last, final = 
     -1152449.39132197  -1152449.39281427  -1152449.39281427
  Force two-norm initial, final = 0.16747084 0.00018005914
  Force max component initial, final = 0.071400617 3.3148458e-05
  Final line search alpha, max atom move = 1.0000000 3.3148458e-05
  Iterations, force evaluations = 52 104

MPI task timing breakdown:
Section |  min time  |  avg time  |  max time  |%varavg| %total
---------------------------------------------------------------
Pair    | 0.15907    | 0.4404     | 0.57172    |  17.9 | 71.70
Neigh   | 0          | 0          | 0          |   0.0 |  0.00
Comm    | 0.010494   | 0.10032    | 0.30428    |  26.4 | 16.33
Output  | 0          | 0          | 0          |   0.0 |  0.00
Modify  | 6.3495e-06 | 0.0008671  | 0.0018614  |   0.0 |  0.14
Other   |            | 0.07262    |            |       | 11.82

Nlocal:        2776.45 ave        3957 max           0 min
Histogram: 8 4 4 0 4 12 8 4 26 34
Nghost:        3879.16 ave        5425 max         232 min
Histogram: 8 0 8 0 16 0 8 8 16 40
Neighs:        79213.5 ave      115299 max           0 min
Histogram: 8 4 4 0 10 6 8 8 24 32

Total # of neighbors = 8238204
Ave neighs/atom = 28.530478
Neighbor list builds = 0
Dangerous builds = 0
The dot product: -1.47910527860897e-07
Setting atom values ...
  1 settings made for x
  1 settings made for y
  1 settings made for z
Setting up cg style minimization ...
  Unit style    : metal
  Current step  : 28246
Per MPI rank memory allocation (min/avg/max) = 5.441 | 5.816 | 6.074 Mbytes
Step PotEng KinEng TotEng v_fx v_fy v_fz 
   28246   -1152449.4            0   -1152449.4 -0.015183424  0.053117295 -0.022134137 
   28488   -1152449.4            0   -1152449.4 -1.6076298e-06 -7.3260082e-07 -2.307463e-06 
Loop time of 2.80159 on 104 procs for 242 steps with 288751 atoms

99.9% CPU use with 104 MPI tasks x 1 OpenMP threads

Minimization stats:
  Stopping criterion = energy tolerance
  Energy initial, next-to-last, final = 
     -1152449.38080839  -1152449.38279651  -1152449.38279651
  Force two-norm initial, final = 0.17129802 1.2681877e-05
  Force max component initial, final = 0.070041674 3.2200730e-06
  Final line search alpha, max atom move = 1.0000000 3.2200730e-06
  Iterations, force evaluations = 242 484

MPI task timing breakdown:
Section |  min time  |  avg time  |  max time  |%varavg| %total
---------------------------------------------------------------
Pair    | 0.73553    | 2.0412     | 2.6402     |  38.6 | 72.86
Neigh   | 0          | 0          | 0          |   0.0 |  0.00
Comm    | 0.041499   | 0.46573    | 1.4186     |  56.7 | 16.62
Output  | 0          | 0          | 0          |   0.0 |  0.00
Modify  | 2.8596e-05 | 0.0039932  | 0.0085259  |   3.0 |  0.14
Other   |            | 0.2906     |            |       | 10.37

Nlocal:        2776.45 ave        3957 max           0 min
Histogram: 8 4 4 0 4 12 8 4 26 34
Nghost:        3879.16 ave        5425 max         232 min
Histogram: 8 0 8 0 16 0 8 8 16 40
Neighs:        79213.5 ave      115299 max           0 min
Histogram: 8 4 4 0 10 6 8 8 24 32

Total # of neighbors = 8238206
Ave neighs/atom = 28.530485
Neighbor list builds = 0
Dangerous builds = 0
The dot product: -1.31232471375675e-08
Setting atom values ...
  1 settings made for x
  1 settings made for y
  1 settings made for z
Setting up cg style minimization ...
  Unit style    : metal
  Current step  : 28488
Per MPI rank memory allocation (min/avg/max) = 5.441 | 5.816 | 6.074 Mbytes
Step PotEng KinEng TotEng v_fx v_fy v_fz 
   28488   -1152449.4            0   -1152449.4 -0.014775769  0.052432493  -0.02206724 
   28573   -1152449.4            0   -1152449.4 1.7877635e-05 3.2941048e-05 2.5186555e-05 
Loop time of 0.991148 on 104 procs for 85 steps with 288751 atoms

99.9% CPU use with 104 MPI tasks x 1 OpenMP threads

Minimization stats:
  Stopping criterion = energy tolerance
  Energy initial, next-to-last, final = 
     -1152449.37165312  -1152449.37328774  -1152449.37328774
  Force two-norm initial, final = 0.16718619 0.00013987751
  Force max component initial, final = 0.070094339 3.2941048e-05
  Final line search alpha, max atom move = 1.0000000 3.2941048e-05
  Iterations, force evaluations = 85 170

MPI task timing breakdown:
Section |  min time  |  avg time  |  max time  |%varavg| %total
---------------------------------------------------------------
Pair    | 0.25946    | 0.71641    | 0.93373    |  22.9 | 72.28
Neigh   | 0          | 0          | 0          |   0.0 |  0.00
Comm    | 0.014433   | 0.16286    | 0.48996    |  33.3 | 16.43
Output  | 0          | 0          | 0          |   0.0 |  0.00
Modify  | 1.0387e-05 | 0.001412   | 0.0030438  |   1.8 |  0.14
Other   |            | 0.1105     |            |       | 11.15

Nlocal:        2776.45 ave        3957 max           0 min
Histogram: 8 4 4 0 4 12 8 4 26 34
Nghost:        3879.16 ave        5424 max         232 min
Histogram: 8 0 8 0 16 0 8 8 16 40
Neighs:        79213.5 ave      115296 max           0 min
Histogram: 8 4 4 0 10 6 8 8 24 32

Total # of neighbors = 8238205
Ave neighs/atom = 28.530481
Neighbor list builds = 0
Dangerous builds = 0
The dot product: 3.87054571379101e-07
Setting atom values ...
  1 settings made for x
  1 settings made for y
  1 settings made for z
Setting up cg style minimization ...
  Unit style    : metal
  Current step  : 28573
Per MPI rank memory allocation (min/avg/max) = 5.441 | 5.816 | 6.074 Mbytes
Step PotEng KinEng TotEng v_fx v_fy v_fz 
   28573   -1152449.4            0   -1152449.4 -0.014705831  0.049311162 -0.022265595 
   28661   -1152449.4            0   -1152449.4 -1.9071874e-05 -2.6498936e-05 -2.6827795e-05 
Loop time of 1.02677 on 104 procs for 88 steps with 288751 atoms

99.9% CPU use with 104 MPI tasks x 1 OpenMP threads

Minimization stats:
  Stopping criterion = energy tolerance
  Energy initial, next-to-last, final = 
     -1152449.36223094  -1152449.36366915  -1152449.36366915
  Force two-norm initial, final = 0.16287144 0.00016580749
  Force max component initial, final = 0.069774255 3.8038112e-05
  Final line search alpha, max atom move = 1.0000000 3.8038112e-05
  Iterations, force evaluations = 88 176

MPI task timing breakdown:
Section |  min time  |  avg time  |  max time  |%varavg| %total
---------------------------------------------------------------
Pair    | 0.26816    | 0.74582    | 0.96171    |  23.3 | 72.64
Neigh   | 0          | 0          | 0          |   0.0 |  0.00
Comm    | 0.01504    | 0.17106    | 0.52003    |  34.0 | 16.66
Output  | 0          | 0          | 0          |   0.0 |  0.00
Modify  | 1.0534e-05 | 0.0014609  | 0.0031117  |   1.8 |  0.14
Other   |            | 0.1084     |            |       | 10.56

Nlocal:        2776.45 ave        3957 max           0 min
Histogram: 8 4 4 0 4 12 8 4 26 34
Nghost:        3879.16 ave        5424 max         232 min
Histogram: 8 0 8 0 16 0 8 8 16 40
Neighs:        79213.5 ave      115296 max           0 min
Histogram: 8 4 4 0 10 6 8 8 24 32

Total # of neighbors = 8238206
Ave neighs/atom = 28.530485
Neighbor list builds = 0
Dangerous builds = 0
The dot product: -2.13147506642967e-07
Setting atom values ...
  1 settings made for x
  1 settings made for y
  1 settings made for z
Setting up cg style minimization ...
  Unit style    : metal
  Current step  : 28661
Per MPI rank memory allocation (min/avg/max) = 5.441 | 5.816 | 6.074 Mbytes
Step PotEng KinEng TotEng v_fx v_fy v_fz 
   28661   -1152449.4            0   -1152449.4 -0.014191549  0.048042166 -0.021753015 
   28802   -1152449.4            0   -1152449.4 6.1620352e-06 -2.9347616e-05 9.6808277e-06 
Loop time of 1.647 on 104 procs for 141 steps with 288751 atoms

99.9% CPU use with 104 MPI tasks x 1 OpenMP threads

Minimization stats:
  Stopping criterion = energy tolerance
  Energy initial, next-to-last, final = 
     -1152449.35227789  -1152449.35365276  -1152449.35365276
  Force two-norm initial, final = 0.16003752 0.00014051921
  Force max component initial, final = 0.06920445 2.9560580e-05
  Final line search alpha, max atom move = 1.0000000 2.9560580e-05
  Iterations, force evaluations = 141 282

MPI task timing breakdown:
Section |  min time  |  avg time  |  max time  |%varavg| %total
---------------------------------------------------------------
Pair    | 0.42996    | 1.1853     | 1.5429     |  29.4 | 71.96
Neigh   | 0          | 0          | 0          |   0.0 |  0.00
Comm    | 0.02368    | 0.27027    | 0.81854    |  42.9 | 16.41
Output  | 0          | 0          | 0          |   0.0 |  0.00
Modify  | 1.7088e-05 | 0.0023342  | 0.0050146  |   2.3 |  0.14
Other   |            | 0.1891     |            |       | 11.48

Nlocal:        2776.45 ave        3957 max           0 min
Histogram: 8 4 4 0 4 12 8 4 26 34
Nghost:        3879.16 ave        5424 max         232 min
Histogram: 8 0 8 0 16 0 8 8 16 40
Neighs:        79213.5 ave      115296 max           0 min
Histogram: 8 4 4 0 10 6 8 8 24 32

Total # of neighbors = 8238203
Ave neighs/atom = 28.530474
Neighbor list builds = 0
Dangerous builds = 0
The dot product: -2.38377637073156e-07
