LAMMPS (29 Oct 2020)
OMP_NUM_THREADS environment is not set. Defaulting to 1 thread. (../comm.cpp:94)
  using 1 OpenMP thread(s) per MPI task
OMP_NUM_THREADS environment is not set. Defaulting to 1 thread. (../comm.cpp:94)
  using 1 OpenMP thread(s) per MPI task
Reading data file ...
  orthogonal box = (-122.39241 -121.13707 -37.090501) to (122.39241 121.13707 37.090501)
  13 by 4 by 1 MPI processor grid
  reading atoms ...
  288751 atoms
  read_data CPU = 0.424 seconds
199981 atoms in group inner
88770 atoms in group outer
1 atoms in group carbon
Neighbor list info ...
  update every 1 steps, delay 0 steps, check yes
  max neighbors/atom: 2000, page size: 100000
  master list distance cutoff = 5.6
  ghost atom cutoff = 5.6
  binsize = 2.8, bins = 88 87 27
  1 neighbor lists, perpetual/occasional/extra = 1 0 0
  (1) pair eam/alloy, perpetual
      attributes: half, newton on
      pair build: half/bin/atomonly/newton
      stencil: half/bin/3d/newton
      bin: standard
Setting up cg style minimization ...
  Unit style    : metal
  Current step  : 0
Per MPI rank memory allocation (min/avg/max) = 5.465 | 6.344 | 6.728 Mbytes
Step v_fx v_fy v_fz PotEng KinEng TotEng 
       0    0.5185318   0.24110063   0.34194896   -1152447.8            0   -1152447.8 
     154 2.0016288e-05 -3.7235524e-05 -9.0968297e-06   -1152449.5            0   -1152449.5 
Loop time of 3.47222 on 52 procs for 154 steps with 288751 atoms

99.9% CPU use with 52 MPI tasks x 1 OpenMP threads

Minimization stats:
  Stopping criterion = linesearch alpha is zero
  Energy initial, next-to-last, final = 
     -1152447.84017081  -1152449.45035269  -1152449.45035269
  Force two-norm initial, final = 9.7341160 0.00016161859
  Force max component initial, final = 4.2303615 3.7235524e-05
  Final line search alpha, max atom move = 0.25 9.3088811e-06
  Iterations, force evaluations = 154 310

MPI task timing breakdown:
Section |  min time  |  avg time  |  max time  |%varavg| %total
---------------------------------------------------------------
Pair    | 0.89865    | 2.4883     | 3.2386     |  43.0 | 71.66
Neigh   | 4.4713e-05 | 0.013138   | 0.017978   |   4.8 |  0.38
Comm    | 0.048785   | 0.56195    | 1.7544     |  66.1 | 16.18
Output  | 0          | 0          | 0          |   0.0 |  0.00
Modify  | 4.8302e-05 | 0.0034743  | 0.0087557  |   3.5 |  0.10
Other   |            | 0.4053     |            |       | 11.67

Nlocal:        5552.90 ave        7916 max           0 min
Histogram: 4 2 2 0 2 6 4 1 14 17
Nghost:        6213.54 ave        8769 max         412 min
Histogram: 4 0 4 0 8 0 4 5 7 20
Neighs:       158427.0 ave      230753 max           0 min
Histogram: 4 2 2 0 5 3 4 4 12 16

Total # of neighbors = 8238197
Ave neighs/atom = 28.530454
Neighbor list builds = 2
Dangerous builds = 1
Setting atom values ...
  1 settings made for x
  1 settings made for y
  1 settings made for z
Setting up cg style minimization ...
  Unit style    : metal
  Current step  : 154
Per MPI rank memory allocation (min/avg/max) = 5.465 | 6.344 | 6.728 Mbytes
Step PotEng KinEng TotEng v_fx v_fy v_fz 
     154   -1152449.4            0   -1152449.4  0.039879692 0.0093162466 -0.052239043 
     349   -1152449.4            0   -1152449.4 4.4107734e-06 -7.6149496e-06 -2.21914e-05 
Loop time of 4.36455 on 52 procs for 195 steps with 288751 atoms

99.8% CPU use with 52 MPI tasks x 1 OpenMP threads

Minimization stats:
  Stopping criterion = linesearch alpha is zero
  Energy initial, next-to-last, final = 
      -1152449.4447307   -1152449.4487052   -1152449.4487052
  Force two-norm initial, final = 0.30391753 0.00011803436
  Force max component initial, final = 0.14705 2.2191400e-05
  Final line search alpha, max atom move = 0.5 1.1095700e-05
  Iterations, force evaluations = 195 391

MPI task timing breakdown:
Section |  min time  |  avg time  |  max time  |%varavg| %total
---------------------------------------------------------------
Pair    | 1.1198     | 3.1264     | 4.0866     |  48.6 | 71.63
Neigh   | 0          | 0          | 0          |   0.0 |  0.00
Comm    | 0.065185   | 0.70287    | 2.19       |  74.1 | 16.10
Output  | 0          | 0          | 0          |   0.0 |  0.00
Modify  | 6.7015e-05 | 0.0066428  | 0.01402    |   3.7 |  0.15
Other   |            | 0.5286     |            |       | 12.11

Nlocal:        5552.90 ave        7913 max           0 min
Histogram: 4 2 2 0 2 6 4 1 14 17
Nghost:        6213.54 ave        8769 max         412 min
Histogram: 4 0 4 0 8 0 4 5 7 20
Neighs:       158427.0 ave      230654 max           0 min
Histogram: 4 2 2 0 5 3 4 4 12 16

Total # of neighbors = 8238198
Ave neighs/atom = 28.530457
Neighbor list builds = 0
Dangerous builds = 0
Setting atom values ...
  1 settings made for x
  1 settings made for y
  1 settings made for z
Setting up cg style minimization ...
  Unit style    : metal
  Current step  : 349
Per MPI rank memory allocation (min/avg/max) = 5.465 | 6.344 | 6.728 Mbytes
Step PotEng KinEng TotEng v_fx v_fy v_fz 
     349   -1152449.4            0   -1152449.4  0.035811032  0.022087558 -0.046956668 
     470   -1152449.4            0   -1152449.4 6.8005432e-06 -3.2158305e-06 -2.7204727e-05 
Loop time of 2.68575 on 52 procs for 121 steps with 288751 atoms

99.9% CPU use with 52 MPI tasks x 1 OpenMP threads

Minimization stats:
  Stopping criterion = linesearch alpha is zero
  Energy initial, next-to-last, final = 
     -1152449.44388116  -1152449.44575907  -1152449.44575907
  Force two-norm initial, final = 0.20980362 0.00014889579
  Force max component initial, final = 0.096648344 2.7204727e-05
  Final line search alpha, max atom move = 0.5 1.3602363e-05
  Iterations, force evaluations = 121 243

MPI task timing breakdown:
Section |  min time  |  avg time  |  max time  |%varavg| %total
---------------------------------------------------------------
Pair    | 0.69777    | 1.9343     | 2.5349     |  38.2 | 72.02
Neigh   | 0          | 0          | 0          |   0.0 |  0.00
Comm    | 0.038156   | 0.43131    | 1.3474     |  58.7 | 16.06
Output  | 0          | 0          | 0          |   0.0 |  0.00
Modify  | 4.3278e-05 | 0.0041221  | 0.0086993  |   2.9 |  0.15
Other   |            | 0.3161     |            |       | 11.77

Nlocal:        5552.90 ave        7912 max           0 min
Histogram: 4 2 2 0 2 6 4 0 15 17
Nghost:        6213.54 ave        8769 max         412 min
Histogram: 4 0 4 0 8 0 4 5 7 20
Neighs:       158427.0 ave      230633 max           0 min
Histogram: 4 2 2 0 5 3 4 4 12 16

Total # of neighbors = 8238201
Ave neighs/atom = 28.530467
Neighbor list builds = 0
Dangerous builds = 0
The dot product: 1.18683170225256e-07
Setting atom values ...
  1 settings made for x
  1 settings made for y
  1 settings made for z
Setting up cg style minimization ...
  Unit style    : metal
  Current step  : 470
Per MPI rank memory allocation (min/avg/max) = 5.465 | 6.344 | 6.728 Mbytes
Step PotEng KinEng TotEng v_fx v_fy v_fz 
     470   -1152449.4            0   -1152449.4  0.034071446  0.032537053 -0.046227288 
     578   -1152449.4            0   -1152449.4 6.5385766e-06 -9.0006428e-06 -5.8106894e-05 
Loop time of 2.44939 on 52 procs for 108 steps with 288751 atoms

99.8% CPU use with 52 MPI tasks x 1 OpenMP threads

Minimization stats:
  Stopping criterion = energy tolerance
  Energy initial, next-to-last, final = 
     -1152449.43953432  -1152449.44134173  -1152449.44134173
  Force two-norm initial, final = 0.20562381 0.00022922608
  Force max component initial, final = 0.091229785 5.8106894e-05
  Final line search alpha, max atom move = 1.0000000 5.8106894e-05
  Iterations, force evaluations = 108 216

MPI task timing breakdown:
Section |  min time  |  avg time  |  max time  |%varavg| %total
---------------------------------------------------------------
Pair    | 0.62666    | 1.7383     | 2.2696     |  36.1 | 70.97
Neigh   | 0          | 0          | 0          |   0.0 |  0.00
Comm    | 0.035192   | 0.39428    | 1.2343     |  54.9 | 16.10
Output  | 0          | 0          | 0          |   0.0 |  0.00
Modify  | 3.2345e-05 | 0.0037061  | 0.0078618  |   2.8 |  0.15
Other   |            | 0.3131     |            |       | 12.78

Nlocal:        5552.90 ave        7911 max           0 min
Histogram: 4 2 2 0 2 6 4 0 15 17
Nghost:        6213.54 ave        8769 max         412 min
Histogram: 4 0 4 0 8 0 4 5 7 20
Neighs:       158427.0 ave      230611 max           0 min
Histogram: 4 2 2 0 5 3 4 4 12 16

Total # of neighbors = 8238204
Ave neighs/atom = 28.530478
Neighbor list builds = 0
Dangerous builds = 0
The dot product: 2.06253878208696e-07
Setting atom values ...
  1 settings made for x
  1 settings made for y
  1 settings made for z
Setting up cg style minimization ...
  Unit style    : metal
  Current step  : 578
Per MPI rank memory allocation (min/avg/max) = 5.465 | 6.344 | 6.728 Mbytes
Step PotEng KinEng TotEng v_fx v_fy v_fz 
     578   -1152449.4            0   -1152449.4  0.030795326  0.039034265 -0.042611924 
     757   -1152449.4            0   -1152449.4 1.1862762e-06 -1.6274254e-06 -1.4799344e-05 
Loop time of 3.99271 on 52 procs for 179 steps with 288751 atoms

99.8% CPU use with 52 MPI tasks x 1 OpenMP threads

Minimization stats:
  Stopping criterion = linesearch alpha is zero
  Energy initial, next-to-last, final = 
     -1152449.43366889  -1152449.43540895  -1152449.43540895
  Force two-norm initial, final = 0.2010751 4.9333365e-05
  Force max component initial, final = 0.086337518 1.4799344e-05
  Final line search alpha, max atom move = 0.5 7.3996721e-06
  Iterations, force evaluations = 179 359

MPI task timing breakdown:
Section |  min time  |  avg time  |  max time  |%varavg| %total
---------------------------------------------------------------
Pair    | 1.0107     | 2.863      | 3.7446     |  46.9 | 71.71
Neigh   | 0          | 0          | 0          |   0.0 |  0.00
Comm    | 0.05854    | 0.64264    | 2.0145     |  71.5 | 16.10
Output  | 0          | 0          | 0          |   0.0 |  0.00
Modify  | 6.6054e-05 | 0.0060684  | 0.012822   |   3.6 |  0.15
Other   |            | 0.481      |            |       | 12.05

Nlocal:        5552.90 ave        7910 max           0 min
Histogram: 4 2 2 0 2 6 4 0 15 17
Nghost:        6213.54 ave        8769 max         412 min
Histogram: 4 0 4 0 8 0 4 5 7 20
Neighs:       158427.0 ave      230585 max           0 min
Histogram: 4 2 2 0 5 3 4 4 12 16

Total # of neighbors = 8238202
Ave neighs/atom = 28.530471
Neighbor list builds = 0
Dangerous builds = 0
The dot product: 4.51845944304358e-08
Setting atom values ...
  1 settings made for x
  1 settings made for y
  1 settings made for z
Setting up cg style minimization ...
  Unit style    : metal
  Current step  : 757
Per MPI rank memory allocation (min/avg/max) = 5.465 | 6.344 | 6.728 Mbytes
Step PotEng KinEng TotEng v_fx v_fy v_fz 
     757   -1152449.4            0   -1152449.4   0.02782617  0.043285101 -0.038802582 
     910   -1152449.4            0   -1152449.4 -6.8347965e-07 -3.4304569e-06 -1.1859995e-05 
Loop time of 3.39858 on 52 procs for 153 steps with 288751 atoms

99.9% CPU use with 52 MPI tasks x 1 OpenMP threads

Minimization stats:
  Stopping criterion = linesearch alpha is zero
  Energy initial, next-to-last, final = 
     -1152449.42623595  -1152449.42792189  -1152449.42792189
  Force two-norm initial, final = 0.19698965 6.5609259e-05
  Force max component initial, final = 0.082096101 1.1859995e-05
  Final line search alpha, max atom move = 0.5 5.9299976e-06
  Iterations, force evaluations = 153 307

MPI task timing breakdown:
Section |  min time  |  avg time  |  max time  |%varavg| %total
---------------------------------------------------------------
Pair    | 0.87698    | 2.4473     | 3.2048     |  43.0 | 72.01
Neigh   | 0          | 0          | 0          |   0.0 |  0.00
Comm    | 0.047601   | 0.54549    | 1.7101     |  66.0 | 16.05
Output  | 0          | 0          | 0          |   0.0 |  0.00
Modify  | 4.858e-05  | 0.0052139  | 0.011056   |   3.3 |  0.15
Other   |            | 0.4006     |            |       | 11.79

Nlocal:        5552.90 ave        7907 max           0 min
Histogram: 4 2 2 0 2 6 4 0 15 17
Nghost:        6213.54 ave        8769 max         412 min
Histogram: 4 0 4 0 8 0 4 5 7 20
Neighs:       158427.0 ave      230491 max           0 min
Histogram: 4 2 2 0 5 3 4 4 12 16

Total # of neighbors = 8238199
Ave neighs/atom = 28.530461
Neighbor list builds = 0
Dangerous builds = 0
The dot product: 1.61388297138081e-08
Setting atom values ...
  1 settings made for x
  1 settings made for y
  1 settings made for z
Setting up cg style minimization ...
  Unit style    : metal
  Current step  : 910
Per MPI rank memory allocation (min/avg/max) = 5.465 | 6.344 | 6.728 Mbytes
Step PotEng KinEng TotEng v_fx v_fy v_fz 
     910   -1152449.4            0   -1152449.4  0.025567997  0.046638582 -0.036172535 
    1000   -1152449.4            0   -1152449.4 -3.8090662e-06 -2.1798786e-05 -9.7488959e-05 
    1030   -1152449.4            0   -1152449.4 -1.1023841e-06 -9.7347247e-06 -5.1947401e-05 
Loop time of 2.66972 on 52 procs for 120 steps with 288751 atoms

99.9% CPU use with 52 MPI tasks x 1 OpenMP threads

Minimization stats:
  Stopping criterion = energy tolerance
  Energy initial, next-to-last, final = 
      -1152449.4172096  -1152449.41885449  -1152449.41885449
  Force two-norm initial, final = 0.1936839 0.00018364919
  Force max component initial, final = 0.078469163 5.1947401e-05
  Final line search alpha, max atom move = 1.0000000 5.1947401e-05
  Iterations, force evaluations = 120 240

MPI task timing breakdown:
Section |  min time  |  avg time  |  max time  |%varavg| %total
---------------------------------------------------------------
Pair    | 0.6809     | 1.9157     | 2.507      |  38.2 | 71.76
Neigh   | 0          | 0          | 0          |   0.0 |  0.00
Comm    | 0.038801   | 0.4311     | 1.3493     |  58.3 | 16.15
Output  | 0.00038527 | 0.00038999 | 0.00053402 |   0.0 |  0.01
Modify  | 4.3586e-05 | 0.0040513  | 0.0085849  |   2.9 |  0.15
Other   |            | 0.3184     |            |       | 11.93

Nlocal:        5552.90 ave        7906 max           0 min
Histogram: 4 2 2 0 2 6 4 0 15 17
Nghost:        6213.54 ave        8769 max         412 min
Histogram: 4 0 4 0 8 0 4 5 7 20
Neighs:       158427.0 ave      230450 max           0 min
Histogram: 4 2 2 0 5 3 4 4 12 16

Total # of neighbors = 8238201
Ave neighs/atom = 28.530467
Neighbor list builds = 0
Dangerous builds = 0
The dot product: 7.74528756379333e-08
Setting atom values ...
  1 settings made for x
  1 settings made for y
  1 settings made for z
Setting up cg style minimization ...
  Unit style    : metal
  Current step  : 1030
Per MPI rank memory allocation (min/avg/max) = 5.465 | 6.344 | 6.728 Mbytes
Step PotEng KinEng TotEng v_fx v_fy v_fz 
    1030   -1152449.4            0   -1152449.4  0.023977018  0.050027462 -0.035166421 
    1129   -1152449.4            0   -1152449.4 -7.2371299e-06 -8.0799384e-06 7.3612491e-05 
Loop time of 2.19995 on 52 procs for 99 steps with 288751 atoms

99.9% CPU use with 52 MPI tasks x 1 OpenMP threads

Minimization stats:
  Stopping criterion = energy tolerance
  Energy initial, next-to-last, final = 
     -1152449.40657971  -1152449.40819504  -1152449.40819504
  Force two-norm initial, final = 0.1911718 0.00036355869
  Force max component initial, final = 0.07519001 7.3612491e-05
  Final line search alpha, max atom move = 1.0000000 7.3612491e-05
  Iterations, force evaluations = 99 198

MPI task timing breakdown:
Section |  min time  |  avg time  |  max time  |%varavg| %total
---------------------------------------------------------------
Pair    | 0.55681    | 1.5836     | 2.0691     |  34.8 | 71.98
Neigh   | 0          | 0          | 0          |   0.0 |  0.00
Comm    | 0.030477   | 0.35359    | 1.1106     |  53.4 | 16.07
Output  | 0          | 0          | 0          |   0.0 |  0.00
Modify  | 3.5255e-05 | 0.0033504  | 0.0071487  |   2.7 |  0.15
Other   |            | 0.2594     |            |       | 11.79

Nlocal:        5552.90 ave        7904 max           0 min
Histogram: 4 2 2 0 2 6 4 0 15 17
Nghost:        6213.54 ave        8769 max         412 min
Histogram: 4 0 4 0 8 0 4 5 7 20
Neighs:       158427.0 ave      230380 max           0 min
Histogram: 4 2 2 0 5 3 4 4 12 16

Total # of neighbors = 8238201
Ave neighs/atom = 28.530467
Neighbor list builds = 0
Dangerous builds = 0
The dot product: -2.24879146460436e-07
Setting atom values ...
  1 settings made for x
  1 settings made for y
  1 settings made for z
Setting up cg style minimization ...
  Unit style    : metal
  Current step  : 1129
Per MPI rank memory allocation (min/avg/max) = 5.465 | 6.344 | 6.728 Mbytes
Step PotEng KinEng TotEng v_fx v_fy v_fz 
    1129   -1152449.4            0   -1152449.4  0.022923245  0.054231312  -0.03577917 
    1254   -1152449.4            0   -1152449.4 6.2993258e-07 3.7870107e-07 -1.4770389e-05 
Loop time of 2.80942 on 52 procs for 125 steps with 288751 atoms

99.9% CPU use with 52 MPI tasks x 1 OpenMP threads

Minimization stats:
  Stopping criterion = linesearch alpha is zero
  Energy initial, next-to-last, final = 
     -1152449.39434982  -1152449.39594971  -1152449.39594971
  Force two-norm initial, final = 0.18940826 0.00016761406
  Force max component initial, final = 0.071820582 2.2833706e-05
  Final line search alpha, max atom move = 0.25 5.7084265e-06
  Iterations, force evaluations = 125 253

MPI task timing breakdown:
Section |  min time  |  avg time  |  max time  |%varavg| %total
---------------------------------------------------------------
Pair    | 0.71076    | 2.0156     | 2.6405     |  39.2 | 71.74
Neigh   | 0          | 0          | 0          |   0.0 |  0.00
Comm    | 0.038796   | 0.45094    | 1.412      |  60.1 | 16.05
Output  | 0          | 0          | 0          |   0.0 |  0.00
Modify  | 4.7839e-05 | 0.00426    | 0.0090789  |   3.0 |  0.15
Other   |            | 0.3386     |            |       | 12.05

Nlocal:        5552.90 ave        7902 max           0 min
Histogram: 4 2 2 0 2 6 4 0 15 17
Nghost:        6213.54 ave        8769 max         412 min
Histogram: 4 0 4 0 8 0 4 5 7 20
Neighs:       158427.0 ave      230307 max           0 min
Histogram: 4 2 2 0 5 3 4 4 12 16

Total # of neighbors = 8238197
Ave neighs/atom = 28.530454
Neighbor list builds = 0
Dangerous builds = 0
The dot product: 3.99416019920637e-08
Setting atom values ...
  1 settings made for x
  1 settings made for y
  1 settings made for z
Setting up cg style minimization ...
  Unit style    : metal
  Current step  : 1254
Per MPI rank memory allocation (min/avg/max) = 5.465 | 6.344 | 6.728 Mbytes
Step PotEng KinEng TotEng v_fx v_fy v_fz 
    1254   -1152449.4            0   -1152449.4  0.022251195  0.060031133 -0.038507065 
    1366   -1152449.4            0   -1152449.4 -9.4003463e-06 -2.8650588e-05 -5.5265495e-05 
Loop time of 2.47667 on 52 procs for 112 steps with 288751 atoms

99.9% CPU use with 52 MPI tasks x 1 OpenMP threads

Minimization stats:
  Stopping criterion = energy tolerance
  Energy initial, next-to-last, final = 
     -1152449.38054589  -1152449.38215197  -1152449.38215197
  Force two-norm initial, final = 0.18881153 0.00027752549
  Force max component initial, final = 0.068309537 5.8580500e-05
  Final line search alpha, max atom move = 1.0000000 5.8580500e-05
  Iterations, force evaluations = 112 224

MPI task timing breakdown:
Section |  min time  |  avg time  |  max time  |%varavg| %total
---------------------------------------------------------------
Pair    | 0.62735    | 1.7908     | 2.3379     |  37.2 | 72.31
Neigh   | 0          | 0          | 0          |   0.0 |  0.00
Comm    | 0.034179   | 0.403      | 1.2732     |  56.9 | 16.27
Output  | 0          | 0          | 0          |   0.0 |  0.00
Modify  | 3.9402e-05 | 0.0037775  | 0.0080205  |   2.8 |  0.15
Other   |            | 0.2791     |            |       | 11.27

Nlocal:        5552.90 ave        7902 max           0 min
Histogram: 4 2 2 0 2 6 4 0 15 17
Nghost:        6213.54 ave        8769 max         412 min
Histogram: 4 0 4 0 8 0 4 5 7 20
Neighs:       158427.0 ave      230299 max           0 min
Histogram: 4 2 2 0 5 3 4 4 12 16

Total # of neighbors = 8238198
Ave neighs/atom = 28.530457
Neighbor list builds = 0
Dangerous builds = 0
The dot product: -4.90336905526296e-08
Setting atom values ...
  1 settings made for x
  1 settings made for y
  1 settings made for z
Setting up cg style minimization ...
  Unit style    : metal
  Current step  : 1366
Per MPI rank memory allocation (min/avg/max) = 5.465 | 6.344 | 6.728 Mbytes
Step PotEng KinEng TotEng v_fx v_fy v_fz 
    1366   -1152449.4            0   -1152449.4  0.022069799  0.069779973 -0.045433786 
    1507   -1152449.4            0   -1152449.4 -9.7440142e-06 -3.0682556e-05 -2.2668964e-05 
Loop time of 3.16883 on 52 procs for 141 steps with 288751 atoms

99.9% CPU use with 52 MPI tasks x 1 OpenMP threads

Minimization stats:
  Stopping criterion = linesearch alpha is zero
  Energy initial, next-to-last, final = 
     -1152449.36523713  -1152449.36693774  -1152449.36693774
  Force two-norm initial, final = 0.19065885 0.00020580711
  Force max component initial, final = 0.069779973 4.2624062e-05
  Final line search alpha, max atom move = 0.25 1.0656015e-05
  Iterations, force evaluations = 141 285

MPI task timing breakdown:
Section |  min time  |  avg time  |  max time  |%varavg| %total
---------------------------------------------------------------
Pair    | 0.81255    | 2.2724     | 2.9766     |  41.5 | 71.71
Neigh   | 0          | 0          | 0          |   0.0 |  0.00
Comm    | 0.044743   | 0.5094     | 1.5877     |  63.5 | 16.08
Output  | 0          | 0          | 0          |   0.0 |  0.00
Modify  | 5.7978e-05 | 0.0048345  | 0.01022    |   3.2 |  0.15
Other   |            | 0.3822     |            |       | 12.06

Nlocal:        5552.90 ave        7902 max           0 min
Histogram: 4 2 2 0 2 6 4 0 15 17
Nghost:        6213.54 ave        8769 max         412 min
Histogram: 4 0 4 0 8 0 4 5 7 20
Neighs:       158427.0 ave      230297 max           0 min
Histogram: 4 2 2 0 5 3 4 4 12 16

Total # of neighbors = 8238196
Ave neighs/atom = 28.530450
Neighbor list builds = 0
Dangerous builds = 0
The dot product: -2.20027005169384e-07
Setting atom values ...
  1 settings made for x
  1 settings made for y
  1 settings made for z
Setting up cg style minimization ...
  Unit style    : metal
  Current step  : 1507
Per MPI rank memory allocation (min/avg/max) = 5.465 | 6.344 | 6.728 Mbytes
Step PotEng KinEng TotEng v_fx v_fy v_fz 
    1507   -1152449.3            0   -1152449.3  0.022094954  0.092368801 -0.064464648 
    1623   -1152449.4            0   -1152449.4 -1.0823684e-05 -4.4322582e-05 2.3571728e-05 
Loop time of 2.57393 on 52 procs for 116 steps with 288751 atoms

99.9% CPU use with 52 MPI tasks x 1 OpenMP threads

Minimization stats:
  Stopping criterion = energy tolerance
  Energy initial, next-to-last, final = 
      -1152449.3487717  -1152449.35243627  -1152449.35243627
  Force two-norm initial, final = 0.202021 0.00042846812
  Force max component initial, final = 0.092368801 5.0425869e-05
  Final line search alpha, max atom move = 1.0000000 5.0425869e-05
  Iterations, force evaluations = 116 232

MPI task timing breakdown:
Section |  min time  |  avg time  |  max time  |%varavg| %total
---------------------------------------------------------------
Pair    | 0.65177    | 1.851      | 2.4249     |  37.7 | 71.91
Neigh   | 0          | 0          | 0          |   0.0 |  0.00
Comm    | 0.035643   | 0.41606    | 1.3041     |  57.5 | 16.16
Output  | 0          | 0          | 0          |   0.0 |  0.00
Modify  | 4.4414e-05 | 0.0039129  | 0.0083262  |   2.9 |  0.15
Other   |            | 0.303      |            |       | 11.77

Nlocal:        5552.90 ave        7903 max           0 min
Histogram: 4 2 2 0 2 6 4 0 15 17
Nghost:        6213.54 ave        8769 max         412 min
Histogram: 4 0 4 0 8 0 4 5 7 20
Neighs:       158427.0 ave      230319 max           0 min
Histogram: 4 2 2 0 5 3 4 4 12 16

Total # of neighbors = 8238191
Ave neighs/atom = 28.530433
Neighbor list builds = 0
Dangerous builds = 0
The dot product: -3.06967844811602e-06
Setting atom values ...
  1 settings made for x
  1 settings made for y
  1 settings made for z
Setting up cg style minimization ...
  Unit style    : metal
  Current step  : 1623
Per MPI rank memory allocation (min/avg/max) = 5.465 | 6.344 | 6.728 Mbytes
Step PotEng KinEng TotEng v_fx v_fy v_fz 
    1623   -1152449.3            0   -1152449.3 -0.017446368   0.20521116  -0.14575313 
    1846   -1152449.3            0   -1152449.3 -5.3055154e-06 -1.2050732e-05 -2.4835156e-05 
Loop time of 4.96478 on 52 procs for 223 steps with 288751 atoms

99.9% CPU use with 52 MPI tasks x 1 OpenMP threads

Minimization stats:
  Stopping criterion = energy tolerance
  Energy initial, next-to-last, final = 
      -1152449.3367602  -1152449.34712586  -1152449.34712586
  Force two-norm initial, final = 0.2940651 0.00010993537
  Force max component initial, final = 0.20521116 2.8507354e-05
  Final line search alpha, max atom move = 1.0000000 2.8507354e-05
  Iterations, force evaluations = 223 448

MPI task timing breakdown:
Section |  min time  |  avg time  |  max time  |%varavg| %total
---------------------------------------------------------------
Pair    | 1.2682     | 3.5706     | 4.6676     |  52.1 | 71.92
Neigh   | 1.7688e-05 | 0.0058093  | 0.0086581  |   3.2 |  0.12
Comm    | 0.071219   | 0.80113    | 2.5086     |  80.0 | 16.14
Output  | 0          | 0          | 0          |   0.0 |  0.00
Modify  | 8.9534e-05 | 0.0075337  | 0.016009   |   4.0 |  0.15
Other   |            | 0.5797     |            |       | 11.68

Nlocal:        5552.90 ave        7912 max           0 min
Histogram: 4 2 2 0 2 6 4 0 15 17
Nghost:        6213.54 ave        8769 max         412 min
Histogram: 4 0 4 0 8 0 4 5 7 20
Neighs:       158427.0 ave      230597 max           0 min
Histogram: 4 2 2 0 5 3 4 4 12 16

Total # of neighbors = 8238194
Ave neighs/atom = 28.530443
Neighbor list builds = 1
Dangerous builds = 0
The dot product: 1.94728263845392e-07
Setting atom values ...
  1 settings made for x
  1 settings made for y
  1 settings made for z
Setting up cg style minimization ...
  Unit style    : metal
  Current step  : 1846
Per MPI rank memory allocation (min/avg/max) = 5.465 | 6.344 | 6.728 Mbytes
Step PotEng KinEng TotEng v_fx v_fy v_fz 
    1846   -1152449.3            0   -1152449.3 -0.070256886   0.18046018 -0.090128353 
    1984   -1152449.3            0   -1152449.3 2.7572185e-05 1.9797502e-05 9.1123492e-05 
Loop time of 3.05968 on 52 procs for 138 steps with 288751 atoms

99.9% CPU use with 52 MPI tasks x 1 OpenMP threads

Minimization stats:
  Stopping criterion = energy tolerance
  Energy initial, next-to-last, final = 
     -1152449.33427749  -1152449.34121177  -1152449.34121177
  Force two-norm initial, final = 0.25425734 0.00028626773
  Force max component initial, final = 0.18046018 9.1123492e-05
  Final line search alpha, max atom move = 1.0000000 9.1123492e-05
  Iterations, force evaluations = 138 276

MPI task timing breakdown:
Section |  min time  |  avg time  |  max time  |%varavg| %total
---------------------------------------------------------------
Pair    | 0.79427    | 2.2026     | 2.8854     |  40.7 | 71.99
Neigh   | 0          | 0          | 0          |   0.0 |  0.00
Comm    | 0.042927   | 0.49103    | 1.5381     |  62.6 | 16.05
Output  | 0          | 0          | 0          |   0.0 |  0.00
Modify  | 4.516e-05  | 0.0046933  | 0.010038   |   3.1 |  0.15
Other   |            | 0.3614     |            |       | 11.81

Nlocal:        5552.90 ave        7912 max           0 min
Histogram: 4 2 2 0 2 6 4 0 15 17
Nghost:        6213.54 ave        8769 max         412 min
Histogram: 4 0 4 0 8 0 4 5 7 20
Neighs:       158427.0 ave      230608 max           0 min
Histogram: 4 2 2 0 5 3 4 4 12 16

Total # of neighbors = 8238201
Ave neighs/atom = 28.530467
Neighbor list builds = 0
Dangerous builds = 0
The dot product: -2.53998100159679e-06
Setting atom values ...
  1 settings made for x
  1 settings made for y
  1 settings made for z
Setting up cg style minimization ...
  Unit style    : metal
  Current step  : 1984
Per MPI rank memory allocation (min/avg/max) = 5.465 | 6.344 | 6.728 Mbytes
Step PotEng KinEng TotEng v_fx v_fy v_fz 
    1984   -1152449.3            0   -1152449.3 -0.053335813  0.067987675  -0.04729248 
    2000   -1152449.3            0   -1152449.3 -0.0062977611  0.010032905 -0.0038886021 
    2216   -1152449.3            0   -1152449.3 1.9992616e-05 -9.9895459e-07 3.8433429e-05 
Loop time of 5.17596 on 52 procs for 232 steps with 288751 atoms

99.9% CPU use with 52 MPI tasks x 1 OpenMP threads

Minimization stats:
  Stopping criterion = linesearch alpha is zero
  Energy initial, next-to-last, final = 
     -1152449.33353728  -1152449.34651305  -1152449.34651305
  Force two-norm initial, final = 0.1792842 0.00016658021
  Force max component initial, final = 0.067987675 4.1123219e-05
  Final line search alpha, max atom move = 0.25 1.0280805e-05
  Iterations, force evaluations = 232 467

MPI task timing breakdown:
Section |  min time  |  avg time  |  max time  |%varavg| %total
---------------------------------------------------------------
Pair    | 1.3156     | 3.7129     | 4.8677     |  53.2 | 71.73
Neigh   | 2.0409e-05 | 0.0058351  | 0.0086083  |   3.2 |  0.11
Comm    | 0.071219   | 0.8324     | 2.6028     |  81.4 | 16.08
Output  | 0.00047079 | 0.00047681 | 0.00061908 |   0.0 |  0.01
Modify  | 8.1009e-05 | 0.0078571  | 0.016704   |   4.1 |  0.15
Other   |            | 0.6165     |            |       | 11.91

Nlocal:        5552.90 ave        7915 max           0 min
Histogram: 4 2 2 0 2 6 4 2 13 17
Nghost:        6213.62 ave        8769 max         412 min
Histogram: 4 0 4 0 8 0 4 5 7 20
Neighs:       158427.0 ave      230675 max           0 min
Histogram: 4 2 2 0 5 3 4 4 12 16

Total # of neighbors = 8238193
Ave neighs/atom = 28.530440
Neighbor list builds = 1
Dangerous builds = 0
The dot product: -1.58797351817134e-06
Setting atom values ...
  1 settings made for x
  1 settings made for y
  1 settings made for z
Setting up cg style minimization ...
  Unit style    : metal
  Current step  : 2216
Per MPI rank memory allocation (min/avg/max) = 5.465 | 6.344 | 6.728 Mbytes
Step PotEng KinEng TotEng v_fx v_fy v_fz 
    2216   -1152449.3            0   -1152449.3  0.023333914 -0.00012586235  0.034376094 
    2315   -1152449.3            0   -1152449.3 2.4303011e-06 -2.4571112e-05 -1.5220231e-05 
Loop time of 2.19568 on 52 procs for 99 steps with 288751 atoms

99.9% CPU use with 52 MPI tasks x 1 OpenMP threads

Minimization stats:
  Stopping criterion = energy tolerance
  Energy initial, next-to-last, final = 
     -1152449.34841068  -1152449.34937381  -1152449.34937381
  Force two-norm initial, final = 0.13048941 0.00022771423
  Force max component initial, final = 0.048039082 2.4571112e-05
  Final line search alpha, max atom move = 1.0000000 2.4571112e-05
  Iterations, force evaluations = 99 198

MPI task timing breakdown:
Section |  min time  |  avg time  |  max time  |%varavg| %total
---------------------------------------------------------------
Pair    | 0.5579     | 1.5769     | 2.0674     |  34.8 | 71.82
Neigh   | 0          | 0          | 0          |   0.0 |  0.00
Comm    | 0.030415   | 0.35374    | 1.1071     |  53.2 | 16.11
Output  | 0          | 0          | 0          |   0.0 |  0.00
Modify  | 3.2631e-05 | 0.0033504  | 0.0070923  |   2.7 |  0.15
Other   |            | 0.2617     |            |       | 11.92

Nlocal:        5552.90 ave        7913 max           0 min
Histogram: 4 2 2 0 2 6 4 1 14 17
Nghost:        6213.54 ave        8769 max         412 min
Histogram: 4 0 4 0 8 0 4 5 7 20
Neighs:       158427.0 ave      230659 max           0 min
Histogram: 4 2 2 0 5 3 4 4 12 16

Total # of neighbors = 8238192
Ave neighs/atom = 28.530436
Neighbor list builds = 0
Dangerous builds = 0
The dot product: -1.05807497667367e-08
Setting atom values ...
  1 settings made for x
  1 settings made for y
  1 settings made for z
Setting up cg style minimization ...
  Unit style    : metal
  Current step  : 2315
Per MPI rank memory allocation (min/avg/max) = 5.465 | 6.344 | 6.728 Mbytes
Step PotEng KinEng TotEng v_fx v_fy v_fz 
    2315   -1152449.4            0   -1152449.4 0.0092656353 0.0067948528   0.01928808 
    2472   -1152449.4            0   -1152449.4 -1.2310994e-05 -4.3217628e-05 -5.2016798e-05 
Loop time of 3.46561 on 52 procs for 157 steps with 288751 atoms

99.9% CPU use with 52 MPI tasks x 1 OpenMP threads

Minimization stats:
  Stopping criterion = energy tolerance
  Energy initial, next-to-last, final = 
     -1152449.35019776  -1152449.35110167  -1152449.35110167
  Force two-norm initial, final = 0.12528603 0.00025457761
  Force max component initial, final = 0.04738627 5.7110598e-05
  Final line search alpha, max atom move = 1.0000000 5.7110598e-05
  Iterations, force evaluations = 157 314

MPI task timing breakdown:
Section |  min time  |  avg time  |  max time  |%varavg| %total
---------------------------------------------------------------
Pair    | 0.87987    | 2.4914     | 3.2723     |  43.7 | 71.89
Neigh   | 0          | 0          | 0          |   0.0 |  0.00
Comm    | 0.047865   | 0.55894    | 1.7458     |  66.8 | 16.13
Output  | 0          | 0          | 0          |   0.0 |  0.00
Modify  | 5.4743e-05 | 0.0052883  | 0.011251   |   3.3 |  0.15
Other   |            | 0.41       |            |       | 11.83

Nlocal:        5552.90 ave        7913 max           0 min
Histogram: 4 2 2 0 2 6 4 1 14 17
Nghost:        6213.54 ave        8769 max         412 min
Histogram: 4 0 4 0 8 0 4 5 7 20
Neighs:       158427.0 ave      230660 max           0 min
Histogram: 4 2 2 0 5 3 4 4 12 16

Total # of neighbors = 8238192
Ave neighs/atom = 28.530436
Neighbor list builds = 0
Dangerous builds = 0
The dot product: -2.58404180793336e-08
Setting atom values ...
  1 settings made for x
  1 settings made for y
  1 settings made for z
Setting up cg style minimization ...
  Unit style    : metal
  Current step  : 2472
Per MPI rank memory allocation (min/avg/max) = 5.465 | 6.344 | 6.728 Mbytes
Step PotEng KinEng TotEng v_fx v_fy v_fz 
    2472   -1152449.4            0   -1152449.4 0.0098768052 0.0064814378  0.020009769 
    2616   -1152449.4            0   -1152449.4 -3.0892966e-05 2.0449349e-06 -4.5300334e-05 
Loop time of 3.19394 on 52 procs for 144 steps with 288751 atoms

99.9% CPU use with 52 MPI tasks x 1 OpenMP threads

Minimization stats:
  Stopping criterion = energy tolerance
  Energy initial, next-to-last, final = 
     -1152449.35065741  -1152449.35155714  -1152449.35155714
  Force two-norm initial, final = 0.12545221 0.00031295168
  Force max component initial, final = 0.046792736 4.5300334e-05
  Final line search alpha, max atom move = 1.0000000 4.5300334e-05
  Iterations, force evaluations = 144 288

MPI task timing breakdown:
Section |  min time  |  avg time  |  max time  |%varavg| %total
---------------------------------------------------------------
Pair    | 0.82151    | 2.3017     | 3.0062     |  41.8 | 72.07
Neigh   | 0          | 0          | 0          |   0.0 |  0.00
Comm    | 0.044665   | 0.51717    | 1.6291     |  64.0 | 16.19
Output  | 0          | 0          | 0          |   0.0 |  0.00
Modify  | 5.1889e-05 | 0.004891   | 0.010369   |   3.2 |  0.15
Other   |            | 0.3701     |            |       | 11.59

Nlocal:        5552.90 ave        7914 max           0 min
Histogram: 4 2 2 0 2 6 4 1 14 17
Nghost:        6213.54 ave        8769 max         412 min
Histogram: 4 0 4 0 8 0 4 5 7 20
Neighs:       158427.0 ave      230678 max           0 min
Histogram: 4 2 2 0 5 3 4 4 12 16

Total # of neighbors = 8238190
Ave neighs/atom = 28.530429
Neighbor list builds = 0
Dangerous builds = 0
The dot product: -2.47984681288465e-08
Setting atom values ...
  1 settings made for x
  1 settings made for y
  1 settings made for z
Setting up cg style minimization ...
  Unit style    : metal
  Current step  : 2616
Per MPI rank memory allocation (min/avg/max) = 5.465 | 6.344 | 6.728 Mbytes
Step PotEng KinEng TotEng v_fx v_fy v_fz 
    2616   -1152449.3            0   -1152449.3 0.0090418597 0.0065417055  0.018851888 
    2788   -1152449.4            0   -1152449.4 -1.2575078e-05 2.2462727e-05 -1.6633202e-06 
Loop time of 3.82198 on 52 procs for 172 steps with 288751 atoms

99.9% CPU use with 52 MPI tasks x 1 OpenMP threads

Minimization stats:
  Stopping criterion = energy tolerance
  Energy initial, next-to-last, final = 
     -1152449.34978675  -1152449.35067715  -1152449.35067715
  Force two-norm initial, final = 0.12475477 0.00018938761
  Force max component initial, final = 0.046178109 2.4871461e-05
  Final line search alpha, max atom move = 1.0000000 2.4871461e-05
  Iterations, force evaluations = 172 344

MPI task timing breakdown:
Section |  min time  |  avg time  |  max time  |%varavg| %total
---------------------------------------------------------------
Pair    | 0.9659     | 2.7327     | 3.5861     |  45.7 | 71.50
Neigh   | 0          | 0          | 0          |   0.0 |  0.00
Comm    | 0.052358   | 0.61434    | 1.9111     |  69.8 | 16.07
Output  | 0          | 0          | 0          |   0.0 |  0.00
Modify  | 6.7508e-05 | 0.0057969  | 0.012347   |   3.5 |  0.15
Other   |            | 0.4692     |            |       | 12.28

Nlocal:        5552.90 ave        7914 max           0 min
Histogram: 4 2 2 0 2 6 4 1 14 17
Nghost:        6213.54 ave        8769 max         412 min
Histogram: 4 0 4 0 8 0 4 5 7 20
Neighs:       158427.0 ave      230678 max           0 min
Histogram: 4 2 2 0 5 3 4 4 12 16

Total # of neighbors = 8238192
Ave neighs/atom = 28.530436
Neighbor list builds = 0
Dangerous builds = 0
The dot product: 5.7891880147638e-09
Setting atom values ...
  1 settings made for x
  1 settings made for y
  1 settings made for z
Setting up cg style minimization ...
  Unit style    : metal
  Current step  : 2788
Per MPI rank memory allocation (min/avg/max) = 5.465 | 6.344 | 6.728 Mbytes
Step PotEng KinEng TotEng v_fx v_fy v_fz 
    2788   -1152449.3            0   -1152449.3 0.0081005508 0.0063455541  0.017316788 
    2976   -1152449.3            0   -1152449.3 1.0508252e-05 -8.9430997e-06 9.0445915e-06 
Loop time of 4.16495 on 52 procs for 188 steps with 288751 atoms

99.9% CPU use with 52 MPI tasks x 1 OpenMP threads

Minimization stats:
  Stopping criterion = linesearch alpha is zero
  Energy initial, next-to-last, final = 
     -1152449.34756628  -1152449.34844333  -1152449.34844333
  Force two-norm initial, final = 0.12378169 0.00010437795
  Force max component initial, final = 0.045517783 1.7280243e-05
  Final line search alpha, max atom move = 0.5 8.6401217e-06
  Iterations, force evaluations = 188 377

MPI task timing breakdown:
Section |  min time  |  avg time  |  max time  |%varavg| %total
---------------------------------------------------------------
Pair    | 1.0832     | 3.0125     | 3.929      |  47.6 | 72.33
Neigh   | 0          | 0          | 0          |   0.0 |  0.00
Comm    | 0.058978   | 0.67223    | 2.1346     |  73.6 | 16.14
Output  | 0          | 0          | 0          |   0.0 |  0.00
Modify  | 6.8309e-05 | 0.0064275  | 0.013688   |   3.7 |  0.15
Other   |            | 0.4738     |            |       | 11.38

Nlocal:        5552.90 ave        7914 max           0 min
Histogram: 4 2 2 0 2 6 4 1 14 17
Nghost:        6213.62 ave        8769 max         412 min
Histogram: 4 0 4 0 8 0 4 5 7 20
Neighs:       158427.0 ave      230657 max           0 min
Histogram: 4 2 2 0 5 3 4 4 12 16

Total # of neighbors = 8238192
Ave neighs/atom = 28.530436
Neighbor list builds = 0
Dangerous builds = 0
The dot product: 1.00005189197667e-09
Setting atom values ...
  1 settings made for x
  1 settings made for y
  1 settings made for z
Setting up cg style minimization ...
  Unit style    : metal
  Current step  : 2976
Per MPI rank memory allocation (min/avg/max) = 5.465 | 6.344 | 6.728 Mbytes
Step PotEng KinEng TotEng v_fx v_fy v_fz 
    2976   -1152449.3            0   -1152449.3 0.0072134117 0.0058245013  0.015596824 
    3000   -1152449.3            0   -1152449.3 -9.0948797e-05 -0.00013568184 -0.00024547784 
    3161   -1152449.3            0   -1152449.3 2.3573914e-05 -1.1891596e-05 2.6710917e-05 
Loop time of 4.12905 on 52 procs for 185 steps with 288751 atoms

99.9% CPU use with 52 MPI tasks x 1 OpenMP threads

Minimization stats:
  Stopping criterion = linesearch alpha is zero
  Energy initial, next-to-last, final = 
     -1152449.34398778  -1152449.34485074  -1152449.34485074
  Force two-norm initial, final = 0.12284674 0.0001216349
  Force max component initial, final = 0.044805125 3.3129157e-05
  Final line search alpha, max atom move = 0.5 1.6564579e-05
  Iterations, force evaluations = 185 371

MPI task timing breakdown:
Section |  min time  |  avg time  |  max time  |%varavg| %total
---------------------------------------------------------------
Pair    | 1.0395     | 2.9555     | 3.8762     |  47.7 | 71.58
Neigh   | 0          | 0          | 0          |   0.0 |  0.00
Comm    | 0.065187   | 0.66711    | 2.0788     |  72.5 | 16.16
Output  | 0.00020386 | 0.0002081  | 0.00035156 |   0.0 |  0.01
Modify  | 7.349e-05  | 0.0062539  | 0.013273   |   3.6 |  0.15
Other   |            | 0.5        |            |       | 12.11

Nlocal:        5552.90 ave        7914 max           0 min
Histogram: 4 2 2 0 2 6 4 1 14 17
Nghost:        6213.62 ave        8769 max         412 min
Histogram: 4 0 4 0 8 0 4 5 7 20
Neighs:       158427.0 ave      230649 max           0 min
Histogram: 4 2 2 0 5 3 4 4 12 16

Total # of neighbors = 8238190
Ave neighs/atom = 28.530429
Neighbor list builds = 0
Dangerous builds = 0
The dot product: 6.65352145564161e-09
Setting atom values ...
  1 settings made for x
  1 settings made for y
  1 settings made for z
Setting up cg style minimization ...
  Unit style    : metal
  Current step  : 3161
Per MPI rank memory allocation (min/avg/max) = 5.465 | 6.344 | 6.728 Mbytes
Step PotEng KinEng TotEng v_fx v_fy v_fz 
    3161   -1152449.3            0   -1152449.3 0.0064968418 0.0050416354  0.013918254 
    3324   -1152449.3            0   -1152449.3 -6.208134e-05 2.1865229e-05 -7.7861768e-05 
Loop time of 3.61762 on 52 procs for 163 steps with 288751 atoms

99.9% CPU use with 52 MPI tasks x 1 OpenMP threads

Minimization stats:
  Stopping criterion = energy tolerance
  Energy initial, next-to-last, final = 
     -1152449.33903983  -1152449.33989205  -1152449.33989205
  Force two-norm initial, final = 0.12217903 0.0002576015
  Force max component initial, final = 0.044258616 7.7861768e-05
  Final line search alpha, max atom move = 1.0000000 7.7861768e-05
  Iterations, force evaluations = 163 326

MPI task timing breakdown:
Section |  min time  |  avg time  |  max time  |%varavg| %total
---------------------------------------------------------------
Pair    | 0.92149    | 2.5994     | 3.3981     |  44.5 | 71.85
Neigh   | 0          | 0          | 0          |   0.0 |  0.00
Comm    | 0.049592   | 0.58035    | 1.8228     |  68.2 | 16.04
Output  | 0          | 0          | 0          |   0.0 |  0.00
Modify  | 6.02e-05   | 0.0054854  | 0.011654   |   3.4 |  0.15
Other   |            | 0.4324     |            |       | 11.95

Nlocal:        5552.90 ave        7914 max           0 min
Histogram: 4 2 2 0 2 6 4 2 13 17
Nghost:        6213.62 ave        8769 max         412 min
Histogram: 4 0 4 0 8 0 4 5 7 20
Neighs:       158427.0 ave      230648 max           0 min
Histogram: 4 2 2 0 5 3 4 4 12 16

Total # of neighbors = 8238191
Ave neighs/atom = 28.530433
Neighbor list builds = 0
Dangerous builds = 0
The dot product: -2.29750625672385e-08
Setting atom values ...
  1 settings made for x
  1 settings made for y
  1 settings made for z
Setting up cg style minimization ...
  Unit style    : metal
  Current step  : 3324
Per MPI rank memory allocation (min/avg/max) = 5.465 | 6.344 | 6.728 Mbytes
Step PotEng KinEng TotEng v_fx v_fy v_fz 
    3324   -1152449.3            0   -1152449.3 0.0059133379 0.0039877511  0.012218594 
    3511   -1152449.3            0   -1152449.3 1.8924841e-06 -6.6545472e-06 -2.3509821e-06 
Loop time of 4.1396 on 52 procs for 187 steps with 288751 atoms

99.9% CPU use with 52 MPI tasks x 1 OpenMP threads

Minimization stats:
  Stopping criterion = linesearch alpha is zero
  Energy initial, next-to-last, final = 
     -1152449.33270646   -1152449.3335534   -1152449.3335534
  Force two-norm initial, final = 0.12183608 0.00010738942
  Force max component initial, final = 0.044167744 2.2773812e-05
  Final line search alpha, max atom move = 0.5 1.1386906e-05
  Iterations, force evaluations = 187 375

MPI task timing breakdown:
Section |  min time  |  avg time  |  max time  |%varavg| %total
---------------------------------------------------------------
Pair    | 1.0494     | 2.9807     | 3.9069     |  47.8 | 72.00
Neigh   | 0          | 0          | 0          |   0.0 |  0.00
Comm    | 0.056465   | 0.66753    | 2.0963     |  73.2 | 16.13
Output  | 0          | 0          | 0          |   0.0 |  0.00
Modify  | 7.4605e-05 | 0.0063025  | 0.013388   |   3.6 |  0.15
Other   |            | 0.4851     |            |       | 11.72

Nlocal:        5552.90 ave        7915 max           0 min
Histogram: 4 2 2 0 2 6 4 2 13 17
Nghost:        6213.62 ave        8769 max         412 min
Histogram: 4 0 4 0 8 0 4 5 7 20
Neighs:       158427.0 ave      230676 max           0 min
Histogram: 4 2 2 0 5 3 4 4 12 16

Total # of neighbors = 8238190
Ave neighs/atom = 28.530429
Neighbor list builds = 0
Dangerous builds = 0
The dot product: -1.82329175744103e-09
Setting atom values ...
  1 settings made for x
  1 settings made for y
  1 settings made for z
Setting up cg style minimization ...
  Unit style    : metal
  Current step  : 3511
Per MPI rank memory allocation (min/avg/max) = 5.465 | 6.344 | 6.728 Mbytes
Step PotEng KinEng TotEng v_fx v_fy v_fz 
    3511   -1152449.3            0   -1152449.3 0.0057396164 0.0025675823  0.010846198 
    3691   -1152449.3            0   -1152449.3 2.6973708e-06 -1.2283598e-05 -5.5761003e-06 
Loop time of 4.00684 on 52 procs for 180 steps with 288751 atoms

99.9% CPU use with 52 MPI tasks x 1 OpenMP threads

Minimization stats:
  Stopping criterion = energy tolerance
  Energy initial, next-to-last, final = 
     -1152449.32496415  -1152449.32581136  -1152449.32581136
  Force two-norm initial, final = 0.12194131 0.0001338204
  Force max component initial, final = 0.043980348 2.9327182e-05
  Final line search alpha, max atom move = 1.0000000 2.9327182e-05
  Iterations, force evaluations = 180 360

MPI task timing breakdown:
Section |  min time  |  avg time  |  max time  |%varavg| %total
---------------------------------------------------------------
Pair    | 1.0333     | 2.8751     | 3.7685     |  46.6 | 71.76
Neigh   | 0          | 0          | 0          |   0.0 |  0.00
Comm    | 0.056497   | 0.64325    | 2.0108     |  71.5 | 16.05
Output  | 0          | 0          | 0          |   0.0 |  0.00
Modify  | 5.8801e-05 | 0.0061304  | 0.012907   |   3.6 |  0.15
Other   |            | 0.4823     |            |       | 12.04

Nlocal:        5552.90 ave        7915 max           0 min
Histogram: 4 2 2 0 2 6 4 2 13 17
Nghost:        6213.65 ave        8769 max         412 min
Histogram: 4 0 4 0 8 0 4 5 7 20
Neighs:       158427.0 ave      230684 max           0 min
Histogram: 4 2 2 0 5 3 4 4 12 16

Total # of neighbors = 8238190
Ave neighs/atom = 28.530429
Neighbor list builds = 0
Dangerous builds = 0
The dot product: -2.41062232549206e-09
Setting atom values ...
  1 settings made for x
  1 settings made for y
  1 settings made for z
Setting up cg style minimization ...
  Unit style    : metal
  Current step  : 3691
Per MPI rank memory allocation (min/avg/max) = 5.465 | 6.344 | 6.728 Mbytes
Step PotEng KinEng TotEng v_fx v_fy v_fz 
    3691   -1152449.3            0   -1152449.3  0.005801124 0.00089783041  0.009631676 
    3835   -1152449.3            0   -1152449.3 -9.0706736e-06 -6.9997148e-06 -1.9494267e-05 
Loop time of 3.25663 on 52 procs for 144 steps with 288751 atoms

99.9% CPU use with 52 MPI tasks x 1 OpenMP threads

Minimization stats:
  Stopping criterion = linesearch alpha is zero
  Energy initial, next-to-last, final = 
     -1152449.31578128  -1152449.31663384  -1152449.31663384
  Force two-norm initial, final = 0.12234558 0.00032355635
  Force max component initial, final = 0.043827535 2.5502601e-05
  Final line search alpha, max atom move = 0.0625 1.5939126e-06
  Iterations, force evaluations = 144 295

MPI task timing breakdown:
Section |  min time  |  avg time  |  max time  |%varavg| %total
---------------------------------------------------------------
Pair    | 0.82477    | 2.3431     | 3.0752     |  42.5 | 71.95
Neigh   | 0          | 0          | 0          |   0.0 |  0.00
Comm    | 0.044747   | 0.52578    | 1.653      |  64.9 | 16.14
Output  | 0          | 0          | 0          |   0.0 |  0.00
Modify  | 5.3751e-05 | 0.004959   | 0.010536   |   3.2 |  0.15
Other   |            | 0.3828     |            |       | 11.75

Nlocal:        5552.90 ave        7916 max           0 min
Histogram: 4 2 2 0 2 6 4 2 13 17
Nghost:        6213.69 ave        8769 max         412 min
Histogram: 4 0 4 0 8 0 4 5 7 20
Neighs:       158427.0 ave      230723 max           0 min
Histogram: 4 2 2 0 5 3 4 4 12 16

Total # of neighbors = 8238187
Ave neighs/atom = 28.530419
Neighbor list builds = 0
Dangerous builds = 0
The dot product: -6.37301158884808e-09
Setting atom values ...
  1 settings made for x
  1 settings made for y
  1 settings made for z
Setting up cg style minimization ...
  Unit style    : metal
  Current step  : 3835
Per MPI rank memory allocation (min/avg/max) = 5.465 | 6.344 | 6.728 Mbytes
Step PotEng KinEng TotEng v_fx v_fy v_fz 
    3835   -1152449.3            0   -1152449.3 0.0061346166 -0.00099843349  0.008654042 
    4000   -1152449.3            0   -1152449.3 4.7597434e-06 1.4069974e-05 1.8488851e-05 
    4066   -1152449.3            0   -1152449.3 -4.8308512e-06 1.5752303e-06 -6.1890298e-06 
Loop time of 5.13765 on 52 procs for 231 steps with 288751 atoms

99.9% CPU use with 52 MPI tasks x 1 OpenMP threads

Minimization stats:
  Stopping criterion = linesearch alpha is zero
  Energy initial, next-to-last, final = 
     -1152449.30512692  -1152449.30598736  -1152449.30598736
  Force two-norm initial, final = 0.12295552 2.1246259e-05
  Force max component initial, final = 0.043656414 6.1890298e-06
  Final line search alpha, max atom move = 0.5 3.0945149e-06
  Iterations, force evaluations = 231 463

MPI task timing breakdown:
Section |  min time  |  avg time  |  max time  |%varavg| %total
---------------------------------------------------------------
Pair    | 1.3238     | 3.6985     | 4.839      |  53.0 | 71.99
Neigh   | 0          | 0          | 0          |   0.0 |  0.00
Comm    | 0.071705   | 0.83229    | 2.623      |  81.1 | 16.20
Output  | 0.0004121  | 0.00041724 | 0.0005671  |   0.0 |  0.01
Modify  | 7.9814e-05 | 0.0078786  | 0.016876   |   4.1 |  0.15
Other   |            | 0.5985     |            |       | 11.65

Nlocal:        5552.90 ave        7916 max           0 min
Histogram: 4 2 2 0 2 6 4 2 13 17
Nghost:        6213.65 ave        8769 max         412 min
Histogram: 4 0 4 0 8 0 4 5 7 20
Neighs:       158427.0 ave      230723 max           0 min
Histogram: 4 2 2 0 5 3 4 4 12 16

Total # of neighbors = 8238188
Ave neighs/atom = 28.530422
Neighbor list builds = 0
Dangerous builds = 0
The dot product: -2.33769206717786e-09
Setting atom values ...
  1 settings made for x
  1 settings made for y
  1 settings made for z
Setting up cg style minimization ...
  Unit style    : metal
  Current step  : 4066
Per MPI rank memory allocation (min/avg/max) = 5.465 | 6.344 | 6.728 Mbytes
Step PotEng KinEng TotEng v_fx v_fy v_fz 
    4066   -1152449.3            0   -1152449.3 0.0068051783 -0.0030767891 0.0080502523 
    4245   -1152449.3            0   -1152449.3 -9.185485e-06 -1.8787223e-06 -1.5650542e-05 
Loop time of 3.9887 on 52 procs for 179 steps with 288751 atoms

99.9% CPU use with 52 MPI tasks x 1 OpenMP threads

Minimization stats:
  Stopping criterion = linesearch alpha is zero
  Energy initial, next-to-last, final = 
     -1152449.29297723  -1152449.29384185  -1152449.29384185
  Force two-norm initial, final = 0.12363331 0.00013981719
  Force max component initial, final = 0.043444616 3.3450939e-05
  Final line search alpha, max atom move = 0.5 1.6725469e-05
  Iterations, force evaluations = 179 359

MPI task timing breakdown:
Section |  min time  |  avg time  |  max time  |%varavg| %total
---------------------------------------------------------------
Pair    | 1.0267     | 2.8565     | 3.7663     |  46.5 | 71.61
Neigh   | 0          | 0          | 0          |   0.0 |  0.00
Comm    | 0.05543    | 0.63989    | 1.9862     |  70.9 | 16.04
Output  | 0          | 0          | 0          |   0.0 |  0.00
Modify  | 6.2034e-05 | 0.0060868  | 0.012967   |   3.6 |  0.15
Other   |            | 0.4863     |            |       | 12.19

Nlocal:        5552.90 ave        7916 max           0 min
Histogram: 4 2 2 0 2 6 4 2 13 17
Nghost:        6213.63 ave        8769 max         412 min
Histogram: 4 0 4 0 8 0 4 5 7 20
Neighs:       158427.0 ave      230723 max           0 min
Histogram: 4 2 2 0 5 3 4 4 12 16

Total # of neighbors = 8238188
Ave neighs/atom = 28.530422
Neighbor list builds = 0
Dangerous builds = 0
The dot product: -6.12954388512312e-09
Setting atom values ...
  1 settings made for x
  1 settings made for y
  1 settings made for z
Setting up cg style minimization ...
  Unit style    : metal
  Current step  : 4245
Per MPI rank memory allocation (min/avg/max) = 5.465 | 6.344 | 6.728 Mbytes
Step PotEng KinEng TotEng v_fx v_fy v_fz 
    4245   -1152449.3            0   -1152449.3 0.0079841236 -0.0052098569 0.0081963501 
    4412   -1152449.3            0   -1152449.3 -1.3599401e-05 -1.0231236e-05 -2.9111241e-05 
Loop time of 3.68675 on 52 procs for 167 steps with 288751 atoms

99.9% CPU use with 52 MPI tasks x 1 OpenMP threads

Minimization stats:
  Stopping criterion = energy tolerance
  Energy initial, next-to-last, final = 
     -1152449.27931613  -1152449.28018019  -1152449.28018019
  Force two-norm initial, final = 0.12425861 0.00021236425
  Force max component initial, final = 0.043280689 2.9111241e-05
  Final line search alpha, max atom move = 1.0000000 2.9111241e-05
  Iterations, force evaluations = 167 334

MPI task timing breakdown:
Section |  min time  |  avg time  |  max time  |%varavg| %total
---------------------------------------------------------------
Pair    | 0.93453    | 2.6655     | 3.4809     |  45.4 | 72.30
Neigh   | 0          | 0          | 0          |   0.0 |  0.00
Comm    | 0.051034   | 0.60157    | 1.916      |  69.3 | 16.32
Output  | 0          | 0          | 0          |   0.0 |  0.00
Modify  | 5.927e-05  | 0.0056235  | 0.011983   |   3.4 |  0.15
Other   |            | 0.4141     |            |       | 11.23

Nlocal:        5552.90 ave        7916 max           0 min
Histogram: 4 2 2 0 2 6 4 2 13 17
Nghost:        6213.67 ave        8770 max         412 min
Histogram: 4 0 4 0 8 0 4 5 7 20
Neighs:       158427.0 ave      230711 max           0 min
Histogram: 4 2 2 0 5 3 4 4 12 16

Total # of neighbors = 8238186
Ave neighs/atom = 28.530415
Neighbor list builds = 0
Dangerous builds = 0
The dot product: -1.15681236642616e-08
Setting atom values ...
  1 settings made for x
  1 settings made for y
  1 settings made for z
Setting up cg style minimization ...
  Unit style    : metal
  Current step  : 4412
Per MPI rank memory allocation (min/avg/max) = 5.465 | 6.344 | 6.728 Mbytes
Step PotEng KinEng TotEng v_fx v_fy v_fz 
    4412   -1152449.3            0   -1152449.3 0.0097307887 -0.0072008444  0.009349676 
    4552   -1152449.3            0   -1152449.3 6.8423886e-05 -1.2897425e-05 9.5651908e-05 
Loop time of 3.10496 on 52 procs for 140 steps with 288751 atoms

99.9% CPU use with 52 MPI tasks x 1 OpenMP threads

Minimization stats:
  Stopping criterion = energy tolerance
  Energy initial, next-to-last, final = 
     -1152449.26415207  -1152449.26500758  -1152449.26500758
  Force two-norm initial, final = 0.1247883 0.00036079772
  Force max component initial, final = 0.04307931 9.5651908e-05
  Final line search alpha, max atom move = 1.0000000 9.5651908e-05
  Iterations, force evaluations = 140 280

MPI task timing breakdown:
Section |  min time  |  avg time  |  max time  |%varavg| %total
---------------------------------------------------------------
Pair    | 0.79574    | 2.232      | 2.9208     |  41.2 | 71.89
Neigh   | 0          | 0          | 0          |   0.0 |  0.00
Comm    | 0.042904   | 0.50145    | 1.5701     |  63.2 | 16.15
Output  | 0          | 0          | 0          |   0.0 |  0.00
Modify  | 5.4711e-05 | 0.0047382  | 0.01006    |   3.2 |  0.15
Other   |            | 0.3668     |            |       | 11.81

Nlocal:        5552.90 ave        7917 max           0 min
Histogram: 4 2 2 0 2 6 4 2 13 17
Nghost:        6213.67 ave        8770 max         412 min
Histogram: 4 0 4 0 8 0 4 5 7 20
Neighs:       158427.0 ave      230725 max           0 min
Histogram: 4 2 2 0 5 3 4 4 12 16

Total # of neighbors = 8238187
Ave neighs/atom = 28.530419
Neighbor list builds = 0
Dangerous builds = 0
The dot product: 1.03646362541559e-07
Setting atom values ...
  1 settings made for x
  1 settings made for y
  1 settings made for z
Setting up cg style minimization ...
  Unit style    : metal
  Current step  : 4552
Per MPI rank memory allocation (min/avg/max) = 5.465 | 6.344 | 6.728 Mbytes
Step PotEng KinEng TotEng v_fx v_fy v_fz 
    4552   -1152449.2            0   -1152449.2  0.012429575 -0.0088884943  0.012252634 
    4719   -1152449.2            0   -1152449.2 1.154833e-05 3.3715424e-05 4.4640541e-05 
Loop time of 3.74239 on 52 procs for 167 steps with 288751 atoms

99.9% CPU use with 52 MPI tasks x 1 OpenMP threads

Minimization stats:
  Stopping criterion = linesearch alpha is zero
  Energy initial, next-to-last, final = 
     -1152449.24753061  -1152449.24837185  -1152449.24837185
  Force two-norm initial, final = 0.12555508 0.00022942969
  Force max component initial, final = 0.045718172 4.8468398e-05
  Final line search alpha, max atom move = 0.125 6.0585498e-06
  Iterations, force evaluations = 167 339

MPI task timing breakdown:
Section |  min time  |  avg time  |  max time  |%varavg| %total
---------------------------------------------------------------
Pair    | 0.97362    | 2.7049     | 3.5321     |  45.1 | 72.28
Neigh   | 0          | 0          | 0          |   0.0 |  0.00
Comm    | 0.0529     | 0.60002    | 1.8918     |  69.7 | 16.03
Output  | 0          | 0          | 0          |   0.0 |  0.00
Modify  | 6.0279e-05 | 0.00575    | 0.012175   |   3.5 |  0.15
Other   |            | 0.4317     |            |       | 11.54

Nlocal:        5552.90 ave        7917 max           0 min
Histogram: 4 2 2 0 2 6 4 2 13 17
Nghost:        6213.67 ave        8770 max         412 min
Histogram: 4 0 4 0 8 0 4 5 7 20
Neighs:       158427.0 ave      230715 max           0 min
Histogram: 4 2 2 0 5 3 4 4 12 16

Total # of neighbors = 8238185
Ave neighs/atom = 28.530412
Neighbor list builds = 0
Dangerous builds = 0
The dot product: 3.623779486827e-08
Setting atom values ...
  1 settings made for x
  1 settings made for y
  1 settings made for z
Setting up cg style minimization ...
  Unit style    : metal
  Current step  : 4719
Per MPI rank memory allocation (min/avg/max) = 5.465 | 6.344 | 6.728 Mbytes
Step PotEng KinEng TotEng v_fx v_fy v_fz 
    4719   -1152449.2            0   -1152449.2  0.016307723 -0.010084482  0.017453085 
    4845   -1152449.2            0   -1152449.2 5.4027916e-05 -5.9226888e-06 7.9619905e-05 
Loop time of 2.81446 on 52 procs for 126 steps with 288751 atoms

99.8% CPU use with 52 MPI tasks x 1 OpenMP threads

Minimization stats:
  Stopping criterion = energy tolerance
  Energy initial, next-to-last, final = 
     -1152449.22958363  -1152449.23043077  -1152449.23043077
  Force two-norm initial, final = 0.12756965 0.0003593353
  Force max component initial, final = 0.048949823 7.9619905e-05
  Final line search alpha, max atom move = 1.0000000 7.9619905e-05
  Iterations, force evaluations = 126 252

MPI task timing breakdown:
Section |  min time  |  avg time  |  max time  |%varavg| %total
---------------------------------------------------------------
Pair    | 0.70988    | 2.0134     | 2.6328     |  39.1 | 71.54
Neigh   | 0          | 0          | 0          |   0.0 |  0.00
Comm    | 0.037932   | 0.45254    | 1.4281     |  59.7 | 16.08
Output  | 0          | 0          | 0          |   0.0 |  0.00
Modify  | 5.0111e-05 | 0.004253   | 0.0090482  |   3.0 |  0.15
Other   |            | 0.3443     |            |       | 12.23

Nlocal:        5552.90 ave        7919 max           0 min
Histogram: 4 2 2 0 2 6 4 2 13 17
Nghost:        6213.67 ave        8770 max         412 min
Histogram: 4 0 4 0 8 0 4 5 7 20
Neighs:       158427.0 ave      230786 max           0 min
Histogram: 4 2 2 0 5 3 4 4 12 16

Total # of neighbors = 8238185
Ave neighs/atom = 28.530412
Neighbor list builds = 0
Dangerous builds = 0
The dot product: 2.89426200181345e-07
Setting atom values ...
  1 settings made for x
  1 settings made for y
  1 settings made for z
Setting up cg style minimization ...
  Unit style    : metal
  Current step  : 4845
Per MPI rank memory allocation (min/avg/max) = 5.465 | 6.344 | 6.728 Mbytes
Step PotEng KinEng TotEng v_fx v_fy v_fz 
    4845   -1152449.2            0   -1152449.2   0.02283539 -0.010242077  0.027868547 
    5000   -1152449.2            0   -1152449.2 0.0003008964 0.0002720293 0.00069182429 
    5106   -1152449.2            0   -1152449.2 6.6827984e-06 5.9914189e-08 1.0594193e-05 
Loop time of 5.8134 on 52 procs for 261 steps with 288751 atoms

99.9% CPU use with 52 MPI tasks x 1 OpenMP threads

Minimization stats:
  Stopping criterion = energy tolerance
  Energy initial, next-to-last, final = 
     -1152449.21071259  -1152449.24865838  -1152449.24865838
  Force two-norm initial, final = 0.1349531 5.8682989e-05
  Force max component initial, final = 0.052191269 1.0594193e-05
  Final line search alpha, max atom move = 1.0000000 1.0594193e-05
  Iterations, force evaluations = 261 522

MPI task timing breakdown:
Section |  min time  |  avg time  |  max time  |%varavg| %total
---------------------------------------------------------------
Pair    | 1.518      | 4.1686     | 5.461      |  55.7 | 71.71
Neigh   | 3.9184e-05 | 0.011657   | 0.017155   |   4.6 |  0.20
Comm    | 0.081984   | 0.92977    | 2.9089     |  85.8 | 15.99
Output  | 0.00020833 | 0.00021306 | 0.00036788 |   0.0 |  0.00
Modify  | 9.0949e-05 | 0.0088584  | 0.018767   |   4.3 |  0.15
Other   |            | 0.6943     |            |       | 11.94

Nlocal:        5552.90 ave        7918 max           0 min
Histogram: 4 2 2 0 2 6 4 2 13 17
Nghost:        6213.67 ave        8770 max         412 min
Histogram: 4 0 4 0 8 0 4 5 7 20
Neighs:       158427.0 ave      230776 max           0 min
Histogram: 4 2 2 0 5 3 4 4 12 16

Total # of neighbors = 8238180
Ave neighs/atom = 28.530395
Neighbor list builds = 2
Dangerous builds = 0
The dot product: 1.09183213263597e-06
Setting atom values ...
  1 settings made for x
  1 settings made for y
  1 settings made for z
Setting up cg style minimization ...
  Unit style    : metal
  Current step  : 5106
Per MPI rank memory allocation (min/avg/max) = 5.465 | 6.344 | 6.728 Mbytes
Step PotEng KinEng TotEng v_fx v_fy v_fz 
    5106   -1152449.2            0   -1152449.2  0.031500069 -0.044438284  0.022210723 
    5323   -1152449.3            0   -1152449.3 2.064915e-05 -3.3962623e-06 4.2432091e-05 
Loop time of 4.83094 on 52 procs for 217 steps with 288751 atoms

99.9% CPU use with 52 MPI tasks x 1 OpenMP threads

Minimization stats:
  Stopping criterion = linesearch alpha is zero
  Energy initial, next-to-last, final = 
     -1152449.24502695  -1152449.25048265  -1152449.25048265
  Force two-norm initial, final = 0.15742288 0.0001790111
  Force max component initial, final = 0.055867719 4.7611468e-05
  Final line search alpha, max atom move = 0.25 1.1902867e-05
  Iterations, force evaluations = 217 437

MPI task timing breakdown:
Section |  min time  |  avg time  |  max time  |%varavg| %total
---------------------------------------------------------------
Pair    | 1.2338     | 3.4653     | 4.5523     |  51.4 | 71.73
Neigh   | 0          | 0          | 0          |   0.0 |  0.00
Comm    | 0.068243   | 0.77742    | 2.4349     |  78.6 | 16.09
Output  | 0          | 0          | 0          |   0.0 |  0.00
Modify  | 8.6201e-05 | 0.0073654  | 0.015612   |   3.9 |  0.15
Other   |            | 0.5809     |            |       | 12.02

Nlocal:        5552.90 ave        7916 max           0 min
Histogram: 4 2 2 0 2 6 4 1 14 17
Nghost:        6213.62 ave        8769 max         412 min
Histogram: 4 0 4 0 8 0 4 5 7 20
Neighs:       158427.0 ave      230721 max           0 min
Histogram: 4 2 2 0 5 3 4 4 12 16

Total # of neighbors = 8238183
Ave neighs/atom = 28.530405
Neighbor list builds = 0
Dangerous builds = 0
The dot product: 1.7205581465145e-06
Setting atom values ...
  1 settings made for x
  1 settings made for y
  1 settings made for z
Setting up cg style minimization ...
  Unit style    : metal
  Current step  : 5323
Per MPI rank memory allocation (min/avg/max) = 5.465 | 6.344 | 6.728 Mbytes
Step PotEng KinEng TotEng v_fx v_fy v_fz 
    5323   -1152449.3            0   -1152449.3  0.010758707 -0.036577914 -0.0091964369 
    5394   -1152449.3            0   -1152449.3 2.9562628e-05 -1.0013989e-05 6.6098216e-05 
Loop time of 1.57686 on 52 procs for 71 steps with 288751 atoms

99.9% CPU use with 52 MPI tasks x 1 OpenMP threads

Minimization stats:
  Stopping criterion = energy tolerance
  Energy initial, next-to-last, final = 
     -1152449.25250956  -1152449.25380442  -1152449.25380442
  Force two-norm initial, final = 0.15044195 0.00025966016
  Force max component initial, final = 0.054996115 6.6098216e-05
  Final line search alpha, max atom move = 1.0000000 6.6098216e-05
  Iterations, force evaluations = 71 142

MPI task timing breakdown:
Section |  min time  |  avg time  |  max time  |%varavg| %total
---------------------------------------------------------------
Pair    | 0.40587    | 1.1396     | 1.4882     |  29.5 | 72.27
Neigh   | 0          | 0          | 0          |   0.0 |  0.00
Comm    | 0.022319   | 0.2555     | 0.80369    |  45.2 | 16.20
Output  | 0          | 0          | 0          |   0.0 |  0.00
Modify  | 2.3763e-05 | 0.0024172  | 0.0050952  |   2.3 |  0.15
Other   |            | 0.1794     |            |       | 11.38

Nlocal:        5552.90 ave        7912 max           0 min
Histogram: 4 2 2 0 2 6 4 0 15 17
Nghost:        6213.54 ave        8769 max         412 min
Histogram: 4 0 4 0 8 0 4 5 7 20
Neighs:       158427.0 ave      230601 max           0 min
Histogram: 4 2 2 0 5 3 4 4 12 16

Total # of neighbors = 8238184
Ave neighs/atom = 28.530409
Neighbor list builds = 0
Dangerous builds = 0
The dot product: 3.55988818704474e-07
Setting atom values ...
  1 settings made for x
  1 settings made for y
  1 settings made for z
Setting up cg style minimization ...
  Unit style    : metal
  Current step  : 5394
Per MPI rank memory allocation (min/avg/max) = 5.465 | 6.344 | 6.728 Mbytes
Step PotEng KinEng TotEng v_fx v_fy v_fz 
    5394   -1152449.3            0   -1152449.3  0.013692991 -0.053169517 -0.017271929 
    5511   -1152449.3            0   -1152449.3 6.2632797e-06 -3.4764581e-06 1.2965672e-05 
Loop time of 2.59275 on 52 procs for 117 steps with 288751 atoms

99.9% CPU use with 52 MPI tasks x 1 OpenMP threads

Minimization stats:
  Stopping criterion = energy tolerance
  Energy initial, next-to-last, final = 
     -1152449.25565304  -1152449.25687431  -1152449.25687431
  Force two-norm initial, final = 0.15401234 0.0001499578
  Force max component initial, final = 0.055744663 2.3948971e-05
  Final line search alpha, max atom move = 1.0000000 2.3948971e-05
  Iterations, force evaluations = 117 234

MPI task timing breakdown:
Section |  min time  |  avg time  |  max time  |%varavg| %total
---------------------------------------------------------------
Pair    | 0.66246    | 1.8605     | 2.4422     |  37.6 | 71.76
Neigh   | 0          | 0          | 0          |   0.0 |  0.00
Comm    | 0.035323   | 0.41691    | 1.3014     |  57.7 | 16.08
Output  | 0          | 0          | 0          |   0.0 |  0.00
Modify  | 3.9279e-05 | 0.0039466  | 0.0083686  |   2.9 |  0.15
Other   |            | 0.3114     |            |       | 12.01

Nlocal:        5552.90 ave        7913 max           0 min
Histogram: 4 2 2 0 2 6 4 1 14 17
Nghost:        6213.62 ave        8769 max         412 min
Histogram: 4 0 4 0 8 0 4 5 7 20
Neighs:       158427.0 ave      230635 max           0 min
Histogram: 4 2 2 0 5 3 4 4 12 16

Total # of neighbors = 8238182
Ave neighs/atom = 28.530402
Neighbor list builds = 0
Dangerous builds = 0
The dot product: 8.67768214518102e-08
Setting atom values ...
  1 settings made for x
  1 settings made for y
  1 settings made for z
Setting up cg style minimization ...
  Unit style    : metal
  Current step  : 5511
Per MPI rank memory allocation (min/avg/max) = 5.465 | 6.344 | 6.728 Mbytes
Step PotEng KinEng TotEng v_fx v_fy v_fz 
    5511   -1152449.3            0   -1152449.3  0.015535613  -0.06495338 -0.021402775 
    5734   -1152449.3            0   -1152449.3 9.0676522e-06 -1.6810394e-05 7.9053393e-06 
Loop time of 5.02017 on 52 procs for 223 steps with 288751 atoms

99.9% CPU use with 52 MPI tasks x 1 OpenMP threads

Minimization stats:
  Stopping criterion = linesearch alpha is zero
  Energy initial, next-to-last, final = 
     -1152449.25808548  -1152449.30311913  -1152449.30311913
  Force two-norm initial, final = 0.16260119 0.0002304094
  Force max component initial, final = 0.06495338 4.6199927e-05
  Final line search alpha, max atom move = 0.125 5.7749909e-06
  Iterations, force evaluations = 223 453

MPI task timing breakdown:
Section |  min time  |  avg time  |  max time  |%varavg| %total
---------------------------------------------------------------
Pair    | 1.3041     | 3.6151     | 4.7308     |  52.1 | 72.01
Neigh   | 1.9525e-05 | 0.0058576  | 0.0086251  |   3.2 |  0.12
Comm    | 0.070961   | 0.80767    | 2.5445     |  80.2 | 16.09
Output  | 0          | 0          | 0          |   0.0 |  0.00
Modify  | 7.5241e-05 | 0.0076859  | 0.016311   |   4.0 |  0.15
Other   |            | 0.5839     |            |       | 11.63

Nlocal:        5552.90 ave        7914 max           0 min
Histogram: 4 2 2 0 2 6 4 1 14 17
Nghost:        6213.62 ave        8769 max         412 min
Histogram: 4 0 4 0 8 0 4 5 7 20
Neighs:       158427.0 ave      230666 max           0 min
Histogram: 4 2 2 0 5 3 4 4 12 16

Total # of neighbors = 8238189
Ave neighs/atom = 28.530426
Neighbor list builds = 1
Dangerous builds = 0
The dot product: 2.55582268027315e-06
Setting atom values ...
  1 settings made for x
  1 settings made for y
  1 settings made for z
Setting up cg style minimization ...
  Unit style    : metal
  Current step  : 5734
Per MPI rank memory allocation (min/avg/max) = 5.465 | 6.344 | 6.728 Mbytes
Step PotEng KinEng TotEng v_fx v_fy v_fz 
    5734   -1152449.3            0   -1152449.3 -0.025729104  0.045515014 -0.056086657 
    5916   -1152449.3            0   -1152449.3 4.5712657e-06 3.3258057e-06 1.6457227e-05 
Loop time of 4.09585 on 52 procs for 182 steps with 288751 atoms

99.8% CPU use with 52 MPI tasks x 1 OpenMP threads

Minimization stats:
  Stopping criterion = linesearch alpha is zero
  Energy initial, next-to-last, final = 
     -1152449.31373095    -1152449.315764    -1152449.315764
  Force two-norm initial, final = 0.15800035 0.00020283799
  Force max component initial, final = 0.056086657 4.9406863e-05
  Final line search alpha, max atom move = 0.25 1.2351716e-05
  Iterations, force evaluations = 182 367

MPI task timing breakdown:
Section |  min time  |  avg time  |  max time  |%varavg| %total
---------------------------------------------------------------
Pair    | 1.0445     | 2.9247     | 3.8398     |  47.2 | 71.41
Neigh   | 0          | 0          | 0          |   0.0 |  0.00
Comm    | 0.06453    | 0.65904    | 2.049      |  71.5 | 16.09
Output  | 0          | 0          | 0          |   0.0 |  0.00
Modify  | 5.9907e-05 | 0.006219   | 0.0132     |   3.6 |  0.15
Other   |            | 0.5059     |            |       | 12.35

Nlocal:        5552.90 ave        7909 max           0 min
Histogram: 4 2 2 0 2 6 4 1 14 17
Nghost:        6213.62 ave        8769 max         412 min
Histogram: 4 0 4 0 8 0 4 5 7 20
Neighs:       158427.0 ave      230522 max           0 min
Histogram: 4 2 2 0 5 3 4 4 12 16

Total # of neighbors = 8238197
Ave neighs/atom = 28.530454
Neighbor list builds = 0
Dangerous builds = 0
The dot product: -5.83152029430185e-08
Setting atom values ...
  1 settings made for x
  1 settings made for y
  1 settings made for z
Setting up cg style minimization ...
  Unit style    : metal
  Current step  : 5916
Per MPI rank memory allocation (min/avg/max) = 5.465 | 6.344 | 6.728 Mbytes
Step PotEng KinEng TotEng v_fx v_fy v_fz 
    5916   -1152449.3            0   -1152449.3 0.0052085496  -0.06946752 -0.028022722 
    6000   -1152449.3            0   -1152449.3 -2.248947e-05 3.5303866e-06 -6.7122699e-05 
    6061   -1152449.3            0   -1152449.3 -1.5468038e-05 2.4854714e-05 -3.193344e-05 
Loop time of 3.28018 on 52 procs for 145 steps with 288751 atoms

99.9% CPU use with 52 MPI tasks x 1 OpenMP threads

Minimization stats:
  Stopping criterion = linesearch alpha is zero
  Energy initial, next-to-last, final = 
      -1152449.3244375  -1152449.32568061  -1152449.32568061
  Force two-norm initial, final = 0.16165089 0.00022727435
  Force max component initial, final = 0.06946752 3.1933440e-05
  Final line search alpha, max atom move = 0.125 3.9916800e-06
  Iterations, force evaluations = 145 297

MPI task timing breakdown:
Section |  min time  |  avg time  |  max time  |%varavg| %total
---------------------------------------------------------------
Pair    | 0.84597    | 2.3701     | 3.0967     |  42.4 | 72.25
Neigh   | 0          | 0          | 0          |   0.0 |  0.00
Comm    | 0.045635   | 0.52829    | 1.6708     |  65.1 | 16.11
Output  | 0.00020691 | 0.00021118 | 0.00036181 |   0.0 |  0.01
Modify  | 5.1384e-05 | 0.0050436  | 0.010641   |   3.3 |  0.15
Other   |            | 0.3766     |            |       | 11.48

Nlocal:        5552.90 ave        7913 max           0 min
Histogram: 4 2 2 0 2 6 4 1 14 17
Nghost:        6213.54 ave        8769 max         412 min
Histogram: 4 0 4 0 8 0 4 5 7 20
Neighs:       158427.0 ave      230635 max           0 min
Histogram: 4 2 2 0 5 3 4 4 12 16

Total # of neighbors = 8238197
Ave neighs/atom = 28.530454
Neighbor list builds = 0
Dangerous builds = 0
The dot product: -1.32853373699306e-07
Setting atom values ...
  1 settings made for x
  1 settings made for y
  1 settings made for z
Setting up cg style minimization ...
  Unit style    : metal
  Current step  : 6061
Per MPI rank memory allocation (min/avg/max) = 5.465 | 6.344 | 6.728 Mbytes
Step PotEng KinEng TotEng v_fx v_fy v_fz 
    6061   -1152449.3            0   -1152449.3 0.00066109079 -0.055167702 -0.031375787 
    6202   -1152449.3            0   -1152449.3 9.4012018e-06 1.347244e-05 3.7047224e-05 
Loop time of 3.11395 on 52 procs for 141 steps with 288751 atoms

99.9% CPU use with 52 MPI tasks x 1 OpenMP threads

Minimization stats:
  Stopping criterion = energy tolerance
  Energy initial, next-to-last, final = 
     -1152449.33277668  -1152449.33397393  -1152449.33397393
  Force two-norm initial, final = 0.15741044 0.00031369949
  Force max component initial, final = 0.055167702 3.7047224e-05
  Final line search alpha, max atom move = 1.0000000 3.7047224e-05
  Iterations, force evaluations = 141 282

MPI task timing breakdown:
Section |  min time  |  avg time  |  max time  |%varavg| %total
---------------------------------------------------------------
Pair    | 0.7881     | 2.2393     | 2.9402     |  41.5 | 71.91
Neigh   | 0          | 0          | 0          |   0.0 |  0.00
Comm    | 0.042466   | 0.50188    | 1.5707     |  63.4 | 16.12
Output  | 0          | 0          | 0          |   0.0 |  0.00
Modify  | 5.0706e-05 | 0.0047462  | 0.010076   |   3.2 |  0.15
Other   |            | 0.3681     |            |       | 11.82

Nlocal:        5552.90 ave        7913 max           0 min
Histogram: 4 2 2 0 2 6 4 1 14 17
Nghost:        6213.58 ave        8769 max         412 min
Histogram: 4 0 4 0 8 0 4 5 7 20
Neighs:       158427.0 ave      230635 max           0 min
Histogram: 4 2 2 0 5 3 4 4 12 16

Total # of neighbors = 8238197
Ave neighs/atom = 28.530454
Neighbor list builds = 0
Dangerous builds = 0
The dot product: -1.04387231984709e-07
Setting atom values ...
  1 settings made for x
  1 settings made for y
  1 settings made for z
Setting up cg style minimization ...
  Unit style    : metal
  Current step  : 6202
Per MPI rank memory allocation (min/avg/max) = 5.465 | 6.344 | 6.728 Mbytes
Step PotEng KinEng TotEng v_fx v_fy v_fz 
    6202   -1152449.3            0   -1152449.3 0.0012960158 -0.058605282 -0.030619191 
    6368   -1152449.3            0   -1152449.3 7.0663657e-07 3.3844078e-05 2.2121744e-05 
Loop time of 3.73531 on 52 procs for 166 steps with 288751 atoms

99.9% CPU use with 52 MPI tasks x 1 OpenMP threads

Minimization stats:
  Stopping criterion = linesearch alpha is zero
  Energy initial, next-to-last, final = 
     -1152449.33944222  -1152449.34066507  -1152449.34066507
  Force two-norm initial, final = 0.15912899 0.00025089846
  Force max component initial, final = 0.058605282 3.3844078e-05
  Final line search alpha, max atom move = 0.125 4.2305097e-06
  Iterations, force evaluations = 166 337

MPI task timing breakdown:
Section |  min time  |  avg time  |  max time  |%varavg| %total
---------------------------------------------------------------
Pair    | 0.95791    | 2.6913     | 3.5132     |  45.2 | 72.05
Neigh   | 0          | 0          | 0          |   0.0 |  0.00
Comm    | 0.051356   | 0.60027    | 1.887      |  69.5 | 16.07
Output  | 0          | 0          | 0          |   0.0 |  0.00
Modify  | 5.7285e-05 | 0.0057113  | 0.012058   |   3.5 |  0.15
Other   |            | 0.438      |            |       | 11.73

Nlocal:        5552.90 ave        7913 max           0 min
Histogram: 4 2 2 0 2 6 4 1 14 17
Nghost:        6213.54 ave        8769 max         412 min
Histogram: 4 0 4 0 8 0 4 5 7 20
Neighs:       158427.0 ave      230634 max           0 min
Histogram: 4 2 2 0 5 3 4 4 12 16

Total # of neighbors = 8238196
Ave neighs/atom = 28.530450
Neighbor list builds = 0
Dangerous builds = 0
The dot product: -1.57782221526546e-07
Setting atom values ...
  1 settings made for x
  1 settings made for y
  1 settings made for z
Setting up cg style minimization ...
  Unit style    : metal
  Current step  : 6368
Per MPI rank memory allocation (min/avg/max) = 5.465 | 6.344 | 6.728 Mbytes
Step PotEng KinEng TotEng v_fx v_fy v_fz 
    6368   -1152449.3            0   -1152449.3 0.0013586608 -0.058872081  -0.02957913 
    6505   -1152449.3            0   -1152449.3 -2.1979495e-05 2.0871652e-05 -5.4645962e-05 
Loop time of 3.08037 on 52 procs for 137 steps with 288751 atoms

99.9% CPU use with 52 MPI tasks x 1 OpenMP threads

Minimization stats:
  Stopping criterion = linesearch alpha is zero
  Energy initial, next-to-last, final = 
     -1152449.34452442   -1152449.3457551   -1152449.3457551
[...]
Nghost:        6213.56 ave        8769 max         412 min
Histogram: 4 0 4 0 8 0 4 5 7 20
Neighs:       158427.0 ave      230349 max           0 min
Histogram: 4 2 2 0 5 3 4 4 12 16

Total # of neighbors = 8238198
Ave neighs/atom = 28.530457
Neighbor list builds = 0
Dangerous builds = 0
The dot product: -2.1467037437825e-07
Setting atom values ...
  1 settings made for x
  1 settings made for y
  1 settings made for z
Setting up cg style minimization ...
  Unit style    : metal
  Current step  : 19987
Per MPI rank memory allocation (min/avg/max) = 5.465 | 6.344 | 6.728 Mbytes
Step PotEng KinEng TotEng v_fx v_fy v_fz 
   19987   -1152448.9            0   -1152448.9 -0.0021595377 -0.0040318371 -0.0044565854 
   20000   -1152448.9            0   -1152448.9 0.0010794019 -0.0012572323 0.0020134856 
   20173   -1152448.9            0   -1152448.9 1.5522966e-05 -2.5957304e-05 2.8440874e-05 
Loop time of 4.10591 on 52 procs for 186 steps with 288751 atoms

99.9% CPU use with 52 MPI tasks x 1 OpenMP threads

Minimization stats:
  Stopping criterion = linesearch alpha is zero
  Energy initial, next-to-last, final = 
     -1152448.91291536  -1152448.91402864  -1152448.91402864
  Force two-norm initial, final = 0.13752461 0.00014192106
  Force max component initial, final = 0.057084607 2.9698917e-05
  Final line search alpha, max atom move = 0.5 1.4849459e-05
  Iterations, force evaluations = 186 373

MPI task timing breakdown:
Section |  min time  |  avg time  |  max time  |%varavg| %total
---------------------------------------------------------------
Pair    | 1.0583     | 2.9742     | 3.9046     |  47.7 | 72.44
Neigh   | 0          | 0          | 0          |   0.0 |  0.00
Comm    | 0.055068   | 0.66337    | 2.0617     |  72.3 | 16.16
Output  | 0.00015683 | 0.00016132 | 0.00032359 |   0.0 |  0.00
Modify  | 7.2047e-05 | 0.0063094  | 0.01346    |   3.7 |  0.15
Other   |            | 0.4619     |            |       | 11.25

Nlocal:        5552.90 ave        7904 max           0 min
Histogram: 4 2 2 0 2 6 4 1 14 17
Nghost:        6213.56 ave        8769 max         412 min
Histogram: 4 0 4 0 8 0 4 5 7 20
Neighs:       158427.0 ave      230346 max           0 min
Histogram: 4 2 2 0 5 3 4 4 12 16

Total # of neighbors = 8238196
Ave neighs/atom = 28.530450
Neighbor list builds = 0
Dangerous builds = 0
The dot product: -6.24211199603622e-08
Setting atom values ...
  1 settings made for x
  1 settings made for y
  1 settings made for z
Setting up cg style minimization ...
  Unit style    : metal
  Current step  : 20173
Per MPI rank memory allocation (min/avg/max) = 5.465 | 6.344 | 6.728 Mbytes
Step PotEng KinEng TotEng v_fx v_fy v_fz 
   20173   -1152448.9            0   -1152448.9 -0.0025707198 -0.0031895478 -0.0051793252 
   20340   -1152448.9            0   -1152448.9 2.8179036e-05 -4.4799519e-05 5.1675368e-05 
Loop time of 3.6519 on 52 procs for 167 steps with 288751 atoms

99.9% CPU use with 52 MPI tasks x 1 OpenMP threads

Minimization stats:
  Stopping criterion = energy tolerance
  Energy initial, next-to-last, final = 
     -1152448.92253635  -1152448.92363863  -1152448.92363863
  Force two-norm initial, final = 0.13691322 0.00026253512
  Force max component initial, final = 0.057463288 5.1675368e-05
  Final line search alpha, max atom move = 1.0000000 5.1675368e-05
  Iterations, force evaluations = 167 334

MPI task timing breakdown:
Section |  min time  |  avg time  |  max time  |%varavg| %total
---------------------------------------------------------------
Pair    | 0.95397    | 2.6602     | 3.4714     |  44.9 | 72.85
Neigh   | 0          | 0          | 0          |   0.0 |  0.00
Comm    | 0.049146   | 0.58886    | 1.8512     |  69.3 | 16.12
Output  | 0          | 0          | 0          |   0.0 |  0.00
Modify  | 5.3567e-05 | 0.0056131  | 0.012083   |   3.5 |  0.15
Other   |            | 0.3972     |            |       | 10.88

Nlocal:        5552.90 ave        7903 max           0 min
Histogram: 4 2 2 0 2 6 4 1 14 17
Nghost:        6213.56 ave        8769 max         412 min
Histogram: 4 0 4 0 8 0 4 5 7 20
Neighs:       158427.0 ave      230317 max           0 min
Histogram: 4 2 2 0 5 3 4 4 12 16

Total # of neighbors = 8238194
Ave neighs/atom = 28.530443
Neighbor list builds = 0
Dangerous builds = 0
The dot product: -1.21380480978891e-07
Setting atom values ...
  1 settings made for x
  1 settings made for y
  1 settings made for z
Setting up cg style minimization ...
  Unit style    : metal
  Current step  : 20340
Per MPI rank memory allocation (min/avg/max) = 5.465 | 6.344 | 6.728 Mbytes
Step PotEng KinEng TotEng v_fx v_fy v_fz 
   20340   -1152448.9            0   -1152448.9 -0.0041591647 -0.00045794222 -0.0080508068 
   20487   -1152448.9            0   -1152448.9 -2.0177737e-06 1.5281722e-06 -3.796934e-06 
Loop time of 3.22522 on 52 procs for 147 steps with 288751 atoms

99.9% CPU use with 52 MPI tasks x 1 OpenMP threads

Minimization stats:
  Stopping criterion = energy tolerance
  Energy initial, next-to-last, final = 
     -1152448.93073183  -1152448.93181673  -1152448.93181673
  Force two-norm initial, final = 0.13620403 0.00032291603
  Force max component initial, final = 0.058444814 1.4122172e-05
  Final line search alpha, max atom move = 1.0000000 1.4122172e-05
  Iterations, force evaluations = 147 294

MPI task timing breakdown:
Section |  min time  |  avg time  |  max time  |%varavg| %total
---------------------------------------------------------------
Pair    | 0.83395    | 2.3447     | 3.0711     |  42.3 | 72.70
Neigh   | 0          | 0          | 0          |   0.0 |  0.00
Comm    | 0.043141   | 0.52114    | 1.6285     |  64.6 | 16.16
Output  | 0          | 0          | 0          |   0.0 |  0.00
Modify  | 5.8142e-05 | 0.0049629  | 0.010634   |   3.3 |  0.15
Other   |            | 0.3544     |            |       | 10.99

Nlocal:        5552.90 ave        7902 max           0 min
Histogram: 4 2 2 0 2 6 4 0 15 17
Nghost:        6213.52 ave        8769 max         412 min
Histogram: 4 0 4 0 8 0 4 5 7 20
Neighs:       158427.0 ave      230281 max           0 min
Histogram: 4 2 2 0 5 3 4 4 12 16

Total # of neighbors = 8238197
Ave neighs/atom = 28.530454
Neighbor list builds = 0
Dangerous builds = 0
The dot product: 1.60702740651869e-08
Setting atom values ...
  1 settings made for x
  1 settings made for y
  1 settings made for z
Setting up cg style minimization ...
  Unit style    : metal
  Current step  : 20487
Per MPI rank memory allocation (min/avg/max) = 5.465 | 6.344 | 6.728 Mbytes
Step PotEng KinEng TotEng v_fx v_fy v_fz 
   20487   -1152448.9            0   -1152448.9 -0.0068026079 0.0041137079  -0.01281573 
   20676   -1152448.9            0   -1152448.9 1.0733389e-05 -1.7332406e-05 1.9566679e-05 
Loop time of 4.14423 on 52 procs for 189 steps with 288751 atoms

99.9% CPU use with 52 MPI tasks x 1 OpenMP threads

Minimization stats:
  Stopping criterion = energy tolerance
  Energy initial, next-to-last, final = 
     -1152448.93771337  -1152448.93880995  -1152448.93880995
  Force two-norm initial, final = 0.13657708 0.00011074745
  Force max component initial, final = 0.059266515 1.9566679e-05
  Final line search alpha, max atom move = 1.0000000 1.9566679e-05
  Iterations, force evaluations = 189 378

MPI task timing breakdown:
Section |  min time  |  avg time  |  max time  |%varavg| %total
---------------------------------------------------------------
Pair    | 1.0713     | 3.0067     | 3.9403     |  47.9 | 72.55
Neigh   | 0          | 0          | 0          |   0.0 |  0.00
Comm    | 0.057886   | 0.66563    | 2.0894     |  73.4 | 16.06
Output  | 0          | 0          | 0          |   0.0 |  0.00
Modify  | 5.9959e-05 | 0.0063723  | 0.013703   |   3.7 |  0.15
Other   |            | 0.4655     |            |       | 11.23

Nlocal:        5552.90 ave        7901 max           0 min
Histogram: 4 2 2 0 2 6 4 0 15 17
Nghost:        6213.52 ave        8769 max         412 min
Histogram: 4 0 4 0 8 0 4 5 7 20
Neighs:       158427.0 ave      230256 max           0 min
Histogram: 4 2 2 0 5 3 4 4 12 16

Total # of neighbors = 8238200
Ave neighs/atom = 28.530464
Neighbor list builds = 0
Dangerous builds = 0
The dot product: -1.27861707483642e-07
Setting atom values ...
  1 settings made for x
  1 settings made for y
  1 settings made for z
Setting up cg style minimization ...
  Unit style    : metal
  Current step  : 20676
Per MPI rank memory allocation (min/avg/max) = 5.465 | 6.344 | 6.728 Mbytes
Step PotEng KinEng TotEng v_fx v_fy v_fz 
   20676   -1152448.9            0   -1152448.9 -0.0075211178 0.0060802771 -0.013988841 
   20839   -1152448.9            0   -1152448.9 2.4435951e-06 9.2448985e-07 4.715114e-06 
Loop time of 3.6158 on 52 procs for 163 steps with 288751 atoms

99.9% CPU use with 52 MPI tasks x 1 OpenMP threads

Minimization stats:
  Stopping criterion = linesearch alpha is zero
  Energy initial, next-to-last, final = 
     -1152448.94380465  -1152448.94494301  -1152448.94494301
  Force two-norm initial, final = 0.13704237 0.00019209885
  Force max component initial, final = 0.059815969 3.2640242e-05
  Final line search alpha, max atom move = 0.25 8.1600606e-06
  Iterations, force evaluations = 163 329

MPI task timing breakdown:
Section |  min time  |  avg time  |  max time  |%varavg| %total
---------------------------------------------------------------
Pair    | 0.93515    | 2.6238     | 3.438      |  44.8 | 72.57
Neigh   | 0          | 0          | 0          |   0.0 |  0.00
Comm    | 0.048551   | 0.58451    | 1.8349     |  68.3 | 16.17
Output  | 0          | 0          | 0          |   0.0 |  0.00
Modify  | 6.7065e-05 | 0.005553   | 0.012026   |   3.5 |  0.15
Other   |            | 0.4019     |            |       | 11.12

Nlocal:        5552.90 ave        7901 max           0 min
Histogram: 4 2 2 0 2 6 4 0 15 17
Nghost:        6213.52 ave        8769 max         412 min
Histogram: 4 0 4 0 8 0 4 5 7 20
Neighs:       158427.0 ave      230259 max           0 min
Histogram: 4 2 2 0 5 3 4 4 12 16

Total # of neighbors = 8238202
Ave neighs/atom = 28.530471
Neighbor list builds = 0
Dangerous builds = 0
The dot product: -4.74329621876793e-08
Setting atom values ...
  1 settings made for x
  1 settings made for y
  1 settings made for z
Setting up cg style minimization ...
  Unit style    : metal
  Current step  : 20839
Per MPI rank memory allocation (min/avg/max) = 5.465 | 6.344 | 6.728 Mbytes
Step PotEng KinEng TotEng v_fx v_fy v_fz 
   20839   -1152448.9            0   -1152448.9 -0.0067980327 0.0059743769 -0.012516363 
   20991     -1152449            0     -1152449 4.5678348e-06 -8.6671221e-06   8.1445e-06 
Loop time of 3.34478 on 52 procs for 152 steps with 288751 atoms

99.9% CPU use with 52 MPI tasks x 1 OpenMP threads

Minimization stats:
  Stopping criterion = energy tolerance
  Energy initial, next-to-last, final = 
     -1152448.94912903  -1152448.95027005  -1152448.95027005
  Force two-norm initial, final = 0.13682833 0.00017483952
  Force max component initial, final = 0.060146193 1.9207431e-05
  Final line search alpha, max atom move = 1.0000000 1.9207431e-05
  Iterations, force evaluations = 152 304

MPI task timing breakdown:
Section |  min time  |  avg time  |  max time  |%varavg| %total
---------------------------------------------------------------
Pair    | 0.86144    | 2.4202     | 3.1761     |  43.1 | 72.36
Neigh   | 0          | 0          | 0          |   0.0 |  0.00
Comm    | 0.044752   | 0.53789    | 1.6807     |  65.6 | 16.08
Output  | 0          | 0          | 0          |   0.0 |  0.00
Modify  | 4.6209e-05 | 0.0051399  | 0.01097    |   3.3 |  0.15
Other   |            | 0.3816     |            |       | 11.41

Nlocal:        5552.90 ave        7901 max           0 min
Histogram: 4 2 2 0 2 6 4 0 15 17
Nghost:        6213.58 ave        8769 max         412 min
Histogram: 4 0 4 0 8 0 4 5 7 20
Neighs:       158427.0 ave      230259 max           0 min
Histogram: 4 2 2 0 5 3 4 4 12 16

Total # of neighbors = 8238202
Ave neighs/atom = 28.530471
Neighbor list builds = 0
Dangerous builds = 0
The dot product: -1.22075346629502e-07
Setting atom values ...
  1 settings made for x
  1 settings made for y
  1 settings made for z
Setting up cg style minimization ...
  Unit style    : metal
  Current step  : 20991
Per MPI rank memory allocation (min/avg/max) = 5.465 | 6.344 | 6.728 Mbytes
Step PotEng KinEng TotEng v_fx v_fy v_fz 
   20991     -1152449            0     -1152449 -0.0056506655 0.0052442731 -0.010259829 
   21000     -1152449            0     -1152449 2.2095964e-05 0.00097431804 9.6728622e-05 
   21154     -1152449            0     -1152449 -2.4987559e-05 3.8970216e-05 -4.4471609e-05 
Loop time of 3.60487 on 52 procs for 163 steps with 288751 atoms

99.8% CPU use with 52 MPI tasks x 1 OpenMP threads

Minimization stats:
  Stopping criterion = linesearch alpha is zero
  Energy initial, next-to-last, final = 
     -1152448.95376811  -1152448.95499722  -1152448.95499722
  Force two-norm initial, final = 0.1366215 0.00018457706
  Force max component initial, final = 0.06010709 4.4471609e-05
  Final line search alpha, max atom move = 0.25 1.1117902e-05
  Iterations, force evaluations = 163 329

MPI task timing breakdown:
Section |  min time  |  avg time  |  max time  |%varavg| %total
---------------------------------------------------------------
Pair    | 0.93036    | 2.6213     | 3.4306     |  44.8 | 72.72
Neigh   | 0          | 0          | 0          |   0.0 |  0.00
Comm    | 0.048535   | 0.58429    | 1.8409     |  68.5 | 16.21
Output  | 0.00015978 | 0.00016391 | 0.00032587 |   0.0 |  0.00
Modify  | 6.1738e-05 | 0.0055585  | 0.011954   |   3.5 |  0.15
Other   |            | 0.3935     |            |       | 10.92

Nlocal:        5552.90 ave        7900 max           0 min
Histogram: 4 2 2 0 2 6 4 0 14 18
Nghost:        6213.56 ave        8769 max         412 min
Histogram: 4 0 4 0 8 0 4 5 7 20
Neighs:       158427.0 ave      230232 max           0 min
Histogram: 4 2 2 0 5 3 4 4 12 16

Total # of neighbors = 8238203
Ave neighs/atom = 28.530474
Neighbor list builds = 0
Dangerous builds = 0
The dot product: 6.72125222409383e-07
Setting atom values ...
  1 settings made for x
  1 settings made for y
  1 settings made for z
Setting up cg style minimization ...
  Unit style    : metal
  Current step  : 21154
Per MPI rank memory allocation (min/avg/max) = 5.465 | 6.344 | 6.728 Mbytes
Step PotEng KinEng TotEng v_fx v_fy v_fz 
   21154     -1152449            0     -1152449 -0.0047515097 0.0046816404 -0.0085064375 
   21313     -1152449            0     -1152449 3.9516861e-05 -6.1853951e-05 6.9438205e-05 
Loop time of 3.54679 on 52 procs for 159 steps with 288751 atoms

99.9% CPU use with 52 MPI tasks x 1 OpenMP threads

Minimization stats:
  Stopping criterion = linesearch alpha is zero
  Energy initial, next-to-last, final = 
     -1152448.95775038   -1152448.9588574   -1152448.9588574
  Force two-norm initial, final = 0.13666125 0.00025798161
  Force max component initial, final = 0.060088521 7.2455760e-05
  Final line search alpha, max atom move = 0.125 9.0569700e-06
  Iterations, force evaluations = 159 323

MPI task timing breakdown:
Section |  min time  |  avg time  |  max time  |%varavg| %total
---------------------------------------------------------------
Pair    | 0.92559    | 2.5732     | 3.3585     |  44.1 | 72.55
Neigh   | 0          | 0          | 0          |   0.0 |  0.00
Comm    | 0.047824   | 0.56968    | 1.7912     |  67.9 | 16.06
Output  | 0          | 0          | 0          |   0.0 |  0.00
Modify  | 5.9515e-05 | 0.0054464  | 0.011736   |   3.4 |  0.15
Other   |            | 0.3984     |            |       | 11.23

Nlocal:        5552.90 ave        7898 max           0 min
Histogram: 4 2 2 0 2 6 4 0 14 18
Nghost:        6213.63 ave        8769 max         412 min
Histogram: 4 0 4 0 8 0 4 5 7 20
Neighs:       158427.0 ave      230173 max           0 min
Histogram: 4 2 2 0 5 3 4 4 12 16

Total # of neighbors = 8238204
Ave neighs/atom = 28.530478
Neighbor list builds = 0
Dangerous builds = 0
The dot product: -7.04145200452761e-07
Setting atom values ...
  1 settings made for x
  1 settings made for y
  1 settings made for z
Setting up cg style minimization ...
  Unit style    : metal
  Current step  : 21313
Per MPI rank memory allocation (min/avg/max) = 5.465 | 6.344 | 6.728 Mbytes
Step PotEng KinEng TotEng v_fx v_fy v_fz 
   21313     -1152449            0     -1152449 -0.0040554674 0.0043503253 -0.0071794769 
   21578     -1152449            0     -1152449 -1.3845562e-06 3.754347e-06 -2.3236505e-06 
Loop time of 5.8315 on 52 procs for 265 steps with 288751 atoms

99.9% CPU use with 52 MPI tasks x 1 OpenMP threads

Minimization stats:
  Stopping criterion = linesearch alpha is zero
  Energy initial, next-to-last, final = 
      -1152448.9607322  -1152448.96336995  -1152448.96336995
  Force two-norm initial, final = 0.13695592 0.00012805768
  Force max component initial, final = 0.060196825 8.5489521e-06
  Final line search alpha, max atom move = 0.5 4.2744760e-06
  Iterations, force evaluations = 265 531

MPI task timing breakdown:
Section |  min time  |  avg time  |  max time  |%varavg| %total
---------------------------------------------------------------
Pair    | 1.5096     | 4.2282     | 5.5325     |  56.8 | 72.51
Neigh   | 1.8318e-05 | 0.0057808  | 0.0088473  |   3.2 |  0.10
Comm    | 0.079246   | 0.94252    | 2.9335     |  86.7 | 16.16
Output  | 0          | 0          | 0          |   0.0 |  0.00
Modify  | 7.5399e-05 | 0.0089309  | 0.019178   |   4.4 |  0.15
Other   |            | 0.646      |            |       | 11.08

Nlocal:        5552.90 ave        7892 max           0 min
Histogram: 4 2 2 0 2 6 4 0 14 18
Nghost:        6213.69 ave        8770 max         412 min
Histogram: 4 0 4 0 8 0 4 5 7 20
Neighs:       158427.0 ave      229913 max           0 min
Histogram: 4 2 2 0 5 3 4 4 12 16

Total # of neighbors = 8238204
Ave neighs/atom = 28.530478
Neighbor list builds = 1
Dangerous builds = 0
The dot product: 3.15736574914398e-07
Setting atom values ...
  1 settings made for x
  1 settings made for y
  1 settings made for z
Setting up cg style minimization ...
  Unit style    : metal
  Current step  : 21578
Per MPI rank memory allocation (min/avg/max) = 5.465 | 6.344 | 6.728 Mbytes
Step PotEng KinEng TotEng v_fx v_fy v_fz 
   21578     -1152449            0     -1152449 0.0033777246 0.00079876472 0.0058008511 
   21715     -1152449            0     -1152449 -3.3162464e-06 4.4134717e-06 -5.3188433e-06 
Loop time of 2.9951 on 52 procs for 137 steps with 288751 atoms

99.9% CPU use with 52 MPI tasks x 1 OpenMP threads

Minimization stats:
  Stopping criterion = energy tolerance
  Energy initial, next-to-last, final = 
      -1152448.9661393  -1152448.96720048  -1152448.96720048
  Force two-norm initial, final = 0.13706228 0.00022870917
  Force max component initial, final = 0.061167875 1.4749314e-05
  Final line search alpha, max atom move = 1.0000000 1.4749314e-05
  Iterations, force evaluations = 137 274

MPI task timing breakdown:
Section |  min time  |  avg time  |  max time  |%varavg| %total
---------------------------------------------------------------
Pair    | 0.78771    | 2.1844     | 2.8453     |  40.6 | 72.93
Neigh   | 0          | 0          | 0          |   0.0 |  0.00
Comm    | 0.040749   | 0.48178    | 1.5213     |  62.8 | 16.09
Output  | 0          | 0          | 0          |   0.0 |  0.00
Modify  | 4.0546e-05 | 0.0046214  | 0.0098702  |   3.1 |  0.15
Other   |            | 0.3243     |            |       | 10.83

Nlocal:        5552.90 ave        7893 max           0 min
Histogram: 4 2 2 0 2 6 4 0 14 18
Nghost:        6213.73 ave        8770 max         412 min
Histogram: 4 0 4 0 8 0 4 5 7 20
Neighs:       158427.0 ave      229950 max           0 min
Histogram: 4 2 2 0 5 3 4 4 12 16

Total # of neighbors = 8238204
Ave neighs/atom = 28.530478
Neighbor list builds = 0
Dangerous builds = 0
The dot product: 2.23945999680396e-08
