LAMMPS (29 Oct 2020)
OMP_NUM_THREADS environment is not set. Defaulting to 1 thread. (../comm.cpp:94)
  using 1 OpenMP thread(s) per MPI task
OMP_NUM_THREADS environment is not set. Defaulting to 1 thread. (../comm.cpp:94)
  using 1 OpenMP thread(s) per MPI task
Reading data file ...
  orthogonal box = (-122.39241 -121.13707 -37.090501) to (122.39241 121.13707 37.090501)
  13 by 4 by 2 MPI processor grid
  reading atoms ...
  288751 atoms
  read_data CPU = 0.371 seconds
199981 atoms in group inner
88770 atoms in group outer
1 atoms in group carbon
Neighbor list info ...
  update every 1 steps, delay 0 steps, check yes
  max neighbors/atom: 2000, page size: 100000
  master list distance cutoff = 5.6
  ghost atom cutoff = 5.6
  binsize = 2.8, bins = 88 87 27
  1 neighbor lists, perpetual/occasional/extra = 1 0 0
  (1) pair eam/alloy, perpetual
      attributes: half, newton on
      pair build: half/bin/atomonly/newton
      stencil: half/bin/3d/newton
      bin: standard
Setting up cg style minimization ...
  Unit style    : metal
  Current step  : 0
Per MPI rank memory allocation (min/avg/max) = 5.441 | 5.816 | 6.074 Mbytes
Step v_fx v_fy v_fz PotEng KinEng TotEng 
       0     13.28478   -21.996449    13.017868   -1152441.9            0   -1152441.9 
     245 1.8749521e-05 -2.2359018e-05 2.6729574e-05     -1152449            0     -1152449 
Loop time of 2.89568 on 104 procs for 245 steps with 288751 atoms

99.8% CPU use with 104 MPI tasks x 1 OpenMP threads

Minimization stats:
  Stopping criterion = energy tolerance
  Energy initial, next-to-last, final = 
     -1152441.85200763  -1152448.97218771  -1152448.97218771
  Force two-norm initial, final = 47.028650 0.00013658659
  Force max component initial, final = 28.088146 3.8656195e-05
  Final line search alpha, max atom move = 1.0000000 3.8656195e-05
  Iterations, force evaluations = 245 487

MPI task timing breakdown:
Section |  min time  |  avg time  |  max time  |%varavg| %total
---------------------------------------------------------------
Pair    | 0.79325    | 2.0597     | 2.6559     |  37.5 | 71.13
Neigh   | 8.3686e-05 | 0.023504   | 0.034291   |   6.3 |  0.81
Comm    | 0.055232   | 0.47149    | 1.4079     |  56.3 | 16.28
Output  | 0          | 0          | 0          |   0.0 |  0.00
Modify  | 2.8673e-05 | 0.0026272  | 0.0067442  |   3.2 |  0.09
Other   |            | 0.3383     |            |       | 11.68

Nlocal:        2776.45 ave        3957 max           0 min
Histogram: 8 4 4 0 4 12 8 2 28 34
Nghost:        3879.04 ave        5424 max         232 min
Histogram: 8 0 8 0 16 0 8 8 16 40
Neighs:        79213.7 ave      115320 max           0 min
Histogram: 8 4 4 0 10 6 8 8 24 32

Total # of neighbors = 8238220
Ave neighs/atom = 28.530533
Neighbor list builds = 8
Dangerous builds = 1
Setting atom values ...
  1 settings made for x
  1 settings made for y
  1 settings made for z
Setting up cg style minimization ...
  Unit style    : metal
  Current step  : 245
Per MPI rank memory allocation (min/avg/max) = 5.441 | 5.816 | 6.074 Mbytes
Step PotEng KinEng TotEng v_fx v_fy v_fz 
     245     -1152449            0     -1152449  0.018857376 0.0089529879 -0.022016246 
     369     -1152449            0     -1152449 -5.0117564e-06 -5.2030133e-06 3.435869e-06 
Loop time of 1.44584 on 104 procs for 124 steps with 288751 atoms

99.9% CPU use with 104 MPI tasks x 1 OpenMP threads

Minimization stats:
  Stopping criterion = energy tolerance
  Energy initial, next-to-last, final = 
     -1152448.97132529  -1152448.97198787  -1152448.97198787
  Force two-norm initial, final = 0.11716464 0.0002101472
  Force max component initial, final = 0.055037038 1.7501506e-05
  Final line search alpha, max atom move = 1.0000000 1.7501506e-05
  Iterations, force evaluations = 124 248

MPI task timing breakdown:
Section |  min time  |  avg time  |  max time  |%varavg| %total
---------------------------------------------------------------
Pair    | 0.38307    | 1.0495     | 1.3579     |  27.5 | 72.59
Neigh   | 0          | 0          | 0          |   0.0 |  0.00
Comm    | 0.021809   | 0.23854    | 0.72344    |  41.4 | 16.50
Output  | 0          | 0          | 0          |   0.0 |  0.00
Modify  | 1.6185e-05 | 0.0020587  | 0.0044316  |   2.2 |  0.14
Other   |            | 0.1557     |            |       | 10.77

Nlocal:        2776.45 ave        3953 max           0 min
Histogram: 8 4 4 0 4 12 8 2 28 34
Nghost:        3879.13 ave        5426 max         232 min
Histogram: 8 0 8 0 16 0 8 8 16 40
Neighs:        79213.5 ave      115162 max           0 min
Histogram: 8 4 4 0 10 6 8 8 24 32

Total # of neighbors = 8238205
Ave neighs/atom = 28.530481
Neighbor list builds = 0
Dangerous builds = 0
Setting atom values ...
  1 settings made for x
  1 settings made for y
  1 settings made for z
Setting up cg style minimization ...
  Unit style    : metal
  Current step  : 369
Per MPI rank memory allocation (min/avg/max) = 5.441 | 5.816 | 6.074 Mbytes
Step PotEng KinEng TotEng v_fx v_fy v_fz 
     369     -1152449            0     -1152449  0.029307852   0.01764855 -0.023321952 
     575     -1152449            0     -1152449 -2.8706484e-06 -1.7728533e-06 2.2559606e-06 
Loop time of 2.39368 on 104 procs for 206 steps with 288751 atoms

99.9% CPU use with 104 MPI tasks x 1 OpenMP threads

Minimization stats:
  Stopping criterion = energy tolerance
  Energy initial, next-to-last, final = 
     -1152448.96833737  -1152448.97097833  -1152448.97097833
  Force two-norm initial, final = 0.21443279 0.00013652152
  Force max component initial, final = 0.10491552 2.2575137e-05
  Final line search alpha, max atom move = 1.0000000 2.2575137e-05
  Iterations, force evaluations = 206 412

MPI task timing breakdown:
Section |  min time  |  avg time  |  max time  |%varavg| %total
---------------------------------------------------------------
Pair    | 0.63207    | 1.7303     | 2.2438     |  35.4 | 72.28
Neigh   | 0          | 0          | 0          |   0.0 |  0.00
Comm    | 0.03849    | 0.39205    | 1.1892     |  52.5 | 16.38
Output  | 0          | 0          | 0          |   0.0 |  0.00
Modify  | 2.5327e-05 | 0.003397   | 0.0072498  |   2.8 |  0.14
Other   |            | 0.268      |            |       | 11.20

Nlocal:        2776.45 ave        3953 max           0 min
Histogram: 8 4 4 0 4 12 8 2 28 34
Nghost:        3879.13 ave        5429 max         232 min
Histogram: 8 0 8 0 16 0 8 8 16 40
Neighs:        79213.5 ave      115162 max           0 min
Histogram: 8 4 4 0 10 6 8 8 24 32

Total # of neighbors = 8238206
Ave neighs/atom = 28.530485
Neighbor list builds = 0
Dangerous builds = 0
The dot product: 3.02472510245522e-08
Setting atom values ...
  1 settings made for x
  1 settings made for y
  1 settings made for z
Setting up cg style minimization ...
  Unit style    : metal
  Current step  : 575
Per MPI rank memory allocation (min/avg/max) = 5.441 | 5.816 | 6.074 Mbytes
Step PotEng KinEng TotEng v_fx v_fy v_fz 
     575     -1152449            0     -1152449 -0.010376074  0.028057719  0.016902914 
     798     -1152449            0     -1152449 -5.0312725e-07 -8.3119879e-07 5.3072691e-10 
Loop time of 2.58602 on 104 procs for 223 steps with 288751 atoms

99.9% CPU use with 104 MPI tasks x 1 OpenMP threads

Minimization stats:
  Stopping criterion = energy tolerance
  Energy initial, next-to-last, final = 
     -1152448.96648289  -1152448.96944528  -1152448.96944528
  Force two-norm initial, final = 0.21719729 4.0756231e-05
  Force max component initial, final = 0.10658223 4.3391264e-06
  Final line search alpha, max atom move = 1.0000000 4.3391264e-06
  Iterations, force evaluations = 223 446

MPI task timing breakdown:
Section |  min time  |  avg time  |  max time  |%varavg| %total
---------------------------------------------------------------
Pair    | 0.67901    | 1.8803     | 2.4382     |  37.0 | 72.71
Neigh   | 0          | 0          | 0          |   0.0 |  0.00
Comm    | 0.037508   | 0.42627    | 1.2864     |  54.7 | 16.48
Output  | 0          | 0          | 0          |   0.0 |  0.00
Modify  | 2.8886e-05 | 0.0036864  | 0.0078848  |   2.9 |  0.14
Other   |            | 0.2758     |            |       | 10.66

Nlocal:        2776.45 ave        3953 max           0 min
Histogram: 8 4 4 0 4 12 8 2 28 34
Nghost:        3879.12 ave        5425 max         232 min
Histogram: 8 0 8 0 16 0 8 8 16 40
Neighs:        79213.5 ave      115174 max           0 min
Histogram: 8 4 4 0 10 6 8 8 24 32

Total # of neighbors = 8238206
Ave neighs/atom = 28.530485
Neighbor list builds = 0
Dangerous builds = 0
The dot product: 3.07432465970784e-09
Setting atom values ...
  1 settings made for x
  1 settings made for y
  1 settings made for z
Setting up cg style minimization ...
  Unit style    : metal
  Current step  : 798
Per MPI rank memory allocation (min/avg/max) = 5.441 | 5.816 | 6.074 Mbytes
Step PotEng KinEng TotEng v_fx v_fy v_fz 
     798     -1152449            0     -1152449 -0.047632419    0.0342041  0.023510965 
     954     -1152449            0     -1152449 -6.4275883e-06 1.9587366e-05 7.0487146e-06 
Loop time of 1.80717 on 104 procs for 156 steps with 288751 atoms

99.9% CPU use with 104 MPI tasks x 1 OpenMP threads

Minimization stats:
  Stopping criterion = energy tolerance
  Energy initial, next-to-last, final = 
     -1152448.96471588  -1152448.96800259  -1152448.96800259
  Force two-norm initial, final = 0.21930891 0.00013749714
  Force max component initial, final = 0.10070362 2.7037657e-05
  Final line search alpha, max atom move = 1.0000000 2.7037657e-05
  Iterations, force evaluations = 156 312

MPI task timing breakdown:
Section |  min time  |  avg time  |  max time  |%varavg| %total
---------------------------------------------------------------
Pair    | 0.47812    | 1.3078     | 1.7037     |  30.7 | 72.36
Neigh   | 0          | 0          | 0          |   0.0 |  0.00
Comm    | 0.027476   | 0.29619    | 0.89677    |  45.6 | 16.39
Output  | 0          | 0          | 0          |   0.0 |  0.00
Modify  | 1.9788e-05 | 0.0025715  | 0.0054773  |   2.4 |  0.14
Other   |            | 0.2007     |            |       | 11.10

Nlocal:        2776.45 ave        3955 max           0 min
Histogram: 8 4 4 0 4 12 8 2 28 34
Nghost:        3879.13 ave        5424 max         232 min
Histogram: 8 0 8 0 16 0 8 8 16 40
Neighs:        79213.6 ave      115245 max           0 min
Histogram: 8 4 4 0 10 6 8 8 24 32

Total # of neighbors = 8238212
Ave neighs/atom = 28.530506
Neighbor list builds = 0
Dangerous builds = 0
The dot product: 1.31130485761743e-07
Setting atom values ...
  1 settings made for x
  1 settings made for y
  1 settings made for z
Setting up cg style minimization ...
  Unit style    : metal
  Current step  : 954
Per MPI rank memory allocation (min/avg/max) = 5.441 | 5.816 | 6.074 Mbytes
Step PotEng KinEng TotEng v_fx v_fy v_fz 
     954     -1152449            0     -1152449 -0.056695556  0.035177361   0.01664891 
    1000     -1152449            0     -1152449 0.00026650955 -0.00043453435 -0.00013613975 
    1087     -1152449            0     -1152449 -1.0627464e-05 2.189783e-05 6.4114408e-06 
Loop time of 1.54779 on 104 procs for 133 steps with 288751 atoms

99.9% CPU use with 104 MPI tasks x 1 OpenMP threads

Minimization stats:
  Stopping criterion = energy tolerance
  Energy initial, next-to-last, final = 
     -1152448.96360914  -1152448.96633084  -1152448.96633084
  Force two-norm initial, final = 0.21609458 0.00022549787
  Force max component initial, final = 0.09449634 6.3021154e-05
  Final line search alpha, max atom move = 1.0000000 6.3021154e-05
  Iterations, force evaluations = 133 266

MPI task timing breakdown:
Section |  min time  |  avg time  |  max time  |%varavg| %total
---------------------------------------------------------------
Pair    | 0.4078     | 1.1218     | 1.4543     |  28.4 | 72.48
Neigh   | 0          | 0          | 0          |   0.0 |  0.00
Comm    | 0.025707   | 0.25302    | 0.76826    |  42.5 | 16.35
Output  | 0.00020678 | 0.00021625 | 0.00031527 |   0.0 |  0.01
Modify  | 1.7354e-05 | 0.0022035  | 0.0046704  |   2.2 |  0.14
Other   |            | 0.1705     |            |       | 11.02

Nlocal:        2776.45 ave        3956 max           0 min
Histogram: 8 4 4 0 4 12 8 2 28 34
Nghost:        3879.13 ave        5424 max         232 min
Histogram: 8 0 8 0 16 0 8 8 16 40
Neighs:        79213.6 ave      115275 max           0 min
Histogram: 8 4 4 0 10 6 8 8 24 32

Total # of neighbors = 8238214
Ave neighs/atom = 28.530512
Neighbor list builds = 0
Dangerous builds = 0
The dot product: 5.85503135076549e-08
Setting atom values ...
  1 settings made for x
  1 settings made for y
  1 settings made for z
Setting up cg style minimization ...
  Unit style    : metal
  Current step  : 1087
Per MPI rank memory allocation (min/avg/max) = 5.441 | 5.816 | 6.074 Mbytes
Step PotEng KinEng TotEng v_fx v_fy v_fz 
    1087     -1152449            0     -1152449 -0.057059632  0.034713874  0.013685376 
    1313     -1152449            0     -1152449 -1.064527e-05 1.7030036e-05 4.7624786e-06 
Loop time of 2.59781 on 104 procs for 226 steps with 288751 atoms

99.9% CPU use with 104 MPI tasks x 1 OpenMP threads

Minimization stats:
  Stopping criterion = energy tolerance
  Energy initial, next-to-last, final = 
     -1152448.96170262  -1152448.96475731  -1152448.96475731
  Force two-norm initial, final = 0.21437347 0.00011316704
  Force max component initial, final = 0.092752463 2.6368781e-05
  Final line search alpha, max atom move = 1.0000000 2.6368781e-05
  Iterations, force evaluations = 226 452

MPI task timing breakdown:
Section |  min time  |  avg time  |  max time  |%varavg| %total
---------------------------------------------------------------
Pair    | 0.68692    | 1.8914     | 2.4616     |  37.0 | 72.81
Neigh   | 0          | 0          | 0          |   0.0 |  0.00
Comm    | 0.038425   | 0.42512    | 1.2908     |  55.0 | 16.36
Output  | 0          | 0          | 0          |   0.0 |  0.00
Modify  | 2.8599e-05 | 0.0037135  | 0.0079343  |   2.9 |  0.14
Other   |            | 0.2776     |            |       | 10.69

Nlocal:        2776.45 ave        3956 max           0 min
Histogram: 8 4 4 0 4 12 8 2 28 34
Nghost:        3879.07 ave        5424 max         232 min
Histogram: 8 0 8 0 16 0 8 8 16 40
Neighs:        79213.6 ave      115274 max           0 min
Histogram: 8 4 4 0 10 6 8 8 24 32

Total # of neighbors = 8238217
Ave neighs/atom = 28.530523
Neighbor list builds = 0
Dangerous builds = 0
The dot product: -7.67994775221567e-08
Setting atom values ...
  1 settings made for x
  1 settings made for y
  1 settings made for z
Setting up cg style minimization ...
  Unit style    : metal
  Current step  : 1313
Per MPI rank memory allocation (min/avg/max) = 5.441 | 5.816 | 6.074 Mbytes
Step PotEng KinEng TotEng v_fx v_fy v_fz 
    1313     -1152449            0     -1152449 -0.053797346  0.032718229  0.014525926 
    1525     -1152449            0     -1152449 1.3284977e-07 -3.0948706e-08 -2.3694364e-08 
Loop time of 2.46478 on 104 procs for 212 steps with 288751 atoms

99.9% CPU use with 104 MPI tasks x 1 OpenMP threads

Minimization stats:
  Stopping criterion = energy tolerance
  Energy initial, next-to-last, final = 
     -1152448.96063384  -1152448.96334016  -1152448.96334016
  Force two-norm initial, final = 0.21650997 5.2382870e-05
  Force max component initial, final = 0.095688983 1.1689449e-05
  Final line search alpha, max atom move = 1.0000000 1.1689449e-05
  Iterations, force evaluations = 212 424

MPI task timing breakdown:
Section |  min time  |  avg time  |  max time  |%varavg| %total
---------------------------------------------------------------
Pair    | 0.64561    | 1.7821     | 2.3251     |  35.9 | 72.30
Neigh   | 0          | 0          | 0          |   0.0 |  0.00
Comm    | 0.035605   | 0.40348    | 1.2189     |  53.2 | 16.37
Output  | 0          | 0          | 0          |   0.0 |  0.00
Modify  | 2.5821e-05 | 0.0034932  | 0.0075108  |   2.8 |  0.14
Other   |            | 0.2757     |            |       | 11.19

Nlocal:        2776.45 ave        3957 max           0 min
Histogram: 8 4 4 0 4 12 8 2 28 34
Nghost:        3879.05 ave        5424 max         232 min
Histogram: 8 0 8 0 16 0 8 8 16 40
Neighs:        79213.6 ave      115318 max           0 min
Histogram: 8 4 4 0 10 6 8 8 24 32

Total # of neighbors = 8238210
Ave neighs/atom = 28.530499
Neighbor list builds = 0
Dangerous builds = 0
The dot product: -3.11928446277507e-10
Setting atom values ...
  1 settings made for x
  1 settings made for y
  1 settings made for z
Setting up cg style minimization ...
  Unit style    : metal
  Current step  : 1525
Per MPI rank memory allocation (min/avg/max) = 5.441 | 5.816 | 6.074 Mbytes
Step PotEng KinEng TotEng v_fx v_fy v_fz 
    1525     -1152449            0     -1152449 -0.058557393  0.037136811  0.014998903 
    1725     -1152449            0     -1152449 2.7255185e-06 -3.9978481e-06 -1.2394791e-06 
Loop time of 2.31221 on 104 procs for 200 steps with 288751 atoms

99.9% CPU use with 104 MPI tasks x 1 OpenMP threads

Minimization stats:
  Stopping criterion = energy tolerance
  Energy initial, next-to-last, final = 
     -1152448.95883865  -1152448.96132049  -1152448.96132049
  Force two-norm initial, final = 0.21780445 9.3798895e-05
  Force max component initial, final = 0.095233596 2.3041689e-05
  Final line search alpha, max atom move = 1.0000000 2.3041689e-05
  Iterations, force evaluations = 200 400

MPI task timing breakdown:
Section |  min time  |  avg time  |  max time  |%varavg| %total
---------------------------------------------------------------
Pair    | 0.6097     | 1.6779     | 2.1799     |  34.8 | 72.57
Neigh   | 0          | 0          | 0          |   0.0 |  0.00
Comm    | 0.035094   | 0.38006    | 1.1513     |  51.7 | 16.44
Output  | 0          | 0          | 0          |   0.0 |  0.00
Modify  | 2.4697e-05 | 0.0032936  | 0.007046   |   2.7 |  0.14
Other   |            | 0.2509     |            |       | 10.85

Nlocal:        2776.45 ave        3957 max           0 min
Histogram: 8 4 4 0 4 12 8 2 28 34
Nghost:        3879.06 ave        5424 max         232 min
Histogram: 8 0 8 0 16 0 8 8 16 40
Neighs:        79213.6 ave      115320 max           0 min
Histogram: 8 4 4 0 10 6 8 8 24 32

Total # of neighbors = 8238211
Ave neighs/atom = 28.530502
Neighbor list builds = 0
Dangerous builds = 0
The dot product: -2.70610615016499e-08
Setting atom values ...
  1 settings made for x
  1 settings made for y
  1 settings made for z
Setting up cg style minimization ...
  Unit style    : metal
  Current step  : 1725
Per MPI rank memory allocation (min/avg/max) = 5.441 | 5.816 | 6.074 Mbytes
Step PotEng KinEng TotEng v_fx v_fy v_fz 
    1725     -1152449            0     -1152449 -0.064236734  0.042107004  0.013849936 
    1902     -1152449            0     -1152449 1.431065e-05 -1.984167e-05 -5.3245343e-06 
Loop time of 2.05503 on 104 procs for 177 steps with 288751 atoms

99.9% CPU use with 104 MPI tasks x 1 OpenMP threads

Minimization stats:
  Stopping criterion = energy tolerance
  Energy initial, next-to-last, final = 
     -1152448.95620855  -1152448.95877106  -1152448.95877106
  Force two-norm initial, final = 0.21754372 0.00013855235
  Force max component initial, final = 0.092779209 4.7311318e-05
  Final line search alpha, max atom move = 1.0000000 4.7311318e-05
  Iterations, force evaluations = 177 354

MPI task timing breakdown:
Section |  min time  |  avg time  |  max time  |%varavg| %total
---------------------------------------------------------------
Pair    | 0.54014    | 1.4935     | 1.9396     |  32.9 | 72.68
Neigh   | 0          | 0          | 0          |   0.0 |  0.00
Comm    | 0.03083    | 0.33631    | 1.0158     |  48.9 | 16.37
Output  | 0          | 0          | 0          |   0.0 |  0.00
Modify  | 2.2856e-05 | 0.0029244  | 0.0062306  |   2.6 |  0.14
Other   |            | 0.2223     |            |       | 10.82

Nlocal:        2776.45 ave        3957 max           0 min
Histogram: 8 4 4 0 4 12 8 2 28 34
Nghost:        3879.04 ave        5424 max         232 min
Histogram: 8 0 8 0 16 0 8 8 16 40
Neighs:        79213.5 ave      115329 max           0 min
Histogram: 8 4 4 0 10 6 8 8 24 32

Total # of neighbors = 8238209
Ave neighs/atom = 28.530495
Neighbor list builds = 0
Dangerous builds = 0
The dot product: -1.14050789046458e-07
Setting atom values ...
  1 settings made for x
  1 settings made for y
  1 settings made for z
Setting up cg style minimization ...
  Unit style    : metal
  Current step  : 1902
Per MPI rank memory allocation (min/avg/max) = 5.441 | 5.816 | 6.074 Mbytes
Step PotEng KinEng TotEng v_fx v_fy v_fz 
    1902     -1152449            0     -1152449 -0.067320962  0.043872865  0.012132479 
    2000     -1152449            0     -1152449 -7.8837545e-05 0.00010839602 2.5497877e-05 
    2139     -1152449            0     -1152449 3.5535133e-06 -4.7652534e-06 -1.1254134e-06 
Loop time of 2.75293 on 104 procs for 237 steps with 288751 atoms

99.9% CPU use with 104 MPI tasks x 1 OpenMP threads

Minimization stats:
  Stopping criterion = energy tolerance
  Energy initial, next-to-last, final = 
     -1152448.95337932  -1152448.95573935  -1152448.95573935
  Force two-norm initial, final = 0.21662571 2.8768861e-05
  Force max component initial, final = 0.090757642 1.0177336e-05
  Final line search alpha, max atom move = 1.0000000 1.0177336e-05
  Iterations, force evaluations = 237 474

MPI task timing breakdown:
Section |  min time  |  avg time  |  max time  |%varavg| %total
---------------------------------------------------------------
Pair    | 0.71964    | 1.9903     | 2.5858     |  38.1 | 72.30
Neigh   | 0          | 0          | 0          |   0.0 |  0.00
Comm    | 0.039751   | 0.45151    | 1.3685     |  56.3 | 16.40
Output  | 0.00010805 | 0.00011413 | 0.00023662 |   0.0 |  0.00
Modify  | 2.9201e-05 | 0.003899   | 0.0083234  |   3.0 |  0.14
Other   |            | 0.3071     |            |       | 11.15

Nlocal:        2776.45 ave        3957 max           0 min
Histogram: 8 4 4 0 4 12 8 2 28 34
Nghost:        3879.02 ave        5424 max         232 min
Histogram: 8 0 8 0 16 0 8 8 16 40
Neighs:        79213.5 ave      115330 max           0 min
Histogram: 8 4 4 0 10 6 8 8 24 32

Total # of neighbors = 8238204
Ave neighs/atom = 28.530478
Neighbor list builds = 0
Dangerous builds = 0
The dot product: -3.74538829570385e-08
Setting atom values ...
  1 settings made for x
  1 settings made for y
  1 settings made for z
Setting up cg style minimization ...
  Unit style    : metal
  Current step  : 2139
Per MPI rank memory allocation (min/avg/max) = 5.441 | 5.816 | 6.074 Mbytes
Step PotEng KinEng TotEng v_fx v_fy v_fz 
    2139   -1152448.9            0   -1152448.9 -0.071500441  0.046992059  0.010034961 
    2394     -1152449            0     -1152449 -1.9532756e-07 2.7111836e-07 5.2801059e-08 
Loop time of 2.94546 on 104 procs for 255 steps with 288751 atoms

99.9% CPU use with 104 MPI tasks x 1 OpenMP threads

Minimization stats:
  Stopping criterion = energy tolerance
  Energy initial, next-to-last, final = 
     -1152448.94966835  -1152448.95191937  -1152448.95191937
  Force two-norm initial, final = 0.21572912 9.1698664e-06
  Force max component initial, final = 0.087991637 1.2488775e-06
  Final line search alpha, max atom move = 1.0000000 1.2488775e-06
  Iterations, force evaluations = 255 510

MPI task timing breakdown:
Section |  min time  |  avg time  |  max time  |%varavg| %total
---------------------------------------------------------------
Pair    | 0.77873    | 2.1465     | 2.7854     |  39.4 | 72.87
Neigh   | 0          | 0          | 0          |   0.0 |  0.00
Comm    | 0.042823   | 0.48989    | 1.4817     |  58.9 | 16.63
Output  | 0          | 0          | 0          |   0.0 |  0.00
Modify  | 3.2176e-05 | 0.0042051  | 0.0089683  |   3.1 |  0.14
Other   |            | 0.3049     |            |       | 10.35

Nlocal:        2776.45 ave        3957 max           0 min
Histogram: 8 4 4 0 4 12 8 2 28 34
Nghost:        3879.04 ave        5424 max         232 min
Histogram: 8 0 8 0 16 0 8 8 16 40
Neighs:        79213.5 ave      115332 max           0 min
Histogram: 8 4 4 0 10 6 8 8 24 32

Total # of neighbors = 8238202
Ave neighs/atom = 28.530471
Neighbor list builds = 0
Dangerous builds = 0
The dot product: 2.56649518660665e-09
Setting atom values ...
  1 settings made for x
  1 settings made for y
  1 settings made for z
Setting up cg style minimization ...
  Unit style    : metal
  Current step  : 2394
Per MPI rank memory allocation (min/avg/max) = 5.441 | 5.816 | 6.074 Mbytes
Step PotEng KinEng TotEng v_fx v_fy v_fz 
    2394   -1152448.9            0   -1152448.9 -0.074914552  0.050052771 0.0073087796 
    2551   -1152448.9            0   -1152448.9 1.4621676e-05 -1.9932493e-05 -2.995472e-06 
Loop time of 1.82812 on 104 procs for 157 steps with 288751 atoms

99.9% CPU use with 104 MPI tasks x 1 OpenMP threads

Minimization stats:
  Stopping criterion = energy tolerance
  Energy initial, next-to-last, final = 
     -1152448.94512296  -1152448.94734274  -1152448.94734274
  Force two-norm initial, final = 0.21423744 0.00023526204
  Force max component initial, final = 0.08447604 3.8237034e-05
  Final line search alpha, max atom move = 1.0000000 3.8237034e-05
  Iterations, force evaluations = 157 314

MPI task timing breakdown:
Section |  min time  |  avg time  |  max time  |%varavg| %total
---------------------------------------------------------------
Pair    | 0.49199    | 1.3222     | 1.7207     |  30.5 | 72.32
Neigh   | 0          | 0          | 0          |   0.0 |  0.00
Comm    | 0.02637    | 0.30075    | 0.89791    |  45.2 | 16.45
Output  | 0          | 0          | 0          |   0.0 |  0.00
Modify  | 1.9354e-05 | 0.0025838  | 0.0055133  |   2.4 |  0.14
Other   |            | 0.2026     |            |       | 11.08

Nlocal:        2776.45 ave        3956 max           0 min
Histogram: 8 4 4 0 4 12 8 0 30 34
Nghost:        3879.04 ave        5424 max         232 min
Histogram: 8 0 8 0 16 0 8 8 16 40
Neighs:        79213.5 ave      115301 max           0 min
Histogram: 8 4 4 0 10 6 8 8 24 32

Total # of neighbors = 8238205
Ave neighs/atom = 28.530481
Neighbor list builds = 0
Dangerous builds = 0
The dot product: -2.12957907485862e-07
Setting atom values ...
  1 settings made for x
  1 settings made for y
  1 settings made for z
Setting up cg style minimization ...
  Unit style    : metal
  Current step  : 2551
Per MPI rank memory allocation (min/avg/max) = 5.441 | 5.816 | 6.074 Mbytes
Step PotEng KinEng TotEng v_fx v_fy v_fz 
    2551   -1152448.9            0   -1152448.9 -0.077149949  0.052457901  0.004169414 
    2748   -1152448.9            0   -1152448.9 1.3016006e-05 -1.5552617e-05 -1.5718594e-06 
Loop time of 2.31508 on 104 procs for 197 steps with 288751 atoms

99.9% CPU use with 104 MPI tasks x 1 OpenMP threads

Minimization stats:
  Stopping criterion = energy tolerance
  Energy initial, next-to-last, final = 
     -1152448.93989049  -1152448.94200671  -1152448.94200671
  Force two-norm initial, final = 0.21212706 7.1648781e-05
  Force max component initial, final = 0.080414223 2.1527592e-05
  Final line search alpha, max atom move = 1.0000000 2.1527592e-05
  Iterations, force evaluations = 197 394

MPI task timing breakdown:
Section |  min time  |  avg time  |  max time  |%varavg| %total
---------------------------------------------------------------
Pair    | 0.59885    | 1.6626     | 2.1556     |  34.5 | 71.82
Neigh   | 0          | 0          | 0          |   0.0 |  0.00
Comm    | 0.03928    | 0.37605    | 1.1476     |  51.7 | 16.24
Output  | 0          | 0          | 0          |   0.0 |  0.00
Modify  | 2.4637e-05 | 0.0032626  | 0.0069389  |   2.7 |  0.14
Other   |            | 0.2732     |            |       | 11.80

Nlocal:        2776.45 ave        3956 max           0 min
Histogram: 8 4 4 0 4 12 8 0 30 34
Nghost:        3879.06 ave        5424 max         232 min
Histogram: 8 0 8 0 16 0 8 8 16 40
Neighs:        79213.5 ave      115301 max           0 min
Histogram: 8 4 4 0 10 6 8 8 24 32

Total # of neighbors = 8238206
Ave neighs/atom = 28.530485
Neighbor list builds = 0
Dangerous builds = 0
The dot product: -1.62111552705522e-07
Setting atom values ...
  1 settings made for x
  1 settings made for y
  1 settings made for z
Setting up cg style minimization ...
  Unit style    : metal
  Current step  : 2748
Per MPI rank memory allocation (min/avg/max) = 5.441 | 5.816 | 6.074 Mbytes
Step PotEng KinEng TotEng v_fx v_fy v_fz 
    2748   -1152448.9            0   -1152448.9 -0.078274226  0.052354182 0.0010596098 
    2898   -1152448.9            0   -1152448.9 9.258317e-06 -1.0669588e-05 -6.2065366e-07 
Loop time of 1.72949 on 104 procs for 150 steps with 288751 atoms

99.9% CPU use with 104 MPI tasks x 1 OpenMP threads

Minimization stats:
  Stopping criterion = energy tolerance
  Energy initial, next-to-last, final = 
     -1152448.93382044  -1152448.93584531  -1152448.93584531
  Force two-norm initial, final = 0.20974313 0.00024681446
  Force max component initial, final = 0.078274226 2.4016528e-05
  Final line search alpha, max atom move = 1.0000000 2.4016528e-05
  Iterations, force evaluations = 150 300

MPI task timing breakdown:
Section |  min time  |  avg time  |  max time  |%varavg| %total
---------------------------------------------------------------
Pair    | 0.4562     | 1.2576     | 1.6381     |  30.2 | 72.72
Neigh   | 0          | 0          | 0          |   0.0 |  0.00
Comm    | 0.025503   | 0.28344    | 0.86137    |  44.9 | 16.39
Output  | 0          | 0          | 0          |   0.0 |  0.00
Modify  | 1.9103e-05 | 0.0024702  | 0.0052658  |   2.3 |  0.14
Other   |            | 0.1859     |            |       | 10.75

Nlocal:        2776.45 ave        3957 max           0 min
Histogram: 8 4 4 0 4 12 8 2 28 34
Nghost:        3879.06 ave        5424 max         232 min
Histogram: 8 0 8 0 16 0 8 8 16 40
Neighs:        79213.5 ave      115335 max           0 min
Histogram: 8 4 4 0 10 6 8 8 24 32

Total # of neighbors = 8238203
Ave neighs/atom = 28.530474
Neighbor list builds = 0
Dangerous builds = 0
The dot product: -9.96713906907428e-08
Setting atom values ...
  1 settings made for x
  1 settings made for y
  1 settings made for z
Setting up cg style minimization ...
  Unit style    : metal
  Current step  : 2898
Per MPI rank memory allocation (min/avg/max) = 5.441 | 5.816 | 6.074 Mbytes
Step PotEng KinEng TotEng v_fx v_fy v_fz 
    2898   -1152448.9            0   -1152448.9 -0.076633911  0.052467305 -0.0013801593 
    3000   -1152448.9            0   -1152448.9 0.00015511367 -0.00019034248 -5.4332739e-06 
    3066   -1152448.9            0   -1152448.9 -8.3748331e-06 1.1203082e-05 3.8390535e-07 
Loop time of 1.94156 on 104 procs for 168 steps with 288751 atoms

99.9% CPU use with 104 MPI tasks x 1 OpenMP threads

Minimization stats:
  Stopping criterion = energy tolerance
  Energy initial, next-to-last, final = 
     -1152448.92685635  -1152448.92878079  -1152448.92878079
  Force two-norm initial, final = 0.20691453 0.00011767015
  Force max component initial, final = 0.077961434 1.3401268e-05
  Final line search alpha, max atom move = 1.0000000 1.3401268e-05
  Iterations, force evaluations = 168 336

MPI task timing breakdown:
Section |  min time  |  avg time  |  max time  |%varavg| %total
---------------------------------------------------------------
Pair    | 0.51255    | 1.4131     | 1.837      |  32.0 | 72.78
Neigh   | 0          | 0          | 0          |   0.0 |  0.00
Comm    | 0.031918   | 0.31664    | 0.96661    |  47.8 | 16.31
Output  | 0.0001406  | 0.00014466 | 0.00027699 |   0.0 |  0.01
Modify  | 2.0605e-05 | 0.0027698  | 0.0058922  |   2.5 |  0.14
Other   |            | 0.2089     |            |       | 10.76

Nlocal:        2776.45 ave        3957 max           0 min
Histogram: 8 4 4 0 4 12 8 2 28 34
Nghost:        3879.06 ave        5424 max         232 min
Histogram: 8 0 8 0 16 0 8 8 16 40
Neighs:        79213.5 ave      115335 max           0 min
Histogram: 8 4 4 0 10 6 8 8 24 32

Total # of neighbors = 8238201
Ave neighs/atom = 28.530467
Neighbor list builds = 0
Dangerous builds = 0
The dot product: 8.59585633829075e-08
Setting atom values ...
  1 settings made for x
  1 settings made for y
  1 settings made for z
Setting up cg style minimization ...
  Unit style    : metal
  Current step  : 3066
Per MPI rank memory allocation (min/avg/max) = 5.441 | 5.816 | 6.074 Mbytes
Step PotEng KinEng TotEng v_fx v_fy v_fz 
    3066   -1152448.9            0   -1152448.9 -0.067948734  0.056659612 -0.0022418926 
    3223   -1152448.9            0   -1152448.9 2.0637832e-05 -2.1913221e-05 2.7140822e-07 
Loop time of 1.8199 on 104 procs for 157 steps with 288751 atoms

99.9% CPU use with 104 MPI tasks x 1 OpenMP threads

Minimization stats:
  Stopping criterion = energy tolerance
  Energy initial, next-to-last, final = 
     -1152448.91869719  -1152448.92057177  -1152448.92057177
  Force two-norm initial, final = 0.20318291 0.00018399274
  Force max component initial, final = 0.07984576 3.0870831e-05
  Final line search alpha, max atom move = 1.0000000 3.0870831e-05
  Iterations, force evaluations = 157 314

MPI task timing breakdown:
Section |  min time  |  avg time  |  max time  |%varavg| %total
---------------------------------------------------------------
Pair    | 0.47863    | 1.316      | 1.7162     |  30.9 | 72.31
Neigh   | 0          | 0          | 0          |   0.0 |  0.00
Comm    | 0.026597   | 0.2959     | 0.89924    |  45.8 | 16.26
Output  | 0          | 0          | 0          |   0.0 |  0.00
Modify  | 1.9792e-05 | 0.0025932  | 0.0055324  |   2.4 |  0.14
Other   |            | 0.2055     |            |       | 11.29

Nlocal:        2776.45 ave        3957 max           0 min
Histogram: 8 4 4 0 4 12 8 2 28 34
Nghost:        3879.13 ave        5424 max         232 min
Histogram: 8 0 8 0 16 0 8 8 16 40
Neighs:        79213.5 ave      115338 max           0 min
Histogram: 8 4 4 0 10 6 8 8 24 32

Total # of neighbors = 8238199
Ave neighs/atom = 28.530461
Neighbor list builds = 0
Dangerous builds = 0
The dot product: -1.6002347761806e-07
Setting atom values ...
  1 settings made for x
  1 settings made for y
  1 settings made for z
Setting up cg style minimization ...
  Unit style    : metal
  Current step  : 3223
Per MPI rank memory allocation (min/avg/max) = 5.441 | 5.816 | 6.074 Mbytes
Step PotEng KinEng TotEng v_fx v_fy v_fz 
    3223   -1152448.9            0   -1152448.9 -0.060795698  0.060180394 -0.0026364466 
    3394   -1152448.9            0   -1152448.9 -8.3101939e-06 1.0609227e-05 -1.7958042e-07 
Loop time of 1.985 on 104 procs for 171 steps with 288751 atoms

99.9% CPU use with 104 MPI tasks x 1 OpenMP threads

Minimization stats:
  Stopping criterion = energy tolerance
  Energy initial, next-to-last, final = 
      -1152448.9091707  -1152448.91103801  -1152448.91103801
  Force two-norm initial, final = 0.20105923 0.00012016187
  Force max component initial, final = 0.081673192 2.9989567e-05
  Final line search alpha, max atom move = 1.0000000 2.9989567e-05
  Iterations, force evaluations = 171 342

MPI task timing breakdown:
Section |  min time  |  avg time  |  max time  |%varavg| %total
---------------------------------------------------------------
Pair    | 0.52229    | 1.4428     | 1.8775     |  32.3 | 72.68
Neigh   | 0          | 0          | 0          |   0.0 |  0.00
Comm    | 0.029189   | 0.32559    | 0.98576    |  48.1 | 16.40
Output  | 0          | 0          | 0          |   0.0 |  0.00
Modify  | 2.103e-05  | 0.0028249  | 0.0060403  |   2.5 |  0.14
Other   |            | 0.2138     |            |       | 10.77

Nlocal:        2776.45 ave        3957 max           0 min
Histogram: 8 4 4 0 4 12 8 2 28 34
Nghost:        3879.13 ave        5425 max         232 min
Histogram: 8 0 8 0 16 0 8 8 16 40
Neighs:        79213.4 ave      115338 max           0 min
Histogram: 8 4 4 0 10 6 8 8 24 32

Total # of neighbors = 8238198
Ave neighs/atom = 28.530457
Neighbor list builds = 0
Dangerous builds = 0
The dot product: 6.00625035979886e-08
Setting atom values ...
  1 settings made for x
  1 settings made for y
  1 settings made for z
Setting up cg style minimization ...
  Unit style    : metal
  Current step  : 3394
Per MPI rank memory allocation (min/avg/max) = 5.441 | 5.816 | 6.074 Mbytes
Step PotEng KinEng TotEng v_fx v_fy v_fz 
    3394   -1152448.9            0   -1152448.9 -0.057089076  0.061963268 -0.0031802712 
    3579   -1152448.9            0   -1152448.9 2.1646676e-06 -4.7707889e-06 -3.6268926e-08 
Loop time of 2.1327 on 104 procs for 185 steps with 288751 atoms

99.9% CPU use with 104 MPI tasks x 1 OpenMP threads

Minimization stats:
  Stopping criterion = energy tolerance
  Energy initial, next-to-last, final = 
      -1152448.8982811  -1152448.90014588  -1152448.90014588
  Force two-norm initial, final = 0.19990432 8.9152285e-05
  Force max component initial, final = 0.083419945 1.6406969e-05
  Final line search alpha, max atom move = 1.0000000 1.6406969e-05
  Iterations, force evaluations = 185 370

MPI task timing breakdown:
Section |  min time  |  avg time  |  max time  |%varavg| %total
---------------------------------------------------------------
Pair    | 0.56273    | 1.5521     | 2.0181     |  33.6 | 72.78
Neigh   | 0          | 0          | 0          |   0.0 |  0.00
Comm    | 0.031181   | 0.34967    | 1.066      |  50.1 | 16.40
Output  | 0          | 0          | 0          |   0.0 |  0.00
Modify  | 2.3474e-05 | 0.0030499  | 0.0064922  |   2.6 |  0.14
Other   |            | 0.2279     |            |       | 10.68

Nlocal:        2776.45 ave        3957 max           0 min
Histogram: 8 4 4 0 4 12 8 2 28 34
Nghost:        3879.21 ave        5426 max         232 min
Histogram: 8 0 8 0 16 0 8 8 16 40
Neighs:        79213.5 ave      115337 max           0 min
Histogram: 8 4 4 0 10 6 8 8 24 32

Total # of neighbors = 8238199
Ave neighs/atom = 28.530461
Neighbor list builds = 0
Dangerous builds = 0
The dot product: -1.93222566336808e-08
Setting atom values ...
  1 settings made for x
  1 settings made for y
  1 settings made for z
Setting up cg style minimization ...
  Unit style    : metal
  Current step  : 3579
Per MPI rank memory allocation (min/avg/max) = 5.441 | 5.816 | 6.074 Mbytes
Step PotEng KinEng TotEng v_fx v_fy v_fz 
    3579   -1152448.9            0   -1152448.9 -0.054154064  0.062667815 -0.0036041581 
    3837   -1152448.9            0   -1152448.9 -9.2181415e-09 1.331737e-07 6.1754141e-09 
Loop time of 2.99935 on 104 procs for 258 steps with 288751 atoms

99.9% CPU use with 104 MPI tasks x 1 OpenMP threads

Minimization stats:
  Stopping criterion = energy tolerance
  Energy initial, next-to-last, final = 
     -1152448.88604532   -1152448.8879404   -1152448.8879404
  Force two-norm initial, final = 0.19902418 9.3540298e-06
  Force max component initial, final = 0.084989327 2.6156212e-06
  Final line search alpha, max atom move = 1.0000000 2.6156212e-06
  Iterations, force evaluations = 258 516

MPI task timing breakdown:
Section |  min time  |  avg time  |  max time  |%varavg| %total
---------------------------------------------------------------
Pair    | 0.78632    | 2.1802     | 2.8312     |  39.7 | 72.69
Neigh   | 0          | 0          | 0          |   0.0 |  0.00
Comm    | 0.044126   | 0.49319    | 1.4802     |  58.9 | 16.44
Output  | 0          | 0          | 0          |   0.0 |  0.00
Modify  | 3.1214e-05 | 0.004252   | 0.0091014  |   3.1 |  0.14
Other   |            | 0.3217     |            |       | 10.73

Nlocal:        2776.45 ave        3957 max           0 min
Histogram: 8 4 4 0 4 12 8 2 28 34
Nghost:        3879.21 ave        5426 max         232 min
Histogram: 8 0 8 0 16 0 8 8 16 40
Neighs:        79213.4 ave      115331 max           0 min
Histogram: 8 4 4 0 10 6 8 8 24 32

Total # of neighbors = 8238198
Ave neighs/atom = 28.530457
Neighbor list builds = 0
Dangerous builds = 0
The dot product: 2.18854905014357e-10
Setting atom values ...
  1 settings made for x
  1 settings made for y
  1 settings made for z
Setting up cg style minimization ...
  Unit style    : metal
  Current step  : 3837
Per MPI rank memory allocation (min/avg/max) = 5.441 | 5.816 | 6.074 Mbytes
Step PotEng KinEng TotEng v_fx v_fy v_fz 
    3837   -1152448.9            0   -1152448.9 -0.050859517  0.060996553 -0.0035834173 
    4000   -1152448.9            0   -1152448.9 2.5328663e-06 -1.448011e-06 2.5965682e-07 
    4173   -1152448.9            0   -1152448.9 -1.1230711e-07 1.4366916e-07 -7.4542816e-09 
Loop time of 3.89203 on 104 procs for 336 steps with 288751 atoms

99.9% CPU use with 104 MPI tasks x 1 OpenMP threads

Minimization stats:
  Stopping criterion = energy tolerance
  Energy initial, next-to-last, final = 
     -1152448.87260083  -1152448.87497751  -1152448.87497751
  Force two-norm initial, final = 0.19787876 6.6468905e-07
  Force max component initial, final = 0.086039742 2.3968472e-07
  Final line search alpha, max atom move = 1.0000000 2.3968472e-07
  Iterations, force evaluations = 336 672

MPI task timing breakdown:
Section |  min time  |  avg time  |  max time  |%varavg| %total
---------------------------------------------------------------
Pair    | 1.0222     | 2.8244     | 3.6709     |  45.4 | 72.57
Neigh   | 0          | 0          | 0          |   0.0 |  0.00
Comm    | 0.060686   | 0.64237    | 1.9461     |  67.0 | 16.50
Output  | 0.00010823 | 0.00011449 | 0.00026693 |   0.0 |  0.00
Modify  | 4.2439e-05 | 0.0055316  | 0.011791   |   3.5 |  0.14
Other   |            | 0.4196     |            |       | 10.78

Nlocal:        2776.45 ave        3957 max           0 min
Histogram: 8 4 4 0 4 12 8 2 28 34
Nghost:        3879.20 ave        5426 max         232 min
Histogram: 8 0 8 0 16 0 8 8 16 40
Neighs:        79213.4 ave      115331 max           0 min
Histogram: 8 4 4 0 10 6 8 8 24 32

Total # of neighbors = 8238193
Ave neighs/atom = 28.530440
Neighbor list builds = 0
Dangerous builds = 0
The dot product: -2.71137648275118e-09
Setting atom values ...
  1 settings made for x
  1 settings made for y
  1 settings made for z
Setting up cg style minimization ...
  Unit style    : metal
  Current step  : 4173
Per MPI rank memory allocation (min/avg/max) = 5.441 | 5.816 | 6.074 Mbytes
Step PotEng KinEng TotEng v_fx v_fy v_fz 
    4173   -1152448.9            0   -1152448.9 -0.038776388  0.039566665 -0.0010234829 
    4357   -1152448.9            0   -1152448.9 4.1073441e-05 -4.7710911e-05 6.0290225e-07 
Loop time of 2.13511 on 104 procs for 184 steps with 288751 atoms

99.9% CPU use with 104 MPI tasks x 1 OpenMP threads

Minimization stats:
  Stopping criterion = energy tolerance
  Energy initial, next-to-last, final = 
     -1152448.85937859   -1152448.8617968   -1152448.8617968
  Force two-norm initial, final = 0.19309481 0.00019606726
  Force max component initial, final = 0.082678813 5.1620533e-05
  Final line search alpha, max atom move = 1.0000000 5.1620533e-05
  Iterations, force evaluations = 184 368

MPI task timing breakdown:
Section |  min time  |  avg time  |  max time  |%varavg| %total
---------------------------------------------------------------
Pair    | 0.56032    | 1.5448     | 2.025      |  33.5 | 72.35
Neigh   | 0          | 0          | 0          |   0.0 |  0.00
Comm    | 0.031104   | 0.3481     | 1.0539     |  49.5 | 16.30
Output  | 0          | 0          | 0          |   0.0 |  0.00
Modify  | 2.355e-05  | 0.003033   | 0.0064761  |   2.6 |  0.14
Other   |            | 0.2392     |            |       | 11.20

Nlocal:        2776.45 ave        3957 max           0 min
Histogram: 8 4 4 0 4 12 8 2 28 34
Nghost:        3879.19 ave        5426 max         232 min
Histogram: 8 0 8 0 16 0 8 8 16 40
Neighs:        79213.4 ave      115331 max           0 min
Histogram: 8 4 4 0 10 6 8 8 24 32

Total # of neighbors = 8238193
Ave neighs/atom = 28.530440
Neighbor list builds = 0
Dangerous builds = 0
The dot product: 9.4866572227761e-07
Setting atom values ...
  1 settings made for x
  1 settings made for y
  1 settings made for z
Setting up cg style minimization ...
  Unit style    : metal
  Current step  : 4357
Per MPI rank memory allocation (min/avg/max) = 5.441 | 5.816 | 6.074 Mbytes
Step PotEng KinEng TotEng v_fx v_fy v_fz 
    4357   -1152448.8            0   -1152448.8 -0.037651599  0.040545673 0.0011949808 
    4532   -1152448.8            0   -1152448.8 -5.343261e-07 -7.4666119e-06 -8.9050154e-07 
Loop time of 2.0162 on 104 procs for 175 steps with 288751 atoms

99.9% CPU use with 104 MPI tasks x 1 OpenMP threads

Minimization stats:
  Stopping criterion = energy tolerance
  Energy initial, next-to-last, final = 
     -1152448.84519016  -1152448.84726405  -1152448.84726405
  Force two-norm initial, final = 0.19619806 0.00020024511
  Force max component initial, final = 0.0795577 5.0512221e-05
  Final line search alpha, max atom move = 1.0000000 5.0512221e-05
  Iterations, force evaluations = 175 350

MPI task timing breakdown:
Section |  min time  |  avg time  |  max time  |%varavg| %total
---------------------------------------------------------------
Pair    | 0.53171    | 1.4667     | 1.9073     |  32.7 | 72.75
Neigh   | 0          | 0          | 0          |   0.0 |  0.00
Comm    | 0.029471   | 0.33094    | 1.0012     |  48.4 | 16.41
Output  | 0          | 0          | 0          |   0.0 |  0.00
Modify  | 2.1858e-05 | 0.0028834  | 0.006156   |   2.5 |  0.14
Other   |            | 0.2157     |            |       | 10.70

Nlocal:        2776.45 ave        3956 max           0 min
Histogram: 8 4 4 0 4 12 8 2 28 34
Nghost:        3879.20 ave        5426 max         232 min
Histogram: 8 0 8 0 16 0 8 8 16 40
Neighs:        79213.4 ave      115296 max           0 min
Histogram: 8 4 4 0 10 6 8 8 24 32

Total # of neighbors = 8238192
Ave neighs/atom = 28.530436
Neighbor list builds = 0
Dangerous builds = 0
The dot product: 5.62235686571826e-08
Setting atom values ...
  1 settings made for x
  1 settings made for y
  1 settings made for z
Setting up cg style minimization ...
  Unit style    : metal
  Current step  : 4532
Per MPI rank memory allocation (min/avg/max) = 5.441 | 5.816 | 6.074 Mbytes
Step PotEng KinEng TotEng v_fx v_fy v_fz 
    4532   -1152448.8            0   -1152448.8 -0.039293615    0.0478589 0.0034078554 
    4780   -1152448.8            0   -1152448.8 -2.9902945e-06 3.081448e-06 1.8564721e-07 
Loop time of 2.87515 on 104 procs for 248 steps with 288751 atoms

99.9% CPU use with 104 MPI tasks x 1 OpenMP threads

Minimization stats:
  Stopping criterion = energy tolerance
  Energy initial, next-to-last, final = 
     -1152448.82928248  -1152448.83143428  -1152448.83143428
  Force two-norm initial, final = 0.2002484 1.7632777e-05
  Force max component initial, final = 0.077573384 3.0814480e-06
  Final line search alpha, max atom move = 1.0000000 3.0814480e-06
  Iterations, force evaluations = 248 496

MPI task timing breakdown:
Section |  min time  |  avg time  |  max time  |%varavg| %total
---------------------------------------------------------------
Pair    | 0.75577    | 2.089      | 2.7147     |  38.9 | 72.66
Neigh   | 0          | 0          | 0          |   0.0 |  0.00
Comm    | 0.042103   | 0.47291    | 1.4386     |  58.1 | 16.45
Output  | 0          | 0          | 0          |   0.0 |  0.00
Modify  | 3.0301e-05 | 0.0040919  | 0.0087144  |   3.0 |  0.14
Other   |            | 0.3091     |            |       | 10.75

Nlocal:        2776.45 ave        3956 max           0 min
Histogram: 8 4 4 0 4 12 8 2 28 34
Nghost:        3879.09 ave        5424 max         232 min
Histogram: 8 0 8 0 16 0 8 8 16 40
Neighs:        79213.4 ave      115291 max           0 min
Histogram: 8 4 4 0 10 6 8 8 24 32

Total # of neighbors = 8238191
Ave neighs/atom = 28.530433
Neighbor list builds = 0
Dangerous builds = 0
The dot product: -4.46762939848258e-08
Setting atom values ...
  1 settings made for x
  1 settings made for y
  1 settings made for z
Setting up cg style minimization ...
  Unit style    : metal
  Current step  : 4780
Per MPI rank memory allocation (min/avg/max) = 5.441 | 5.816 | 6.074 Mbytes
Step PotEng KinEng TotEng v_fx v_fy v_fz 
    4780   -1152448.8            0   -1152448.8 -0.037948061  0.049918778  0.005206877 
    4981   -1152448.8            0   -1152448.8 1.0201041e-05 -1.0999743e-05 -1.0428128e-06 
Loop time of 2.31287 on 104 procs for 201 steps with 288751 atoms

99.9% CPU use with 104 MPI tasks x 1 OpenMP threads

Minimization stats:
  Stopping criterion = energy tolerance
  Energy initial, next-to-last, final = 
      -1152448.8121993  -1152448.81422858  -1152448.81422858
  Force two-norm initial, final = 0.20237127 9.5382601e-05
  Force max component initial, final = 0.080814775 2.2846454e-05
  Final line search alpha, max atom move = 1.0000000 2.2846454e-05
  Iterations, force evaluations = 201 402

MPI task timing breakdown:
Section |  min time  |  avg time  |  max time  |%varavg| %total
---------------------------------------------------------------
Pair    | 0.61215    | 1.6827     | 2.1927     |  34.9 | 72.75
Neigh   | 0          | 0          | 0          |   0.0 |  0.00
Comm    | 0.033722   | 0.37878    | 1.1534     |  52.0 | 16.38
Output  | 0          | 0          | 0          |   0.0 |  0.00
Modify  | 2.4565e-05 | 0.0033128  | 0.0070736  |   2.7 |  0.14
Other   |            | 0.2481     |            |       | 10.73

Nlocal:        2776.45 ave        3956 max           0 min
Histogram: 8 4 4 0 4 12 8 2 28 34
Nghost:        3879.12 ave        5424 max         232 min
Histogram: 8 0 8 0 16 0 8 8 16 40
Neighs:        79213.4 ave      115296 max           0 min
Histogram: 8 4 4 0 10 6 8 8 24 32

Total # of neighbors = 8238192
Ave neighs/atom = 28.530436
Neighbor list builds = 0
Dangerous builds = 0
The dot product: 8.73425828283588e-08
Setting atom values ...
  1 settings made for x
  1 settings made for y
  1 settings made for z
Setting up cg style minimization ...
  Unit style    : metal
  Current step  : 4981
Per MPI rank memory allocation (min/avg/max) = 5.441 | 5.816 | 6.074 Mbytes
Step PotEng KinEng TotEng v_fx v_fy v_fz 
    4981   -1152448.8            0   -1152448.8 -0.042675285  0.057103152 0.0068600274 
    5000   -1152448.8            0   -1152448.8 0.0005647488 -0.00071370675 -8.426441e-05 
    5234   -1152448.8            0   -1152448.8 1.7934642e-06 -1.6775787e-06 -1.7613785e-07 
Loop time of 2.93032 on 104 procs for 253 steps with 288751 atoms

99.9% CPU use with 104 MPI tasks x 1 OpenMP threads

Minimization stats:
  Stopping criterion = energy tolerance
  Energy initial, next-to-last, final = 
     -1152448.79360414  -1152448.79559156  -1152448.79559156
  Force two-norm initial, final = 0.20608807 9.5690034e-06
  Force max component initial, final = 0.082636516 2.7379127e-06
  Final line search alpha, max atom move = 1.0000000 2.7379127e-06
  Iterations, force evaluations = 253 506

MPI task timing breakdown:
Section |  min time  |  avg time  |  max time  |%varavg| %total
---------------------------------------------------------------
Pair    | 0.77274    | 2.1382     | 2.7642     |  39.3 | 72.97
Neigh   | 0          | 0          | 0          |   0.0 |  0.00
Comm    | 0.04599    | 0.48175    | 1.4608     |  58.7 | 16.44
Output  | 0.00019292 | 0.00019715 | 0.00027908 |   0.0 |  0.01
Modify  | 3.0948e-05 | 0.0041746  | 0.008933   |   3.1 |  0.14
Other   |            | 0.306      |            |       | 10.44

Nlocal:        2776.45 ave        3955 max           0 min
Histogram: 8 4 4 0 4 12 8 2 28 34
Nghost:        3879.12 ave        5424 max         232 min
Histogram: 8 0 8 0 16 0 8 8 16 40
Neighs:        79213.4 ave      115263 max           0 min
Histogram: 8 4 4 0 10 6 8 8 24 32

Total # of neighbors = 8238190
Ave neighs/atom = 28.530429
Neighbor list builds = 0
Dangerous builds = 0
The dot product: 6.44654409630023e-09
Setting atom values ...
  1 settings made for x
  1 settings made for y
  1 settings made for z
Setting up cg style minimization ...
  Unit style    : metal
  Current step  : 5234
Per MPI rank memory allocation (min/avg/max) = 5.441 | 5.816 | 6.074 Mbytes
Step PotEng KinEng TotEng v_fx v_fy v_fz 
    5234   -1152448.8            0   -1152448.8 -0.046156317  0.062649384 0.0079359479 
    5431   -1152448.8            0   -1152448.8 1.4720683e-05 -1.5719971e-05 -1.860502e-06 
Loop time of 2.27587 on 104 procs for 197 steps with 288751 atoms

99.9% CPU use with 104 MPI tasks x 1 OpenMP threads

Minimization stats:
  Stopping criterion = energy tolerance
  Energy initial, next-to-last, final = 
     -1152448.77356555  -1152448.77546197  -1152448.77546197
  Force two-norm initial, final = 0.20862173 7.2368562e-05
  Force max component initial, final = 0.083377943 1.7239460e-05
  Final line search alpha, max atom move = 1.0000000 1.7239460e-05
  Iterations, force evaluations = 197 394

MPI task timing breakdown:
Section |  min time  |  avg time  |  max time  |%varavg| %total
---------------------------------------------------------------
Pair    | 0.5988     | 1.6503     | 2.1524     |  34.6 | 72.51
Neigh   | 0          | 0          | 0          |   0.0 |  0.00
Comm    | 0.033301   | 0.37348    | 1.1337     |  51.3 | 16.41
Output  | 0          | 0          | 0          |   0.0 |  0.00
Modify  | 2.48e-05   | 0.003245   | 0.0069093  |   2.7 |  0.14
Other   |            | 0.2488     |            |       | 10.93

Nlocal:        2776.45 ave        3955 max           0 min
Histogram: 8 4 4 0 4 12 8 2 28 34
Nghost:        3879.09 ave        5424 max         232 min
Histogram: 8 0 8 0 16 0 8 8 16 40
Neighs:        79213.3 ave      115263 max           0 min
Histogram: 8 4 4 0 10 6 8 8 24 32

Total # of neighbors = 8238188
Ave neighs/atom = 28.530422
Neighbor list builds = 0
Dangerous builds = 0
The dot product: -2.1566571204069e-08
Setting atom values ...
  1 settings made for x
  1 settings made for y
  1 settings made for z
Setting up cg style minimization ...
  Unit style    : metal
  Current step  : 5431
Per MPI rank memory allocation (min/avg/max) = 5.441 | 5.816 | 6.074 Mbytes
Step PotEng KinEng TotEng v_fx v_fy v_fz 
    5431   -1152448.8            0   -1152448.8 -0.049362848  0.068768003 0.0085554365 
    5594   -1152448.8            0   -1152448.8 2.3802892e-05 -3.015764e-05 -3.6657217e-06 
Loop time of 1.88394 on 104 procs for 163 steps with 288751 atoms

99.9% CPU use with 104 MPI tasks x 1 OpenMP threads

Minimization stats:
  Stopping criterion = energy tolerance
  Energy initial, next-to-last, final = 
     -1152448.75193877  -1152448.75380415  -1152448.75380415
  Force two-norm initial, final = 0.21065065 0.00012103927
  Force max component initial, final = 0.082924563 4.0525711e-05
  Final line search alpha, max atom move = 1.0000000 4.0525711e-05
  Iterations, force evaluations = 163 326

MPI task timing breakdown:
Section |  min time  |  avg time  |  max time  |%varavg| %total
---------------------------------------------------------------
Pair    | 0.4956     | 1.374      | 1.7857     |  31.6 | 72.93
Neigh   | 0          | 0          | 0          |   0.0 |  0.00
Comm    | 0.02819    | 0.31186    | 0.93754    |  46.7 | 16.55
Output  | 0          | 0          | 0          |   0.0 |  0.00
Modify  | 2.0705e-05 | 0.0026921  | 0.0057319  |   2.4 |  0.14
Other   |            | 0.1954     |            |       | 10.37

Nlocal:        2776.45 ave        3955 max           0 min
Histogram: 8 4 4 0 4 12 8 2 28 34
Nghost:        3879.11 ave        5424 max         232 min
Histogram: 8 0 8 0 16 0 8 8 16 40
Neighs:        79213.3 ave      115263 max           0 min
Histogram: 8 4 4 0 10 6 8 8 24 32

Total # of neighbors = 8238188
Ave neighs/atom = 28.530422
Neighbor list builds = 0
Dangerous builds = 0
The dot product: -1.36529459584426e-07
Setting atom values ...
  1 settings made for x
  1 settings made for y
  1 settings made for z
Setting up cg style minimization ...
  Unit style    : metal
  Current step  : 5594
Per MPI rank memory allocation (min/avg/max) = 5.441 | 5.816 | 6.074 Mbytes
Step PotEng KinEng TotEng v_fx v_fy v_fz 
    5594   -1152448.7            0   -1152448.7 -0.051447835  0.072642995 0.0084488988 
    5877   -1152448.7            0   -1152448.7 -2.1202798e-07 2.4220264e-07 2.653247e-08 
Loop time of 3.26833 on 104 procs for 283 steps with 288751 atoms

99.9% CPU use with 104 MPI tasks x 1 OpenMP threads

Minimization stats:
  Stopping criterion = energy tolerance
  Energy initial, next-to-last, final = 
     -1152448.72878182  -1152448.73062477  -1152448.73062477
  Force two-norm initial, final = 0.21133285 1.5302720e-06
  Force max component initial, final = 0.081697592 4.6826442e-07
  Final line search alpha, max atom move = 1.0000000 4.6826442e-07
  Iterations, force evaluations = 283 566

MPI task timing breakdown:
Section |  min time  |  avg time  |  max time  |%varavg| %total
---------------------------------------------------------------
Pair    | 0.86258    | 2.3805     | 3.0995     |  41.6 | 72.84
Neigh   | 0          | 0          | 0          |   0.0 |  0.00
Comm    | 0.047921   | 0.5389     | 1.6275     |  61.5 | 16.49
Output  | 0          | 0          | 0          |   0.0 |  0.00
Modify  | 3.5463e-05 | 0.004657   | 0.0099382  |   3.2 |  0.14
Other   |            | 0.3442     |            |       | 10.53

Nlocal:        2776.45 ave        3955 max           0 min
Histogram: 8 4 4 0 4 12 8 2 28 34
Nghost:        3879.11 ave        5424 max         232 min
Histogram: 8 0 8 0 16 0 8 8 16 40
Neighs:        79213.3 ave      115264 max           0 min
Histogram: 8 4 4 0 10 6 8 8 24 32

Total # of neighbors = 8238187
Ave neighs/atom = 28.530419
Neighbor list builds = 0
Dangerous builds = 0
The dot product: 1.57208007718356e-09
Setting atom values ...
  1 settings made for x
  1 settings made for y
  1 settings made for z
Setting up cg style minimization ...
  Unit style    : metal
  Current step  : 5877
Per MPI rank memory allocation (min/avg/max) = 5.441 | 5.816 | 6.074 Mbytes
Step PotEng KinEng TotEng v_fx v_fy v_fz 
    5877   -1152448.7            0   -1152448.7 -0.053104942  0.074485017 0.0077927238 
    6000   -1152448.7            0   -1152448.7  0.000230078 -0.00029011249 -2.9373702e-05 
    6064   -1152448.7            0   -1152448.7 -5.7848713e-07 -3.9164464e-08 -2.962467e-08 
Loop time of 2.17313 on 104 procs for 187 steps with 288751 atoms

99.9% CPU use with 104 MPI tasks x 1 OpenMP threads

Minimization stats:
  Stopping criterion = energy tolerance
  Energy initial, next-to-last, final = 
     -1152448.70412263  -1152448.70593839  -1152448.70593839
  Force two-norm initial, final = 0.21102557 5.3365752e-05
  Force max component initial, final = 0.080038805 4.2859354e-06
  Final line search alpha, max atom move = 1.0000000 4.2859354e-06
  Iterations, force evaluations = 187 374

MPI task timing breakdown:
Section |  min time  |  avg time  |  max time  |%varavg| %total
---------------------------------------------------------------
Pair    | 0.56719    | 1.5742     | 2.0611     |  33.9 | 72.44
Neigh   | 0          | 0          | 0          |   0.0 |  0.00
Comm    | 0.031751   | 0.35916    | 1.089      |  50.2 | 16.53
Output  | 0.00011518 | 0.00012414 | 0.00026227 |   0.0 |  0.01
Modify  | 2.2723e-05 | 0.0030883  | 0.0065614  |   2.6 |  0.14
Other   |            | 0.2366     |            |       | 10.89

Nlocal:        2776.45 ave        3955 max           0 min
Histogram: 8 4 4 0 4 12 8 2 28 34
Nghost:        3879.11 ave        5424 max         232 min
Histogram: 8 0 8 0 16 0 8 8 16 40
Neighs:        79213.3 ave      115272 max           0 min
Histogram: 8 4 4 0 10 6 8 8 24 32

Total # of neighbors = 8238187
Ave neighs/atom = 28.530419
Neighbor list builds = 0
Dangerous builds = 0
The dot product: 5.66634573454339e-10
Setting atom values ...
  1 settings made for x
  1 settings made for y
  1 settings made for z
Setting up cg style minimization ...
  Unit style    : metal
  Current step  : 6064
Per MPI rank memory allocation (min/avg/max) = 5.441 | 5.816 | 6.074 Mbytes
Step PotEng KinEng TotEng v_fx v_fy v_fz 
    6064   -1152448.7            0   -1152448.7 -0.054762361  0.074590426 0.0067524851 
    6270   -1152448.7            0   -1152448.7 5.7522109e-07 -1.2878819e-06 -1.3309612e-07 
Loop time of 2.36856 on 104 procs for 206 steps with 288751 atoms

99.9% CPU use with 104 MPI tasks x 1 OpenMP threads

Minimization stats:
  Stopping criterion = energy tolerance
  Energy initial, next-to-last, final = 
     -1152448.67798491   -1152448.6797659   -1152448.6797659
  Force two-norm initial, final = 0.20996818 4.2244108e-05
  Force max component initial, final = 0.079969609 3.4884493e-06
  Final line search alpha, max atom move = 1.0000000 3.4884493e-06
  Iterations, force evaluations = 206 412

MPI task timing breakdown:
Section |  min time  |  avg time  |  max time  |%varavg| %total
---------------------------------------------------------------
Pair    | 0.62628    | 1.7285     | 2.2457     |  35.5 | 72.98
Neigh   | 0          | 0          | 0          |   0.0 |  0.00
Comm    | 0.034808   | 0.39015    | 1.1846     |  52.7 | 16.47
Output  | 0          | 0          | 0          |   0.0 |  0.00
Modify  | 2.5439e-05 | 0.0033981  | 0.0072271  |   2.7 |  0.14
Other   |            | 0.2465     |            |       | 10.41

Nlocal:        2776.45 ave        3955 max           0 min
Histogram: 8 4 4 0 4 12 8 2 28 34
Nghost:        3879.12 ave        5424 max         232 min
Histogram: 8 0 8 0 16 0 8 8 16 40
Neighs:        79213.3 ave      115270 max           0 min
Histogram: 8 4 4 0 10 6 8 8 24 32

Total # of neighbors = 8238186
Ave neighs/atom = 28.530415
Neighbor list builds = 0
Dangerous builds = 0
The dot product: -1.00876011722523e-08
Setting atom values ...
  1 settings made for x
  1 settings made for y
  1 settings made for z
Setting up cg style minimization ...
  Unit style    : metal
  Current step  : 6270
Per MPI rank memory allocation (min/avg/max) = 5.441 | 5.816 | 6.074 Mbytes
Step PotEng KinEng TotEng v_fx v_fy v_fz 
    6270   -1152448.7            0   -1152448.7 -0.056690926  0.073125598 0.0054433959 
    6422   -1152448.7            0   -1152448.7 2.9442059e-06 2.0293758e-06 3.668448e-07 
Loop time of 1.7754 on 104 procs for 152 steps with 288751 atoms

99.9% CPU use with 104 MPI tasks x 1 OpenMP threads

Minimization stats:
  Stopping criterion = energy tolerance
  Energy initial, next-to-last, final = 
     -1152448.65039431  -1152448.65213431  -1152448.65213431
  Force two-norm initial, final = 0.20843329 0.00018782422
  Force max component initial, final = 0.081826189 3.5281828e-05
  Final line search alpha, max atom move = 1.0000000 3.5281828e-05
  Iterations, force evaluations = 152 304

MPI task timing breakdown:
Section |  min time  |  avg time  |  max time  |%varavg| %total
---------------------------------------------------------------
Pair    | 0.46366    | 1.2794     | 1.6725     |  30.4 | 72.06
Neigh   | 0          | 0          | 0          |   0.0 |  0.00
Comm    | 0.025789   | 0.29079    | 0.87852    |  45.0 | 16.38
Output  | 0          | 0          | 0          |   0.0 |  0.00
Modify  | 1.9017e-05 | 0.0025111  | 0.0053601  |   2.4 |  0.14
Other   |            | 0.2027     |            |       | 11.42

Nlocal:        2776.45 ave        3956 max           0 min
Histogram: 8 4 4 0 4 12 8 2 28 34
Nghost:        3879.14 ave        5424 max         232 min
Histogram: 8 0 8 0 16 0 8 8 16 40
Neighs:        79213.3 ave      115306 max           0 min
Histogram: 8 4 4 0 10 6 8 8 24 32

Total # of neighbors = 8238188
Ave neighs/atom = 28.530422
Neighbor list builds = 0
Dangerous builds = 0
The dot product: 7.36554532579026e-09
Setting atom values ...
  1 settings made for x
  1 settings made for y
  1 settings made for z
Setting up cg style minimization ...
  Unit style    : metal
  Current step  : 6422
Per MPI rank memory allocation (min/avg/max) = 5.441 | 5.816 | 6.074 Mbytes
Step PotEng KinEng TotEng v_fx v_fy v_fz 
    6422   -1152448.6            0   -1152448.6  -0.05916649   0.07003372 0.0039249039 
    6587   -1152448.6            0   -1152448.6 -2.9557724e-05 3.941464e-05 2.4025238e-06 
Loop time of 1.90811 on 104 procs for 165 steps with 288751 atoms

99.9% CPU use with 104 MPI tasks x 1 OpenMP threads

Minimization stats:
  Stopping criterion = energy tolerance
  Energy initial, next-to-last, final = 
      -1152448.6213822  -1152448.62307825  -1152448.62307825
  Force two-norm initial, final = 0.20660908 0.00012228933
  Force max component initial, final = 0.083711621 3.9414640e-05
  Final line search alpha, max atom move = 1.0000000 3.9414640e-05
  Iterations, force evaluations = 165 330

MPI task timing breakdown:
Section |  min time  |  avg time  |  max time  |%varavg| %total
---------------------------------------------------------------
Pair    | 0.51343    | 1.3854     | 1.7978     |  31.4 | 72.60
Neigh   | 0          | 0          | 0          |   0.0 |  0.00
Comm    | 0.027882   | 0.31231    | 0.94471    |  46.9 | 16.37
Output  | 0          | 0          | 0          |   0.0 |  0.00
Modify  | 2.0624e-05 | 0.0027195  | 0.0058041  |   2.5 |  0.14
Other   |            | 0.2077     |            |       | 10.89

Nlocal:        2776.45 ave        3956 max           0 min
Histogram: 8 4 4 0 4 12 8 2 28 34
Nghost:        3879.12 ave        5424 max         232 min
Histogram: 8 0 8 0 16 0 8 8 16 40
Neighs:        79213.3 ave      115306 max           0 min
Histogram: 8 4 4 0 10 6 8 8 24 32

Total # of neighbors = 8238188
Ave neighs/atom = 28.530422
Neighbor list builds = 0
Dangerous builds = 0
The dot product: 3.74925353397442e-07
Setting atom values ...
  1 settings made for x
  1 settings made for y
  1 settings made for z
Setting up cg style minimization ...
  Unit style    : metal
  Current step  : 6587
Per MPI rank memory allocation (min/avg/max) = 5.441 | 5.816 | 6.074 Mbytes
Step PotEng KinEng TotEng v_fx v_fy v_fz 
    6587   -1152448.6            0   -1152448.6 -0.062329797  0.065310639 0.0022417918 
    6763   -1152448.6            0   -1152448.6 8.9668194e-06 -1.0419427e-05 -4.1319913e-07 
Loop time of 2.04247 on 104 procs for 176 steps with 288751 atoms

99.9% CPU use with 104 MPI tasks x 1 OpenMP threads

Minimization stats:
  Stopping criterion = energy tolerance
  Energy initial, next-to-last, final = 
     -1152448.59099136  -1152448.59264487  -1152448.59264487
  Force two-norm initial, final = 0.20474528 8.4636125e-05
  Force max component initial, final = 0.08563415 1.6266187e-05
  Final line search alpha, max atom move = 1.0000000 1.6266187e-05
  Iterations, force evaluations = 176 352

MPI task timing breakdown:
Section |  min time  |  avg time  |  max time  |%varavg| %total
---------------------------------------------------------------
Pair    | 0.53741    | 1.4878     | 1.9247     |  32.8 | 72.84
Neigh   | 0          | 0          | 0          |   0.0 |  0.00
Comm    | 0.030226   | 0.33941    | 1.0258     |  48.8 | 16.62
Output  | 0          | 0          | 0          |   0.0 |  0.00
Modify  | 2.24e-05   | 0.0029068  | 0.006227   |   2.5 |  0.14
Other   |            | 0.2124     |            |       | 10.40

Nlocal:        2776.45 ave        3957 max           0 min
Histogram: 8 4 4 0 4 12 8 2 28 34
Nghost:        3879.05 ave        5424 max         232 min
Histogram: 8 0 8 0 16 0 8 8 16 40
Neighs:        79213.3 ave      115320 max           0 min
Histogram: 8 4 4 0 10 6 8 8 24 32

Total # of neighbors = 8238186
Ave neighs/atom = 28.530415
Neighbor list builds = 0
Dangerous builds = 0
The dot product: -1.09825801324824e-07
Setting atom values ...
  1 settings made for x
  1 settings made for y
  1 settings made for z
Setting up cg style minimization ...
  Unit style    : metal
  Current step  : 6763
Per MPI rank memory allocation (min/avg/max) = 5.441 | 5.816 | 6.074 Mbytes
Step PotEng KinEng TotEng v_fx v_fy v_fz 
    6763   -1152448.6            0   -1152448.6 -0.065583238  0.059210914 0.0004608286 
    6919   -1152448.6            0   -1152448.6 3.6610661e-05 -5.5115075e-05 -1.9878346e-06 
Loop time of 1.80102 on 104 procs for 156 steps with 288751 atoms

99.9% CPU use with 104 MPI tasks x 1 OpenMP threads

Minimization stats:
  Stopping criterion = energy tolerance
  Energy initial, next-to-last, final = 
     -1152448.55931733  -1152448.56093168  -1152448.56093168
  Force two-norm initial, final = 0.20257603 0.00016008448
  Force max component initial, final = 0.087526469 5.5115075e-05
  Final line search alpha, max atom move = 1.0000000 5.5115075e-05
  Iterations, force evaluations = 156 312

MPI task timing breakdown:
Section |  min time  |  avg time  |  max time  |%varavg| %total
---------------------------------------------------------------
Pair    | 0.47615    | 1.3079     | 1.7069     |  30.8 | 72.62
Neigh   | 0          | 0          | 0          |   0.0 |  0.00
Comm    | 0.026718   | 0.29469    | 0.89637    |  45.8 | 16.36
Output  | 0          | 0          | 0          |   0.0 |  0.00
Modify  | 1.952e-05  | 0.0025734  | 0.0054929  |   2.4 |  0.14
Other   |            | 0.1958     |            |       | 10.87

Nlocal:        2776.45 ave        3957 max           0 min
Histogram: 8 4 4 0 4 12 8 2 28 34
Nghost:        3879.03 ave        5424 max         232 min
Histogram: 8 0 8 0 16 0 8 8 16 40
Neighs:        79213.4 ave      115322 max           0 min
Histogram: 8 4 4 0 10 6 8 8 24 32

Total # of neighbors = 8238192
Ave neighs/atom = 28.530436
Neighbor list builds = 0
Dangerous builds = 0
The dot product: -5.74545333151307e-07
Setting atom values ...
  1 settings made for x
  1 settings made for y
  1 settings made for z
Setting up cg style minimization ...
  Unit style    : metal
  Current step  : 6919
Per MPI rank memory allocation (min/avg/max) = 5.441 | 5.816 | 6.074 Mbytes
Step PotEng KinEng TotEng v_fx v_fy v_fz 
    6919   -1152448.5            0   -1152448.5  -0.07667642   0.04766501 -0.0023805468 
    7000   -1152448.6            0   -1152448.6  0.002237671 -0.0024786413 -6.8978661e-06 
    7177   -1152448.6            0   -1152448.6 -4.1747047e-05 4.6962396e-05 1.7922502e-07 
Loop time of 3.01639 on 104 procs for 258 steps with 288751 atoms

99.9% CPU use with 104 MPI tasks x 1 OpenMP threads

Minimization stats:
  Stopping criterion = energy tolerance
  Energy initial, next-to-last, final = 
     -1152448.52661314  -1152448.61437101  -1152448.61437101
  Force two-norm initial, final = 0.20280561 0.00020463854
  Force max component initial, final = 0.089313552 6.6704983e-05
  Final line search alpha, max atom move = 1.0000000 6.6704983e-05
  Iterations, force evaluations = 258 515

MPI task timing breakdown:
Section |  min time  |  avg time  |  max time  |%varavg| %total
---------------------------------------------------------------
Pair    | 0.79684    | 2.1784     | 2.8194     |  39.6 | 72.22
Neigh   | 3.0555e-05 | 0.0088885  | 0.012929   |   3.9 |  0.29
Comm    | 0.04502    | 0.49221    | 1.4868     |  59.1 | 16.32
Output  | 0.0001162  | 0.00012932 | 0.00026352 |   0.0 |  0.00
Modify  | 3.1311e-05 | 0.0042586  | 0.0090877  |   3.1 |  0.14
Other   |            | 0.3325     |            |       | 11.02

Nlocal:        2776.45 ave        3957 max           0 min
Histogram: 8 4 4 0 4 12 8 2 28 34
Nghost:        3879.07 ave        5424 max         232 min
Histogram: 8 0 8 0 16 0 8 8 16 40
Neighs:        79213.5 ave      115328 max           0 min
Histogram: 8 4 4 0 10 6 8 8 24 32

Total # of neighbors = 8238201
Ave neighs/atom = 28.530467
Neighbor list builds = 3
Dangerous builds = 0
The dot product: 6.46193261589997e-06
Setting atom values ...
  1 settings made for x
  1 settings made for y
  1 settings made for z
Setting up cg style minimization ...
  Unit style    : metal
  Current step  : 7177
Per MPI rank memory allocation (min/avg/max) = 5.441 | 5.816 | 6.074 Mbytes
Step PotEng KinEng TotEng v_fx v_fy v_fz 
    7177   -1152448.6            0   -1152448.6  -0.16427007 4.0043461e-05 -0.086143772 
    7485     -1152449            0     -1152449 -1.3495281e-05 -1.1354226e-05 -1.0058219e-05 
Loop time of 3.57259 on 104 procs for 308 steps with 288751 atoms

99.9% CPU use with 104 MPI tasks x 1 OpenMP threads

Minimization stats:
  Stopping criterion = energy tolerance
  Energy initial, next-to-last, final = 
     -1152448.60765779  -1152448.99768832  -1152448.99768832
  Force two-norm initial, final = 0.23220869 0.00010988729
  Force max component initial, final = 0.16427007 2.7622650e-05
  Final line search alpha, max atom move = 1.0000000 2.7622650e-05
  Iterations, force evaluations = 308 614

MPI task timing breakdown:
Section |  min time  |  avg time  |  max time  |%varavg| %total
---------------------------------------------------------------
Pair    | 0.96168    | 2.5809     | 3.3566     |  42.7 | 72.24
Neigh   | 7.0505e-05 | 0.020734   | 0.030151   |   5.9 |  0.58
Comm    | 0.053718   | 0.58263    | 1.7662     |  64.0 | 16.31
Output  | 0          | 0          | 0          |   0.0 |  0.00
Modify  | 3.8817e-05 | 0.0050688  | 0.010809   |   3.4 |  0.14
Other   |            | 0.3832     |            |       | 10.73

Nlocal:        2776.45 ave        3960 max           0 min
Histogram: 8 4 4 0 4 12 8 2 28 34
Nghost:        3879.10 ave        5425 max         232 min
Histogram: 8 0 8 0 16 0 8 8 16 40
Neighs:        79213.6 ave      115438 max           0 min
Histogram: 8 4 4 0 10 6 8 8 24 32

Total # of neighbors = 8238218
Ave neighs/atom = 28.530526
Neighbor list builds = 7
Dangerous builds = 0
The dot product: 6.32578385399167e-06
Setting atom values ...
  1 settings made for x
  1 settings made for y
  1 settings made for z
Setting up cg style minimization ...
  Unit style    : metal
  Current step  : 7485
Per MPI rank memory allocation (min/avg/max) = 5.441 | 5.816 | 6.074 Mbytes
Step PotEng KinEng TotEng v_fx v_fy v_fz 
    7485     -1152449            0     -1152449   0.38735756  -0.45703894   0.81277153 
    7737   -1152449.2            0   -1152449.2 -3.3005437e-05 1.4782854e-06 -6.2665937e-05 
Loop time of 2.97298 on 104 procs for 252 steps with 288751 atoms

99.9% CPU use with 104 MPI tasks x 1 OpenMP threads

Minimization stats:
  Stopping criterion = energy tolerance
  Energy initial, next-to-last, final = 
     -1152449.02125281  -1152449.18282182  -1152449.18282182
  Force two-norm initial, final = 1.0213278 0.00019399658
  Force max component initial, final = 0.81277153 6.2665937e-05
  Final line search alpha, max atom move = 1.0000000 6.2665937e-05
  Iterations, force evaluations = 252 504

MPI task timing breakdown:
Section |  min time  |  avg time  |  max time  |%varavg| %total
---------------------------------------------------------------
Pair    | 0.77423    | 2.1258     | 2.7801     |  39.1 | 71.50
Neigh   | 2.0235e-05 | 0.0059128  | 0.0085867  |   3.2 |  0.20
Comm    | 0.042956   | 0.48118    | 1.445      |  57.8 | 16.19
Output  | 0          | 0          | 0          |   0.0 |  0.00
Modify  | 3.1353e-05 | 0.0041517  | 0.0088779  |   3.0 |  0.14
Other   |            | 0.356      |            |       | 11.97

Nlocal:        2776.45 ave        3961 max           0 min
Histogram: 8 4 4 0 6 10 8 6 24 34
Nghost:        3879.20 ave        5426 max         232 min
Histogram: 8 0 8 0 16 0 8 8 16 40
Neighs:        79213.5 ave      115425 max           0 min
Histogram: 8 4 4 0 10 6 8 8 24 32

Total # of neighbors = 8238206
Ave neighs/atom = 28.530485
Neighbor list builds = 2
Dangerous builds = 0
The dot product: -1.85765206523421e-05
Setting atom values ...
  1 settings made for x
  1 settings made for y
  1 settings made for z
Setting up cg style minimization ...
  Unit style    : metal
  Current step  : 7737
Per MPI rank memory allocation (min/avg/max) = 5.441 | 5.816 | 6.074 Mbytes
Step PotEng KinEng TotEng v_fx v_fy v_fz 
    7737   -1152449.2            0   -1152449.2  -0.25851959   0.27026499  -0.24641734 
    7965   -1152449.2            0   -1152449.2 -7.6430317e-06 -2.2919796e-05 -1.2174668e-05 
Loop time of 2.64347 on 104 procs for 228 steps with 288751 atoms

99.9% CPU use with 104 MPI tasks x 1 OpenMP threads

Minimization stats:
  Stopping criterion = energy tolerance
  Energy initial, next-to-last, final = 
     -1152449.20672078  -1152449.23278877  -1152449.23278877
  Force two-norm initial, final = 0.47851612 0.00014195266
  Force max component initial, final = 0.27026499 2.7463419e-05
  Final line search alpha, max atom move = 1.0000000 2.7463419e-05
  Iterations, force evaluations = 228 456

MPI task timing breakdown:
Section |  min time  |  avg time  |  max time  |%varavg| %total
---------------------------------------------------------------
Pair    | 0.69735    | 1.915      | 2.4898     |  37.3 | 72.44
Neigh   | 1.2062e-05 | 0.0029629  | 0.0043434  |   2.3 |  0.11
Comm    | 0.038963   | 0.43388    | 1.3129     |  55.1 | 16.41
Output  | 0          | 0          | 0          |   0.0 |  0.00
Modify  | 2.8734e-05 | 0.003755   | 0.0080215  |   2.9 |  0.14
Other   |            | 0.2878     |            |       | 10.89

Nlocal:        2776.45 ave        3960 max           0 min
Histogram: 8 4 4 0 4 12 8 6 24 34
Nghost:        3879.18 ave        5426 max         232 min
Histogram: 8 0 8 0 16 0 8 8 16 40
Neighs:        79213.4 ave      115413 max           0 min
Histogram: 8 4 4 0 10 6 8 8 24 32

Total # of neighbors = 8238192
Ave neighs/atom = 28.530436
Neighbor list builds = 1
Dangerous builds = 1
The dot product: -6.7622665216457e-07
Setting atom values ...
  1 settings made for x
  1 settings made for y
  1 settings made for z
Setting up cg style minimization ...
  Unit style    : metal
  Current step  : 7965
Per MPI rank memory allocation (min/avg/max) = 5.441 | 5.816 | 6.074 Mbytes
Step PotEng KinEng TotEng v_fx v_fy v_fz 
    7965   -1152449.3            0   -1152449.3  0.042747302 -0.070376248  0.052724464 
    8000   -1152449.3            0   -1152449.3 -0.00039691095 -0.00021323001 -0.00053195444 
    8196   -1152449.3            0   -1152449.3 6.4408162e-06 5.9830673e-07 8.4921898e-06 
Loop time of 2.67974 on 104 procs for 231 steps with 288751 atoms

99.9% CPU use with 104 MPI tasks x 1 OpenMP threads

Minimization stats:
  Stopping criterion = energy tolerance
  Energy initial, next-to-last, final = 
     -1152449.25418042  -1152449.25861599  -1152449.25861599
  Force two-norm initial, final = 0.1863316 4.8890558e-05
  Force max component initial, final = 0.08804366 8.4921898e-06
  Final line search alpha, max atom move = 1.0000000 8.4921898e-06
  Iterations, force evaluations = 231 462

MPI task timing breakdown:
Section |  min time  |  avg time  |  max time  |%varavg| %total
---------------------------------------------------------------
Pair    | 0.7026     | 1.9462     | 2.5403     |  37.6 | 72.62
Neigh   | 0          | 0          | 0          |   0.0 |  0.00
Comm    | 0.039132   | 0.44288    | 1.3458     |  56.1 | 16.53
Output  | 0.000105   | 0.00010753 | 0.00019765 |   0.0 |  0.00
Modify  | 2.9063e-05 | 0.0038119  | 0.0081862  |   2.9 |  0.14
Other   |            | 0.2868     |            |       | 10.70

Nlocal:        2776.45 ave        3961 max           0 min
Histogram: 8 4 4 0 6 10 8 6 24 34
Nghost:        3879.14 ave        5426 max         232 min
Histogram: 8 0 8 0 16 0 8 8 16 40
Neighs:        79213.5 ave      115431 max           0 min
Histogram: 8 4 4 0 10 6 8 8 24 32

Total # of neighbors = 8238204
Ave neighs/atom = 28.530478
Neighbor list builds = 0
Dangerous builds = 0
The dot product: 2.84755919510412e-07
Setting atom values ...
  1 settings made for x
  1 settings made for y
  1 settings made for z
Setting up cg style minimization ...
  Unit style    : metal
  Current step  : 8196
Per MPI rank memory allocation (min/avg/max) = 5.441 | 5.816 | 6.074 Mbytes
Step PotEng KinEng TotEng v_fx v_fy v_fz 
    8196   -1152449.3            0   -1152449.3 -0.038197355  0.051814238 -0.042856756 
[...]
Histogram: 8 0 8 0 16 0 8 8 16 40
Neighs:        79213.4 ave      115214 max           0 min
Histogram: 8 4 4 0 10 6 8 6 24 34

Total # of neighbors = 8238195
Ave neighs/atom = 28.530447
Neighbor list builds = 0
Dangerous builds = 0
The dot product: -1.47153587245927e-09
Setting atom values ...
  1 settings made for x
  1 settings made for y
  1 settings made for z
Setting up cg style minimization ...
  Unit style    : metal
  Current step  : 28340
Per MPI rank memory allocation (min/avg/max) = 5.441 | 5.816 | 6.075 Mbytes
Step PotEng KinEng TotEng v_fx v_fy v_fz 
   28340   -1152449.4            0   -1152449.4  0.026163738  0.015074103  0.031553829 
   28521   -1152449.4            0   -1152449.4 -3.0141509e-05 3.1974252e-06 -3.7354052e-05 
Loop time of 2.09483 on 104 procs for 181 steps with 288751 atoms

99.9% CPU use with 104 MPI tasks x 1 OpenMP threads

Minimization stats:
  Stopping criterion = energy tolerance
  Energy initial, next-to-last, final = 
     -1152449.41257348   -1152449.4140852   -1152449.4140852
  Force two-norm initial, final = 0.17777044 0.00015614013
  Force max component initial, final = 0.08153499 3.7354052e-05
  Final line search alpha, max atom move = 1.0000000 3.7354052e-05
  Iterations, force evaluations = 181 362

MPI task timing breakdown:
Section |  min time  |  avg time  |  max time  |%varavg| %total
---------------------------------------------------------------
Pair    | 0.54861    | 1.5163     | 1.9852     |  33.3 | 72.38
Neigh   | 0          | 0          | 0          |   0.0 |  0.00
Comm    | 0.031082   | 0.3406     | 1.026      |  48.9 | 16.26
Output  | 0          | 0          | 0          |   0.0 |  0.00
Modify  | 2.1732e-05 | 0.0029941  | 0.0063778  |   2.6 |  0.14
Other   |            | 0.235      |            |       | 11.22

Nlocal:        2776.45 ave        3958 max           0 min
Histogram: 8 4 4 0 4 12 8 4 24 36
Nghost:        3879.11 ave        5436 max         232 min
Histogram: 8 0 8 0 16 0 8 8 16 40
Neighs:        79213.5 ave      115214 max           0 min
Histogram: 8 4 4 0 10 6 8 6 24 34

Total # of neighbors = 8238199
Ave neighs/atom = 28.530461
Neighbor list builds = 0
Dangerous builds = 0
The dot product: -5.59583693491021e-08
Setting atom values ...
  1 settings made for x
  1 settings made for y
  1 settings made for z
Setting up cg style minimization ...
  Unit style    : metal
  Current step  : 28521
Per MPI rank memory allocation (min/avg/max) = 5.441 | 5.816 | 6.075 Mbytes
Step PotEng KinEng TotEng v_fx v_fy v_fz 
   28521   -1152449.4            0   -1152449.4   0.03101555 0.0074265849  0.037948609 
   28703   -1152449.4            0   -1152449.4 -2.4613829e-06 -2.3009917e-05 -1.926389e-06 
Loop time of 2.1115 on 104 procs for 182 steps with 288751 atoms

99.9% CPU use with 104 MPI tasks x 1 OpenMP threads

Minimization stats:
  Stopping criterion = energy tolerance
  Energy initial, next-to-last, final = 
     -1152449.41343641  -1152449.41497372  -1152449.41497372
  Force two-norm initial, final = 0.17940903 0.00015060245
  Force max component initial, final = 0.080873229 2.3009917e-05
  Final line search alpha, max atom move = 1.0000000 2.3009917e-05
  Iterations, force evaluations = 182 364

MPI task timing breakdown:
Section |  min time  |  avg time  |  max time  |%varavg| %total
---------------------------------------------------------------
Pair    | 0.55345    | 1.5273     | 2.0009     |  33.4 | 72.33
Neigh   | 0          | 0          | 0          |   0.0 |  0.00
Comm    | 0.030083   | 0.34529    | 1.0524     |  49.3 | 16.35
Output  | 0          | 0          | 0          |   0.0 |  0.00
Modify  | 2.234e-05  | 0.0030135  | 0.0064176  |   2.6 |  0.14
Other   |            | 0.2359     |            |       | 11.17

Nlocal:        2776.45 ave        3958 max           0 min
Histogram: 8 4 4 0 4 12 8 4 24 36
Nghost:        3879.07 ave        5436 max         232 min
Histogram: 8 0 8 0 16 0 8 8 16 40
Neighs:        79213.4 ave      115215 max           0 min
Histogram: 8 4 4 0 10 6 8 6 24 34

Total # of neighbors = 8238196
Ave neighs/atom = 28.530450
Neighbor list builds = 0
Dangerous builds = 0
The dot product: 2.55426962925845e-09
Setting atom values ...
  1 settings made for x
  1 settings made for y
  1 settings made for z
Setting up cg style minimization ...
  Unit style    : metal
  Current step  : 28703
Per MPI rank memory allocation (min/avg/max) = 5.441 | 5.816 | 6.075 Mbytes
Step PotEng KinEng TotEng v_fx v_fy v_fz 
   28703   -1152449.4            0   -1152449.4  0.035144629 0.0029481765  0.043332588 
   28872   -1152449.4            0   -1152449.4 -2.4841002e-06 1.4650412e-05 -3.7859739e-06 
Loop time of 1.96784 on 104 procs for 169 steps with 288751 atoms

99.9% CPU use with 104 MPI tasks x 1 OpenMP threads

Minimization stats:
  Stopping criterion = energy tolerance
  Energy initial, next-to-last, final = 
     -1152449.41254186  -1152449.41410446  -1152449.41410446
  Force two-norm initial, final = 0.18130509 0.00024432314
  Force max component initial, final = 0.080061205 4.3432313e-05
  Final line search alpha, max atom move = 1.0000000 4.3432313e-05
  Iterations, force evaluations = 169 338

MPI task timing breakdown:
Section |  min time  |  avg time  |  max time  |%varavg| %total
---------------------------------------------------------------
Pair    | 0.51287    | 1.4172     | 1.8662     |  32.2 | 72.02
Neigh   | 0          | 0          | 0          |   0.0 |  0.00
Comm    | 0.029353   | 0.31973    | 0.95846    |  47.1 | 16.25
Output  | 0          | 0          | 0          |   0.0 |  0.00
Modify  | 2.0461e-05 | 0.0027874  | 0.0059328  |   2.5 |  0.14
Other   |            | 0.2281     |            |       | 11.59

Nlocal:        2776.45 ave        3958 max           0 min
Histogram: 8 4 4 0 4 12 8 4 24 36
Nghost:        3879.11 ave        5437 max         232 min
Histogram: 8 0 8 0 16 0 8 8 16 40
Neighs:        79213.5 ave      115222 max           0 min
Histogram: 8 4 4 0 10 6 8 6 24 34

Total # of neighbors = 8238199
Ave neighs/atom = 28.530461
Neighbor list builds = 0
Dangerous builds = 0
The dot product: -3.6984102546625e-08
Setting atom values ...
  1 settings made for x
  1 settings made for y
  1 settings made for z
Setting up cg style minimization ...
  Unit style    : metal
  Current step  : 28872
Per MPI rank memory allocation (min/avg/max) = 5.441 | 5.816 | 6.075 Mbytes
Step PotEng KinEng TotEng v_fx v_fy v_fz 
   28872   -1152449.4            0   -1152449.4  0.035100571 0.0043992165  0.043313617 
   29000   -1152449.4            0   -1152449.4 8.4259224e-05 -9.5004577e-05 0.0001091941 
   29049   -1152449.4            0   -1152449.4 -2.8168192e-05 4.0069196e-05 -3.6914826e-05 
Loop time of 2.04708 on 104 procs for 177 steps with 288751 atoms

99.9% CPU use with 104 MPI tasks x 1 OpenMP threads

Minimization stats:
  Stopping criterion = energy tolerance
  Energy initial, next-to-last, final = 
     -1152449.41002481  -1152449.41156552  -1152449.41156552
  Force two-norm initial, final = 0.18009341 0.00018235512
  Force max component initial, final = 0.079090356 4.6283279e-05
  Final line search alpha, max atom move = 1.0000000 4.6283279e-05
  Iterations, force evaluations = 177 354

MPI task timing breakdown:
Section |  min time  |  avg time  |  max time  |%varavg| %total
---------------------------------------------------------------
Pair    | 0.53869    | 1.4881     | 1.9395     |  33.0 | 72.69
Neigh   | 0          | 0          | 0          |   0.0 |  0.00
Comm    | 0.02934    | 0.33451    | 1.0325     |  48.8 | 16.34
Output  | 0.00010474 | 0.00011146 | 0.00027929 |   0.0 |  0.01
Modify  | 2.1905e-05 | 0.0029184  | 0.006243   |   2.6 |  0.14
Other   |            | 0.2215     |            |       | 10.82

Nlocal:        2776.45 ave        3958 max           0 min
Histogram: 8 4 4 0 4 12 8 4 24 36
Nghost:        3879.07 ave        5437 max         232 min
Histogram: 8 0 8 0 16 0 8 8 16 40
Neighs:        79213.5 ave      115212 max           0 min
Histogram: 8 4 4 0 10 6 8 6 24 34

Total # of neighbors = 8238202
Ave neighs/atom = 28.530471
Neighbor list builds = 0
Dangerous builds = 0
The dot product: -2.2690138629756e-07
Setting atom values ...
  1 settings made for x
  1 settings made for y
  1 settings made for z
Setting up cg style minimization ...
  Unit style    : metal
  Current step  : 29049
Per MPI rank memory allocation (min/avg/max) = 5.441 | 5.816 | 6.075 Mbytes
Step PotEng KinEng TotEng v_fx v_fy v_fz 
   29049   -1152449.4            0   -1152449.4    0.0341848 0.0074322643  0.042129718 
   29295   -1152449.4            0   -1152449.4 1.9466979e-06 -2.4728166e-06 2.5443782e-06 
Loop time of 2.85016 on 104 procs for 246 steps with 288751 atoms

99.9% CPU use with 104 MPI tasks x 1 OpenMP threads

Minimization stats:
  Stopping criterion = energy tolerance
  Energy initial, next-to-last, final = 
     -1152449.40584548  -1152449.40734599  -1152449.40734599
  Force two-norm initial, final = 0.17783628 1.0916796e-05
  Force max component initial, final = 0.078125913 2.5443782e-06
  Final line search alpha, max atom move = 1.0000000 2.5443782e-06
  Iterations, force evaluations = 246 492

MPI task timing breakdown:
Section |  min time  |  avg time  |  max time  |%varavg| %total
---------------------------------------------------------------
Pair    | 0.74695    | 2.0628     | 2.7016     |  38.9 | 72.38
Neigh   | 0          | 0          | 0          |   0.0 |  0.00
Comm    | 0.042869   | 0.46368    | 1.394      |  56.8 | 16.27
Output  | 0          | 0          | 0          |   0.0 |  0.00
Modify  | 2.939e-05  | 0.0040592  | 0.0086523  |   3.0 |  0.14
Other   |            | 0.3196     |            |       | 11.21

Nlocal:        2776.45 ave        3958 max           0 min
Histogram: 8 4 4 0 4 12 8 4 24 36
Nghost:        3879.03 ave        5437 max         232 min
Histogram: 8 0 8 0 16 0 8 8 16 40
Neighs:        79213.5 ave      115208 max           0 min
Histogram: 8 4 4 0 10 6 8 6 24 34

Total # of neighbors = 8238202
Ave neighs/atom = 28.530471
Neighbor list builds = 0
Dangerous builds = 0
The dot product: 1.38357079468327e-08
Setting atom values ...
  1 settings made for x
  1 settings made for y
  1 settings made for z
Setting up cg style minimization ...
  Unit style    : metal
  Current step  : 29295
Per MPI rank memory allocation (min/avg/max) = 5.441 | 5.816 | 6.075 Mbytes
Step PotEng KinEng TotEng v_fx v_fy v_fz 
   29295   -1152449.4            0   -1152449.4  0.033146513  0.011353581  0.040734091 
   29487   -1152449.4            0   -1152449.4 -2.9410555e-06 -2.1907024e-05 -2.5549232e-06 
Loop time of 2.23173 on 104 procs for 192 steps with 288751 atoms

99.9% CPU use with 104 MPI tasks x 1 OpenMP threads

Minimization stats:
  Stopping criterion = energy tolerance
  Energy initial, next-to-last, final = 
     -1152449.40000271  -1152449.40145452  -1152449.40145452
  Force two-norm initial, final = 0.17532702 0.00011188399
  Force max component initial, final = 0.07713011 2.1907024e-05
  Final line search alpha, max atom move = 1.0000000 2.1907024e-05
  Iterations, force evaluations = 192 384

MPI task timing breakdown:
Section |  min time  |  avg time  |  max time  |%varavg| %total
---------------------------------------------------------------
Pair    | 0.58422    | 1.6134     | 2.1167     |  34.3 | 72.29
Neigh   | 0          | 0          | 0          |   0.0 |  0.00
Comm    | 0.032758   | 0.36392    | 1.1025     |  50.4 | 16.31
Output  | 0          | 0          | 0          |   0.0 |  0.00
Modify  | 2.3228e-05 | 0.0031642  | 0.0067468  |   2.7 |  0.14
Other   |            | 0.2513     |            |       | 11.26

Nlocal:        2776.45 ave        3958 max           0 min
Histogram: 8 4 4 0 4 12 8 4 24 36
Nghost:        3879.03 ave        5437 max         232 min
Histogram: 8 0 8 0 16 0 8 8 16 40
Neighs:        79213.5 ave      115218 max           0 min
Histogram: 8 4 4 0 10 6 8 6 24 34

Total # of neighbors = 8238201
Ave neighs/atom = 28.530467
Neighbor list builds = 0
Dangerous builds = 0
The dot product: -2.3933635352248e-09
Setting atom values ...
  1 settings made for x
  1 settings made for y
  1 settings made for z
Setting up cg style minimization ...
  Unit style    : metal
  Current step  : 29487
Per MPI rank memory allocation (min/avg/max) = 5.441 | 5.816 | 6.075 Mbytes
Step PotEng KinEng TotEng v_fx v_fy v_fz 
   29487   -1152449.4            0   -1152449.4  0.031908389  0.016211494  0.039029473 
   29684   -1152449.4            0   -1152449.4 -1.4486333e-05 -6.3236756e-06 -1.7772152e-05 
Loop time of 2.27836 on 104 procs for 197 steps with 288751 atoms

99.9% CPU use with 104 MPI tasks x 1 OpenMP threads

Minimization stats:
  Stopping criterion = energy tolerance
  Energy initial, next-to-last, final = 
     -1152449.39253432  -1152449.39393174  -1152449.39393174
  Force two-norm initial, final = 0.17286812 9.8930858e-05
  Force max component initial, final = 0.076508685 1.7772152e-05
  Final line search alpha, max atom move = 1.0000000 1.7772152e-05
  Iterations, force evaluations = 197 394

MPI task timing breakdown:
Section |  min time  |  avg time  |  max time  |%varavg| %total
---------------------------------------------------------------
Pair    | 0.59888    | 1.6505     | 2.1592     |  34.7 | 72.44
Neigh   | 0          | 0          | 0          |   0.0 |  0.00
Comm    | 0.033386   | 0.37047    | 1.1189     |  50.9 | 16.26
Output  | 0          | 0          | 0          |   0.0 |  0.00
Modify  | 2.3947e-05 | 0.003248   | 0.0069201  |   2.7 |  0.14
Other   |            | 0.2542     |            |       | 11.16

Nlocal:        2776.45 ave        3957 max           0 min
Histogram: 8 4 4 0 4 12 8 4 24 36
Nghost:        3879.05 ave        5438 max         232 min
Histogram: 8 0 8 0 16 0 8 8 16 40
Neighs:        79213.5 ave      115196 max           0 min
Histogram: 8 4 4 0 10 6 8 6 24 34

Total # of neighbors = 8238201
Ave neighs/atom = 28.530467
Neighbor list builds = 0
Dangerous builds = 0
The dot product: -7.56289994173387e-08
Setting atom values ...
  1 settings made for x
  1 settings made for y
  1 settings made for z
Setting up cg style minimization ...
  Unit style    : metal
  Current step  : 29684
Per MPI rank memory allocation (min/avg/max) = 5.441 | 5.816 | 6.075 Mbytes
Step PotEng KinEng TotEng v_fx v_fy v_fz 
   29684   -1152449.4            0   -1152449.4  0.030315357  0.022869442  0.036779883 
   29942   -1152449.4            0   -1152449.4 6.3532858e-07 -1.4148927e-06 8.6749308e-07 
Loop time of 3.04405 on 104 procs for 258 steps with 288751 atoms

99.9% CPU use with 104 MPI tasks x 1 OpenMP threads

Minimization stats:
  Stopping criterion = energy tolerance
  Energy initial, next-to-last, final = 
      -1152449.3835186  -1152449.38485997  -1152449.38485997
  Force two-norm initial, final = 0.17078391 5.6899851e-06
  Force max component initial, final = 0.076987563 1.4148927e-06
  Final line search alpha, max atom move = 1.0000000 1.4148927e-06
  Iterations, force evaluations = 258 516

MPI task timing breakdown:
Section |  min time  |  avg time  |  max time  |%varavg| %total
---------------------------------------------------------------
Pair    | 0.78279    | 2.1697     | 2.8397     |  39.9 | 71.28
Neigh   | 0          | 0          | 0          |   0.0 |  0.00
Comm    | 0.052956   | 0.4985     | 1.5093     |  57.6 | 16.38
Output  | 0          | 0          | 0          |   0.0 |  0.00
Modify  | 3.0993e-05 | 0.0042555  | 0.0091065  |   3.1 |  0.14
Other   |            | 0.3716     |            |       | 12.21

Nlocal:        2776.45 ave        3957 max           0 min
Histogram: 8 4 4 0 4 12 8 4 24 36
Nghost:        3879.07 ave        5438 max         232 min
Histogram: 8 0 8 0 16 0 8 8 16 40
Neighs:        79213.5 ave      115193 max           0 min
Histogram: 8 4 4 0 10 6 8 6 24 34

Total # of neighbors = 8238199
Ave neighs/atom = 28.530461
Neighbor list builds = 0
Dangerous builds = 0
The dot product: 1.93041312726186e-09
Setting atom values ...
  1 settings made for x
  1 settings made for y
  1 settings made for z
Setting up cg style minimization ...
  Unit style    : metal
  Current step  : 29942
Per MPI rank memory allocation (min/avg/max) = 5.441 | 5.816 | 6.075 Mbytes
Step PotEng KinEng TotEng v_fx v_fy v_fz 
   29942   -1152449.4            0   -1152449.4   0.02799565  0.032869832  0.033450023 
   30000   -1152449.4            0   -1152449.4 0.00010354928 -4.2119699e-05 0.00013200822 
   30132   -1152449.4            0   -1152449.4 1.3608578e-05 -1.4777268e-05 1.7816406e-05 
Loop time of 2.19956 on 104 procs for 190 steps with 288751 atoms

99.9% CPU use with 104 MPI tasks x 1 OpenMP threads

Minimization stats:
  Stopping criterion = energy tolerance
  Energy initial, next-to-last, final = 
     -1152449.37315634  -1152449.37448288  -1152449.37448288
  Force two-norm initial, final = 0.17045063 8.2017856e-05
  Force max component initial, final = 0.077287301 2.0205406e-05
  Final line search alpha, max atom move = 1.0000000 2.0205406e-05
  Iterations, force evaluations = 190 380

MPI task timing breakdown:
Section |  min time  |  avg time  |  max time  |%varavg| %total
---------------------------------------------------------------
Pair    | 0.57949    | 1.5918     | 2.085      |  34.0 | 72.37
Neigh   | 0          | 0          | 0          |   0.0 |  0.00
Comm    | 0.032741   | 0.35608    | 1.0758     |  50.1 | 16.19
Output  | 0.00011356 | 0.00012041 | 0.00025663 |   0.0 |  0.01
Modify  | 2.3052e-05 | 0.0031359  | 0.0066835  |   2.6 |  0.14
Other   |            | 0.2484     |            |       | 11.29

Nlocal:        2776.45 ave        3957 max           0 min
Histogram: 8 4 4 0 4 12 8 4 24 36
Nghost:        3879.07 ave        5438 max         232 min
Histogram: 8 0 8 0 16 0 8 8 16 40
Neighs:        79213.4 ave      115193 max           0 min
Histogram: 8 4 4 0 10 6 8 6 24 34

Total # of neighbors = 8238197
Ave neighs/atom = 28.530454
Neighbor list builds = 0
Dangerous builds = 0
The dot product: 8.66019719887481e-09
Setting atom values ...
  1 settings made for x
  1 settings made for y
  1 settings made for z
Setting up cg style minimization ...
  Unit style    : metal
  Current step  : 30132
Per MPI rank memory allocation (min/avg/max) = 5.441 | 5.816 | 6.075 Mbytes
Step PotEng KinEng TotEng v_fx v_fy v_fz 
   30132   -1152449.4            0   -1152449.4  0.025291307  0.044613281  0.029599864 
   30214   -1152449.4            0   -1152449.4 1.4643306e-05 -2.0305354e-05 1.9390833e-05 
Loop time of 0.955639 on 104 procs for 82 steps with 288751 atoms

99.9% CPU use with 104 MPI tasks x 1 OpenMP threads

Minimization stats:
  Stopping criterion = energy tolerance
  Energy initial, next-to-last, final = 
     -1152449.36195584  -1152449.36360038  -1152449.36360038
  Force two-norm initial, final = 0.17373358 0.0002099304
  Force max component initial, final = 0.077103205 2.7031560e-05
  Final line search alpha, max atom move = 1.0000000 2.7031560e-05
  Iterations, force evaluations = 82 164

MPI task timing breakdown:
Section |  min time  |  avg time  |  max time  |%varavg| %total
---------------------------------------------------------------
Pair    | 0.2514     | 0.69059    | 0.90362    |  22.4 | 72.26
Neigh   | 0          | 0          | 0          |   0.0 |  0.00
Comm    | 0.013592   | 0.15655    | 0.47655    |  32.9 | 16.38
Output  | 0          | 0          | 0          |   0.0 |  0.00
Modify  | 1.0228e-05 | 0.0013615  | 0.0029274  |   1.7 |  0.14
Other   |            | 0.1071     |            |       | 11.21

Nlocal:        2776.45 ave        3957 max           0 min
Histogram: 8 4 4 0 4 12 8 4 24 36
Nghost:        3879.05 ave        5438 max         232 min
Histogram: 8 0 8 0 16 0 8 8 16 40
Neighs:        79213.4 ave      115193 max           0 min
Histogram: 8 4 4 0 10 6 8 6 24 34

Total # of neighbors = 8238198
Ave neighs/atom = 28.530457
Neighbor list builds = 0
Dangerous builds = 0
The dot product: -1.94165444016809e-07
