LAMMPS (29 Oct 2020)
OMP_NUM_THREADS environment is not set. Defaulting to 1 thread. (../comm.cpp:94)
  using 1 OpenMP thread(s) per MPI task
OMP_NUM_THREADS environment is not set. Defaulting to 1 thread. (../comm.cpp:94)
  using 1 OpenMP thread(s) per MPI task
Reading data file ...
  orthogonal box = (-122.39241 -121.13707 -37.090501) to (122.39241 121.13707 37.090501)
  13 by 4 by 1 MPI processor grid
  reading atoms ...
  288751 atoms
  read_data CPU = 0.678 seconds
199981 atoms in group inner
88770 atoms in group outer
1 atoms in group carbon
Neighbor list info ...
  update every 1 steps, delay 0 steps, check yes
  max neighbors/atom: 2000, page size: 100000
  master list distance cutoff = 5.6
  ghost atom cutoff = 5.6
  binsize = 2.8, bins = 88 87 27
  1 neighbor lists, perpetual/occasional/extra = 1 0 0
  (1) pair eam/alloy, perpetual
      attributes: half, newton on
      pair build: half/bin/atomonly/newton
      stencil: half/bin/3d/newton
      bin: standard
Setting up cg style minimization ...
  Unit style    : metal
  Current step  : 0
Per MPI rank memory allocation (min/avg/max) = 5.465 | 6.344 | 6.728 Mbytes
Step v_fx v_fy v_fz PotEng KinEng TotEng 
       0 -0.016863535    0.1255252 -0.021977453   -1152444.6            0   -1152444.6 
     253 -5.0128144e-06 1.6983386e-06 3.6518954e-06     -1152449            0     -1152449 
Loop time of 5.59935 on 52 procs for 253 steps with 288751 atoms

99.8% CPU use with 52 MPI tasks x 1 OpenMP threads

Minimization stats:
  Stopping criterion = energy tolerance
  Energy initial, next-to-last, final = 
     -1152444.63021989  -1152448.97218897  -1152448.97218897
  Force two-norm initial, final = 23.793737 0.00012106255
  Force max component initial, final = 13.971287 1.8879129e-05
  Final line search alpha, max atom move = 1.0000000 1.8879129e-05
  Iterations, force evaluations = 253 503

MPI task timing breakdown:
Section |  min time  |  avg time  |  max time  |%varavg| %total
---------------------------------------------------------------
Pair    | 1.5025     | 4.0236     | 5.2732     |  54.1 | 71.86
Neigh   | 0.0001874  | 0.052516   | 0.076197   |   9.6 |  0.94
Comm    | 0.080361   | 0.89007    | 2.7875     |  84.1 | 15.90
Output  | 0          | 0          | 0          |   0.0 |  0.00
Modify  | 8.2958e-05 | 0.0055278  | 0.014098   |   4.6 |  0.10
Other   |            | 0.6277     |            |       | 11.21

Nlocal:        5552.90 ave        7900 max           0 min
Histogram: 4 2 2 0 2 6 4 1 13 18
Nghost:        6213.62 ave        8769 max         412 min
Histogram: 4 0 4 0 8 0 4 5 7 20
Neighs:       158427.0 ave      230246 max           0 min
Histogram: 4 2 2 0 5 3 4 4 12 16

Total # of neighbors = 8238207
Ave neighs/atom = 28.530488
Neighbor list builds = 9
Dangerous builds = 0
Setting atom values ...
  1 settings made for x
  1 settings made for y
  1 settings made for z
Setting up cg style minimization ...
  Unit style    : metal
  Current step  : 253
Per MPI rank memory allocation (min/avg/max) = 5.465 | 6.344 | 6.728 Mbytes
Step PotEng KinEng TotEng v_fx v_fy v_fz 
     253     -1152449            0     -1152449 -0.026807145 -0.0095249533  0.028920942 
     432     -1152449            0     -1152449 -5.0459396e-05 -6.1076655e-06 7.6881532e-05 
Loop time of 4.01113 on 52 procs for 179 steps with 288751 atoms

99.9% CPU use with 52 MPI tasks x 1 OpenMP threads

Minimization stats:
  Stopping criterion = energy tolerance
  Energy initial, next-to-last, final = 
     -1152448.96851001  -1152448.97107488  -1152448.97107488
  Force two-norm initial, final = 0.21734709 0.00026909125
  Force max component initial, final = 0.090372812 7.8704067e-05
  Final line search alpha, max atom move = 1.0000000 7.8704067e-05
  Iterations, force evaluations = 179 358

MPI task timing breakdown:
Section |  min time  |  avg time  |  max time  |%varavg| %total
---------------------------------------------------------------
Pair    | 1.0219     | 2.8607     | 3.8366     |  46.8 | 71.32
Neigh   | 0          | 0          | 0          |   0.0 |  0.00
Comm    | 0.052137   | 0.64608    | 1.9887     |  69.9 | 16.11
Output  | 0          | 0          | 0          |   0.0 |  0.00
Modify  | 6.8405e-05 | 0.0059986  | 0.012641   |   3.6 |  0.15
Other   |            | 0.4983     |            |       | 12.42

Nlocal:        5552.90 ave        7900 max           0 min
Histogram: 4 2 2 0 2 6 4 0 14 18
Nghost:        6213.65 ave        8769 max         412 min
Histogram: 4 0 4 0 8 0 4 5 7 20
Neighs:       158427.0 ave      230241 max           0 min
Histogram: 4 2 2 0 5 3 4 4 12 16

Total # of neighbors = 8238206
Ave neighs/atom = 28.530485
Neighbor list builds = 0
Dangerous builds = 0
Setting atom values ...
  1 settings made for x
  1 settings made for y
  1 settings made for z
Setting up cg style minimization ...
  Unit style    : metal
  Current step  : 432
Per MPI rank memory allocation (min/avg/max) = 5.465 | 6.344 | 6.728 Mbytes
Step PotEng KinEng TotEng v_fx v_fy v_fz 
     432     -1152449            0     -1152449 -0.0011822472 0.0062007356 0.0063257421 
     714     -1152449            0     -1152449 8.1410418e-06 -9.0518683e-07 -9.2983235e-06 
Loop time of 6.19836 on 52 procs for 282 steps with 288751 atoms

99.9% CPU use with 52 MPI tasks x 1 OpenMP threads

Minimization stats:
  Stopping criterion = energy tolerance
  Energy initial, next-to-last, final = 
      -1152448.9677354  -1152448.96986519  -1152448.96986519
  Force two-norm initial, final = 0.14865643 4.7774795e-05
  Force max component initial, final = 0.075655903 9.3309530e-06
  Final line search alpha, max atom move = 1.0000000 9.3309530e-06
  Iterations, force evaluations = 282 564

MPI task timing breakdown:
Section |  min time  |  avg time  |  max time  |%varavg| %total
---------------------------------------------------------------
Pair    | 1.6059     | 4.4905     | 5.897      |  58.5 | 72.45
Neigh   | 0          | 0          | 0          |   0.0 |  0.00
Comm    | 0.084743   | 0.99116    | 3.1225     |  89.2 | 15.99
Output  | 0          | 0          | 0          |   0.0 |  0.00
Modify  | 0.00011237 | 0.0094317  | 0.020092   |   4.5 |  0.15
Other   |            | 0.7072     |            |       | 11.41

Nlocal:        5552.90 ave        7899 max           0 min
Histogram: 4 2 2 0 2 6 4 0 14 18
Nghost:        6213.65 ave        8769 max         412 min
Histogram: 4 0 4 0 8 0 4 5 7 20
Neighs:       158427.0 ave      230203 max           0 min
Histogram: 4 2 2 0 5 3 4 4 12 16

Total # of neighbors = 8238198
Ave neighs/atom = 28.530457
Neighbor list builds = 0
Dangerous builds = 0
The dot product: -2.35031505119437e-07
Setting atom values ...
  1 settings made for x
  1 settings made for y
  1 settings made for z
Setting up cg style minimization ...
  Unit style    : metal
  Current step  : 714
Per MPI rank memory allocation (min/avg/max) = 5.465 | 6.344 | 6.728 Mbytes
Step PotEng KinEng TotEng v_fx v_fy v_fz 
     714     -1152449            0     -1152449  0.020272722  0.010496494 -0.010039112 
     927     -1152449            0     -1152449 1.4579775e-05 -7.9018705e-07 -8.1520515e-06 
Loop time of 4.71403 on 52 procs for 213 steps with 288751 atoms

99.9% CPU use with 52 MPI tasks x 1 OpenMP threads

Minimization stats:
  Stopping criterion = energy tolerance
  Energy initial, next-to-last, final = 
     -1152448.96644929  -1152448.96873012  -1152448.96873012
  Force two-norm initial, final = 0.16584599 0.0001133336
  Force max component initial, final = 0.089082771 1.6378529e-05
  Final line search alpha, max atom move = 1.0000000 1.6378529e-05
  Iterations, force evaluations = 213 426

MPI task timing breakdown:
Section |  min time  |  avg time  |  max time  |%varavg| %total
---------------------------------------------------------------
Pair    | 1.1948     | 3.4042     | 4.5219     |  51.3 | 72.21
Neigh   | 0          | 0          | 0          |   0.0 |  0.00
Comm    | 0.058537   | 0.75766    | 2.3615     |  77.7 | 16.07
Output  | 0          | 0          | 0          |   0.0 |  0.00
Modify  | 7.3948e-05 | 0.0070292  | 0.014869   |   3.9 |  0.15
Other   |            | 0.5452     |            |       | 11.56

Nlocal:        5552.90 ave        7898 max           0 min
Histogram: 4 2 2 0 2 6 4 1 13 18
Nghost:        6213.71 ave        8770 max         412 min
Histogram: 4 0 4 0 8 0 4 5 7 20
Neighs:       158427.0 ave      230149 max           0 min
Histogram: 4 2 2 0 5 3 4 4 12 16

Total # of neighbors = 8238206
Ave neighs/atom = 28.530485
Neighbor list builds = 0
Dangerous builds = 0
The dot product: -1.85881423525869e-07
Setting atom values ...
  1 settings made for x
  1 settings made for y
  1 settings made for z
Setting up cg style minimization ...
  Unit style    : metal
  Current step  : 927
Per MPI rank memory allocation (min/avg/max) = 5.465 | 6.344 | 6.728 Mbytes
Step PotEng KinEng TotEng v_fx v_fy v_fz 
     927     -1152449            0     -1152449  0.033703807 0.0016916423 -0.013129122 
    1000   -1152449.2            0   -1152449.2 -0.050328633 0.0060864755  0.019287878 
    1251   -1152449.2            0   -1152449.2 1.6341931e-05 -4.0483932e-06 -6.1865094e-06 
Loop time of 7.07493 on 52 procs for 324 steps with 288751 atoms

99.9% CPU use with 52 MPI tasks x 1 OpenMP threads

Minimization stats:
  Stopping criterion = energy tolerance
  Energy initial, next-to-last, final = 
     -1152448.96457854  -1152449.19788487  -1152449.19788487
  Force two-norm initial, final = 0.17667564 0.00013093938
  Force max component initial, final = 0.087549978 3.6093956e-05
  Final line search alpha, max atom move = 1.0000000 3.6093956e-05
  Iterations, force evaluations = 324 648

MPI task timing breakdown:
Section |  min time  |  avg time  |  max time  |%varavg| %total
---------------------------------------------------------------
Pair    | 1.8667     | 5.1497     | 6.7559     |  62.3 | 72.79
Neigh   | 7.89e-05   | 0.022915   | 0.033595   |   6.4 |  0.32
Comm    | 0.08414    | 1.1321     | 3.5964     |  96.5 | 16.00
Output  | 0.0001867  | 0.00019075 | 0.00034106 |   0.0 |  0.00
Modify  | 0.00012452 | 0.010803   | 0.022723   |   4.9 |  0.15
Other   |            | 0.7593     |            |       | 10.73

Nlocal:        5552.90 ave        7883 max           0 min
Histogram: 4 2 2 0 2 6 4 1 12 19
Nghost:        6213.48 ave        8771 max         412 min
Histogram: 4 0 4 0 8 0 4 5 7 20
Neighs:       158428.0 ave      229605 max           0 min
Histogram: 4 2 2 0 5 3 4 4 11 17

Total # of neighbors = 8238276
Ave neighs/atom = 28.530727
Neighbor list builds = 4
Dangerous builds = 0
The dot product: -7.07346481646682e-07
Setting atom values ...
  1 settings made for x
  1 settings made for y
  1 settings made for z
Setting up cg style minimization ...
  Unit style    : metal
  Current step  : 1251
Per MPI rank memory allocation (min/avg/max) = 5.465 | 6.344 | 6.728 Mbytes
Step PotEng KinEng TotEng v_fx v_fy v_fz 
    1251   -1152449.2            0   -1152449.2  0.077079344  -0.01410127  0.001815214 
    1449   -1152449.2            0   -1152449.2 2.0840137e-05 -4.5314125e-07 1.629795e-07 
Loop time of 4.32707 on 52 procs for 198 steps with 288751 atoms

99.9% CPU use with 52 MPI tasks x 1 OpenMP threads

Minimization stats:
  Stopping criterion = energy tolerance
  Energy initial, next-to-last, final = 
     -1152449.19698503  -1152449.19965028  -1152449.19965028
  Force two-norm initial, final = 0.21067316 0.00010450188
  Force max component initial, final = 0.08114624 2.0840137e-05
  Final line search alpha, max atom move = 1.0000000 2.0840137e-05
  Iterations, force evaluations = 198 396

MPI task timing breakdown:
Section |  min time  |  avg time  |  max time  |%varavg| %total
---------------------------------------------------------------
Pair    | 1.1182     | 3.1508     | 4.1534     |  49.3 | 72.82
Neigh   | 0          | 0          | 0          |   0.0 |  0.00
Comm    | 0.05247    | 0.69843    | 2.2084     |  75.3 | 16.14
Output  | 0          | 0          | 0          |   0.0 |  0.00
Modify  | 7.1266e-05 | 0.0066133  | 0.014026   |   3.8 |  0.15
Other   |            | 0.4712     |            |       | 10.89

Nlocal:        5552.90 ave        7888 max           0 min
Histogram: 4 2 2 0 2 6 4 1 12 19
Nghost:        6213.90 ave        8774 max         412 min
Histogram: 4 0 4 0 8 0 4 5 7 20
Neighs:       158429.0 ave      229774 max           0 min
Histogram: 4 2 2 0 5 3 4 4 11 17

Total # of neighbors = 8238332
Ave neighs/atom = 28.530921
Neighbor list builds = 0
Dangerous builds = 0
The dot product: 3.07027543443417e-07
Setting atom values ...
  1 settings made for x
  1 settings made for y
  1 settings made for z
Setting up cg style minimization ...
  Unit style    : metal
  Current step  : 1449
Per MPI rank memory allocation (min/avg/max) = 5.465 | 6.344 | 6.728 Mbytes
Step PotEng KinEng TotEng v_fx v_fy v_fz 
    1449   -1152449.2            0   -1152449.2  0.038547224 -0.0038323903 -0.0040088331 
    1657   -1152449.2            0   -1152449.2 2.874269e-06 -3.8662356e-06 -8.1088409e-08 
Loop time of 4.5364 on 52 procs for 208 steps with 288751 atoms

99.9% CPU use with 52 MPI tasks x 1 OpenMP threads

Minimization stats:
  Stopping criterion = energy tolerance
  Energy initial, next-to-last, final = 
     -1152449.19781508  -1152449.20028013  -1152449.20028013
  Force two-norm initial, final = 0.19501491 0.00012529468
  Force max component initial, final = 0.08597109 3.0024458e-05
  Final line search alpha, max atom move = 1.0000000 3.0024458e-05
  Iterations, force evaluations = 208 416

MPI task timing breakdown:
Section |  min time  |  avg time  |  max time  |%varavg| %total
---------------------------------------------------------------
Pair    | 1.1788     | 3.304      | 4.3556     |  50.3 | 72.83
Neigh   | 0          | 0          | 0          |   0.0 |  0.00
Comm    | 0.055742   | 0.72677    | 2.2988     |  77.2 | 16.02
Output  | 0          | 0          | 0          |   0.0 |  0.00
Modify  | 8.0433e-05 | 0.00695    | 0.014648   |   3.9 |  0.15
Other   |            | 0.4986     |            |       | 10.99

Nlocal:        5552.90 ave        7886 max           0 min
Histogram: 4 2 2 0 2 6 4 1 12 19
Nghost:        6213.90 ave        8774 max         412 min
Histogram: 4 0 4 0 8 0 4 5 7 20
Neighs:       158429.0 ave      229710 max           0 min
Histogram: 4 2 2 0 5 3 4 4 11 17

Total # of neighbors = 8238324
Ave neighs/atom = 28.530893
Neighbor list builds = 0
Dangerous builds = 0
The dot product: 7.60395704210655e-09
Setting atom values ...
  1 settings made for x
  1 settings made for y
  1 settings made for z
Setting up cg style minimization ...
  Unit style    : metal
  Current step  : 1657
Per MPI rank memory allocation (min/avg/max) = 5.465 | 6.344 | 6.728 Mbytes
Step PotEng KinEng TotEng v_fx v_fy v_fz 
    1657   -1152449.2            0   -1152449.2  0.043432974 -6.4326158e-05 -0.0042330331 
    2000   -1152449.4            0   -1152449.4 8.3974932e-05 -4.9203224e-05 -6.3137591e-06 
    2045   -1152449.4            0   -1152449.4 8.4475026e-06 -4.2528295e-06 -6.6169291e-07 
Loop time of 8.62659 on 52 procs for 388 steps with 288751 atoms

99.9% CPU use with 52 MPI tasks x 1 OpenMP threads

Minimization stats:
  Stopping criterion = linesearch alpha is zero
  Energy initial, next-to-last, final = 
     -1152449.19780863  -1152449.40754353  -1152449.40754353
  Force two-norm initial, final = 0.19760566 0.00016745984
  Force max component initial, final = 0.086232192 3.3982932e-05
  Final line search alpha, max atom move = 0.25 8.4957330e-06
  Iterations, force evaluations = 388 779

MPI task timing breakdown:
Section |  min time  |  avg time  |  max time  |%varavg| %total
---------------------------------------------------------------
Pair    | 2.2717     | 6.2207     | 8.2045     |  68.3 | 72.11
Neigh   | 0.00017138 | 0.051599   | 0.07595    |   9.6 |  0.60
Comm    | 0.10311    | 1.3863     | 4.3379     | 104.6 | 16.07
Output  | 0.00020536 | 0.00021029 | 0.00036743 |   0.0 |  0.00
Modify  | 0.0001417  | 0.012984   | 0.02764    |   5.3 |  0.15
Other   |            | 0.9548     |            |       | 11.07

Nlocal:        5552.90 ave        7890 max           0 min
Histogram: 4 2 2 0 2 6 4 1 12 19
Nghost:        6214.08 ave        8773 max         412 min
Histogram: 4 0 4 0 8 0 4 5 7 20
Neighs:       158426.0 ave      229599 max           0 min
Histogram: 4 2 2 0 5 3 4 4 11 17

Total # of neighbors = 8238176
Ave neighs/atom = 28.530381
Neighbor list builds = 9
Dangerous builds = 0
The dot product: 6.46669033590812e-07
Setting atom values ...
  1 settings made for x
  1 settings made for y
  1 settings made for z
Setting up cg style minimization ...
  Unit style    : metal
  Current step  : 2045
Per MPI rank memory allocation (min/avg/max) = 5.465 | 6.344 | 6.728 Mbytes
Step PotEng KinEng TotEng v_fx v_fy v_fz 
    2045   -1152449.4            0   -1152449.4   -0.1830518 -7.6030894e-05   0.10496207 
    2260   -1152449.4            0   -1152449.4 3.1992302e-05 -3.0096291e-07 -1.8335377e-05 
Loop time of 4.66438 on 52 procs for 215 steps with 288751 atoms

99.9% CPU use with 52 MPI tasks x 1 OpenMP threads

Minimization stats:
  Stopping criterion = energy tolerance
  Energy initial, next-to-last, final = 
     -1152449.41508798  -1152449.42284302  -1152449.42284302
  Force two-norm initial, final = 0.28693578 0.000116227
  Force max component initial, final = 0.1830518 3.1992302e-05
  Final line search alpha, max atom move = 1.0000000 3.1992302e-05
  Iterations, force evaluations = 215 430

MPI task timing breakdown:
Section |  min time  |  avg time  |  max time  |%varavg| %total
---------------------------------------------------------------
Pair    | 1.217      | 3.4136     | 4.4824     |  51.2 | 73.18
Neigh   | 0          | 0          | 0          |   0.0 |  0.00
Comm    | 0.054798   | 0.74647    | 2.3762     |  79.0 | 16.00
Output  | 0          | 0          | 0          |   0.0 |  0.00
Modify  | 8.543e-05  | 0.007167   | 0.015097   |   3.9 |  0.15
Other   |            | 0.4972     |            |       | 10.66

Nlocal:        5552.90 ave        7890 max           0 min
Histogram: 4 2 2 0 2 6 4 2 11 19
Nghost:        6214.02 ave        8773 max         412 min
Histogram: 4 0 4 0 8 0 4 5 7 20
Neighs:       158427.0 ave      229550 max           0 min
Histogram: 4 2 2 0 5 3 4 4 10 18

Total # of neighbors = 8238194
Ave neighs/atom = 28.530443
Neighbor list builds = 0
Dangerous builds = 0
The dot product: -1.98012269365175e-06
Setting atom values ...
  1 settings made for x
  1 settings made for y
  1 settings made for z
Setting up cg style minimization ...
  Unit style    : metal
  Current step  : 2260
Per MPI rank memory allocation (min/avg/max) = 5.465 | 6.344 | 6.728 Mbytes
Step PotEng KinEng TotEng v_fx v_fy v_fz 
    2260   -1152449.4            0   -1152449.4   0.12887499 -0.0040253694 -0.034614399 
    2501   -1152449.4            0   -1152449.4 -2.071826e-06 -2.5016011e-07 5.601623e-07 
Loop time of 5.35128 on 52 procs for 241 steps with 288751 atoms

99.9% CPU use with 52 MPI tasks x 1 OpenMP threads

Minimization stats:
  Stopping criterion = linesearch alpha is zero
  Energy initial, next-to-last, final = 
     -1152449.42786215  -1152449.43143643  -1152449.43143643
  Force two-norm initial, final = 0.24239977 2.1463752e-05
  Force max component initial, final = 0.12887499 4.1490824e-06
  Final line search alpha, max atom move = 0.5 2.0745412e-06
  Iterations, force evaluations = 241 483

MPI task timing breakdown:
Section |  min time  |  avg time  |  max time  |%varavg| %total
---------------------------------------------------------------
Pair    | 1.3604     | 3.8519     | 5.1249     |  54.5 | 71.98
Neigh   | 0          | 0          | 0          |   0.0 |  0.00
Comm    | 0.066039   | 0.864      | 2.6813     |  82.4 | 16.15
Output  | 0          | 0          | 0          |   0.0 |  0.00
Modify  | 8.5386e-05 | 0.0079795  | 0.016852   |   4.2 |  0.15
Other   |            | 0.6274     |            |       | 11.73

Nlocal:        5552.90 ave        7890 max           0 min
Histogram: 4 2 2 0 2 6 4 2 11 19
Nghost:        6214.10 ave        8773 max         412 min
Histogram: 4 0 4 0 8 0 4 5 7 20
Neighs:       158427.0 ave      229549 max           0 min
Histogram: 4 2 2 0 5 3 4 4 10 18

Total # of neighbors = 8238200
Ave neighs/atom = 28.530464
Neighbor list builds = 0
Dangerous builds = 0
The dot product: -5.95508911219465e-08
Setting atom values ...
  1 settings made for x
  1 settings made for y
  1 settings made for z
Setting up cg style minimization ...
  Unit style    : metal
  Current step  : 2501
Per MPI rank memory allocation (min/avg/max) = 5.465 | 6.344 | 6.728 Mbytes
Step PotEng KinEng TotEng v_fx v_fy v_fz 
    2501   -1152449.4            0   -1152449.4 -0.010465182 -0.010557287 0.0044309464 
    2683   -1152449.4            0   -1152449.4 -1.8670275e-06 5.8181977e-07 7.3584507e-07 
Loop time of 3.99138 on 52 procs for 182 steps with 288751 atoms

99.9% CPU use with 52 MPI tasks x 1 OpenMP threads

Minimization stats:
  Stopping criterion = linesearch alpha is zero
  Energy initial, next-to-last, final = 
     -1152449.43477347  -1152449.43683595  -1152449.43683595
  Force two-norm initial, final = 0.19958076 4.7441545e-05
  Force max component initial, final = 0.10336559 5.5537389e-06
  Final line search alpha, max atom move = 0.5 2.7768694e-06
  Iterations, force evaluations = 182 365

MPI task timing breakdown:
Section |  min time  |  avg time  |  max time  |%varavg| %total
---------------------------------------------------------------
Pair    | 1.0321     | 2.9022     | 3.8331     |  47.2 | 72.71
Neigh   | 0          | 0          | 0          |   0.0 |  0.00
Comm    | 0.046195   | 0.63942    | 2.0243     |  72.1 | 16.02
Output  | 0          | 0          | 0          |   0.0 |  0.00
Modify  | 7.2531e-05 | 0.0060849  | 0.012908   |   3.7 |  0.15
Other   |            | 0.4437     |            |       | 11.12

Nlocal:        5552.90 ave        7890 max           0 min
Histogram: 4 2 2 0 2 6 4 2 11 19
Nghost:        6214.13 ave        8773 max         412 min
Histogram: 4 0 4 0 8 0 4 5 7 20
Neighs:       158427.0 ave      229569 max           0 min
Histogram: 4 2 2 0 5 3 4 4 10 18

Total # of neighbors = 8238198
Ave neighs/atom = 28.530457
Neighbor list builds = 0
Dangerous builds = 0
The dot product: 1.43400325345153e-08
Setting atom values ...
  1 settings made for x
  1 settings made for y
  1 settings made for z
Setting up cg style minimization ...
  Unit style    : metal
  Current step  : 2683
Per MPI rank memory allocation (min/avg/max) = 5.465 | 6.344 | 6.728 Mbytes
Step PotEng KinEng TotEng v_fx v_fy v_fz 
    2683   -1152449.4            0   -1152449.4  0.034095156 -0.00024186746 -0.012455884 
    2847   -1152449.4            0   -1152449.4 -1.9292071e-05 1.8234364e-06 7.0279956e-06 
Loop time of 3.63493 on 52 procs for 164 steps with 288751 atoms

99.9% CPU use with 52 MPI tasks x 1 OpenMP threads

Minimization stats:
  Stopping criterion = linesearch alpha is zero
  Energy initial, next-to-last, final = 
     -1152449.43825249  -1152449.44021133  -1152449.44021133
  Force two-norm initial, final = 0.20315978 0.00021606966
  Force max component initial, final = 0.10132288 3.3792343e-05
  Final line search alpha, max atom move = 0.25 8.4480857e-06
  Iterations, force evaluations = 164 331

MPI task timing breakdown:
Section |  min time  |  avg time  |  max time  |%varavg| %total
---------------------------------------------------------------
Pair    | 0.93543    | 2.6338     | 3.4817     |  45.0 | 72.46
Neigh   | 0          | 0          | 0          |   0.0 |  0.00
Comm    | 0.04184    | 0.58173    | 1.8329     |  68.9 | 16.00
Output  | 0          | 0          | 0          |   0.0 |  0.00
Modify  | 5.9113e-05 | 0.0055228  | 0.011751   |   3.5 |  0.15
Other   |            | 0.4138     |            |       | 11.39

Nlocal:        5552.90 ave        7890 max           0 min
Histogram: 4 2 2 0 2 6 4 2 11 19
Nghost:        6214.04 ave        8773 max         412 min
Histogram: 4 0 4 0 8 0 4 5 7 20
Neighs:       158427.0 ave      229576 max           0 min
Histogram: 4 2 2 0 5 3 4 4 10 18

Total # of neighbors = 8238196
Ave neighs/atom = 28.530450
Neighbor list builds = 0
Dangerous builds = 0
The dot product: -5.51137308229018e-08
Setting atom values ...
  1 settings made for x
  1 settings made for y
  1 settings made for z
Setting up cg style minimization ...
  Unit style    : metal
  Current step  : 2847
Per MPI rank memory allocation (min/avg/max) = 5.465 | 6.344 | 6.728 Mbytes
Step PotEng KinEng TotEng v_fx v_fy v_fz 
    2847   -1152449.4            0   -1152449.4  0.029821731 0.00069965635 -0.011243055 
    3000   -1152449.4            0   -1152449.4 -6.2301461e-06 1.309039e-06 2.3302148e-06 
    3021   -1152449.4            0   -1152449.4 -3.4022833e-06 2.3660856e-06 1.2514195e-06 
Loop time of 3.80037 on 52 procs for 174 steps with 288751 atoms

99.9% CPU use with 52 MPI tasks x 1 OpenMP threads

Minimization stats:
  Stopping criterion = linesearch alpha is zero
  Energy initial, next-to-last, final = 
     -1152449.43966428  -1152449.44161801  -1152449.44161801
  Force two-norm initial, final = 0.20225399 0.000127221
  Force max component initial, final = 0.09969175 1.9638147e-05
  Final line search alpha, max atom move = 0.5 9.8190734e-06
  Iterations, force evaluations = 174 349

MPI task timing breakdown:
Section |  min time  |  avg time  |  max time  |%varavg| %total
---------------------------------------------------------------
Pair    | 0.99001    | 2.773      | 3.6401     |  46.1 | 72.97
Neigh   | 0          | 0          | 0          |   0.0 |  0.00
Comm    | 0.044871   | 0.6095     | 1.9431     |  70.9 | 16.04
Output  | 0.00019804 | 0.00020277 | 0.00037006 |   0.0 |  0.01
Modify  | 7.0405e-05 | 0.0058257  | 0.012284   |   3.6 |  0.15
Other   |            | 0.4119     |            |       | 10.84

Nlocal:        5552.90 ave        7890 max           0 min
Histogram: 4 2 2 0 2 6 4 2 11 19
Nghost:        6214.04 ave        8773 max         412 min
Histogram: 4 0 4 0 8 0 4 5 7 20
Neighs:       158427.0 ave      229584 max           0 min
Histogram: 4 2 2 0 5 3 4 4 10 18

Total # of neighbors = 8238199
Ave neighs/atom = 28.530461
Neighbor list builds = 0
Dangerous builds = 0
The dot product: -4.66392624126896e-09
Setting atom values ...
  1 settings made for x
  1 settings made for y
  1 settings made for z
Setting up cg style minimization ...
  Unit style    : metal
  Current step  : 3021
Per MPI rank memory allocation (min/avg/max) = 5.465 | 6.344 | 6.728 Mbytes
Step PotEng KinEng TotEng v_fx v_fy v_fz 
    3021   -1152449.4            0   -1152449.4  0.033402657 0.0019386412 -0.012788411 
    3202   -1152449.4            0   -1152449.4 -9.5738052e-06 -1.7517579e-07 3.6603298e-06 
Loop time of 3.97108 on 52 procs for 181 steps with 288751 atoms

99.9% CPU use with 52 MPI tasks x 1 OpenMP threads

Minimization stats:
  Stopping criterion = energy tolerance
  Energy initial, next-to-last, final = 
      -1152449.4390484  -1152449.44101302  -1152449.44101302
  Force two-norm initial, final = 0.20290493 0.00012644873
  Force max component initial, final = 0.097872934 1.6585201e-05
  Final line search alpha, max atom move = 1.0000000 1.6585201e-05
  Iterations, force evaluations = 181 362

MPI task timing breakdown:
Section |  min time  |  avg time  |  max time  |%varavg| %total
---------------------------------------------------------------
Pair    | 1.0224     | 2.8797     | 3.8144     |  47.2 | 72.52
Neigh   | 0          | 0          | 0          |   0.0 |  0.00
Comm    | 0.045524   | 0.63885    | 2.0195     |  71.9 | 16.09
Output  | 0          | 0          | 0          |   0.0 |  0.00
Modify  | 6.5567e-05 | 0.0060428  | 0.012781   |   3.6 |  0.15
Other   |            | 0.4464     |            |       | 11.24

Nlocal:        5552.90 ave        7890 max           0 min
Histogram: 4 2 2 0 2 6 4 2 11 19
Nghost:        6214.00 ave        8773 max         412 min
Histogram: 4 0 4 0 8 0 4 5 7 20
Neighs:       158427.0 ave      229587 max           0 min
Histogram: 4 2 2 0 5 3 4 4 10 18

Total # of neighbors = 8238198
Ave neighs/atom = 28.530457
Neighbor list builds = 0
Dangerous builds = 0
The dot product: -2.17986733439391e-08
Setting atom values ...
  1 settings made for x
  1 settings made for y
  1 settings made for z
Setting up cg style minimization ...
  Unit style    : metal
  Current step  : 3202
Per MPI rank memory allocation (min/avg/max) = 5.465 | 6.344 | 6.728 Mbytes
Step PotEng KinEng TotEng v_fx v_fy v_fz 
    3202   -1152449.4            0   -1152449.4  0.035184194 0.00043298338 -0.013724132 
    3385   -1152449.4            0   -1152449.4 9.5504485e-06 1.1941265e-07 -3.7253249e-06 
Loop time of 4.0017 on 52 procs for 183 steps with 288751 atoms

99.9% CPU use with 52 MPI tasks x 1 OpenMP threads

Minimization stats:
  Stopping criterion = linesearch alpha is zero
  Energy initial, next-to-last, final = 
     -1152449.43643236  -1152449.43839137  -1152449.43839137
  Force two-norm initial, final = 0.20298353 0.00013614047
  Force max component initial, final = 0.096113998 3.2345246e-05
  Final line search alpha, max atom move = 0.5 1.6172623e-05
  Iterations, force evaluations = 183 367

MPI task timing breakdown:
Section |  min time  |  avg time  |  max time  |%varavg| %total
---------------------------------------------------------------
Pair    | 1.0368     | 2.9138     | 3.8369     |  47.3 | 72.81
Neigh   | 0          | 0          | 0          |   0.0 |  0.00
Comm    | 0.046226   | 0.6418     | 2.042      |  72.5 | 16.04
Output  | 0          | 0          | 0          |   0.0 |  0.00
Modify  | 7.1602e-05 | 0.0061512  | 0.012914   |   3.7 |  0.15
Other   |            | 0.4399     |            |       | 10.99

Nlocal:        5552.90 ave        7889 max           0 min
Histogram: 4 2 2 0 2 6 4 1 12 19
Nghost:        6214.02 ave        8773 max         412 min
Histogram: 4 0 4 0 8 0 4 5 7 20
Neighs:       158427.0 ave      229575 max           0 min
Histogram: 4 2 2 0 5 3 4 4 11 17

Total # of neighbors = 8238200
Ave neighs/atom = 28.530464
Neighbor list builds = 0
Dangerous builds = 0
The dot product: 2.70664871334287e-08
Setting atom values ...
  1 settings made for x
  1 settings made for y
  1 settings made for z
Setting up cg style minimization ...
  Unit style    : metal
  Current step  : 3385
Per MPI rank memory allocation (min/avg/max) = 5.465 | 6.344 | 6.728 Mbytes
Step PotEng KinEng TotEng v_fx v_fy v_fz 
    3385   -1152449.4            0   -1152449.4  0.035531471 -0.00053023982 -0.014172639 
    3549   -1152449.4            0   -1152449.4 7.4302113e-05 4.727455e-06 -2.9716287e-05 
Loop time of 3.57381 on 52 procs for 164 steps with 288751 atoms

99.9% CPU use with 52 MPI tasks x 1 OpenMP threads

Minimization stats:
  Stopping criterion = energy tolerance
  Energy initial, next-to-last, final = 
      -1152449.4318087  -1152449.43375757  -1152449.43375757
  Force two-norm initial, final = 0.20265452 0.00021072327
  Force max component initial, final = 0.098497338 7.4302113e-05
  Final line search alpha, max atom move = 1.0000000 7.4302113e-05
  Iterations, force evaluations = 164 328

MPI task timing breakdown:
Section |  min time  |  avg time  |  max time  |%varavg| %total
---------------------------------------------------------------
Pair    | 0.92574    | 2.6062     | 3.4361     |  44.8 | 72.93
Neigh   | 0          | 0          | 0          |   0.0 |  0.00
Comm    | 0.04189    | 0.57672    | 1.8284     |  68.6 | 16.14
Output  | 0          | 0          | 0          |   0.0 |  0.00
Modify  | 5.7436e-05 | 0.005462   | 0.011512   |   3.4 |  0.15
Other   |            | 0.3854     |            |       | 10.78

Nlocal:        5552.90 ave        7889 max           0 min
Histogram: 4 2 2 0 2 6 4 1 12 19
Nghost:        6214.02 ave        8773 max         412 min
Histogram: 4 0 4 0 8 0 4 5 7 20
Neighs:       158427.0 ave      229566 max           0 min
Histogram: 4 2 2 0 5 3 4 4 11 17

Total # of neighbors = 8238198
Ave neighs/atom = 28.530457
Neighbor list builds = 0
Dangerous builds = 0
The dot product: 2.21749563996697e-07
Setting atom values ...
  1 settings made for x
  1 settings made for y
  1 settings made for z
Setting up cg style minimization ...
  Unit style    : metal
  Current step  : 3549
Per MPI rank memory allocation (min/avg/max) = 5.465 | 6.344 | 6.728 Mbytes
Step PotEng KinEng TotEng v_fx v_fy v_fz 
    3549   -1152449.4            0   -1152449.4  0.035486571 -0.0016931183 -0.014466291 
    3704   -1152449.4            0   -1152449.4 -1.6167791e-06 3.697921e-06 6.1260377e-07 
Loop time of 3.47458 on 52 procs for 155 steps with 288751 atoms

99.9% CPU use with 52 MPI tasks x 1 OpenMP threads

Minimization stats:
  Stopping criterion = linesearch alpha is zero
  Energy initial, next-to-last, final = 
     -1152449.42517472  -1152449.42711398  -1152449.42711398
  Force two-norm initial, final = 0.2022171 0.00023146891
  Force max component initial, final = 0.10091684 1.1855608e-05
  Final line search alpha, max atom move = 0.125 1.4819510e-06
  Iterations, force evaluations = 155 315

MPI task timing breakdown:
Section |  min time  |  avg time  |  max time  |%varavg| %total
---------------------------------------------------------------
Pair    | 0.8903     | 2.5073     | 3.3431     |  44.2 | 72.16
Neigh   | 0          | 0          | 0          |   0.0 |  0.00
Comm    | 0.039895   | 0.55953    | 1.741      |  66.1 | 16.10
Output  | 0          | 0          | 0          |   0.0 |  0.00
Modify  | 5.9816e-05 | 0.0052659  | 0.011428   |   3.5 |  0.15
Other   |            | 0.4025     |            |       | 11.58

Nlocal:        5552.90 ave        7889 max           0 min
Histogram: 4 2 2 0 2 6 4 1 12 19
Nghost:        6214.06 ave        8773 max         412 min
Histogram: 4 0 4 0 8 0 4 5 7 20
Neighs:       158427.0 ave      229558 max           0 min
Histogram: 4 2 2 0 5 3 4 4 11 17

Total # of neighbors = 8238201
Ave neighs/atom = 28.530467
Neighbor list builds = 0
Dangerous builds = 0
The dot product: -5.92789607037263e-09
Setting atom values ...
  1 settings made for x
  1 settings made for y
  1 settings made for z
Setting up cg style minimization ...
  Unit style    : metal
  Current step  : 3704
Per MPI rank memory allocation (min/avg/max) = 5.465 | 6.344 | 6.728 Mbytes
Step PotEng KinEng TotEng v_fx v_fy v_fz 
    3704   -1152449.4            0   -1152449.4  0.035011631 -0.0032299895 -0.014569127 
    3893   -1152449.4            0   -1152449.4 1.0359679e-05 1.4967378e-06 -4.3405628e-06 
Loop time of 4.18522 on 52 procs for 189 steps with 288751 atoms

99.9% CPU use with 52 MPI tasks x 1 OpenMP threads

Minimization stats:
  Stopping criterion = linesearch alpha is zero
  Energy initial, next-to-last, final = 
     -1152449.41654017  -1152449.41846834  -1152449.41846834
  Force two-norm initial, final = 0.20167199 0.00011036607
  Force max component initial, final = 0.10332816 1.3455366e-05
  Final line search alpha, max atom move = 0.5 6.7276829e-06
  Iterations, force evaluations = 189 379

MPI task timing breakdown:
Section |  min time  |  avg time  |  max time  |%varavg| %total
---------------------------------------------------------------
Pair    | 1.0671     | 3.0215     | 4.021      |  48.6 | 72.19
Neigh   | 0          | 0          | 0          |   0.0 |  0.00
Comm    | 0.049522   | 0.67459    | 2.1        |  73.0 | 16.12
Output  | 0          | 0          | 0          |   0.0 |  0.00
Modify  | 6.8064e-05 | 0.0063307  | 0.013574   |   3.8 |  0.15
Other   |            | 0.4828     |            |       | 11.54

Nlocal:        5552.90 ave        7889 max           0 min
Histogram: 4 2 2 0 2 6 4 1 12 19
Nghost:        6214.02 ave        8772 max         412 min
Histogram: 4 0 4 0 8 0 4 5 7 20
Neighs:       158427.0 ave      229528 max           0 min
Histogram: 4 2 2 0 5 3 4 4 11 17

Total # of neighbors = 8238209
Ave neighs/atom = 28.530495
Neighbor list builds = 0
Dangerous builds = 0
The dot product: 3.17146970147277e-08
Setting atom values ...
  1 settings made for x
  1 settings made for y
  1 settings made for z
Setting up cg style minimization ...
  Unit style    : metal
  Current step  : 3893
Per MPI rank memory allocation (min/avg/max) = 5.465 | 6.344 | 6.728 Mbytes
Step PotEng KinEng TotEng v_fx v_fy v_fz 
    3893   -1152449.4            0   -1152449.4  0.034313227 -0.0051523228 -0.014553723 
    4000   -1152449.4            0   -1152449.4 3.7146108e-05 4.3067973e-06 -1.5866678e-05 
    4065   -1152449.4            0   -1152449.4 4.9826569e-05 2.5325582e-06 -2.1246473e-05 
Loop time of 3.77491 on 52 procs for 172 steps with 288751 atoms

99.9% CPU use with 52 MPI tasks x 1 OpenMP threads

Minimization stats:
  Stopping criterion = energy tolerance
  Energy initial, next-to-last, final = 
     -1152449.40591699  -1152449.40783285  -1152449.40783285
  Force two-norm initial, final = 0.20114752 0.00017799565
  Force max component initial, final = 0.10569639 4.9826569e-05
  Final line search alpha, max atom move = 1.0000000 4.9826569e-05
  Iterations, force evaluations = 172 346

MPI task timing breakdown:
Section |  min time  |  avg time  |  max time  |%varavg| %total
---------------------------------------------------------------
Pair    | 0.98149    | 2.7486     | 3.6198     |  45.8 | 72.81
Neigh   | 0          | 0          | 0          |   0.0 |  0.00
Comm    | 0.047046   | 0.60415    | 1.9151     |  70.4 | 16.00
Output  | 0.00020441 | 0.00020939 | 0.00040877 |   0.0 |  0.01
Modify  | 6.5631e-05 | 0.0057817  | 0.012296   |   3.6 |  0.15
Other   |            | 0.4162     |            |       | 11.02

Nlocal:        5552.90 ave        7889 max           0 min
Histogram: 4 2 2 0 2 6 4 1 12 19
Nghost:        6214.00 ave        8772 max         412 min
Histogram: 4 0 4 0 8 0 4 5 7 20
Neighs:       158427.0 ave      229536 max           0 min
Histogram: 4 2 2 0 5 3 4 4 11 17

Total # of neighbors = 8238211
Ave neighs/atom = 28.530502
Neighbor list builds = 0
Dangerous builds = 0
The dot product: 1.5486928686036e-07
Setting atom values ...
  1 settings made for x
  1 settings made for y
  1 settings made for z
Setting up cg style minimization ...
  Unit style    : metal
  Current step  : 4065
Per MPI rank memory allocation (min/avg/max) = 5.465 | 6.344 | 6.728 Mbytes
Step PotEng KinEng TotEng v_fx v_fy v_fz 
    4065   -1152449.4            0   -1152449.4  0.033391824 -0.0074877548 -0.014418578 
    4224   -1152449.4            0   -1152449.4 -4.930676e-05 -1.2290895e-06 2.1416742e-05 
Loop time of 3.51611 on 52 procs for 159 steps with 288751 atoms

99.9% CPU use with 52 MPI tasks x 1 OpenMP threads

Minimization stats:
  Stopping criterion = energy tolerance
  Energy initial, next-to-last, final = 
     -1152449.39332129  -1152449.39522485  -1152449.39522485
  Force two-norm initial, final = 0.20066198 0.00024098447
  Force max component initial, final = 0.10800908 5.9756519e-05
  Final line search alpha, max atom move = 1.0000000 5.9756519e-05
  Iterations, force evaluations = 159 318

MPI task timing breakdown:
Section |  min time  |  avg time  |  max time  |%varavg| %total
---------------------------------------------------------------
Pair    | 0.89897    | 2.5366     | 3.3821     |  44.2 | 72.14
Neigh   | 0          | 0          | 0          |   0.0 |  0.00
Comm    | 0.040117   | 0.57089    | 1.7683     |  66.4 | 16.24
Output  | 0          | 0          | 0          |   0.0 |  0.00
Modify  | 5.9039e-05 | 0.0052975  | 0.011108   |   3.4 |  0.15
Other   |            | 0.4033     |            |       | 11.47

Nlocal:        5552.90 ave        7889 max           0 min
Histogram: 4 2 2 0 2 6 4 1 12 19
Nghost:        6213.88 ave        8771 max         412 min
Histogram: 4 0 4 0 8 0 4 5 7 20
Neighs:       158427.0 ave      229535 max           0 min
Histogram: 4 2 2 0 5 3 4 4 11 17

Total # of neighbors = 8238211
Ave neighs/atom = 28.530502
Neighbor list builds = 0
Dangerous builds = 0
The dot product: -1.52616316429228e-07
Setting atom values ...
  1 settings made for x
  1 settings made for y
  1 settings made for z
Setting up cg style minimization ...
  Unit style    : metal
  Current step  : 4224
Per MPI rank memory allocation (min/avg/max) = 5.465 | 6.344 | 6.728 Mbytes
Step PotEng KinEng TotEng v_fx v_fy v_fz 
    4224   -1152449.4            0   -1152449.4   0.03203337 -0.010292606 -0.014065563 
    4407   -1152449.4            0   -1152449.4 1.1219326e-05 1.0885272e-06 -4.9681974e-06 
Loop time of 3.99418 on 52 procs for 183 steps with 288751 atoms

99.9% CPU use with 52 MPI tasks x 1 OpenMP threads

Minimization stats:
  Stopping criterion = linesearch alpha is zero
  Energy initial, next-to-last, final = 
     -1152449.37877697   -1152449.3806685   -1152449.3806685
  Force two-norm initial, final = 0.20019607 0.00013003665
  Force max component initial, final = 0.11035438 1.3518276e-05
  Final line search alpha, max atom move = 0.5 6.7591381e-06
  Iterations, force evaluations = 183 367

MPI task timing breakdown:
Section |  min time  |  avg time  |  max time  |%varavg| %total
---------------------------------------------------------------
Pair    | 1.0392     | 2.9183     | 3.8308     |  47.3 | 73.06
Neigh   | 0          | 0          | 0          |   0.0 |  0.00
Comm    | 0.050261   | 0.63902    | 2.0416     |  73.1 | 16.00
Output  | 0          | 0          | 0          |   0.0 |  0.00
Modify  | 7.3333e-05 | 0.0061458  | 0.012939   |   3.7 |  0.15
Other   |            | 0.4308     |            |       | 10.78

Nlocal:        5552.90 ave        7889 max           0 min
Histogram: 4 2 2 0 2 6 4 1 12 19
Nghost:        6213.81 ave        8771 max         412 min
Histogram: 4 0 4 0 8 0 4 5 7 20
Neighs:       158427.0 ave      229541 max           0 min
Histogram: 4 2 2 0 5 3 4 4 11 17

Total # of neighbors = 8238211
Ave neighs/atom = 28.530502
Neighbor list builds = 0
Dangerous builds = 0
The dot product: 3.28381066302195e-08
Setting atom values ...
  1 settings made for x
  1 settings made for y
  1 settings made for z
Setting up cg style minimization ...
  Unit style    : metal
  Current step  : 4407
Per MPI rank memory allocation (min/avg/max) = 5.465 | 6.344 | 6.728 Mbytes
Step PotEng KinEng TotEng v_fx v_fy v_fz 
    4407   -1152449.4            0   -1152449.4  0.030601066 -0.013417762 -0.013652543 
    4617   -1152449.4            0   -1152449.4 -1.1000031e-06 -3.1011175e-07 4.9634037e-07 
Loop time of 4.61887 on 52 procs for 210 steps with 288751 atoms

99.9% CPU use with 52 MPI tasks x 1 OpenMP threads

Minimization stats:
  Stopping criterion = linesearch alpha is zero
  Energy initial, next-to-last, final = 
     -1152449.36231321   -1152449.3641905   -1152449.3641905
  Force two-norm initial, final = 0.19989753 4.5138278e-05
  Force max component initial, final = 0.11252437 1.7059978e-06
  Final line search alpha, max atom move = 0.5 8.5299892e-07
  Iterations, force evaluations = 210 421

MPI task timing breakdown:
Section |  min time  |  avg time  |  max time  |%varavg| %total
---------------------------------------------------------------
Pair    | 1.1869     | 3.3481     | 4.4366     |  50.9 | 72.49
Neigh   | 0          | 0          | 0          |   0.0 |  0.00
Comm    | 0.053445   | 0.74647    | 2.3426     |  77.1 | 16.16
Output  | 0          | 0          | 0          |   0.0 |  0.00
Modify  | 7.816e-05  | 0.0070183  | 0.014946   |   3.9 |  0.15
Other   |            | 0.5173     |            |       | 11.20

Nlocal:        5552.90 ave        7889 max           0 min
Histogram: 4 2 2 0 2 6 4 1 12 19
Nghost:        6213.92 ave        8772 max         412 min
Histogram: 4 0 4 0 8 0 4 5 7 20
Neighs:       158427.0 ave      229531 max           0 min
Histogram: 4 2 2 0 5 3 4 4 11 17

Total # of neighbors = 8238210
Ave neighs/atom = 28.530499
Neighbor list builds = 0
Dangerous builds = 0
The dot product: -2.77628462461975e-09
Setting atom values ...
  1 settings made for x
  1 settings made for y
  1 settings made for z
Setting up cg style minimization ...
  Unit style    : metal
  Current step  : 4617
Per MPI rank memory allocation (min/avg/max) = 5.465 | 6.344 | 6.728 Mbytes
Step PotEng KinEng TotEng v_fx v_fy v_fz 
    4617   -1152449.3            0   -1152449.3  0.029895909 -0.016185456 -0.013557863 
    4830   -1152449.3            0   -1152449.3 1.0633292e-05 -2.2073754e-07 -4.846328e-06 
Loop time of 4.63443 on 52 procs for 213 steps with 288751 atoms

99.9% CPU use with 52 MPI tasks x 1 OpenMP threads

Minimization stats:
  Stopping criterion = linesearch alpha is zero
  Energy initial, next-to-last, final = 
     -1152449.34397112  -1152449.34582621  -1152449.34582621
  Force two-norm initial, final = 0.1997699 3.7314814e-05
  Force max component initial, final = 0.1146916 1.0633292e-05
  Final line search alpha, max atom move = 0.5 5.3166461e-06
  Iterations, force evaluations = 213 427

MPI task timing breakdown:
Section |  min time  |  avg time  |  max time  |%varavg| %total
---------------------------------------------------------------
Pair    | 1.2065     | 3.3872     | 4.4458     |  50.9 | 73.09
Neigh   | 0          | 0          | 0          |   0.0 |  0.00
Comm    | 0.059044   | 0.74108    | 2.36       |  78.6 | 15.99
Output  | 0          | 0          | 0          |   0.0 |  0.00
Modify  | 8.026e-05  | 0.0071106  | 0.015013   |   3.9 |  0.15
Other   |            | 0.499      |            |       | 10.77

Nlocal:        5552.90 ave        7889 max           0 min
Histogram: 4 2 2 0 2 6 4 1 12 19
Nghost:        6213.98 ave        8772 max         412 min
Histogram: 4 0 4 0 8 0 4 5 7 20
Neighs:       158427.0 ave      229530 max           0 min
Histogram: 4 2 2 0 5 3 4 4 11 17

Total # of neighbors = 8238214
Ave neighs/atom = 28.530512
Neighbor list builds = 0
Dangerous builds = 0
The dot product: 3.19052274872058e-08
Setting atom values ...
  1 settings made for x
  1 settings made for y
  1 settings made for z
Setting up cg style minimization ...
  Unit style    : metal
  Current step  : 4830
Per MPI rank memory allocation (min/avg/max) = 5.465 | 6.344 | 6.728 Mbytes
Step PotEng KinEng TotEng v_fx v_fy v_fz 
    4830   -1152449.3            0   -1152449.3  0.029166696 -0.020379572 -0.013467191 
    5000   -1152449.3            0   -1152449.3 1.6070557e-05 -3.8535963e-07 -7.4322714e-06 
    5013   -1152449.3            0   -1152449.3 2.4614754e-05 -1.2893776e-06 -1.1382998e-05 
Loop time of 4.03687 on 52 procs for 183 steps with 288751 atoms

99.9% CPU use with 52 MPI tasks x 1 OpenMP threads

Minimization stats:
  Stopping criterion = linesearch alpha is zero
  Energy initial, next-to-last, final = 
     -1152449.32381378  -1152449.32564655  -1152449.32564655
  Force two-norm initial, final = 0.20006748 0.00013365341
  Force max component initial, final = 0.11687777 2.4614754e-05
  Final line search alpha, max atom move = 0.5 1.2307377e-05
  Iterations, force evaluations = 183 367

MPI task timing breakdown:
Section |  min time  |  avg time  |  max time  |%varavg| %total
---------------------------------------------------------------
Pair    | 1.0344     | 2.9245     | 3.8698     |  47.6 | 72.45
Neigh   | 0          | 0          | 0          |   0.0 |  0.00
Comm    | 0.046274   | 0.64954    | 2.0534     |  72.5 | 16.09
Output  | 0.00020479 | 0.00021009 | 0.00037779 |   0.0 |  0.01
Modify  | 6.8842e-05 | 0.0061158  | 0.01299    |   3.7 |  0.15
Other   |            | 0.4565     |            |       | 11.31

Nlocal:        5552.90 ave        7889 max           0 min
Histogram: 4 2 2 0 2 6 4 1 12 19
Nghost:        6213.98 ave        8772 max         412 min
Histogram: 4 0 4 0 8 0 4 5 7 20
Neighs:       158427.0 ave      229531 max           0 min
Histogram: 4 2 2 0 5 3 4 4 11 17

Total # of neighbors = 8238215
Ave neighs/atom = 28.530516
Neighbor list builds = 0
Dangerous builds = 0
The dot product: 7.88783340167219e-08
Setting atom values ...
  1 settings made for x
  1 settings made for y
  1 settings made for z
Setting up cg style minimization ...
  Unit style    : metal
  Current step  : 5013
Per MPI rank memory allocation (min/avg/max) = 5.465 | 6.344 | 6.728 Mbytes
Step PotEng KinEng TotEng v_fx v_fy v_fz 
    5013   -1152449.3            0   -1152449.3  0.027468364 -0.028564248 -0.013024758 
    5207   -1152449.3            0   -1152449.3 2.2709316e-05 -9.9908809e-07 -1.065773e-05 
Loop time of 4.26391 on 52 procs for 194 steps with 288751 atoms

99.9% CPU use with 52 MPI tasks x 1 OpenMP threads

Minimization stats:
  Stopping criterion = energy tolerance
  Energy initial, next-to-last, final = 
     -1152449.30194636  -1152449.30547163  -1152449.30547163
  Force two-norm initial, final = 0.20134243 0.00016806672
  Force max component initial, final = 0.11907561 2.2709316e-05
  Final line search alpha, max atom move = 1.0000000 2.2709316e-05
  Iterations, force evaluations = 194 388

MPI task timing breakdown:
Section |  min time  |  avg time  |  max time  |%varavg| %total
---------------------------------------------------------------
Pair    | 1.1036     | 3.0866     | 4.0925     |  48.7 | 72.39
Neigh   | 1.9372e-05 | 0.0057612  | 0.0084794  |   3.2 |  0.14
Comm    | 0.049686   | 0.68551    | 2.1515     |  73.8 | 16.08
Output  | 0          | 0          | 0          |   0.0 |  0.00
Modify  | 7.2043e-05 | 0.0064632  | 0.013706   |   3.8 |  0.15
Other   |            | 0.4796     |            |       | 11.25

Nlocal:        5552.90 ave        7890 max           0 min
Histogram: 4 2 2 0 2 6 4 1 12 19
Nghost:        6214.00 ave        8772 max         412 min
Histogram: 4 0 4 0 8 0 4 5 7 20
Neighs:       158427.0 ave      229533 max           0 min
Histogram: 4 2 2 0 5 3 4 4 11 17

Total # of neighbors = 8238209
Ave neighs/atom = 28.530495
Neighbor list builds = 1
Dangerous builds = 0
The dot product: -2.51521024935014e-07
Setting atom values ...
  1 settings made for x
  1 settings made for y
  1 settings made for z
Setting up cg style minimization ...
  Unit style    : metal
  Current step  : 5207
Per MPI rank memory allocation (min/avg/max) = 5.465 | 6.344 | 6.728 Mbytes
Step PotEng KinEng TotEng v_fx v_fy v_fz 
    5207   -1152449.3            0   -1152449.3 -0.027071523  -0.20473242 -0.023531451 
    5448   -1152449.3            0   -1152449.3 3.424234e-05 -8.823942e-06 -1.6558077e-05 
Loop time of 5.37868 on 52 procs for 241 steps with 288751 atoms

99.9% CPU use with 52 MPI tasks x 1 OpenMP threads

Minimization stats:
  Stopping criterion = linesearch alpha is zero
  Energy initial, next-to-last, final = 
     -1152449.28394276  -1152449.33947615  -1152449.33947615
  Force two-norm initial, final = 0.28316836 0.00016114942
  Force max component initial, final = 0.20473242 4.4542084e-05
  Final line search alpha, max atom move = 0.25 1.1135521e-05
  Iterations, force evaluations = 241 486

MPI task timing breakdown:
Section |  min time  |  avg time  |  max time  |%varavg| %total
---------------------------------------------------------------
Pair    | 1.3827     | 3.8779     | 5.1534     |  54.8 | 72.10
Neigh   | 3.9046e-05 | 0.011482   | 0.016792   |   4.5 |  0.21
Comm    | 0.062631   | 0.86319    | 2.7075     |  82.8 | 16.05
Output  | 0          | 0          | 0          |   0.0 |  0.00
Modify  | 9.2385e-05 | 0.0081166  | 0.0177     |   4.3 |  0.15
Other   |            | 0.618      |            |       | 11.49

Nlocal:        5552.90 ave        7890 max           0 min
Histogram: 4 2 2 0 2 6 4 1 12 19
Nghost:        6213.98 ave        8772 max         412 min
Histogram: 4 0 4 0 8 0 4 5 7 20
Neighs:       158427.0 ave      229539 max           0 min
Histogram: 4 2 2 0 5 3 4 4 11 17

Total # of neighbors = 8238193
Ave neighs/atom = 28.530440
Neighbor list builds = 2
Dangerous builds = 0
The dot product: -6.32254317922771e-07
Setting atom values ...
  1 settings made for x
  1 settings made for y
  1 settings made for z
Setting up cg style minimization ...
  Unit style    : metal
  Current step  : 5448
Per MPI rank memory allocation (min/avg/max) = 5.465 | 6.344 | 6.728 Mbytes
Step PotEng KinEng TotEng v_fx v_fy v_fz 
    5448   -1152449.3            0   -1152449.3  -0.03938747  -0.10924669 -0.062246413 
    5596   -1152449.3            0   -1152449.3 1.947227e-05 2.6834721e-05 1.2602256e-05 
Loop time of 3.26645 on 52 procs for 148 steps with 288751 atoms

99.9% CPU use with 52 MPI tasks x 1 OpenMP threads

Minimization stats:
  Stopping criterion = energy tolerance
  Energy initial, next-to-last, final = 
     -1152449.33442821  -1152449.33644879  -1152449.33644879
  Force two-norm initial, final = 0.1956933 0.00023642853
  Force max component initial, final = 0.10924669 3.2272908e-05
  Final line search alpha, max atom move = 1.0000000 3.2272908e-05
  Iterations, force evaluations = 148 296

MPI task timing breakdown:
Section |  min time  |  avg time  |  max time  |%varavg| %total
---------------------------------------------------------------
Pair    | 0.8357     | 2.3561     | 3.1431     |  42.9 | 72.13
Neigh   | 0          | 0          | 0          |   0.0 |  0.00
Comm    | 0.037248   | 0.52625    | 1.6437     |  64.2 | 16.11
Output  | 0          | 0          | 0          |   0.0 |  0.00
Modify  | 5.9582e-05 | 0.0049756  | 0.010883   |   3.4 |  0.15
Other   |            | 0.3792     |            |       | 11.61

Nlocal:        5552.90 ave        7892 max           0 min
Histogram: 4 2 2 0 2 6 4 2 11 19
Nghost:        6214.02 ave        8773 max         412 min
Histogram: 4 0 4 0 8 0 4 5 7 20
Neighs:       158427.0 ave      229652 max           0 min
Histogram: 4 2 2 0 5 3 4 4 10 18

Total # of neighbors = 8238189
Ave neighs/atom = 28.530426
Neighbor list builds = 0
Dangerous builds = 0
The dot product: -6.72327376226423e-07
Setting atom values ...
  1 settings made for x
  1 settings made for y
  1 settings made for z
Setting up cg style minimization ...
  Unit style    : metal
  Current step  : 5596
Per MPI rank memory allocation (min/avg/max) = 5.465 | 6.344 | 6.728 Mbytes
Step PotEng KinEng TotEng v_fx v_fy v_fz 
    5596   -1152449.3            0   -1152449.3 -0.0094590636 -0.054398775 -0.036077469 
    5775   -1152449.3            0   -1152449.3 3.8931687e-05 -2.7127427e-05 -2.9406958e-05 
Loop time of 3.9408 on 52 procs for 179 steps with 288751 atoms

99.9% CPU use with 52 MPI tasks x 1 OpenMP threads

Minimization stats:
  Stopping criterion = linesearch alpha is zero
  Energy initial, next-to-last, final = 
     -1152449.33021743  -1152449.33139061  -1152449.33139061
  Force two-norm initial, final = 0.1557726 0.00014417925
  Force max component initial, final = 0.061785063 3.8931687e-05
  Final line search alpha, max atom move = 0.5 1.9465844e-05
  Iterations, force evaluations = 179 359

MPI task timing breakdown:
Section |  min time  |  avg time  |  max time  |%varavg| %total
---------------------------------------------------------------
Pair    | 1.0164     | 2.8636     | 3.7893     |  47.1 | 72.67
Neigh   | 0          | 0          | 0          |   0.0 |  0.00
Comm    | 0.045251   | 0.63504    | 1.9908     |  71.5 | 16.11
Output  | 0          | 0          | 0          |   0.0 |  0.00
Modify  | 6.6055e-05 | 0.0059913  | 0.012749   |   3.6 |  0.15
Other   |            | 0.4361     |            |       | 11.07

Nlocal:        5552.90 ave        7891 max           0 min
Histogram: 4 2 2 0 2 6 4 1 12 19
Nghost:        6214.02 ave        8773 max         412 min
Histogram: 4 0 4 0 8 0 4 5 7 20
Neighs:       158427.0 ave      229613 max           0 min
Histogram: 4 2 2 0 5 3 4 4 11 17

Total # of neighbors = 8238186
Ave neighs/atom = 28.530415
Neighbor list builds = 0
Dangerous builds = 0
The dot product: 1.07916927900541e-07
Setting atom values ...
  1 settings made for x
  1 settings made for y
  1 settings made for z
Setting up cg style minimization ...
  Unit style    : metal
  Current step  : 5775
Per MPI rank memory allocation (min/avg/max) = 5.465 | 6.344 | 6.728 Mbytes
Step PotEng KinEng TotEng v_fx v_fy v_fz 
    5775   -1152449.3            0   -1152449.3 -0.0075395769 -0.049897237 -0.033924057 
    5929   -1152449.3            0   -1152449.3 1.0167374e-05 -9.459563e-07 -3.319574e-06 
Loop time of 3.3954 on 52 procs for 154 steps with 288751 atoms

99.8% CPU use with 52 MPI tasks x 1 OpenMP threads

Minimization stats:
  Stopping criterion = energy tolerance
  Energy initial, next-to-last, final = 
     -1152449.32371594  -1152449.32484187  -1152449.32484187
  Force two-norm initial, final = 0.1521652 0.00024653976
  Force max component initial, final = 0.059872344 2.1369260e-05
  Final line search alpha, max atom move = 1.0000000 2.1369260e-05
  Iterations, force evaluations = 154 308

MPI task timing breakdown:
Section |  min time  |  avg time  |  max time  |%varavg| %total
---------------------------------------------------------------
Pair    | 0.87597    | 2.4593     | 3.2216     |  43.3 | 72.43
Neigh   | 0          | 0          | 0          |   0.0 |  0.00
Comm    | 0.039215   | 0.5434     | 1.7386     |  66.5 | 16.00
Output  | 0          | 0          | 0          |   0.0 |  0.00
Modify  | 6.1915e-05 | 0.0051476  | 0.010847   |   3.3 |  0.15
Other   |            | 0.3875     |            |       | 11.41

Nlocal:        5552.90 ave        7891 max           0 min
Histogram: 4 2 2 0 2 6 4 1 12 19
Nghost:        6214.02 ave        8773 max         412 min
Histogram: 4 0 4 0 8 0 4 5 7 20
Neighs:       158427.0 ave      229609 max           0 min
Histogram: 4 2 2 0 5 3 4 4 11 17

Total # of neighbors = 8238188
Ave neighs/atom = 28.530422
Neighbor list builds = 0
Dangerous builds = 0
The dot product: -1.78545549465284e-09
Setting atom values ...
  1 settings made for x
  1 settings made for y
  1 settings made for z
Setting up cg style minimization ...
  Unit style    : metal
  Current step  : 5929
Per MPI rank memory allocation (min/avg/max) = 5.465 | 6.344 | 6.728 Mbytes
Step PotEng KinEng TotEng v_fx v_fy v_fz 
    5929   -1152449.3            0   -1152449.3 -0.0073206394 -0.048600753 -0.033455792 
    6000   -1152449.3            0   -1152449.3 0.00015319613 0.0001570982 7.4659483e-05 
    6099   -1152449.3            0   -1152449.3 -2.9849152e-05 -1.5065997e-05 -3.2418451e-06 
Loop time of 3.81726 on 52 procs for 170 steps with 288751 atoms

99.9% CPU use with 52 MPI tasks x 1 OpenMP threads

Minimization stats:
  Stopping criterion = linesearch alpha is zero
  Energy initial, next-to-last, final = 
     -1152449.31569087  -1152449.31679507  -1152449.31679507
  Force two-norm initial, final = 0.15041951 0.00018049061
  Force max component initial, final = 0.05793144 3.7481788e-05
  Final line search alpha, max atom move = 0.25 9.3704470e-06
  Iterations, force evaluations = 170 343

MPI task timing breakdown:
Section |  min time  |  avg time  |  max time  |%varavg| %total
---------------------------------------------------------------
Pair    | 0.95833    | 2.7443     | 3.6445     |  46.2 | 71.89
Neigh   | 0          | 0          | 0          |   0.0 |  0.00
Comm    | 0.044361   | 0.62406    | 1.9221     |  68.4 | 16.35
Output  | 0.00011702 | 0.00012139 | 0.00029152 |   0.0 |  0.00
Modify  | 6.5183e-05 | 0.0056667  | 0.011998   |   3.5 |  0.15
Other   |            | 0.4431     |            |       | 11.61

Nlocal:        5552.90 ave        7891 max           0 min
Histogram: 4 2 2 0 2 6 4 1 12 19
Nghost:        6214.04 ave        8773 max         412 min
Histogram: 4 0 4 0 8 0 4 5 7 20
Neighs:       158427.0 ave      229595 max           0 min
Histogram: 4 2 2 0 5 3 4 4 11 17

Total # of neighbors = 8238189
Ave neighs/atom = 28.530426
Neighbor list builds = 0
Dangerous builds = 0
The dot product: 7.87341594558813e-08
Setting atom values ...
  1 settings made for x
  1 settings made for y
  1 settings made for z
Setting up cg style minimization ...
  Unit style    : metal
  Current step  : 6099
Per MPI rank memory allocation (min/avg/max) = 5.465 | 6.344 | 6.728 Mbytes
Step PotEng KinEng TotEng v_fx v_fy v_fz 
    6099   -1152449.3            0   -1152449.3 -0.0067656621 -0.047466801 -0.033144942 
    6304   -1152449.3            0   -1152449.3 -1.3835197e-05 1.1706663e-05 1.2167874e-05 
Loop time of 4.46194 on 52 procs for 205 steps with 288751 atoms

99.9% CPU use with 52 MPI tasks x 1 OpenMP threads

Minimization stats:
  Stopping criterion = linesearch alpha is zero
  Energy initial, next-to-last, final = 
     -1152449.30614133  -1152449.30722988  -1152449.30722988
  Force two-norm initial, final = 0.14904177 6.5730506e-05
  Force max component initial, final = 0.055959744 2.0351684e-05
  Final line search alpha, max atom move = 0.5 1.0175842e-05
  Iterations, force evaluations = 205 411

MPI task timing breakdown:
Section |  min time  |  avg time  |  max time  |%varavg| %total
---------------------------------------------------------------
Pair    | 1.1635     | 3.2629     | 4.2831     |  49.9 | 73.13
Neigh   | 0          | 0          | 0          |   0.0 |  0.00
Comm    | 0.051911   | 0.71346    | 2.2749     |  77.1 | 15.99
Output  | 0          | 0          | 0          |   0.0 |  0.00
Modify  | 8.149e-05  | 0.006843   | 0.014405   |   3.9 |  0.15
Other   |            | 0.4787     |            |       | 10.73

Nlocal:        5552.90 ave        7891 max           0 min
Histogram: 4 2 2 0 2 6 4 1 12 19
Nghost:        6214.02 ave        8773 max         412 min
Histogram: 4 0 4 0 8 0 4 5 7 20
Neighs:       158427.0 ave      229589 max           0 min
Histogram: 4 2 2 0 5 3 4 4 11 17

Total # of neighbors = 8238189
Ave neighs/atom = 28.530426
Neighbor list builds = 0
Dangerous builds = 0
The dot product: -4.24029177054837e-08
Setting atom values ...
  1 settings made for x
  1 settings made for y
  1 settings made for z
Setting up cg style minimization ...
  Unit style    : metal
  Current step  : 6304
Per MPI rank memory allocation (min/avg/max) = 5.465 | 6.344 | 6.728 Mbytes
Step PotEng KinEng TotEng v_fx v_fy v_fz 
    6304   -1152449.3            0   -1152449.3 -0.0057132866 -0.046269224 -0.032877399 
    6454   -1152449.3            0   -1152449.3 -1.8498728e-05 5.7934089e-05 4.7754577e-05 
Loop time of 3.3258 on 52 procs for 150 steps with 288751 atoms

99.9% CPU use with 52 MPI tasks x 1 OpenMP threads

Minimization stats:
  Stopping criterion = energy tolerance
  Energy initial, next-to-last, final = 
     -1152449.29504626  -1152449.29612142  -1152449.29612142
  Force two-norm initial, final = 0.1478492 0.00031804921
  Force max component initial, final = 0.054006253 8.2217681e-05
  Final line search alpha, max atom move = 1.0000000 8.2217681e-05
  Iterations, force evaluations = 150 300

MPI task timing breakdown:
Section |  min time  |  avg time  |  max time  |%varavg| %total
---------------------------------------------------------------
Pair    | 0.83956    | 2.3945     | 3.1863     |  43.1 | 72.00
Neigh   | 0          | 0          | 0          |   0.0 |  0.00
Comm    | 0.039582   | 0.54134    | 1.6731     |  64.6 | 16.28
Output  | 0          | 0          | 0          |   0.0 |  0.00
Modify  | 5.3878e-05 | 0.0049638  | 0.010508   |   3.3 |  0.15
Other   |            | 0.385      |            |       | 11.58

Nlocal:        5552.90 ave        7890 max           0 min
Histogram: 4 2 2 0 2 6 4 1 12 19
Nghost:        6214.02 ave        8773 max         412 min
Histogram: 4 0 4 0 8 0 4 5 7 20
Neighs:       158427.0 ave      229558 max           0 min
Histogram: 4 2 2 0 5 3 4 4 11 17

Total # of neighbors = 8238189
Ave neighs/atom = 28.530426
Neighbor list builds = 0
Dangerous builds = 0
The dot product: -2.29943472515138e-07
Setting atom values ...
  1 settings made for x
  1 settings made for y
  1 settings made for z
Setting up cg style minimization ...
  Unit style    : metal
  Current step  : 6454
Per MPI rank memory allocation (min/avg/max) = 5.465 | 6.344 | 6.728 Mbytes
Step PotEng KinEng TotEng v_fx v_fy v_fz 
    6454   -1152449.3            0   -1152449.3 -0.004253712 -0.045116497 -0.032715306 
    6654   -1152449.3            0   -1152449.3 2.1205864e-05 8.3951524e-06 8.5410606e-07 
Loop time of 4.36414 on 52 procs for 200 steps with 288751 atoms

99.9% CPU use with 52 MPI tasks x 1 OpenMP threads

Minimization stats:
  Stopping criterion = energy tolerance
  Energy initial, next-to-last, final = 
     -1152449.28238223  -1152449.28344626  -1152449.28344626
  Force two-norm initial, final = 0.14685706 8.4519346e-05
  Force max component initial, final = 0.052041749 2.1205864e-05
  Final line search alpha, max atom move = 1.0000000 2.1205864e-05
  Iterations, force evaluations = 200 400

MPI task timing breakdown:
Section |  min time  |  avg time  |  max time  |%varavg| %total
---------------------------------------------------------------
Pair    | 1.1304     | 3.1726     | 4.1949     |  49.5 | 72.70
Neigh   | 0          | 0          | 0          |   0.0 |  0.00
Comm    | 0.050774   | 0.70391    | 2.2099     |  75.1 | 16.13
Output  | 0          | 0          | 0          |   0.0 |  0.00
Modify  | 8.0057e-05 | 0.0066718  | 0.014093   |   3.8 |  0.15
Other   |            | 0.4809     |            |       | 11.02

Nlocal:        5552.90 ave        7890 max           0 min
Histogram: 4 2 2 0 2 6 4 1 12 19
Nghost:        6214.02 ave        8773 max         412 min
Histogram: 4 0 4 0 8 0 4 5 7 20
Neighs:       158427.0 ave      229562 max           0 min
Histogram: 4 2 2 0 5 3 4 4 11 17

Total # of neighbors = 8238188
Ave neighs/atom = 28.530422
Neighbor list builds = 0
Dangerous builds = 0
The dot product: -3.58279978287959e-08
Setting atom values ...
  1 settings made for x
  1 settings made for y
  1 settings made for z
Setting up cg style minimization ...
  Unit style    : metal
  Current step  : 6654
Per MPI rank memory allocation (min/avg/max) = 5.465 | 6.344 | 6.728 Mbytes
Step PotEng KinEng TotEng v_fx v_fy v_fz 
    6654   -1152449.3            0   -1152449.3 -0.0023757103 -0.044180668 -0.032787308 
    6805   -1152449.3            0   -1152449.3 -4.2463276e-05 -4.6657921e-05 -2.4392729e-05 
Loop time of 3.34877 on 52 procs for 151 steps with 288751 atoms

99.9% CPU use with 52 MPI tasks x 1 OpenMP threads

Minimization stats:
  Stopping criterion = energy tolerance
  Energy initial, next-to-last, final = 
     -1152449.26813151  -1152449.26918472  -1152449.26918472
  Force two-norm initial, final = 0.14620874 0.00031592979
  Force max component initial, final = 0.050030128 5.3824055e-05
  Final line search alpha, max atom move = 1.0000000 5.3824055e-05
  Iterations, force evaluations = 151 302

MPI task timing breakdown:
Section |  min time  |  avg time  |  max time  |%varavg| %total
---------------------------------------------------------------
Pair    | 0.85923    | 2.4148     | 3.2025     |  43.3 | 72.11
Neigh   | 0          | 0          | 0          |   0.0 |  0.00
Comm    | 0.038512   | 0.53504    | 1.687      |  65.6 | 15.98
Output  | 0          | 0          | 0          |   0.0 |  0.00
Modify  | 5.553e-05  | 0.0050396  | 0.01092    |   3.4 |  0.15
Other   |            | 0.3939     |            |       | 11.76

Nlocal:        5552.90 ave        7890 max           0 min
Histogram: 4 2 2 0 2 6 4 1 12 19
Nghost:        6214.02 ave        8772 max         412 min
Histogram: 4 0 4 0 8 0 4 5 7 20
Neighs:       158427.0 ave      229565 max           0 min
Histogram: 4 2 2 0 5 3 4 4 11 17

Total # of neighbors = 8238189
Ave neighs/atom = 28.530426
Neighbor list builds = 0
Dangerous builds = 0
The dot product: 1.79403698529202e-07
Setting atom values ...
  1 settings made for x
  1 settings made for y
  1 settings made for z
Setting up cg style minimization ...
  Unit style    : metal
  Current step  : 6805
Per MPI rank memory allocation (min/avg/max) = 5.465 | 6.344 | 6.728 Mbytes
Step PotEng KinEng TotEng v_fx v_fy v_fz 
    6805   -1152449.3            0   -1152449.3 -0.00033062351 -0.043599838 -0.033152731 
    6980   -1152449.3            0   -1152449.3 5.1683323e-05 -1.9422286e-05 -2.8048318e-05 
Loop time of 3.86159 on 52 procs for 175 steps with 288751 atoms

99.9% CPU use with 52 MPI tasks x 1 OpenMP threads

Minimization stats:
  Stopping criterion = energy tolerance
  Energy initial, next-to-last, final = 
     -1152449.25228095  -1152449.25332343  -1152449.25332343
  Force two-norm initial, final = 0.14583421 0.00018489027
  Force max component initial, final = 0.048041092 5.8024113e-05
  Final line search alpha, max atom move = 1.0000000 5.8024113e-05
  Iterations, force evaluations = 175 350

MPI task timing breakdown:
Section |  min time  |  avg time  |  max time  |%varavg| %total
---------------------------------------------------------------
Pair    | 0.98095    | 2.7892     | 3.7158     |  46.5 | 72.23
Neigh   | 0          | 0          | 0          |   0.0 |  0.00
Comm    | 0.044714   | 0.62543    | 1.9558     |  69.5 | 16.20
Output  | 0          | 0          | 0          |   0.0 |  0.00
Modify  | 7.1e-05    | 0.0058041  | 0.012371   |   3.6 |  0.15
Other   |            | 0.4412     |            |       | 11.42

Nlocal:        5552.90 ave        7889 max           0 min
Histogram: 4 2 2 0 2 6 4 1 12 19
Nghost:        6213.98 ave        8772 max         412 min
Histogram: 4 0 4 0 8 0 4 5 7 20
Neighs:       158427.0 ave      229528 max           0 min
Histogram: 4 2 2 0 5 3 4 4 11 17

Total # of neighbors = 8238189
Ave neighs/atom = 28.530426
Neighbor list builds = 0
Dangerous builds = 0
The dot product: 8.51190677169288e-08
Setting atom values ...
  1 settings made for x
  1 settings made for y
  1 settings made for z
Setting up cg style minimization ...
  Unit style    : metal
  Current step  : 6980
Per MPI rank memory allocation (min/avg/max) = 5.465 | 6.344 | 6.728 Mbytes
Step PotEng KinEng TotEng v_fx v_fy v_fz 
    6980   -1152449.2            0   -1152449.2 0.0020807167 -0.043435932 -0.033916711 
    7000   -1152449.2            0   -1152449.2 -0.0002972182 0.00081473878 0.00070241916 
    7159   -1152449.2            0   -1152449.2 -1.1670816e-05 -2.8392543e-05 -1.8827272e-05 
Loop time of 3.94913 on 52 procs for 179 steps with 288751 atoms

99.9% CPU use with 52 MPI tasks x 1 OpenMP threads

Minimization stats:
  Stopping criterion = energy tolerance
  Energy initial, next-to-last, final = 
     -1152449.23482462  -1152449.23585226  -1152449.23585226
  Force two-norm initial, final = 0.14570749 0.00017472163
  Force max component initial, final = 0.046996 3.8267069e-05
  Final line search alpha, max atom move = 1.0000000 3.8267069e-05
  Iterations, force evaluations = 179 358

MPI task timing breakdown:
Section |  min time  |  avg time  |  max time  |%varavg| %total
---------------------------------------------------------------
Pair    | 1.0027     | 2.8553     | 3.7997     |  46.9 | 72.30
Neigh   | 0          | 0          | 0          |   0.0 |  0.00
Comm    | 0.045054   | 0.63657    | 1.9901     |  71.2 | 16.12
Output  | 0.00011594 | 0.00012003 | 0.00028188 |   0.0 |  0.00
Modify  | 6.7412e-05 | 0.0059133  | 0.012485   |   3.6 |  0.15
Other   |            | 0.4512     |            |       | 11.43

Nlocal:        5552.90 ave        7889 max           0 min
Histogram: 4 2 2 0 2 6 4 1 12 19
Nghost:        6213.81 ave        8771 max         412 min
Histogram: 4 0 4 0 8 0 4 5 7 20
Neighs:       158427.0 ave      229519 max           0 min
Histogram: 4 2 2 0 5 3 4 4 11 17

Total # of neighbors = 8238188
Ave neighs/atom = 28.530422
Neighbor list builds = 0
Dangerous builds = 0
The dot product: 1.0859170567583e-07
Setting atom values ...
  1 settings made for x
  1 settings made for y
  1 settings made for z
Setting up cg style minimization ...
  Unit style    : metal
  Current step  : 7159
Per MPI rank memory allocation (min/avg/max) = 5.465 | 6.344 | 6.728 Mbytes
Step PotEng KinEng TotEng v_fx v_fy v_fz 
    7159   -1152449.2            0   -1152449.2 0.0046449786 -0.044216068 -0.035454641 
    7356   -1152449.2            0   -1152449.2 -2.8216834e-06 1.1475652e-05 9.6172977e-06 
Loop time of 4.28869 on 52 procs for 197 steps with 288751 atoms

99.9% CPU use with 52 MPI tasks x 1 OpenMP threads

Minimization stats:
  Stopping criterion = linesearch alpha is zero
  Energy initial, next-to-last, final = 
     -1152449.21576496  -1152449.21677759  -1152449.21677759
  Force two-norm initial, final = 0.14611537 0.00011124755
  Force max component initial, final = 0.05000718 2.0296548e-05
  Final line search alpha, max atom move = 0.5 1.0148274e-05
  Iterations, force evaluations = 197 395

MPI task timing breakdown:
Section |  min time  |  avg time  |  max time  |%varavg| %total
---------------------------------------------------------------
Pair    | 1.1176     | 3.135      | 4.1221     |  49.0 | 73.10
Neigh   | 0          | 0          | 0          |   0.0 |  0.00
Comm    | 0.050179   | 0.68834    | 2.191      |  75.5 | 16.05
Output  | 0          | 0          | 0          |   0.0 |  0.00
Modify  | 7.5336e-05 | 0.0065831  | 0.013899   |   3.8 |  0.15
Other   |            | 0.4588     |            |       | 10.70

Nlocal:        5552.90 ave        7887 max           0 min
Histogram: 4 2 2 0 2 6 4 1 12 19
Nghost:        6213.94 ave        8772 max         412 min
Histogram: 4 0 4 0 8 0 4 5 7 20
Neighs:       158427.0 ave      229449 max           0 min
Histogram: 4 2 2 0 4 4 4 4 11 17

Total # of neighbors = 8238189
Ave neighs/atom = 28.530426
Neighbor list builds = 0
Dangerous builds = 0
The dot product: -5.11010241494782e-08
Setting atom values ...
  1 settings made for x
  1 settings made for y
  1 settings made for z
Setting up cg style minimization ...
  Unit style    : metal
  Current step  : 7356
Per MPI rank memory allocation (min/avg/max) = 5.465 | 6.344 | 6.728 Mbytes
Step PotEng KinEng TotEng v_fx v_fy v_fz 
    7356   -1152449.2            0   -1152449.2 0.0075560214 -0.046256375 -0.038099024 
    7529   -1152449.2            0   -1152449.2 -7.0388937e-05 2.7117337e-05 3.9357286e-05 
Loop time of 3.77994 on 52 procs for 173 steps with 288751 atoms

99.9% CPU use with 52 MPI tasks x 1 OpenMP threads

Minimization stats:
  Stopping criterion = energy tolerance
  Energy initial, next-to-last, final = 
     -1152449.19513542  -1152449.19613453  -1152449.19613453
  Force two-norm initial, final = 0.14727201 0.00024368912
  Force max component initial, final = 0.053210747 8.4875326e-05
  Final line search alpha, max atom move = 1.0000000 8.4875326e-05
  Iterations, force evaluations = 173 346

MPI task timing breakdown:
Section |  min time  |  avg time  |  max time  |%varavg| %total
---------------------------------------------------------------
Pair    | 0.97679    | 2.7558     | 3.6327     |  46.1 | 72.91
Neigh   | 0          | 0          | 0          |   0.0 |  0.00
Comm    | 0.044006   | 0.61324    | 1.9225     |  69.9 | 16.22
Output  | 0          | 0          | 0          |   0.0 |  0.00
Modify  | 6.5611e-05 | 0.0057757  | 0.012236   |   3.5 |  0.15
Other   |            | 0.4052     |            |       | 10.72

Nlocal:        5552.90 ave        7886 max           0 min
Histogram: 4 2 2 0 2 6 4 1 12 19
Nghost:        6213.94 ave        8772 max         412 min
Histogram: 4 0 4 0 8 0 4 5 7 20
Neighs:       158427.0 ave      229417 max           0 min
Histogram: 4 2 2 0 4 4 4 4 11 17

Total # of neighbors = 8238190
Ave neighs/atom = 28.530429
Neighbor list builds = 0
Dangerous builds = 0
The dot product: -2.0836209675129e-07
Setting atom values ...
  1 settings made for x
  1 settings made for y
  1 settings made for z
Setting up cg style minimization ...
  Unit style    : metal
  Current step  : 7529
Per MPI rank memory allocation (min/avg/max) = 5.465 | 6.344 | 6.728 Mbytes
Step PotEng KinEng TotEng v_fx v_fy v_fz 
    7529   -1152449.2            0   -1152449.2    0.0106366 -0.050405264 -0.042541488 
    7721   -1152449.2            0   -1152449.2 -9.7246686e-06 1.1146327e-05 1.1321185e-05 
Loop time of 4.21195 on 52 procs for 192 steps with 288751 atoms

99.9% CPU use with 52 MPI tasks x 1 OpenMP threads

Minimization stats:
  Stopping criterion = linesearch alpha is zero
  Energy initial, next-to-last, final = 
     -1152449.17301739  -1152449.17402107  -1152449.17402107
  Force two-norm initial, final = 0.14996693 0.00011715691
  Force max component initial, final = 0.056409588 2.2800334e-05
  Final line search alpha, max atom move = 0.5 1.1400167e-05
  Iterations, force evaluations = 192 387

MPI task timing breakdown:
Section |  min time  |  avg time  |  max time  |%varavg| %total
---------------------------------------------------------------
Pair    | 1.0963     | 3.0755     | 4.039      |  48.6 | 73.02
Neigh   | 0          | 0          | 0          |   0.0 |  0.00
Comm    | 0.048988   | 0.6736     | 2.1481     |  74.8 | 15.99
Output  | 0          | 0          | 0          |   0.0 |  0.00
Modify  | 7.5975e-05 | 0.0064521  | 0.013572   |   3.7 |  0.15
Other   |            | 0.4564     |            |       | 10.84

Nlocal:        5552.90 ave        7886 max           0 min
Histogram: 4 2 2 0 2 6 4 1 12 19
Nghost:        6213.94 ave        8772 max         412 min
Histogram: 4 0 4 0 8 0 4 5 7 20
Neighs:       158427.0 ave      229410 max           0 min
Histogram: 4 2 2 0 4 4 4 4 11 17

Total # of neighbors = 8238193
Ave neighs/atom = 28.530440
Neighbor list builds = 0
Dangerous builds = 0
The dot product: -9.39024089534452e-08
Setting atom values ...
  1 settings made for x
  1 settings made for y
  1 settings made for z
Setting up cg style minimization ...
  Unit style    : metal
  Current step  : 7721
Per MPI rank memory allocation (min/avg/max) = 5.465 | 6.344 | 6.728 Mbytes
Step PotEng KinEng TotEng v_fx v_fy v_fz 
    7721   -1152449.1            0   -1152449.1   0.01505553 -0.058828054 -0.050986273 
    7991   -1152449.3            0   -1152449.3 2.8080718e-06 3.4639262e-05 2.6963387e-05 
Loop time of 5.91769 on 52 procs for 270 steps with 288751 atoms

99.9% CPU use with 52 MPI tasks x 1 OpenMP threads

Minimization stats:
  Stopping criterion = energy tolerance
  Energy initial, next-to-last, final = 
     -1152449.14962943  -1152449.31815978  -1152449.31815978
  Force two-norm initial, final = 0.15664635 0.00012377832
  Force max component initial, final = 0.059692379 3.4639262e-05
  Final line search alpha, max atom move = 1.0000000 3.4639262e-05
  Iterations, force evaluations = 270 539

MPI task timing breakdown:
Section |  min time  |  avg time  |  max time  |%varavg| %total
---------------------------------------------------------------
Pair    | 1.5434     | 4.2981     | 5.6636     |  57.3 | 72.63
Neigh   | 5.7962e-05 | 0.017216   | 0.025581   |   5.5 |  0.29
Comm    | 0.068491   | 0.95605    | 3.0043     |  87.3 | 16.16
Output  | 0          | 0          | 0          |   0.0 |  0.00
Modify  | 0.00010594 | 0.0089856  | 0.019026   |   4.4 |  0.15
Other   |            | 0.6374     |            |       | 10.77

Nlocal:        5552.90 ave        7892 max           0 min
Histogram: 4 2 2 0 2 6 4 1 12 19
Nghost:        6213.98 ave        8772 max         412 min
Histogram: 4 0 4 0 8 0 4 5 7 20
Neighs:       158426.0 ave      229605 max           0 min
Histogram: 4 2 2 0 5 3 4 4 11 17

Total # of neighbors = 8238177
Ave neighs/atom = 28.530384
Neighbor list builds = 3
Dangerous builds = 0
The dot product: -1.15472115516578e-05
Setting atom values ...
  1 settings made for x
  1 settings made for y
  1 settings made for z
Setting up cg style minimization ...
  Unit style    : metal
  Current step  : 7991
Per MPI rank memory allocation (min/avg/max) = 5.465 | 6.344 | 6.728 Mbytes
Step PotEng KinEng TotEng v_fx v_fy v_fz 
    7991   -1152449.3            0   -1152449.3 -0.020003769  0.075407302   0.12991592 
    8000   -1152449.3            0   -1152449.3 0.0014007107 -0.00089551877 -0.0024095242 
    8163   -1152449.3            0   -1152449.3 -2.9943625e-05 2.4387992e-05 5.9507741e-05 
Loop time of 3.75904 on 52 procs for 172 steps with 288751 atoms

99.9% CPU use with 52 MPI tasks x 1 OpenMP threads

[...]

Nlocal:        5552.90 ave        7876 max           0 min
Histogram: 4 2 2 0 2 6 4 1 12 19
Nghost:        6213.85 ave        8773 max         412 min
Histogram: 4 0 4 0 8 0 4 5 7 20
Neighs:       158427.0 ave      229074 max           0 min
Histogram: 4 2 2 0 4 4 4 4 10 18

Total # of neighbors = 8238212
Ave neighs/atom = 28.530506
Neighbor list builds = 0
Dangerous builds = 0
The dot product: -3.75202447513057e-08
Setting atom values ...
  1 settings made for x
  1 settings made for y
  1 settings made for z
Setting up cg style minimization ...
  Unit style    : metal
  Current step  : 17160
Per MPI rank memory allocation (min/avg/max) = 5.465 | 6.344 | 6.728 Mbytes
Step PotEng KinEng TotEng v_fx v_fy v_fz 
   17160   -1152448.8            0   -1152448.8 -0.0068675364 -0.026100277 -0.028203996 
   17322   -1152448.8            0   -1152448.8 9.7272114e-06 -2.7594494e-05 -4.3311135e-05 
Loop time of 3.53661 on 52 procs for 162 steps with 288751 atoms

99.9% CPU use with 52 MPI tasks x 1 OpenMP threads

Minimization stats:
  Stopping criterion = linesearch alpha is zero
  Energy initial, next-to-last, final = 
     -1152448.80453021  -1152448.80566883  -1152448.80566883
  Force two-norm initial, final = 0.15238166 0.00018746919
  Force max component initial, final = 0.081408626 4.3311135e-05
  Final line search alpha, max atom move = 0.25 1.0827784e-05
  Iterations, force evaluations = 162 329

MPI task timing breakdown:
Section |  min time  |  avg time  |  max time  |%varavg| %total
---------------------------------------------------------------
Pair    | 0.9299     | 2.6132     | 3.3996     |  44.7 | 73.89
Neigh   | 0          | 0          | 0          |   0.0 |  0.00
Comm    | 0.044653   | 0.56992    | 1.8223     |  69.3 | 16.11
Output  | 0          | 0          | 0          |   0.0 |  0.00
Modify  | 6.124e-05  | 0.0054919  | 0.011639   |   3.5 |  0.16
Other   |            | 0.348      |            |       |  9.84

Nlocal:        5552.90 ave        7875 max           0 min
Histogram: 4 2 2 0 2 6 4 1 12 19
Nghost:        6213.85 ave        8773 max         412 min
Histogram: 4 0 4 0 8 0 4 5 7 20
Neighs:       158427.0 ave      229035 max           0 min
Histogram: 4 2 2 0 4 4 4 4 9 19

Total # of neighbors = 8238212
Ave neighs/atom = 28.530506
Neighbor list builds = 0
Dangerous builds = 0
The dot product: 2.2289497203638e-07
Setting atom values ...
  1 settings made for x
  1 settings made for y
  1 settings made for z
Setting up cg style minimization ...
  Unit style    : metal
  Current step  : 17322
Per MPI rank memory allocation (min/avg/max) = 5.465 | 6.344 | 6.728 Mbytes
Step PotEng KinEng TotEng v_fx v_fy v_fz 
   17322   -1152448.8            0   -1152448.8  -0.01243538 -0.037635815 -0.039010862 
   17520   -1152448.8            0   -1152448.8 -4.9195842e-06 -1.1273098e-07 3.7461872e-06 
Loop time of 4.34129 on 52 procs for 198 steps with 288751 atoms

99.9% CPU use with 52 MPI tasks x 1 OpenMP threads

Minimization stats:
  Stopping criterion = linesearch alpha is zero
  Energy initial, next-to-last, final = 
     -1152448.76223557  -1152448.76473311  -1152448.76473311
  Force two-norm initial, final = 0.15827874 0.00016658155
  Force max component initial, final = 0.081215219 1.9541750e-05
  Final line search alpha, max atom move = 0.25 4.8854375e-06
  Iterations, force evaluations = 198 399

MPI task timing breakdown:
Section |  min time  |  avg time  |  max time  |%varavg| %total
---------------------------------------------------------------
Pair    | 1.1281     | 3.1734     | 4.1611     |  49.3 | 73.10
Neigh   | 0          | 0          | 0          |   0.0 |  0.00
Comm    | 0.05616    | 0.70294    | 2.2281     |  75.7 | 16.19
Output  | 0          | 0          | 0          |   0.0 |  0.00
Modify  | 7.4662e-05 | 0.0066456  | 0.013974   |   3.8 |  0.15
Other   |            | 0.4583     |            |       | 10.56

Nlocal:        5552.90 ave        7874 max           0 min
Histogram: 4 2 2 0 2 6 4 1 12 19
Nghost:        6213.83 ave        8773 max         412 min
Histogram: 4 0 4 0 8 0 4 5 7 20
Neighs:       158427.0 ave      229013 max           0 min
Histogram: 4 2 2 0 4 4 4 4 9 19

Total # of neighbors = 8238213
Ave neighs/atom = 28.530509
Neighbor list builds = 0
Dangerous builds = 0
The dot product: -3.95925924230394e-09
Setting atom values ...
  1 settings made for x
  1 settings made for y
  1 settings made for z
Setting up cg style minimization ...
  Unit style    : metal
  Current step  : 17520
Per MPI rank memory allocation (min/avg/max) = 5.465 | 6.344 | 6.728 Mbytes
Step PotEng KinEng TotEng v_fx v_fy v_fz 
   17520   -1152448.7            0   -1152448.7  -0.02576261 -0.060382043 -0.060908333 
   17667   -1152448.7            0   -1152448.7 -1.2099493e-05 1.3371107e-05 2.760814e-05 
Loop time of 3.17202 on 52 procs for 147 steps with 288751 atoms

99.9% CPU use with 52 MPI tasks x 1 OpenMP threads

Minimization stats:
  Stopping criterion = energy tolerance
  Energy initial, next-to-last, final = 
     -1152448.72373166  -1152448.72610316  -1152448.72610316
  Force two-norm initial, final = 0.17152021 0.00031491013
  Force max component initial, final = 0.081138947 6.8059216e-05
  Final line search alpha, max atom move = 1.0000000 6.8059216e-05
  Iterations, force evaluations = 147 294

MPI task timing breakdown:
Section |  min time  |  avg time  |  max time  |%varavg| %total
---------------------------------------------------------------
Pair    | 0.82877    | 2.3351     | 3.048      |  42.3 | 73.62
Neigh   | 0          | 0          | 0          |   0.0 |  0.00
Comm    | 0.039739   | 0.51138    | 1.6278     |  65.3 | 16.12
Output  | 0          | 0          | 0          |   0.0 |  0.00
Modify  | 5.6765e-05 | 0.0049076  | 0.010288   |   3.3 |  0.15
Other   |            | 0.3207     |            |       | 10.11

Nlocal:        5552.90 ave        7875 max           0 min
Histogram: 4 2 2 0 2 6 4 1 12 19
Nghost:        6213.81 ave        8773 max         412 min
Histogram: 4 0 4 0 8 0 4 5 7 20
Neighs:       158427.0 ave      229055 max           0 min
Histogram: 4 2 2 0 4 4 4 4 9 19

Total # of neighbors = 8238214
Ave neighs/atom = 28.530512
Neighbor list builds = 0
Dangerous builds = 0
The dot product: -5.7967064695921e-07
Setting atom values ...
  1 settings made for x
  1 settings made for y
  1 settings made for z
Setting up cg style minimization ...
  Unit style    : metal
  Current step  : 17667
Per MPI rank memory allocation (min/avg/max) = 5.465 | 6.344 | 6.728 Mbytes
Step PotEng KinEng TotEng v_fx v_fy v_fz 
   17667   -1152448.7            0   -1152448.7 -0.023864098 -0.052417825 -0.053713531 
   17809   -1152448.7            0   -1152448.7 -2.7297649e-05 9.9013015e-06 3.5398859e-05 
Loop time of 3.07205 on 52 procs for 142 steps with 288751 atoms

99.9% CPU use with 52 MPI tasks x 1 OpenMP threads

Minimization stats:
  Stopping criterion = energy tolerance
  Energy initial, next-to-last, final = 
     -1152448.68599996  -1152448.68764174  -1152448.68764174
  Force two-norm initial, final = 0.16312951 0.00021887496
  Force max component initial, final = 0.080740971 6.2474213e-05
  Final line search alpha, max atom move = 1.0000000 6.2474213e-05
  Iterations, force evaluations = 142 284

MPI task timing breakdown:
Section |  min time  |  avg time  |  max time  |%varavg| %total
---------------------------------------------------------------
Pair    | 0.80325    | 2.2601     | 2.9518     |  41.6 | 73.57
Neigh   | 0          | 0          | 0          |   0.0 |  0.00
Comm    | 0.03763    | 0.50184    | 1.6032     |  64.0 | 16.34
Output  | 0          | 0          | 0          |   0.0 |  0.00
Modify  | 5.335e-05  | 0.0047428  | 0.0099382  |   3.2 |  0.15
Other   |            | 0.3053     |            |       |  9.94

Nlocal:        5552.90 ave        7875 max           0 min
Histogram: 4 2 2 0 2 6 4 1 12 19
Nghost:        6213.79 ave        8773 max         412 min
Histogram: 4 0 4 0 8 0 4 5 7 20
Neighs:       158427.0 ave      229054 max           0 min
Histogram: 4 2 2 0 4 4 4 4 9 19

Total # of neighbors = 8238215
Ave neighs/atom = 28.530516
Neighbor list builds = 0
Dangerous builds = 0
The dot product: -2.74179778856154e-07
Setting atom values ...
  1 settings made for x
  1 settings made for y
  1 settings made for z
Setting up cg style minimization ...
  Unit style    : metal
  Current step  : 17809
Per MPI rank memory allocation (min/avg/max) = 5.465 | 6.344 | 6.728 Mbytes
Step PotEng KinEng TotEng v_fx v_fy v_fz 
   17809   -1152448.6            0   -1152448.6 -0.023448793 -0.048133929 -0.049424748 
   18000   -1152448.7            0   -1152448.7 4.2790066e-05 -0.00013889893 -0.00023025812 
   18053   -1152448.7            0   -1152448.7 1.6481402e-05 -1.3805996e-05 -3.2588482e-05 
Loop time of 5.31269 on 52 procs for 244 steps with 288751 atoms

99.9% CPU use with 52 MPI tasks x 1 OpenMP threads

Minimization stats:
  Stopping criterion = linesearch alpha is zero
  Energy initial, next-to-last, final = 
     -1152448.64784842  -1152448.66787388  -1152448.66787388
  Force two-norm initial, final = 0.15889671 0.00015088841
  Force max component initial, final = 0.079919891 4.7069692e-05
  Final line search alpha, max atom move = 0.5 2.3534846e-05
  Iterations, force evaluations = 244 493

MPI task timing breakdown:
Section |  min time  |  avg time  |  max time  |%varavg| %total
---------------------------------------------------------------
Pair    | 1.4        | 3.9162     | 5.086      |  54.5 | 73.71
Neigh   | 1.8496e-05 | 0.0057719  | 0.0085402  |   3.2 |  0.11
Comm    | 0.065946   | 0.85713    | 2.7383     |  84.6 | 16.13
Output  | 0.00020056 | 0.00020557 | 0.00037826 |   0.0 |  0.00
Modify  | 9.2652e-05 | 0.0082124  | 0.017373   |   4.2 |  0.15
Other   |            | 0.5252     |            |       |  9.89

Nlocal:        5552.90 ave        7876 max           0 min
Histogram: 4 2 2 0 2 6 4 1 12 19
Nghost:        6213.79 ave        8773 max         412 min
Histogram: 4 0 4 0 8 0 4 5 7 20
Neighs:       158428.0 ave      229081 max           0 min
Histogram: 4 2 2 0 4 4 4 4 10 18

Total # of neighbors = 8238233
Ave neighs/atom = 28.530578
Neighbor list builds = 1
Dangerous builds = 0
The dot product: 2.50018192909608e-06
Setting atom values ...
  1 settings made for x
  1 settings made for y
  1 settings made for z
Setting up cg style minimization ...
  Unit style    : metal
  Current step  : 18053
Per MPI rank memory allocation (min/avg/max) = 5.465 | 6.344 | 6.728 Mbytes
Step PotEng KinEng TotEng v_fx v_fy v_fz 
   18053   -1152448.6            0   -1152448.6 -0.056294633 -0.083682341 -0.088545966 
   18198   -1152448.6            0   -1152448.6 -1.456546e-05 -3.5185832e-07 1.0981193e-05 
Loop time of 3.13609 on 52 procs for 145 steps with 288751 atoms

99.9% CPU use with 52 MPI tasks x 1 OpenMP threads

Minimization stats:
  Stopping criterion = energy tolerance
  Energy initial, next-to-last, final = 
     -1152448.64377036   -1152448.6455194   -1152448.6455194
  Force two-norm initial, final = 0.18923366 0.00024112655
  Force max component initial, final = 0.088545966 4.9154693e-05
  Final line search alpha, max atom move = 1.0000000 4.9154693e-05
  Iterations, force evaluations = 145 290

MPI task timing breakdown:
Section |  min time  |  avg time  |  max time  |%varavg| %total
---------------------------------------------------------------
Pair    | 0.8202     | 2.3062     | 3.0132     |  42.0 | 73.54
Neigh   | 0          | 0          | 0          |   0.0 |  0.00
Comm    | 0.038314   | 0.51093    | 1.6329     |  64.7 | 16.29
Output  | 0          | 0          | 0          |   0.0 |  0.00
Modify  | 5.5489e-05 | 0.0048421  | 0.010139   |   3.2 |  0.15
Other   |            | 0.3141     |            |       | 10.02

Nlocal:        5552.90 ave        7885 max           0 min
Histogram: 4 2 2 0 2 6 4 1 12 19
Nghost:        6214.17 ave        8775 max         412 min
Histogram: 4 0 4 0 8 0 4 5 7 20
Neighs:       158427.0 ave      229361 max           0 min
Histogram: 4 2 2 0 4 4 4 4 11 17

Total # of neighbors = 8238219
Ave neighs/atom = 28.530530
Neighbor list builds = 0
Dangerous builds = 0
The dot product: 7.42929418861108e-08
Setting atom values ...
  1 settings made for x
  1 settings made for y
  1 settings made for z
Setting up cg style minimization ...
  Unit style    : metal
  Current step  : 18198
Per MPI rank memory allocation (min/avg/max) = 5.465 | 6.344 | 6.728 Mbytes
Step PotEng KinEng TotEng v_fx v_fy v_fz 
   18198   -1152448.6            0   -1152448.6 -0.029121771 -0.048176887 -0.054959555 
   18317   -1152448.6            0   -1152448.6 5.5154126e-06 -7.2380563e-06 -1.6051036e-05 
Loop time of 2.56962 on 52 procs for 119 steps with 288751 atoms

99.9% CPU use with 52 MPI tasks x 1 OpenMP threads

Minimization stats:
  Stopping criterion = energy tolerance
  Energy initial, next-to-last, final = 
     -1152448.62067226  -1152448.62169213  -1152448.62169213
  Force two-norm initial, final = 0.15400048 0.00022967369
  Force max component initial, final = 0.070880125 4.0298953e-05
  Final line search alpha, max atom move = 1.0000000 4.0298953e-05
  Iterations, force evaluations = 119 238

MPI task timing breakdown:
Section |  min time  |  avg time  |  max time  |%varavg| %total
---------------------------------------------------------------
Pair    | 0.6741     | 1.8922     | 2.4692     |  38.0 | 73.64
Neigh   | 0          | 0          | 0          |   0.0 |  0.00
Comm    | 0.032832   | 0.41551    | 1.3257     |  58.9 | 16.17
Output  | 0          | 0          | 0          |   0.0 |  0.00
Modify  | 4.6493e-05 | 0.003982   | 0.0083857  |   2.9 |  0.15
Other   |            | 0.258      |            |       | 10.04

Nlocal:        5552.90 ave        7883 max           0 min
Histogram: 4 2 2 0 2 6 4 1 12 19
Nghost:        6214.17 ave        8775 max         412 min
Histogram: 4 0 4 0 8 0 4 5 7 20
Neighs:       158427.0 ave      229310 max           0 min
Histogram: 4 2 2 0 4 4 4 4 10 18

Total # of neighbors = 8238219
Ave neighs/atom = 28.530530
Neighbor list builds = 0
Dangerous builds = 0
The dot product: 2.5833138017174e-08
Setting atom values ...
  1 settings made for x
  1 settings made for y
  1 settings made for z
Setting up cg style minimization ...
  Unit style    : metal
  Current step  : 18317
Per MPI rank memory allocation (min/avg/max) = 5.465 | 6.344 | 6.728 Mbytes
Step PotEng KinEng TotEng v_fx v_fy v_fz 
   18317   -1152448.6            0   -1152448.6 -0.023215809 -0.043043146 -0.051703806 
   18497   -1152448.6            0   -1152448.6 1.4235613e-06 -1.5182942e-05 -2.5770984e-05 
Loop time of 3.90156 on 52 procs for 180 steps with 288751 atoms

99.9% CPU use with 52 MPI tasks x 1 OpenMP threads

Minimization stats:
  Stopping criterion = linesearch alpha is zero
  Energy initial, next-to-last, final = 
     -1152448.59591389  -1152448.59686517  -1152448.59686517
  Force two-norm initial, final = 0.14882053 0.0001395583
  Force max component initial, final = 0.069684353 3.4970480e-05
  Final line search alpha, max atom move = 0.5 1.7485240e-05
  Iterations, force evaluations = 180 361

MPI task timing breakdown:
Section |  min time  |  avg time  |  max time  |%varavg| %total
---------------------------------------------------------------
Pair    | 1.0207     | 2.8702     | 3.7477     |  46.8 | 73.57
Neigh   | 0          | 0          | 0          |   0.0 |  0.00
Comm    | 0.047817   | 0.63592    | 2.0292     |  72.2 | 16.30
Output  | 0          | 0          | 0          |   0.0 |  0.00
Modify  | 6.9433e-05 | 0.0060173  | 0.012653   |   3.6 |  0.15
Other   |            | 0.3894     |            |       |  9.98

Nlocal:        5552.90 ave        7881 max           0 min
Histogram: 4 2 2 0 2 6 4 1 12 19
Nghost:        6214.17 ave        8775 max         412 min
Histogram: 4 0 4 0 8 0 4 5 7 20
Neighs:       158427.0 ave      229241 max           0 min
Histogram: 4 2 2 0 4 4 4 4 10 18

Total # of neighbors = 8238221
Ave neighs/atom = 28.530537
Neighbor list builds = 0
Dangerous builds = 0
The dot product: 6.50813026642777e-08
Setting atom values ...
  1 settings made for x
  1 settings made for y
  1 settings made for z
Setting up cg style minimization ...
  Unit style    : metal
  Current step  : 18497
Per MPI rank memory allocation (min/avg/max) = 5.465 | 6.344 | 6.728 Mbytes
Step PotEng KinEng TotEng v_fx v_fy v_fz 
   18497   -1152448.6            0   -1152448.6 -0.019129994 -0.041258006 -0.052265345 
   18639   -1152448.6            0   -1152448.6 1.6926131e-05 8.8961642e-06 1.2871431e-06 
Loop time of 3.09498 on 52 procs for 142 steps with 288751 atoms

99.9% CPU use with 52 MPI tasks x 1 OpenMP threads

Minimization stats:
  Stopping criterion = linesearch alpha is zero
  Energy initial, next-to-last, final = 
     -1152448.57019789  -1152448.57109635  -1152448.57109635
  Force two-norm initial, final = 0.1463081 0.00021509864
  Force max component initial, final = 0.068549597 2.8349118e-05
  Final line search alpha, max atom move = 0.25 7.0872794e-06
  Iterations, force evaluations = 142 287

MPI task timing breakdown:
Section |  min time  |  avg time  |  max time  |%varavg| %total
---------------------------------------------------------------
Pair    | 0.81174    | 2.2803     | 2.9741     |  41.8 | 73.68
Neigh   | 0          | 0          | 0          |   0.0 |  0.00
Comm    | 0.039477   | 0.49723    | 1.5866     |  64.8 | 16.07
Output  | 0          | 0          | 0          |   0.0 |  0.00
Modify  | 5.4535e-05 | 0.0047916  | 0.010173   |   3.2 |  0.15
Other   |            | 0.3126     |            |       | 10.10

Nlocal:        5552.90 ave        7879 max           0 min
Histogram: 4 2 2 0 2 6 4 1 12 19
Nghost:        6214.17 ave        8775 max         412 min
Histogram: 4 0 4 0 8 0 4 5 7 20
Neighs:       158427.0 ave      229175 max           0 min
Histogram: 4 2 2 0 4 4 4 4 10 18

Total # of neighbors = 8238223
Ave neighs/atom = 28.530544
Neighbor list builds = 0
Dangerous builds = 0
The dot product: -9.39788395355796e-08
Setting atom values ...
  1 settings made for x
  1 settings made for y
  1 settings made for z
Setting up cg style minimization ...
  Unit style    : metal
  Current step  : 18639
Per MPI rank memory allocation (min/avg/max) = 5.465 | 6.344 | 6.728 Mbytes
Step PotEng KinEng TotEng v_fx v_fy v_fz 
   18639   -1152448.5            0   -1152448.5  -0.01404305 -0.039635586 -0.053815219 
   18791   -1152448.5            0   -1152448.5 5.6176428e-06 7.5393051e-06 7.9471859e-06 
Loop time of 3.31591 on 52 procs for 152 steps with 288751 atoms

99.9% CPU use with 52 MPI tasks x 1 OpenMP threads

Minimization stats:
  Stopping criterion = linesearch alpha is zero
  Energy initial, next-to-last, final = 
       -1152448.543652  -1152448.54452623  -1152448.54452623
  Force two-norm initial, final = 0.14445948 0.000162632
  Force max component initial, final = 0.067736923 2.8277595e-05
  Final line search alpha, max atom move = 0.25 7.0693987e-06
  Iterations, force evaluations = 152 307

MPI task timing breakdown:
Section |  min time  |  avg time  |  max time  |%varavg| %total
---------------------------------------------------------------
Pair    | 0.86991    | 2.4413     | 3.1878     |  43.2 | 73.62
Neigh   | 0          | 0          | 0          |   0.0 |  0.00
Comm    | 0.041385   | 0.53636    | 1.7125     |  66.7 | 16.18
Output  | 0          | 0          | 0          |   0.0 |  0.00
Modify  | 5.7394e-05 | 0.0051285  | 0.010804   |   3.3 |  0.15
Other   |            | 0.3332     |            |       | 10.05

Nlocal:        5552.90 ave        7878 max           0 min
Histogram: 4 2 2 0 2 6 4 1 12 19
Nghost:        6214.17 ave        8775 max         412 min
Histogram: 4 0 4 0 8 0 4 5 7 20
Neighs:       158427.0 ave      229152 max           0 min
Histogram: 4 2 2 0 4 4 4 4 10 18

Total # of neighbors = 8238223
Ave neighs/atom = 28.530544
Neighbor list builds = 0
Dangerous builds = 0
The dot product: -5.04621775086951e-08
