LAMMPS (29 Oct 2020)
OMP_NUM_THREADS environment is not set. Defaulting to 1 thread. (../comm.cpp:94)
  using 1 OpenMP thread(s) per MPI task
OMP_NUM_THREADS environment is not set. Defaulting to 1 thread. (../comm.cpp:94)
  using 1 OpenMP thread(s) per MPI task
Reading data file ...
  orthogonal box = (-122.39241 -121.13707 -37.090501) to (122.39241 121.13707 37.090501)
  13 by 4 by 1 MPI processor grid
  reading atoms ...
  288751 atoms
  read_data CPU = 0.456 seconds
199981 atoms in group inner
88770 atoms in group outer
1 atoms in group carbon
Neighbor list info ...
  update every 1 steps, delay 0 steps, check yes
  max neighbors/atom: 2000, page size: 100000
  master list distance cutoff = 5.6
  ghost atom cutoff = 5.6
  binsize = 2.8, bins = 88 87 27
  1 neighbor lists, perpetual/occasional/extra = 1 0 0
  (1) pair eam/alloy, perpetual
      attributes: half, newton on
      pair build: half/bin/atomonly/newton
      stencil: half/bin/3d/newton
      bin: standard
Setting up cg style minimization ...
  Unit style    : metal
  Current step  : 0
Per MPI rank memory allocation (min/avg/max) = 5.465 | 6.344 | 6.728 Mbytes
Step v_fx v_fy v_fz PotEng KinEng TotEng 
       0   -25.342612    15.021638    49.836939   -1152433.5            0   -1152433.5 
     174 5.1919204e-06 -1.0348051e-05 1.5371361e-05   -1152449.5            0   -1152449.5 
Loop time of 3.84568 on 52 procs for 174 steps with 288751 atoms

99.8% CPU use with 52 MPI tasks x 1 OpenMP threads

Minimization stats:
  Stopping criterion = linesearch alpha is zero
  Energy initial, next-to-last, final = 
     -1152433.51066595   -1152449.4503526   -1152449.4503526
  Force two-norm initial, final = 86.887374 8.3480894e-05
  Force max component initial, final = 57.083324 1.6953612e-05
  Final line search alpha, max atom move = 0.5 8.4768058e-06
  Iterations, force evaluations = 174 340

MPI task timing breakdown:
Section |  min time  |  avg time  |  max time  |%varavg| %total
---------------------------------------------------------------
Pair    | 1.0163     | 2.7354     | 3.562      |  44.4 | 71.13
Neigh   | 0.00011835 | 0.032128   | 0.047921   |   7.7 |  0.84
Comm    | 0.058202   | 0.61601    | 1.9156     |  69.0 | 16.02
Output  | 0          | 0          | 0          |   0.0 |  0.00
Modify  | 4.9404e-05 | 0.0037525  | 0.0094443  |   3.7 |  0.10
Other   |            | 0.4584     |            |       | 11.92

Nlocal:        5552.90 ave        7911 max           0 min
Histogram: 4 2 2 0 2 6 4 0 15 17
Nghost:        6213.54 ave        8769 max         412 min
Histogram: 4 0 4 0 8 0 4 5 7 20
Neighs:       158427.0 ave      230610 max           0 min
Histogram: 4 2 2 0 5 3 4 4 12 16

Total # of neighbors = 8238206
Ave neighs/atom = 28.530485
Neighbor list builds = 5
Dangerous builds = 0
Setting atom values ...
  1 settings made for x
  1 settings made for y
  1 settings made for z
Setting up cg style minimization ...
  Unit style    : metal
  Current step  : 174
Per MPI rank memory allocation (min/avg/max) = 5.465 | 6.344 | 6.728 Mbytes
Step PotEng KinEng TotEng v_fx v_fy v_fz 
     174   -1152449.4            0   -1152449.4  0.015510176 0.0058615928 -0.019393433 
     322   -1152449.5            0   -1152449.5 9.8286991e-06 -1.1235603e-05 -2.5078568e-05 
Loop time of 3.30239 on 52 procs for 148 steps with 288751 atoms

99.9% CPU use with 52 MPI tasks x 1 OpenMP threads

Minimization stats:
  Stopping criterion = energy tolerance
  Energy initial, next-to-last, final = 
     -1152449.44949205  -1152449.45006458  -1152449.45006458
  Force two-norm initial, final = 0.11247019 0.00022458983
  Force max component initial, final = 0.05005411 3.9109216e-05
  Final line search alpha, max atom move = 1.0000000 3.9109216e-05
  Iterations, force evaluations = 148 296

MPI task timing breakdown:
Section |  min time  |  avg time  |  max time  |%varavg| %total
---------------------------------------------------------------
Pair    | 0.83559    | 2.361      | 3.0965     |  42.5 | 71.49
Neigh   | 0          | 0          | 0          |   0.0 |  0.00
Comm    | 0.05015    | 0.52688    | 1.6473     |  64.7 | 15.95
Output  | 0          | 0          | 0          |   0.0 |  0.00
Modify  | 5.1926e-05 | 0.0049758  | 0.010511   |   3.3 |  0.15
Other   |            | 0.4096     |            |       | 12.40

Nlocal:        5552.90 ave        7910 max           0 min
Histogram: 4 2 2 0 2 6 4 0 15 17
Nghost:        6213.54 ave        8769 max         412 min
Histogram: 4 0 4 0 8 0 4 5 7 20
Neighs:       158427.0 ave      230596 max           0 min
Histogram: 4 2 2 0 5 3 4 4 12 16

Total # of neighbors = 8238197
Ave neighs/atom = 28.530454
Neighbor list builds = 0
Dangerous builds = 0
Setting atom values ...
  1 settings made for x
  1 settings made for y
  1 settings made for z
Setting up cg style minimization ...
  Unit style    : metal
  Current step  : 322
Per MPI rank memory allocation (min/avg/max) = 5.465 | 6.344 | 6.728 Mbytes
Step PotEng KinEng TotEng v_fx v_fy v_fz 
     322   -1152449.4            0   -1152449.4  0.027281237 0.0091266017 -0.042758341 
     492   -1152449.4            0   -1152449.4 8.5214487e-06 4.1100655e-06 -1.1848182e-05 
Loop time of 3.78122 on 52 procs for 170 steps with 288751 atoms

99.9% CPU use with 52 MPI tasks x 1 OpenMP threads

Minimization stats:
  Stopping criterion = energy tolerance
  Energy initial, next-to-last, final = 
     -1152449.44631915  -1152449.44815034  -1152449.44815034
  Force two-norm initial, final = 0.20345713 0.00018883755
  Force max component initial, final = 0.0902827 1.4625191e-05
  Final line search alpha, max atom move = 1.0000000 1.4625191e-05
  Iterations, force evaluations = 170 342

MPI task timing breakdown:
Section |  min time  |  avg time  |  max time  |%varavg| %total
---------------------------------------------------------------
Pair    | 0.96136    | 2.7232     | 3.5684     |  45.6 | 72.02
Neigh   | 0          | 0          | 0          |   0.0 |  0.00
Comm    | 0.053545   | 0.60498    | 1.9056     |  70.0 | 16.00
Output  | 0          | 0          | 0          |   0.0 |  0.00
Modify  | 5.9979e-05 | 0.0057092  | 0.012069   |   3.5 |  0.15
Other   |            | 0.4473     |            |       | 11.83

Nlocal:        5552.90 ave        7909 max           0 min
Histogram: 4 2 2 0 2 6 4 0 15 17
Nghost:        6213.54 ave        8769 max         412 min
Histogram: 4 0 4 0 8 0 4 5 7 20
Neighs:       158427.0 ave      230551 max           0 min
Histogram: 4 2 2 0 5 3 4 4 12 16

Total # of neighbors = 8238197
Ave neighs/atom = 28.530454
Neighbor list builds = 0
Dangerous builds = 0
The dot product: 3.51909258364101e-08
Setting atom values ...
  1 settings made for x
  1 settings made for y
  1 settings made for z
Setting up cg style minimization ...
  Unit style    : metal
  Current step  : 492
Per MPI rank memory allocation (min/avg/max) = 5.465 | 6.344 | 6.728 Mbytes
Step PotEng KinEng TotEng v_fx v_fy v_fz 
     492   -1152449.4            0   -1152449.4  0.027275227   0.01190227 -0.052140052 
     598   -1152449.4            0   -1152449.4 1.6533564e-05 -1.4834444e-05 -6.9988775e-05 
Loop time of 2.36739 on 52 procs for 106 steps with 288751 atoms

99.8% CPU use with 52 MPI tasks x 1 OpenMP threads

Minimization stats:
  Stopping criterion = energy tolerance
  Energy initial, next-to-last, final = 
     -1152449.44288638  -1152449.44469087  -1152449.44469087
  Force two-norm initial, final = 0.20376865 0.00024731875
  Force max component initial, final = 0.089267516 6.9988775e-05
  Final line search alpha, max atom move = 1.0000000 6.9988775e-05
  Iterations, force evaluations = 106 212

MPI task timing breakdown:
Section |  min time  |  avg time  |  max time  |%varavg| %total
---------------------------------------------------------------
Pair    | 0.61252    | 1.6996     | 2.226      |  35.8 | 71.79
Neigh   | 0          | 0          | 0          |   0.0 |  0.00
Comm    | 0.035014   | 0.37731    | 1.1851     |  55.2 | 15.94
Output  | 0          | 0          | 0          |   0.0 |  0.00
Modify  | 3.8434e-05 | 0.0035895  | 0.0076453  |   2.8 |  0.15
Other   |            | 0.2869     |            |       | 12.12

Nlocal:        5552.90 ave        7909 max           0 min
Histogram: 4 2 2 0 2 6 4 0 15 17
Nghost:        6213.54 ave        8769 max         412 min
Histogram: 4 0 4 0 8 0 4 5 7 20
Neighs:       158427.0 ave      230555 max           0 min
Histogram: 4 2 2 0 5 3 4 4 12 16

Total # of neighbors = 8238196
Ave neighs/atom = 28.530450
Neighbor list builds = 0
Dangerous builds = 0
The dot product: 4.07841947260944e-07
Setting atom values ...
  1 settings made for x
  1 settings made for y
  1 settings made for z
Setting up cg style minimization ...
  Unit style    : metal
  Current step  : 598
Per MPI rank memory allocation (min/avg/max) = 5.465 | 6.344 | 6.728 Mbytes
Step PotEng KinEng TotEng v_fx v_fy v_fz 
     598   -1152449.4            0   -1152449.4  0.026323594  0.020446452  -0.05478641 
     724   -1152449.4            0   -1152449.4 -3.6801162e-06 7.6706102e-07 1.7641126e-05 
Loop time of 2.81055 on 52 procs for 126 steps with 288751 atoms

99.9% CPU use with 52 MPI tasks x 1 OpenMP threads

Minimization stats:
  Stopping criterion = linesearch alpha is zero
  Energy initial, next-to-last, final = 
     -1152449.43813195  -1152449.43991407  -1152449.43991407
  Force two-norm initial, final = 0.20170035 0.00010328855
  Force max component initial, final = 0.085621373 1.7641126e-05
  Final line search alpha, max atom move = 0.5 8.8205631e-06
  Iterations, force evaluations = 126 253

MPI task timing breakdown:
Section |  min time  |  avg time  |  max time  |%varavg| %total
---------------------------------------------------------------
Pair    | 0.70817    | 2.0154     | 2.6401     |  39.3 | 71.71
Neigh   | 0          | 0          | 0          |   0.0 |  0.00
Comm    | 0.043251   | 0.4489     | 1.4152     |  60.4 | 15.97
Output  | 0          | 0          | 0          |   0.0 |  0.00
Modify  | 4.1767e-05 | 0.0042222  | 0.0089599  |   3.0 |  0.15
Other   |            | 0.342      |            |       | 12.17

Nlocal:        5552.90 ave        7908 max           0 min
Histogram: 4 2 2 0 2 6 4 0 15 17
Nghost:        6213.54 ave        8769 max         412 min
Histogram: 4 0 4 0 8 0 4 5 7 20
Neighs:       158427.0 ave      230520 max           0 min
Histogram: 4 2 2 0 5 3 4 4 12 16

Total # of neighbors = 8238201
Ave neighs/atom = 28.530467
Neighbor list builds = 0
Dangerous builds = 0
The dot product: -1.18956143222196e-07
Setting atom values ...
  1 settings made for x
  1 settings made for y
  1 settings made for z
Setting up cg style minimization ...
  Unit style    : metal
  Current step  : 724
Per MPI rank memory allocation (min/avg/max) = 5.465 | 6.344 | 6.728 Mbytes
Step PotEng KinEng TotEng v_fx v_fy v_fz 
     724   -1152449.4            0   -1152449.4  0.023513923  0.027389244 -0.051019566 
     839   -1152449.4            0   -1152449.4 -1.2709286e-05 -6.8094292e-06 6.7794558e-05 
Loop time of 2.5521 on 52 procs for 115 steps with 288751 atoms

99.9% CPU use with 52 MPI tasks x 1 OpenMP threads

Minimization stats:
  Stopping criterion = energy tolerance
  Energy initial, next-to-last, final = 
     -1152449.43206739  -1152449.43380219  -1152449.43380219
  Force two-norm initial, final = 0.19748424 0.00030029752
  Force max component initial, final = 0.080735363 6.7794558e-05
  Final line search alpha, max atom move = 1.0000000 6.7794558e-05
  Iterations, force evaluations = 115 230

MPI task timing breakdown:
Section |  min time  |  avg time  |  max time  |%varavg| %total
---------------------------------------------------------------
Pair    | 0.64437    | 1.8359     | 2.4052     |  37.6 | 71.94
Neigh   | 0          | 0          | 0          |   0.0 |  0.00
Comm    | 0.034433   | 0.40743    | 1.2798     |  57.5 | 15.96
Output  | 0          | 0          | 0          |   0.0 |  0.00
Modify  | 3.9798e-05 | 0.0038485  | 0.0081579  |   2.9 |  0.15
Other   |            | 0.3049     |            |       | 11.95

Nlocal:        5552.90 ave        7907 max           0 min
Histogram: 4 2 2 0 2 6 4 0 15 17
Nghost:        6213.54 ave        8769 max         412 min
Histogram: 4 0 4 0 8 0 4 5 7 20
Neighs:       158427.0 ave      230484 max           0 min
Histogram: 4 2 2 0 5 3 4 4 12 16

Total # of neighbors = 8238198
Ave neighs/atom = 28.530457
Neighbor list builds = 0
Dangerous builds = 0
The dot product: -4.63417832660729e-07
Setting atom values ...
  1 settings made for x
  1 settings made for y
  1 settings made for z
Setting up cg style minimization ...
  Unit style    : metal
  Current step  : 839
Per MPI rank memory allocation (min/avg/max) = 5.465 | 6.344 | 6.728 Mbytes
Step PotEng KinEng TotEng v_fx v_fy v_fz 
     839   -1152449.4            0   -1152449.4  0.019975247  0.030476069 -0.044290711 
    1000   -1152449.4            0   -1152449.4 -1.3122494e-06 -1.9394567e-06 3.8139127e-06 
    1036   -1152449.4            0   -1152449.4 1.5922098e-06 2.5036416e-06 -2.455873e-06 
Loop time of 4.36616 on 52 procs for 197 steps with 288751 atoms

99.9% CPU use with 52 MPI tasks x 1 OpenMP threads

Minimization stats:
  Stopping criterion = linesearch alpha is zero
  Energy initial, next-to-last, final = 
     -1152449.42463349  -1152449.42631288  -1152449.42631288
  Force two-norm initial, final = 0.19274464 6.8940866e-05
  Force max component initial, final = 0.075880098 1.3218868e-05
  Final line search alpha, max atom move = 0.5 6.6094340e-06
  Iterations, force evaluations = 197 395

MPI task timing breakdown:
Section |  min time  |  avg time  |  max time  |%varavg| %total
---------------------------------------------------------------
Pair    | 1.1051     | 3.1332     | 4.122      |  49.1 | 71.76
Neigh   | 0          | 0          | 0          |   0.0 |  0.00
Comm    | 0.062668   | 0.70047    | 2.1963     |  75.0 | 16.04
Output  | 0.00023338 | 0.00023824 | 0.00040049 |   0.0 |  0.01
Modify  | 7.1686e-05 | 0.0065887  | 0.013929   |   3.7 |  0.15
Other   |            | 0.5257     |            |       | 12.04

Nlocal:        5552.90 ave        7905 max           0 min
Histogram: 4 2 2 0 2 6 4 0 15 17
Nghost:        6213.54 ave        8769 max         412 min
Histogram: 4 0 4 0 8 0 4 5 7 20
Neighs:       158427.0 ave      230419 max           0 min
Histogram: 4 2 2 0 5 3 4 4 12 16

Total # of neighbors = 8238199
Ave neighs/atom = 28.530461
Neighbor list builds = 0
Dangerous builds = 0
The dot product: 2.0854138131742e-08
Setting atom values ...
  1 settings made for x
  1 settings made for y
  1 settings made for z
Setting up cg style minimization ...
  Unit style    : metal
  Current step  : 1036
Per MPI rank memory allocation (min/avg/max) = 5.465 | 6.344 | 6.728 Mbytes
Step PotEng KinEng TotEng v_fx v_fy v_fz 
    1036   -1152449.4            0   -1152449.4  0.016455665  0.030176895   -0.0374949 
    1171   -1152449.4            0   -1152449.4 -2.3289293e-06 -6.1225729e-06 5.7853578e-05 
Loop time of 2.98547 on 52 procs for 135 steps with 288751 atoms

99.9% CPU use with 52 MPI tasks x 1 OpenMP threads

Minimization stats:
  Stopping criterion = energy tolerance
  Energy initial, next-to-last, final = 
     -1152449.41577907  -1152449.41740674  -1152449.41740674
  Force two-norm initial, final = 0.1884478 0.00028019618
  Force max component initial, final = 0.071663845 5.8497758e-05
  Final line search alpha, max atom move = 1.0000000 5.8497758e-05
  Iterations, force evaluations = 135 270

MPI task timing breakdown:
Section |  min time  |  avg time  |  max time  |%varavg| %total
---------------------------------------------------------------
Pair    | 0.75745    | 2.153      | 2.8186     |  40.6 | 72.12
Neigh   | 0          | 0          | 0          |   0.0 |  0.00
Comm    | 0.039992   | 0.47744    | 1.5108     |  62.3 | 15.99
Output  | 0          | 0          | 0          |   0.0 |  0.00
Modify  | 4.693e-05  | 0.0045091  | 0.0095331  |   3.1 |  0.15
Other   |            | 0.3505     |            |       | 11.74

Nlocal:        5552.90 ave        7905 max           0 min
Histogram: 4 2 2 0 2 6 4 0 15 17
Nghost:        6213.54 ave        8769 max         412 min
Histogram: 4 0 4 0 8 0 4 5 7 20
Neighs:       158427.0 ave      230398 max           0 min
Histogram: 4 2 2 0 5 3 4 4 12 16

Total # of neighbors = 8238200
Ave neighs/atom = 28.530464
Neighbor list builds = 0
Dangerous builds = 0
The dot product: -3.14764244733769e-07
Setting atom values ...
  1 settings made for x
  1 settings made for y
  1 settings made for z
Setting up cg style minimization ...
  Unit style    : metal
  Current step  : 1171
Per MPI rank memory allocation (min/avg/max) = 5.465 | 6.344 | 6.728 Mbytes
Step PotEng KinEng TotEng v_fx v_fy v_fz 
    1171   -1152449.4            0   -1152449.4  0.012882591  0.026888875 -0.031196406 
    1313   -1152449.4            0   -1152449.4 3.7807404e-06 1.3570704e-05 -5.7243296e-05 
Loop time of 3.14603 on 52 procs for 142 steps with 288751 atoms

99.9% CPU use with 52 MPI tasks x 1 OpenMP threads

Minimization stats:
  Stopping criterion = energy tolerance
  Energy initial, next-to-last, final = 
     -1152449.40547072  -1152449.40706574  -1152449.40706574
  Force two-norm initial, final = 0.18475015 0.0003165091
  Force max component initial, final = 0.068376071 5.7243296e-05
  Final line search alpha, max atom move = 1.0000000 5.7243296e-05
  Iterations, force evaluations = 142 284

MPI task timing breakdown:
Section |  min time  |  avg time  |  max time  |%varavg| %total
---------------------------------------------------------------
Pair    | 0.79818    | 2.2604     | 2.9662     |  41.6 | 71.85
Neigh   | 0          | 0          | 0          |   0.0 |  0.00
Comm    | 0.043751   | 0.50357    | 1.5866     |  63.7 | 16.01
Output  | 0          | 0          | 0          |   0.0 |  0.00
Modify  | 4.8086e-05 | 0.0047392  | 0.010112   |   3.2 |  0.15
Other   |            | 0.3773     |            |       | 11.99

Nlocal:        5552.90 ave        7903 max           0 min
Histogram: 4 2 2 0 2 6 4 0 15 17
Nghost:        6213.54 ave        8769 max         412 min
Histogram: 4 0 4 0 8 0 4 5 7 20
Neighs:       158427.0 ave      230345 max           0 min
Histogram: 4 2 2 0 5 3 4 4 12 16

Total # of neighbors = 8238204
Ave neighs/atom = 28.530478
Neighbor list builds = 0
Dangerous builds = 0
The dot product: 2.78929478443407e-07
Setting atom values ...
  1 settings made for x
  1 settings made for y
  1 settings made for z
Setting up cg style minimization ...
  Unit style    : metal
  Current step  : 1313
Per MPI rank memory allocation (min/avg/max) = 5.465 | 6.344 | 6.728 Mbytes
Step PotEng KinEng TotEng v_fx v_fy v_fz 
    1313   -1152449.4            0   -1152449.4 0.0085526838  0.020393826 -0.027005915 
    1499   -1152449.4            0   -1152449.4 6.8786608e-07 -4.8384311e-06 3.3014073e-05 
Loop time of 4.12599 on 52 procs for 186 steps with 288751 atoms

99.9% CPU use with 52 MPI tasks x 1 OpenMP threads

Minimization stats:
  Stopping criterion = linesearch alpha is zero
  Energy initial, next-to-last, final = 
     -1152449.39371411  -1152449.39531134  -1152449.39531134
  Force two-norm initial, final = 0.18185979 0.00010623882
  Force max component initial, final = 0.070842662 3.3014073e-05
  Final line search alpha, max atom move = 0.5 1.6507036e-05
  Iterations, force evaluations = 186 373

MPI task timing breakdown:
Section |  min time  |  avg time  |  max time  |%varavg| %total
---------------------------------------------------------------
Pair    | 1.0756     | 2.9816     | 3.8999     |  47.3 | 72.26
Neigh   | 0          | 0          | 0          |   0.0 |  0.00
Comm    | 0.062609   | 0.65535    | 2.0816     |  73.5 | 15.88
Output  | 0          | 0          | 0          |   0.0 |  0.00
Modify  | 7.1428e-05 | 0.0062903  | 0.013365   |   3.7 |  0.15
Other   |            | 0.4828     |            |       | 11.70

Nlocal:        5552.90 ave        7902 max           0 min
Histogram: 4 2 2 0 2 6 4 0 15 17
Nghost:        6213.54 ave        8769 max         412 min
Histogram: 4 0 4 0 8 0 4 5 7 20
Neighs:       158427.0 ave      230315 max           0 min
Histogram: 4 2 2 0 5 3 4 4 12 16

Total # of neighbors = 8238203
Ave neighs/atom = 28.530474
Neighbor list builds = 0
Dangerous builds = 0
The dot product: -1.52209564333578e-07
Setting atom values ...
  1 settings made for x
  1 settings made for y
  1 settings made for z
Setting up cg style minimization ...
  Unit style    : metal
  Current step  : 1499
Per MPI rank memory allocation (min/avg/max) = 5.465 | 6.344 | 6.728 Mbytes
Step PotEng KinEng TotEng v_fx v_fy v_fz 
    1499   -1152449.4            0   -1152449.4 0.0033846731  0.011804304 -0.024846706 
    1681   -1152449.4            0   -1152449.4 -1.2650581e-06 4.7177604e-06 -2.9218501e-05 
Loop time of 4.02437 on 52 procs for 182 steps with 288751 atoms

99.9% CPU use with 52 MPI tasks x 1 OpenMP threads

Minimization stats:
  Stopping criterion = energy tolerance
  Energy initial, next-to-last, final = 
     -1152449.38055172  -1152449.38220236  -1152449.38220236
  Force two-norm initial, final = 0.18003228 0.00013037406
  Force max component initial, final = 0.074587662 3.1556255e-05
  Final line search alpha, max atom move = 1.0000000 3.1556255e-05
  Iterations, force evaluations = 182 364

MPI task timing breakdown:
Section |  min time  |  avg time  |  max time  |%varavg| %total
---------------------------------------------------------------
Pair    | 1.0165     | 2.8981     | 3.7953     |  47.2 | 72.01
Neigh   | 0          | 0          | 0          |   0.0 |  0.00
Comm    | 0.056181   | 0.64238    | 2.0294     |  72.5 | 15.96
Output  | 0          | 0          | 0          |   0.0 |  0.00
Modify  | 5.8831e-05 | 0.0060658  | 0.012843   |   3.6 |  0.15
Other   |            | 0.4779     |            |       | 11.87

Nlocal:        5552.90 ave        7898 max           0 min
Histogram: 4 2 2 0 2 6 4 0 14 18
Nghost:        6213.54 ave        8769 max         412 min
Histogram: 4 0 4 0 8 0 4 5 7 20
Neighs:       158427.0 ave      230155 max           0 min
Histogram: 4 2 2 0 5 3 4 4 12 16

Total # of neighbors = 8238203
Ave neighs/atom = 28.530474
Neighbor list builds = 0
Dangerous builds = 0
The dot product: 1.46889100628001e-07
Setting atom values ...
  1 settings made for x
  1 settings made for y
  1 settings made for z
Setting up cg style minimization ...
  Unit style    : metal
  Current step  : 1681
Per MPI rank memory allocation (min/avg/max) = 5.465 | 6.344 | 6.728 Mbytes
Step PotEng KinEng TotEng v_fx v_fy v_fz 
    1681   -1152449.4            0   -1152449.4 -0.0036338099 0.0013674965 -0.025885574 
    1874   -1152449.4            0   -1152449.4 2.3255894e-06 8.3526719e-08 1.3180819e-05 
Loop time of 4.28815 on 52 procs for 193 steps with 288751 atoms

99.9% CPU use with 52 MPI tasks x 1 OpenMP threads

Minimization stats:
  Stopping criterion = linesearch alpha is zero
  Energy initial, next-to-last, final = 
     -1152449.36608492  -1152449.36800171  -1152449.36800171
  Force two-norm initial, final = 0.17953646 0.00010133136
  Force max component initial, final = 0.078931106 1.4566111e-05
  Final line search alpha, max atom move = 0.5 7.2830555e-06
  Iterations, force evaluations = 193 387

MPI task timing breakdown:
Section |  min time  |  avg time  |  max time  |%varavg| %total
---------------------------------------------------------------
Pair    | 1.0859     | 3.08       | 4.0409     |  48.6 | 71.83
Neigh   | 0          | 0          | 0          |   0.0 |  0.00
Comm    | 0.060764   | 0.68634    | 2.1524     |  74.3 | 16.01
Output  | 0          | 0          | 0          |   0.0 |  0.00
Modify  | 6.2792e-05 | 0.0064598  | 0.013709   |   3.7 |  0.15
Other   |            | 0.5153     |            |       | 12.02

Nlocal:        5552.90 ave        7895 max           0 min
Histogram: 4 2 2 0 2 6 4 0 14 18
Nghost:        6213.50 ave        8769 max         412 min
Histogram: 4 0 4 0 8 0 4 5 7 20
Neighs:       158427.0 ave      230074 max           0 min
Histogram: 4 2 2 0 5 3 4 4 12 16

Total # of neighbors = 8238202
Ave neighs/atom = 28.530471
Neighbor list builds = 0
Dangerous builds = 0
The dot product: -1.40368305189461e-07
Setting atom values ...
  1 settings made for x
  1 settings made for y
  1 settings made for z
Setting up cg style minimization ...
  Unit style    : metal
  Current step  : 1874
Per MPI rank memory allocation (min/avg/max) = 5.465 | 6.344 | 6.728 Mbytes
Step PotEng KinEng TotEng v_fx v_fy v_fz 
    1874   -1152449.4            0   -1152449.4 -0.017388942  -0.01301211 -0.036771011 
    2000   -1152449.4            0   -1152449.4 -1.4857716e-05 3.593845e-05 -0.00016766543 
    2041   -1152449.4            0   -1152449.4 9.0129155e-06 -1.7103204e-05 8.8106967e-05 
Loop time of 3.68692 on 52 procs for 167 steps with 288751 atoms

99.9% CPU use with 52 MPI tasks x 1 OpenMP threads

Minimization stats:
  Stopping criterion = energy tolerance
  Energy initial, next-to-last, final = 
     -1152449.35079595  -1152449.35298124  -1152449.35298124
  Force two-norm initial, final = 0.18209148 0.00030126959
  Force max component initial, final = 0.085062616 8.8106967e-05
  Final line search alpha, max atom move = 1.0000000 8.8106967e-05
  Iterations, force evaluations = 167 334

MPI task timing breakdown:
Section |  min time  |  avg time  |  max time  |%varavg| %total
---------------------------------------------------------------
Pair    | 0.93605    | 2.6599     | 3.4815     |  45.2 | 72.14
Neigh   | 0          | 0          | 0          |   0.0 |  0.00
Comm    | 0.054161   | 0.58973    | 1.8632     |  69.5 | 16.00
Output  | 0.00020538 | 0.00020924 | 0.00035219 |   0.0 |  0.01
Modify  | 5.959e-05  | 0.0055618  | 0.011798   |   3.4 |  0.15
Other   |            | 0.4315     |            |       | 11.70

Nlocal:        5552.90 ave        7894 max           0 min
Histogram: 4 2 2 0 2 6 4 0 14 18
Nghost:        6213.50 ave        8769 max         412 min
Histogram: 4 0 4 0 8 0 4 5 7 20
Neighs:       158427.0 ave      230050 max           0 min
Histogram: 4 2 2 0 5 3 4 4 12 16

Total # of neighbors = 8238203
Ave neighs/atom = 28.530474
Neighbor list builds = 0
Dangerous builds = 0
The dot product: -9.9240121335755e-07
Setting atom values ...
  1 settings made for x
  1 settings made for y
  1 settings made for z
Setting up cg style minimization ...
  Unit style    : metal
  Current step  : 2041
Per MPI rank memory allocation (min/avg/max) = 5.465 | 6.344 | 6.728 Mbytes
Step PotEng KinEng TotEng v_fx v_fy v_fz 
    2041   -1152449.3            0   -1152449.3 -0.029478692 -0.021520938  -0.04147107 
    2229   -1152449.3            0   -1152449.3 -2.4044814e-06 9.6307075e-06 -3.1198945e-05 
Loop time of 4.15597 on 52 procs for 188 steps with 288751 atoms

99.9% CPU use with 52 MPI tasks x 1 OpenMP threads

Minimization stats:
  Stopping criterion = energy tolerance
  Energy initial, next-to-last, final = 
     -1152449.33479779  -1152449.33715968  -1152449.33715968
  Force two-norm initial, final = 0.18486903 0.00017299264
  Force max component initial, final = 0.092334605 4.3406460e-05
  Final line search alpha, max atom move = 1.0000000 4.3406460e-05
  Iterations, force evaluations = 188 376

MPI task timing breakdown:
Section |  min time  |  avg time  |  max time  |%varavg| %total
---------------------------------------------------------------
Pair    | 1.0528     | 2.9971     | 3.9218     |  48.0 | 72.12
Neigh   | 0          | 0          | 0          |   0.0 |  0.00
Comm    | 0.056596   | 0.6645     | 2.0942     |  73.8 | 15.99
Output  | 0          | 0          | 0          |   0.0 |  0.00
Modify  | 6.3561e-05 | 0.0062575  | 0.013258   |   3.7 |  0.15
Other   |            | 0.4881     |            |       | 11.74

Nlocal:        5552.90 ave        7891 max           0 min
Histogram: 4 2 2 0 2 6 4 0 14 18
Nghost:        6213.58 ave        8769 max         412 min
Histogram: 4 0 4 0 8 0 4 5 7 20
Neighs:       158427.0 ave      229976 max           0 min
Histogram: 4 2 2 0 5 3 4 4 12 16

Total # of neighbors = 8238205
Ave neighs/atom = 28.530481
Neighbor list builds = 0
Dangerous builds = 0
The dot product: 3.11163681714999e-07
Setting atom values ...
  1 settings made for x
  1 settings made for y
  1 settings made for z
Setting up cg style minimization ...
  Unit style    : metal
  Current step  : 2229
Per MPI rank memory allocation (min/avg/max) = 5.465 | 6.344 | 6.728 Mbytes
Step PotEng KinEng TotEng v_fx v_fy v_fz 
    2229   -1152449.3            0   -1152449.3 -0.033908174 -0.022454663 -0.036597039 
    2412   -1152449.3            0   -1152449.3 -2.9446357e-06 8.8035679e-06 -2.65209e-05 
Loop time of 4.07072 on 52 procs for 183 steps with 288751 atoms

99.9% CPU use with 52 MPI tasks x 1 OpenMP threads

Minimization stats:
  Stopping criterion = linesearch alpha is zero
  Energy initial, next-to-last, final = 
     -1152449.31792897  -1152449.32014128  -1152449.32014128
  Force two-norm initial, final = 0.18421524 0.00022107713
  Force max component initial, final = 0.099115972 4.9926345e-05
  Final line search alpha, max atom move = 0.25 1.2481586e-05
  Iterations, force evaluations = 183 369

MPI task timing breakdown:
Section |  min time  |  avg time  |  max time  |%varavg| %total
---------------------------------------------------------------
Pair    | 1.0336     | 2.9321     | 3.8445     |  47.4 | 72.03
Neigh   | 0          | 0          | 0          |   0.0 |  0.00
Comm    | 0.055846   | 0.65298    | 2.0549     |  72.7 | 16.04
Output  | 0          | 0          | 0          |   0.0 |  0.00
Modify  | 6.141e-05  | 0.0061489  | 0.013042   |   3.6 |  0.15
Other   |            | 0.4795     |            |       | 11.78

Nlocal:        5552.90 ave        7888 max           0 min
Histogram: 4 2 2 0 2 6 4 0 14 18
Nghost:        6213.62 ave        8769 max         412 min
Histogram: 4 0 4 0 8 0 4 5 7 20
Neighs:       158427.0 ave      229882 max           0 min
Histogram: 4 2 2 0 5 3 4 4 11 17

Total # of neighbors = 8238204
Ave neighs/atom = 28.530478
Neighbor list builds = 0
Dangerous builds = 0
The dot product: 2.33788541161317e-07
Setting atom values ...
  1 settings made for x
  1 settings made for y
  1 settings made for z
Setting up cg style minimization ...
  Unit style    : metal
  Current step  : 2412
Per MPI rank memory allocation (min/avg/max) = 5.465 | 6.344 | 6.728 Mbytes
Step PotEng KinEng TotEng v_fx v_fy v_fz 
    2412   -1152449.3            0   -1152449.3 -0.031683623 -0.019575066 -0.027435514 
    2592   -1152449.3            0   -1152449.3 -4.462959e-06 -1.6629286e-06 -6.0645582e-06 
Loop time of 3.98288 on 52 procs for 180 steps with 288751 atoms

99.9% CPU use with 52 MPI tasks x 1 OpenMP threads

Minimization stats:
  Stopping criterion = energy tolerance
  Energy initial, next-to-last, final = 
     -1152449.29972917  -1152449.30179632  -1152449.30179632
  Force two-norm initial, final = 0.18141874 0.00020377202
  Force max component initial, final = 0.1047358 1.9215370e-05
  Final line search alpha, max atom move = 1.0000000 1.9215370e-05
  Iterations, force evaluations = 180 360

MPI task timing breakdown:
Section |  min time  |  avg time  |  max time  |%varavg| %total
---------------------------------------------------------------
Pair    | 1.0062     | 2.8685     | 3.7568     |  47.0 | 72.02
Neigh   | 0          | 0          | 0          |   0.0 |  0.00
Comm    | 0.059312   | 0.63741    | 2.0081     |  71.8 | 16.00
Output  | 0          | 0          | 0          |   0.0 |  0.00
Modify  | 6.1787e-05 | 0.0060055  | 0.012753   |   3.6 |  0.15
Other   |            | 0.4709     |            |       | 11.82

Nlocal:        5552.90 ave        7885 max           0 min
Histogram: 4 2 2 0 2 6 4 0 14 18
Nghost:        6213.65 ave        8770 max         412 min
Histogram: 4 0 4 0 8 0 4 5 7 20
Neighs:       158427.0 ave      229770 max           0 min
Histogram: 4 2 2 0 5 3 4 4 11 17

Total # of neighbors = 8238208
Ave neighs/atom = 28.530492
Neighbor list builds = 0
Dangerous builds = 0
The dot product: 1.07651193066288e-07
Setting atom values ...
  1 settings made for x
  1 settings made for y
  1 settings made for z
Setting up cg style minimization ...
  Unit style    : metal
  Current step  : 2592
Per MPI rank memory allocation (min/avg/max) = 5.465 | 6.344 | 6.728 Mbytes
Step PotEng KinEng TotEng v_fx v_fy v_fz 
    2592   -1152449.3            0   -1152449.3 -0.027498433 -0.015679123 -0.020713604 
    2784   -1152449.3            0   -1152449.3 -1.0472319e-06 7.2667503e-06 -1.5717436e-05 
Loop time of 4.27448 on 52 procs for 192 steps with 288751 atoms

99.9% CPU use with 52 MPI tasks x 1 OpenMP threads

Minimization stats:
  Stopping criterion = energy tolerance
  Energy initial, next-to-last, final = 
     -1152449.28018173  -1152449.28218493  -1152449.28218493
  Force two-norm initial, final = 0.17885209 0.00013290868
  Force max component initial, final = 0.1092065 1.7993919e-05
  Final line search alpha, max atom move = 1.0000000 1.7993919e-05
  Iterations, force evaluations = 192 384

MPI task timing breakdown:
Section |  min time  |  avg time  |  max time  |%varavg| %total
---------------------------------------------------------------
Pair    | 1.0733     | 3.0555     | 4.0158     |  48.6 | 71.48
Neigh   | 0          | 0          | 0          |   0.0 |  0.00
Comm    | 0.05883    | 0.68293    | 2.1356     |  73.9 | 15.98
Output  | 0          | 0          | 0          |   0.0 |  0.00
Modify  | 6.717e-05  | 0.0063967  | 0.01357    |   3.7 |  0.15
Other   |            | 0.5296     |            |       | 12.39

Nlocal:        5552.90 ave        7881 max           0 min
Histogram: 4 2 2 0 2 6 4 0 14 18
Nghost:        6213.65 ave        8770 max         412 min
Histogram: 4 0 4 0 8 0 4 5 7 20
Neighs:       158427.0 ave      229632 max           0 min
Histogram: 4 2 2 0 5 3 4 4 11 17

Total # of neighbors = 8238213
Ave neighs/atom = 28.530509
Neighbor list builds = 0
Dangerous builds = 0
The dot product: 1.10511884088501e-07
Setting atom values ...
  1 settings made for x
  1 settings made for y
  1 settings made for z
Setting up cg style minimization ...
  Unit style    : metal
  Current step  : 2784
Per MPI rank memory allocation (min/avg/max) = 5.465 | 6.344 | 6.728 Mbytes
Step PotEng KinEng TotEng v_fx v_fy v_fz 
    2784   -1152449.3            0   -1152449.3 -0.023542546 -0.011450211 -0.017827167 
    2957   -1152449.3            0   -1152449.3 1.4204803e-06 -1.1659015e-05 2.3317095e-05 
Loop time of 3.88122 on 52 procs for 173 steps with 288751 atoms

99.9% CPU use with 52 MPI tasks x 1 OpenMP threads

Minimization stats:
  Stopping criterion = linesearch alpha is zero
  Energy initial, next-to-last, final = 
     -1152449.25943871  -1152449.26135758  -1152449.26135758
  Force two-norm initial, final = 0.17674993 0.00024894333
  Force max component initial, final = 0.11269904 3.1960631e-05
  Final line search alpha, max atom move = 0.125 3.9950789e-06
  Iterations, force evaluations = 173 351

MPI task timing breakdown:
Section |  min time  |  avg time  |  max time  |%varavg| %total
---------------------------------------------------------------
Pair    | 0.99445    | 2.7994     | 3.6675     |  46.2 | 72.13
Neigh   | 0          | 0          | 0          |   0.0 |  0.00
Comm    | 0.057218   | 0.61854    | 1.9579     |  71.0 | 15.94
Output  | 0          | 0          | 0          |   0.0 |  0.00
Modify  | 5.999e-05  | 0.005868   | 0.012446   |   3.5 |  0.15
Other   |            | 0.4574     |            |       | 11.78

Nlocal:        5552.90 ave        7874 max           0 min
Histogram: 4 2 2 0 2 6 4 0 14 18
Nghost:        6213.69 ave        8770 max         412 min
Histogram: 4 0 4 0 8 0 4 5 7 20
Neighs:       158427.0 ave      229395 max           0 min
Histogram: 4 2 2 0 4 4 4 4 11 17

Total # of neighbors = 8238216
Ave neighs/atom = 28.530519
Neighbor list builds = 0
Dangerous builds = 0
The dot product: -1.66378020811933e-07
Setting atom values ...
  1 settings made for x
  1 settings made for y
  1 settings made for z
Setting up cg style minimization ...
  Unit style    : metal
  Current step  : 2957
Per MPI rank memory allocation (min/avg/max) = 5.465 | 6.344 | 6.728 Mbytes
Step PotEng KinEng TotEng v_fx v_fy v_fz 
    2957   -1152449.2            0   -1152449.2 -0.020023755 -0.0079396269 -0.016004282 
    3000   -1152449.2            0   -1152449.2 -9.158757e-05 0.00025813507 -0.00057805498 
    3178   -1152449.2            0   -1152449.2 1.9258151e-06 -2.9510488e-06 7.9082244e-06 
Loop time of 4.89511 on 52 procs for 221 steps with 288751 atoms

99.9% CPU use with 52 MPI tasks x 1 OpenMP threads

Minimization stats:
  Stopping criterion = linesearch alpha is zero
  Energy initial, next-to-last, final = 
     -1152449.23744898  -1152449.23933514  -1152449.23933514
  Force two-norm initial, final = 0.17515232 5.2487393e-05
  Force max component initial, final = 0.11586705 7.9082244e-06
  Final line search alpha, max atom move = 0.5 3.9541122e-06
  Iterations, force evaluations = 221 443

MPI task timing breakdown:
Section |  min time  |  avg time  |  max time  |%varavg| %total
---------------------------------------------------------------
Pair    | 1.2427     | 3.5275     | 4.6181     |  51.9 | 72.06
Neigh   | 0          | 0          | 0          |   0.0 |  0.00
Comm    | 0.070067   | 0.78182    | 2.4662     |  79.7 | 15.97
Output  | 0.00023032 | 0.00023406 | 0.00037214 |   0.0 |  0.00
Modify  | 7.6058e-05 | 0.0073818  | 0.015645   |   4.0 |  0.15
Other   |            | 0.5782     |            |       | 11.81

Nlocal:        5552.90 ave        7871 max           0 min
Histogram: 4 2 2 0 2 6 4 0 14 18
Nghost:        6213.69 ave        8770 max         412 min
Histogram: 4 0 4 0 8 0 4 5 7 20
Neighs:       158427.0 ave      229310 max           0 min
Histogram: 4 2 2 0 4 4 4 4 11 17

Total # of neighbors = 8238212
Ave neighs/atom = 28.530506
Neighbor list builds = 0
Dangerous builds = 0
The dot product: -7.60844649727328e-08
Setting atom values ...
  1 settings made for x
  1 settings made for y
  1 settings made for z
Setting up cg style minimization ...
  Unit style    : metal
  Current step  : 3178
Per MPI rank memory allocation (min/avg/max) = 5.465 | 6.344 | 6.728 Mbytes
Step PotEng KinEng TotEng v_fx v_fy v_fz 
    3178   -1152449.2            0   -1152449.2 -0.018861497 -0.0050558293 -0.017217037 
    3335   -1152449.2            0   -1152449.2 1.4639954e-05 -2.6341892e-05 6.2685495e-05 
Loop time of 3.46628 on 52 procs for 157 steps with 288751 atoms

99.9% CPU use with 52 MPI tasks x 1 OpenMP threads

Minimization stats:
  Stopping criterion = energy tolerance
  Energy initial, next-to-last, final = 
     -1152449.21432117  -1152449.21636097  -1152449.21636097
  Force two-norm initial, final = 0.17421181 0.00033679316
  Force max component initial, final = 0.11867546 7.8914902e-05
  Final line search alpha, max atom move = 1.0000000 7.8914902e-05
  Iterations, force evaluations = 157 314

MPI task timing breakdown:
Section |  min time  |  avg time  |  max time  |%varavg| %total
---------------------------------------------------------------
Pair    | 0.90317    | 2.5084     | 3.2759     |  43.4 | 72.37
Neigh   | 0          | 0          | 0          |   0.0 |  0.00
Comm    | 0.051642   | 0.55272    | 1.7519     |  67.4 | 15.95
Output  | 0          | 0          | 0          |   0.0 |  0.00
Modify  | 5.1527e-05 | 0.0052889  | 0.011148   |   3.4 |  0.15
Other   |            | 0.3999     |            |       | 11.54

Nlocal:        5552.90 ave        7869 max           0 min
Histogram: 4 2 2 0 2 6 4 0 14 18
Nghost:        6213.69 ave        8770 max         412 min
Histogram: 4 0 4 0 8 0 4 5 7 20
Neighs:       158427.0 ave      229264 max           0 min
Histogram: 4 2 2 0 4 4 4 4 10 18

Total # of neighbors = 8238211
Ave neighs/atom = 28.530502
Neighbor list builds = 0
Dangerous builds = 0
The dot product: -7.78389805077914e-07
Setting atom values ...
  1 settings made for x
  1 settings made for y
  1 settings made for z
Setting up cg style minimization ...
  Unit style    : metal
  Current step  : 3335
Per MPI rank memory allocation (min/avg/max) = 5.465 | 6.344 | 6.728 Mbytes
Step PotEng KinEng TotEng v_fx v_fy v_fz 
    3335   -1152449.2            0   -1152449.2 -0.023081459 -0.0024367881 -0.024374692 
    3534   -1152449.2            0   -1152449.2 -3.2131355e-06 6.4284733e-07 -4.8962307e-06 
Loop time of 4.42087 on 52 procs for 199 steps with 288751 atoms

99.9% CPU use with 52 MPI tasks x 1 OpenMP threads

Minimization stats:
  Stopping criterion = linesearch alpha is zero
  Energy initial, next-to-last, final = 
      -1152449.1905498  -1152449.19278675  -1152449.19278675
  Force two-norm initial, final = 0.17442519 0.00010052428
  Force max component initial, final = 0.12124667 2.3548201e-05
  Final line search alpha, max atom move = 0.5 1.1774100e-05
  Iterations, force evaluations = 199 401

MPI task timing breakdown:
Section |  min time  |  avg time  |  max time  |%varavg| %total
---------------------------------------------------------------
Pair    | 1.1222     | 3.1958     | 4.1765     |  49.6 | 72.29
Neigh   | 0          | 0          | 0          |   0.0 |  0.00
Comm    | 0.062428   | 0.70804    | 2.2368     |  76.3 | 16.02
Output  | 0          | 0          | 0          |   0.0 |  0.00
Modify  | 7.0432e-05 | 0.0066851  | 0.014158   |   3.8 |  0.15
Other   |            | 0.5103     |            |       | 11.54

Nlocal:        5552.90 ave        7870 max           0 min
Histogram: 4 2 2 0 2 6 4 0 14 18
Nghost:        6213.69 ave        8770 max         412 min
Histogram: 4 0 4 0 8 0 4 5 7 20
Neighs:       158427.0 ave      229265 max           0 min
Histogram: 4 2 2 0 4 4 4 4 10 18

Total # of neighbors = 8238211
Ave neighs/atom = 28.530502
Neighbor list builds = 0
Dangerous builds = 0
The dot product: 9.64359896064804e-08
Setting atom values ...
  1 settings made for x
  1 settings made for y
  1 settings made for z
Setting up cg style minimization ...
  Unit style    : metal
  Current step  : 3534
Per MPI rank memory allocation (min/avg/max) = 5.465 | 6.344 | 6.728 Mbytes
Step PotEng KinEng TotEng v_fx v_fy v_fz 
    3534   -1152449.2            0   -1152449.2 -0.028196758 -2.1121152e-05 -0.030529203 
    3718   -1152449.2            0   -1152449.2 1.0643121e-05 -2.3664519e-05 4.5236195e-05 
Loop time of 4.07941 on 52 procs for 184 steps with 288751 atoms

99.9% CPU use with 52 MPI tasks x 1 OpenMP threads

Minimization stats:
  Stopping criterion = linesearch alpha is zero
  Energy initial, next-to-last, final = 
     -1152449.16633622  -1152449.16851821  -1152449.16851821
  Force two-norm initial, final = 0.17524846 0.00015336169
  Force max component initial, final = 0.12402828 4.5236195e-05
  Final line search alpha, max atom move = 0.5 2.2618098e-05
  Iterations, force evaluations = 184 369

MPI task timing breakdown:
Section |  min time  |  avg time  |  max time  |%varavg| %total
---------------------------------------------------------------
Pair    | 1.0335     | 2.9416     | 3.8494     |  47.5 | 72.11
Neigh   | 0          | 0          | 0          |   0.0 |  0.00
Comm    | 0.056632   | 0.6542     | 2.0567     |  72.6 | 16.04
Output  | 0          | 0          | 0          |   0.0 |  0.00
Modify  | 5.8772e-05 | 0.0061482  | 0.013038   |   3.6 |  0.15
Other   |            | 0.4774     |            |       | 11.70

Nlocal:        5552.90 ave        7870 max           0 min
Histogram: 4 2 2 0 2 6 4 0 14 18
Nghost:        6213.67 ave        8770 max         412 min
Histogram: 4 0 4 0 8 0 4 5 7 20
Neighs:       158427.0 ave      229264 max           0 min
Histogram: 4 2 2 0 4 4 4 4 10 18

Total # of neighbors = 8238215
Ave neighs/atom = 28.530516
Neighbor list builds = 0
Dangerous builds = 0
The dot product: -7.11824810204332e-07
Setting atom values ...
  1 settings made for x
  1 settings made for y
  1 settings made for z
Setting up cg style minimization ...
  Unit style    : metal
  Current step  : 3718
Per MPI rank memory allocation (min/avg/max) = 5.465 | 6.344 | 6.728 Mbytes
Step PotEng KinEng TotEng v_fx v_fy v_fz 
    3718   -1152449.1            0   -1152449.1 -0.027490148 0.0011858019 -0.028352689 
    3868   -1152449.1            0   -1152449.1 -4.9564625e-06 2.5353437e-05 -3.8655721e-05 
Loop time of 3.31541 on 52 procs for 150 steps with 288751 atoms

99.9% CPU use with 52 MPI tasks x 1 OpenMP threads

Minimization stats:
  Stopping criterion = energy tolerance
  Energy initial, next-to-last, final = 
      -1152449.1412028  -1152449.14325481  -1152449.14325481
  Force two-norm initial, final = 0.17465162 0.00034747723
  Force max component initial, final = 0.12711179 3.8690211e-05
  Final line search alpha, max atom move = 1.0000000 3.8690211e-05
  Iterations, force evaluations = 150 300

MPI task timing breakdown:
Section |  min time  |  avg time  |  max time  |%varavg| %total
---------------------------------------------------------------
Pair    | 0.84075    | 2.3888     | 3.1278     |  42.8 | 72.05
Neigh   | 0          | 0          | 0          |   0.0 |  0.00
Comm    | 0.048761   | 0.53096    | 1.6727     |  65.8 | 16.01
Output  | 0          | 0          | 0          |   0.0 |  0.00
Modify  | 4.9511e-05 | 0.0049975  | 0.010604   |   3.3 |  0.15
Other   |            | 0.3907     |            |       | 11.78

Nlocal:        5552.90 ave        7871 max           0 min
Histogram: 4 2 2 0 2 6 4 0 14 18
Nghost:        6213.67 ave        8770 max         412 min
Histogram: 4 0 4 0 8 0 4 5 7 20
Neighs:       158427.0 ave      229281 max           0 min
Histogram: 4 2 2 0 4 4 4 4 10 18

Total # of neighbors = 8238215
Ave neighs/atom = 28.530516
Neighbor list builds = 0
Dangerous builds = 0
The dot product: 5.30851121939178e-07
Setting atom values ...
  1 settings made for x
  1 settings made for y
  1 settings made for z
Setting up cg style minimization ...
  Unit style    : metal
  Current step  : 3868
Per MPI rank memory allocation (min/avg/max) = 5.465 | 6.344 | 6.728 Mbytes
Step PotEng KinEng TotEng v_fx v_fy v_fz 
    3868   -1152449.1            0   -1152449.1 -0.023952124   0.00190097 -0.023701654 
    4000   -1152449.1            0   -1152449.1 2.1621698e-05 -4.8525972e-05 8.0502888e-05 
    4036   -1152449.1            0   -1152449.1 -4.8689958e-06 -1.1440625e-06 -2.8855159e-06 
Loop time of 3.7088 on 52 procs for 168 steps with 288751 atoms

99.9% CPU use with 52 MPI tasks x 1 OpenMP threads

Minimization stats:
  Stopping criterion = energy tolerance
  Energy initial, next-to-last, final = 
     -1152449.11494574  -1152449.11680481  -1152449.11680481
  Force two-norm initial, final = 0.1737846 0.0001876933
  Force max component initial, final = 0.13004614 4.0692190e-05
  Final line search alpha, max atom move = 1.0000000 4.0692190e-05
  Iterations, force evaluations = 168 336

MPI task timing breakdown:
Section |  min time  |  avg time  |  max time  |%varavg| %total
---------------------------------------------------------------
Pair    | 0.94112    | 2.6825     | 3.5046     |  45.4 | 72.33
Neigh   | 0          | 0          | 0          |   0.0 |  0.00
Comm    | 0.051687   | 0.59378    | 1.8766     |  69.9 | 16.01
Output  | 0.00016422 | 0.00016808 | 0.00031129 |   0.0 |  0.00
Modify  | 5.2962e-05 | 0.0055982  | 0.011853   |   3.4 |  0.15
Other   |            | 0.4268     |            |       | 11.51

Nlocal:        5552.90 ave        7871 max           0 min
Histogram: 4 2 2 0 2 6 4 0 14 18
Nghost:        6213.67 ave        8770 max         412 min
Histogram: 4 0 4 0 8 0 4 5 7 20
Neighs:       158427.0 ave      229279 max           0 min
Histogram: 4 2 2 0 4 4 4 4 10 18

Total # of neighbors = 8238214
Ave neighs/atom = 28.530512
Neighbor list builds = 0
Dangerous builds = 0
The dot product: 6.12999876012098e-08
Setting atom values ...
  1 settings made for x
  1 settings made for y
  1 settings made for z
Setting up cg style minimization ...
  Unit style    : metal
  Current step  : 4036
Per MPI rank memory allocation (min/avg/max) = 5.465 | 6.344 | 6.728 Mbytes
Step PotEng KinEng TotEng v_fx v_fy v_fz 
    4036   -1152449.1            0   -1152449.1 -0.018793342 0.0017393561 -0.017656773 
    4237   -1152449.1            0   -1152449.1 5.3967584e-06 -1.8055075e-05 2.6280627e-05 
Loop time of 4.45454 on 52 procs for 201 steps with 288751 atoms

99.9% CPU use with 52 MPI tasks x 1 OpenMP threads

Minimization stats:
  Stopping criterion = linesearch alpha is zero
  Energy initial, next-to-last, final = 
     -1152449.08734028  -1152449.08907082  -1152449.08907082
  Force two-norm initial, final = 0.17328688 9.4845837e-05
  Force max component initial, final = 0.13299976 2.6280627e-05
  Final line search alpha, max atom move = 0.5 1.3140314e-05
  Iterations, force evaluations = 201 403

MPI task timing breakdown:
Section |  min time  |  avg time  |  max time  |%varavg| %total
---------------------------------------------------------------
Pair    | 1.1297     | 3.2058     | 4.1987     |  49.6 | 71.97
Neigh   | 0          | 0          | 0          |   0.0 |  0.00
Comm    | 0.062998   | 0.71224    | 2.2521     |  76.4 | 15.99
Output  | 0          | 0          | 0          |   0.0 |  0.00
Modify  | 6.787e-05  | 0.0067094  | 0.014208   |   3.8 |  0.15
Other   |            | 0.5298     |            |       | 11.89

Nlocal:        5552.90 ave        7871 max           0 min
Histogram: 4 2 2 0 2 6 4 0 14 18
Nghost:        6213.67 ave        8770 max         412 min
Histogram: 4 0 4 0 8 0 4 5 7 20
Neighs:       158427.0 ave      229268 max           0 min
Histogram: 4 2 2 0 4 4 4 4 10 18

Total # of neighbors = 8238213
Ave neighs/atom = 28.530509
Neighbor list builds = 0
Dangerous builds = 0
The dot product: -2.76392098659634e-07
Setting atom values ...
  1 settings made for x
  1 settings made for y
  1 settings made for z
Setting up cg style minimization ...
  Unit style    : metal
  Current step  : 4237
Per MPI rank memory allocation (min/avg/max) = 5.465 | 6.344 | 6.728 Mbytes
Step PotEng KinEng TotEng v_fx v_fy v_fz 
    4237   -1152449.1            0   -1152449.1 -0.013518363 0.0014510523 -0.012281442 
    4462   -1152449.1            0   -1152449.1 1.1256189e-06 -2.8151959e-06 4.1646945e-06 
Loop time of 4.97363 on 52 procs for 225 steps with 288751 atoms

99.9% CPU use with 52 MPI tasks x 1 OpenMP threads

Minimization stats:
  Stopping criterion = linesearch alpha is zero
  Energy initial, next-to-last, final = 
     -1152449.05839433  -1152449.06005028  -1152449.06005028
  Force two-norm initial, final = 0.17335136 3.1350811e-05
  Force max component initial, final = 0.13564359 4.1646945e-06
  Final line search alpha, max atom move = 0.5 2.0823472e-06
  Iterations, force evaluations = 225 451

MPI task timing breakdown:
Section |  min time  |  avg time  |  max time  |%varavg| %total
---------------------------------------------------------------
Pair    | 1.2554     | 3.59       | 4.7023     |  52.7 | 72.18
Neigh   | 0          | 0          | 0          |   0.0 |  0.00
Comm    | 0.071365   | 0.79364    | 2.5147     |  81.0 | 15.96
Output  | 0          | 0          | 0          |   0.0 |  0.00
Modify  | 7.3082e-05 | 0.0075052  | 0.01592    |   4.0 |  0.15
Other   |            | 0.5825     |            |       | 11.71

Nlocal:        5552.90 ave        7870 max           0 min
Histogram: 4 2 2 0 2 6 4 0 14 18
Nghost:        6213.71 ave        8771 max         412 min
Histogram: 4 0 4 0 8 0 4 5 7 20
Neighs:       158427.0 ave      229231 max           0 min
Histogram: 4 2 2 0 4 4 4 4 10 18

Total # of neighbors = 8238214
Ave neighs/atom = 28.530512
Neighbor list builds = 0
Dangerous builds = 0
The dot product: -3.83233005797417e-08
Setting atom values ...
  1 settings made for x
  1 settings made for y
  1 settings made for z
Setting up cg style minimization ...
  Unit style    : metal
  Current step  : 4462
Per MPI rank memory allocation (min/avg/max) = 5.465 | 6.344 | 6.728 Mbytes
Step PotEng KinEng TotEng v_fx v_fy v_fz 
    4462     -1152449            0     -1152449 -0.0089535729 0.0011374262 -0.0080139005 
    4648     -1152449            0     -1152449 2.5977192e-07 7.2765501e-06 -8.0482146e-06 
Loop time of 4.11661 on 52 procs for 186 steps with 288751 atoms

99.9% CPU use with 52 MPI tasks x 1 OpenMP threads

Minimization stats:
  Stopping criterion = linesearch alpha is zero
  Energy initial, next-to-last, final = 
     -1152449.02816103  -1152449.02980504  -1152449.02980504
  Force two-norm initial, final = 0.17390516 0.00014680705
  Force max component initial, final = 0.13804643 2.5898710e-05
  Final line search alpha, max atom move = 0.5 1.2949355e-05
  Iterations, force evaluations = 186 373

MPI task timing breakdown:
Section |  min time  |  avg time  |  max time  |%varavg| %total
---------------------------------------------------------------
Pair    | 1.0446     | 2.9686     | 3.8885     |  47.7 | 72.11
Neigh   | 0          | 0          | 0          |   0.0 |  0.00
Comm    | 0.055573   | 0.65937    | 2.0766     |  73.2 | 16.02
Output  | 0          | 0          | 0          |   0.0 |  0.00
Modify  | 6.1367e-05 | 0.0062079  | 0.013166   |   3.6 |  0.15
Other   |            | 0.4824     |            |       | 11.72

Nlocal:        5552.90 ave        7869 max           0 min
Histogram: 4 2 2 0 2 6 4 0 14 18
Nghost:        6213.71 ave        8771 max         412 min
Histogram: 4 0 4 0 8 0 4 5 7 20
Neighs:       158427.0 ave      229209 max           0 min
Histogram: 4 2 2 0 4 4 4 4 10 18

Total # of neighbors = 8238218
Ave neighs/atom = 28.530526
Neighbor list builds = 0
Dangerous builds = 0
The dot product: 6.17255098440305e-08
Setting atom values ...
  1 settings made for x
  1 settings made for y
  1 settings made for z
Setting up cg style minimization ...
  Unit style    : metal
  Current step  : 4648
Per MPI rank memory allocation (min/avg/max) = 5.465 | 6.344 | 6.728 Mbytes
Step PotEng KinEng TotEng v_fx v_fy v_fz 
    4648     -1152449            0     -1152449 -0.0055735107 0.00091239577 -0.0050582961 
    4805     -1152449            0     -1152449 -3.6911879e-06 3.2618022e-05 -3.8719467e-05 
Loop time of 3.48987 on 52 procs for 157 steps with 288751 atoms

99.9% CPU use with 52 MPI tasks x 1 OpenMP threads

Minimization stats:
  Stopping criterion = energy tolerance
  Energy initial, next-to-last, final = 
     -1152448.99679942   -1152448.9984468   -1152448.9984468
  Force two-norm initial, final = 0.17463084 0.0003128426
  Force max component initial, final = 0.14011896 5.2221834e-05
  Final line search alpha, max atom move = 1.0000000 5.2221834e-05
  Iterations, force evaluations = 157 314

MPI task timing breakdown:
Section |  min time  |  avg time  |  max time  |%varavg| %total
---------------------------------------------------------------
Pair    | 0.90836    | 2.5122     | 3.2784     |  43.3 | 71.98
Neigh   | 0          | 0          | 0          |   0.0 |  0.00
Comm    | 0.05446    | 0.55383    | 1.7538     |  67.6 | 15.87
Output  | 0          | 0          | 0          |   0.0 |  0.00
Modify  | 5.7205e-05 | 0.0052863  | 0.011201   |   3.3 |  0.15
Other   |            | 0.4186     |            |       | 11.99

Nlocal:        5552.90 ave        7869 max           0 min
Histogram: 4 2 2 0 2 6 4 0 14 18
Nghost:        6213.71 ave        8771 max         412 min
Histogram: 4 0 4 0 8 0 4 5 7 20
Neighs:       158427.0 ave      229200 max           0 min
Histogram: 4 2 2 0 4 4 4 4 10 18

Total # of neighbors = 8238215
Ave neighs/atom = 28.530516
Neighbor list builds = 0
Dangerous builds = 0
The dot product: 2.80789597659015e-07
Setting atom values ...
  1 settings made for x
  1 settings made for y
  1 settings made for z
Setting up cg style minimization ...
  Unit style    : metal
  Current step  : 4805
Per MPI rank memory allocation (min/avg/max) = 5.465 | 6.344 | 6.728 Mbytes
Step PotEng KinEng TotEng v_fx v_fy v_fz 
    4805     -1152449            0     -1152449 -0.0029882731 0.00034044742 -0.0024829886 
    5000     -1152449            0     -1152449 -2.384573e-06 9.0543998e-06 -1.1473787e-05 
    5057     -1152449            0     -1152449 -2.725785e-07 8.9925009e-07 -1.1648389e-06 
Loop time of 5.5684 on 52 procs for 252 steps with 288751 atoms

99.9% CPU use with 52 MPI tasks x 1 OpenMP threads

Minimization stats:
  Stopping criterion = linesearch alpha is zero
  Energy initial, next-to-last, final = 
     -1152448.96437537  -1152448.96603773  -1152448.96603773
  Force two-norm initial, final = 0.17548751 1.3510849e-05
  Force max component initial, final = 0.14201291 1.1648389e-06
  Final line search alpha, max atom move = 0.5 5.8241943e-07
  Iterations, force evaluations = 252 505

MPI task timing breakdown:
Section |  min time  |  avg time  |  max time  |%varavg| %total
---------------------------------------------------------------
Pair    | 1.4139     | 4.0234     | 5.2602     |  55.6 | 72.25
Neigh   | 0          | 0          | 0          |   0.0 |  0.00
Comm    | 0.077785   | 0.89171    | 2.8173     |  85.5 | 16.01
Output  | 0.00030417 | 0.00030857 | 0.00045643 |   0.0 |  0.01
Modify  | 8.4162e-05 | 0.0084076  | 0.017785   |   4.2 |  0.15
Other   |            | 0.6445     |            |       | 11.58

Nlocal:        5552.90 ave        7868 max           0 min
Histogram: 4 2 2 0 2 6 4 0 14 18
Nghost:        6213.71 ave        8771 max         412 min
Histogram: 4 0 4 0 8 0 4 5 7 20
Neighs:       158427.0 ave      229176 max           0 min
Histogram: 4 2 2 0 4 4 4 4 10 18

Total # of neighbors = 8238219
Ave neighs/atom = 28.530530
Neighbor list builds = 0
Dangerous builds = 0
The dot product: 8.13167947845388e-09
Setting atom values ...
  1 settings made for x
  1 settings made for y
  1 settings made for z
Setting up cg style minimization ...
  Unit style    : metal
  Current step  : 5057
Per MPI rank memory allocation (min/avg/max) = 5.465 | 6.344 | 6.728 Mbytes
Step PotEng KinEng TotEng v_fx v_fy v_fz 
    5057   -1152448.9            0   -1152448.9 -0.0012546726 -0.00034562217 -0.00050254093 
    5256   -1152448.9            0   -1152448.9 2.0039528e-06 -9.7278535e-06 1.169243e-05 
Loop time of 4.42743 on 52 procs for 199 steps with 288751 atoms

99.9% CPU use with 52 MPI tasks x 1 OpenMP threads

Minimization stats:
  Stopping criterion = linesearch alpha is zero
  Energy initial, next-to-last, final = 
     -1152448.93100626  -1152448.93271723  -1152448.93271723
  Force two-norm initial, final = 0.17634463 0.00010777277
  Force max component initial, final = 0.14372973 1.7097753e-05
  Final line search alpha, max atom move = 0.5 8.5488766e-06
  Iterations, force evaluations = 199 399

MPI task timing breakdown:
Section |  min time  |  avg time  |  max time  |%varavg| %total
---------------------------------------------------------------
Pair    | 1.1179     | 3.1866     | 4.1661     |  49.4 | 71.97
Neigh   | 0          | 0          | 0          |   0.0 |  0.00
Comm    | 0.062518   | 0.70975    | 2.2318     |  75.4 | 16.03
Output  | 0          | 0          | 0          |   0.0 |  0.00
Modify  | 6.7946e-05 | 0.0066574  | 0.014113   |   3.8 |  0.15
Other   |            | 0.5244     |            |       | 11.84

Nlocal:        5552.90 ave        7869 max           0 min
Histogram: 4 2 2 0 2 6 4 0 14 18
Nghost:        6213.71 ave        8771 max         412 min
Histogram: 4 0 4 0 8 0 4 5 7 20
Neighs:       158427.0 ave      229188 max           0 min
Histogram: 4 2 2 0 4 4 4 4 10 18

Total # of neighbors = 8238215
Ave neighs/atom = 28.530516
Neighbor list builds = 0
Dangerous builds = 0
The dot product: -7.7380675751052e-08
Setting atom values ...
  1 settings made for x
  1 settings made for y
  1 settings made for z
Setting up cg style minimization ...
  Unit style    : metal
  Current step  : 5256
Per MPI rank memory allocation (min/avg/max) = 5.465 | 6.344 | 6.728 Mbytes
Step PotEng KinEng TotEng v_fx v_fy v_fz 
    5256   -1152448.9            0   -1152448.9 3.7885318e-05 -0.0013216062 0.0014002399 
    5441   -1152448.9            0   -1152448.9 -2.8322712e-06 1.2018266e-05 -1.4423725e-05 
Loop time of 4.10649 on 52 procs for 185 steps with 288751 atoms

99.9% CPU use with 52 MPI tasks x 1 OpenMP threads

Minimization stats:
  Stopping criterion = energy tolerance
  Energy initial, next-to-last, final = 
     -1152448.89680725  -1152448.89843837  -1152448.89843837
  Force two-norm initial, final = 0.1771104 0.00014683952
  Force max component initial, final = 0.14518861 1.5531957e-05
  Final line search alpha, max atom move = 1.0000000 1.5531957e-05
  Iterations, force evaluations = 185 370

MPI task timing breakdown:
Section |  min time  |  avg time  |  max time  |%varavg| %total
---------------------------------------------------------------
Pair    | 1.0346     | 2.9459     | 3.8572     |  47.5 | 71.74
Neigh   | 0          | 0          | 0          |   0.0 |  0.00
Comm    | 0.057033   | 0.65679    | 2.062      |  72.4 | 15.99
Output  | 0          | 0          | 0          |   0.0 |  0.00
Modify  | 5.9053e-05 | 0.0061605  | 0.01303    |   3.6 |  0.15
Other   |            | 0.4976     |            |       | 12.12

Nlocal:        5552.90 ave        7869 max           0 min
Histogram: 4 2 2 0 2 6 4 0 14 18
Nghost:        6213.71 ave        8771 max         412 min
Histogram: 4 0 4 0 8 0 4 5 7 20
Neighs:       158427.0 ave      229178 max           0 min
Histogram: 4 2 2 0 4 4 4 4 10 18

Total # of neighbors = 8238216
Ave neighs/atom = 28.530519
Neighbor list builds = 0
Dangerous builds = 0
The dot product: 8.05088993461329e-08
Setting atom values ...
  1 settings made for x
  1 settings made for y
  1 settings made for z
Setting up cg style minimization ...
  Unit style    : metal
  Current step  : 5441
Per MPI rank memory allocation (min/avg/max) = 5.465 | 6.344 | 6.728 Mbytes
Step PotEng KinEng TotEng v_fx v_fy v_fz 
    5441   -1152448.9            0   -1152448.9 0.0016105612 -0.0033081215 0.0044682974 
    5607   -1152448.9            0   -1152448.9 1.127845e-05 -2.2522656e-05 3.0631337e-05 
Loop time of 3.70301 on 52 procs for 166 steps with 288751 atoms

99.8% CPU use with 52 MPI tasks x 1 OpenMP threads

Minimization stats:
  Stopping criterion = energy tolerance
  Energy initial, next-to-last, final = 
     -1152448.86149411  -1152448.86310498  -1152448.86310498
  Force two-norm initial, final = 0.17834511 0.00025877469
  Force max component initial, final = 0.14685421 5.1857425e-05
  Final line search alpha, max atom move = 1.0000000 5.1857425e-05
  Iterations, force evaluations = 166 332

MPI task timing breakdown:
Section |  min time  |  avg time  |  max time  |%varavg| %total
---------------------------------------------------------------
Pair    | 0.93429    | 2.6503     | 3.4651     |  45.0 | 71.57
Neigh   | 0          | 0          | 0          |   0.0 |  0.00
Comm    | 0.0569     | 0.59482    | 1.8544     |  68.3 | 16.06
Output  | 0          | 0          | 0          |   0.0 |  0.00
Modify  | 5.6013e-05 | 0.0055391  | 0.011734   |   3.4 |  0.15
Other   |            | 0.4524     |            |       | 12.22

Nlocal:        5552.90 ave        7869 max           0 min
Histogram: 4 2 2 0 2 6 4 0 14 18
Nghost:        6213.71 ave        8771 max         412 min
Histogram: 4 0 4 0 8 0 4 5 7 20
Neighs:       158427.0 ave      229187 max           0 min
Histogram: 4 2 2 0 4 4 4 4 10 18

Total # of neighbors = 8238215
Ave neighs/atom = 28.530516
Neighbor list builds = 0
Dangerous builds = 0
The dot product: -1.38719611968302e-07
Setting atom values ...
  1 settings made for x
  1 settings made for y
  1 settings made for z
Setting up cg style minimization ...
  Unit style    : metal
  Current step  : 5607
Per MPI rank memory allocation (min/avg/max) = 5.465 | 6.344 | 6.728 Mbytes
Step PotEng KinEng TotEng v_fx v_fy v_fz 
    5607   -1152448.8            0   -1152448.8 0.0029221271 -0.0055158826 0.0075214611 
    5759   -1152448.8            0   -1152448.8 -2.5268225e-06 2.4550579e-05 -2.6529964e-05 
Loop time of 3.3556 on 52 procs for 152 steps with 288751 atoms

99.9% CPU use with 52 MPI tasks x 1 OpenMP threads

Minimization stats:
  Stopping criterion = energy tolerance
  Energy initial, next-to-last, final = 
     -1152448.82511973  -1152448.82684362  -1152448.82684362
  Force two-norm initial, final = 0.1796423 0.00026912553
  Force max component initial, final = 0.14845367 3.8395928e-05
  Final line search alpha, max atom move = 1.0000000 3.8395928e-05
  Iterations, force evaluations = 152 304

MPI task timing breakdown:
Section |  min time  |  avg time  |  max time  |%varavg| %total
---------------------------------------------------------------
Pair    | 0.85105    | 2.4187     | 3.1718     |  43.1 | 72.08
Neigh   | 0          | 0          | 0          |   0.0 |  0.00
Comm    | 0.04735    | 0.53818    | 1.6942     |  66.1 | 16.04
Output  | 0          | 0          | 0          |   0.0 |  0.00
Modify  | 5.166e-05  | 0.0050664  | 0.010753   |   3.3 |  0.15
Other   |            | 0.3936     |            |       | 11.73

Nlocal:        5552.90 ave        7867 max           0 min
Histogram: 4 2 2 0 2 6 4 0 14 18
Nghost:        6213.69 ave        8771 max         412 min
Histogram: 4 0 4 0 8 0 4 5 7 20
Neighs:       158427.0 ave      229113 max           0 min
Histogram: 4 2 2 0 4 4 4 4 10 18

Total # of neighbors = 8238217
Ave neighs/atom = 28.530523
Neighbor list builds = 0
Dangerous builds = 0
The dot product: 1.13847091095531e-07
Setting atom values ...
  1 settings made for x
  1 settings made for y
  1 settings made for z
Setting up cg style minimization ...
  Unit style    : metal
  Current step  : 5759
Per MPI rank memory allocation (min/avg/max) = 5.465 | 6.344 | 6.728 Mbytes
Step PotEng KinEng TotEng v_fx v_fy v_fz 
    5759   -1152448.8            0   -1152448.8 0.0035763932 -0.007154299 0.0095167352 
    5965   -1152448.8            0   -1152448.8 -1.3854745e-06 3.785899e-06 -4.7027415e-06 
Loop time of 4.55481 on 52 procs for 206 steps with 288751 atoms

99.9% CPU use with 52 MPI tasks x 1 OpenMP threads

Minimization stats:
  Stopping criterion = linesearch alpha is zero
  Energy initial, next-to-last, final = 
     -1152448.78804296  -1152448.78966448  -1152448.78966448
  Force two-norm initial, final = 0.18017627 7.6161408e-05
  Force max component initial, final = 0.14945614 4.7027415e-06
  Final line search alpha, max atom move = 0.5 2.3513708e-06
  Iterations, force evaluations = 206 413

MPI task timing breakdown:
Section |  min time  |  avg time  |  max time  |%varavg| %total
---------------------------------------------------------------
Pair    | 1.1643     | 3.291      | 4.3074     |  50.2 | 72.25
Neigh   | 0          | 0          | 0          |   0.0 |  0.00
Comm    | 0.064026   | 0.72851    | 2.3065     |  77.5 | 15.99
Output  | 0          | 0          | 0          |   0.0 |  0.00
Modify  | 7.6162e-05 | 0.0069026  | 0.014602   |   3.8 |  0.15
Other   |            | 0.5284     |            |       | 11.60

Nlocal:        5552.90 ave        7867 max           0 min
Histogram: 4 2 2 0 2 6 4 0 14 18
Nghost:        6213.69 ave        8771 max         412 min
Histogram: 4 0 4 0 8 0 4 5 7 20
Neighs:       158427.0 ave      229120 max           0 min
Histogram: 4 2 2 0 4 4 4 4 10 18

Total # of neighbors = 8238213
Ave neighs/atom = 28.530509
Neighbor list builds = 0
Dangerous builds = 0
The dot product: 1.37275424170241e-08
Setting atom values ...
  1 settings made for x
  1 settings made for y
  1 settings made for z
Setting up cg style minimization ...
  Unit style    : metal
  Current step  : 5965
Per MPI rank memory allocation (min/avg/max) = 5.465 | 6.344 | 6.728 Mbytes
Step PotEng KinEng TotEng v_fx v_fy v_fz 
    5965   -1152448.7            0   -1152448.7 0.0045610349 -0.010039473  0.012964875 
    6000   -1152448.8            0   -1152448.8 0.00022420257 -0.00030586714 0.00045074612 
    6173   -1152448.8            0   -1152448.8 2.3196047e-06 -4.112954e-06 5.6064275e-06 
Loop time of 4.60052 on 52 procs for 208 steps with 288751 atoms

99.9% CPU use with 52 MPI tasks x 1 OpenMP threads

Minimization stats:
  Stopping criterion = energy tolerance
  Energy initial, next-to-last, final = 
     -1152448.74984576  -1152448.75147734  -1152448.75147734
  Force two-norm initial, final = 0.18121994 7.4606923e-05
  Force max component initial, final = 0.15085459 1.0160655e-05
  Final line search alpha, max atom move = 1.0000000 1.0160655e-05
  Iterations, force evaluations = 208 416

MPI task timing breakdown:
Section |  min time  |  avg time  |  max time  |%varavg| %total
---------------------------------------------------------------
Pair    | 1.1663     | 3.31       | 4.3336     |  50.5 | 71.95
Neigh   | 0          | 0          | 0          |   0.0 |  0.00
Comm    | 0.064975   | 0.73527    | 2.3179     |  77.5 | 15.98
Output  | 0.00016297 | 0.00017336 | 0.00031113 |   0.0 |  0.00
Modify  | 7.1042e-05 | 0.0069393  | 0.014698   |   3.8 |  0.15
Other   |            | 0.5482     |            |       | 11.92

Nlocal:        5552.90 ave        7867 max           0 min
Histogram: 4 2 2 0 2 6 4 0 14 18
Nghost:        6213.81 ave        8771 max         412 min
Histogram: 4 0 4 0 8 0 4 5 7 20
Neighs:       158427.0 ave      229131 max           0 min
Histogram: 4 2 2 0 4 4 4 4 10 18

Total # of neighbors = 8238213
Ave neighs/atom = 28.530509
Neighbor list builds = 0
Dangerous builds = 0
The dot product: -9.29894064039505e-09
Setting atom values ...
  1 settings made for x
  1 settings made for y
  1 settings made for z
Setting up cg style minimization ...
  Unit style    : metal
  Current step  : 6173
Per MPI rank memory allocation (min/avg/max) = 5.465 | 6.344 | 6.728 Mbytes
Step PotEng KinEng TotEng v_fx v_fy v_fz 
    6173   -1152448.7            0   -1152448.7 0.0051991396 -0.012899952  0.016162141 
    6328   -1152448.7            0   -1152448.7 4.6365626e-06 -1.1751571e-05 1.4658246e-05 
Loop time of 3.43259 on 52 procs for 155 steps with 288751 atoms

99.9% CPU use with 52 MPI tasks x 1 OpenMP threads

Minimization stats:
  Stopping criterion = linesearch alpha is zero
  Energy initial, next-to-last, final = 
     -1152448.71073177  -1152448.71253978  -1152448.71253978
  Force two-norm initial, final = 0.18168033 0.00015795036
  Force max component initial, final = 0.15193124 1.7032575e-05
  Final line search alpha, max atom move = 0.5 8.5162873e-06
  Iterations, force evaluations = 155 311

MPI task timing breakdown:
Section |  min time  |  avg time  |  max time  |%varavg| %total
---------------------------------------------------------------
Pair    | 0.86715    | 2.4746     | 3.2461     |  43.7 | 72.09
Neigh   | 0          | 0          | 0          |   0.0 |  0.00
Comm    | 0.047989   | 0.54812    | 1.7303     |  67.1 | 15.97
Output  | 0          | 0          | 0          |   0.0 |  0.00
Modify  | 5.2336e-05 | 0.0051801  | 0.01102    |   3.3 |  0.15
Other   |            | 0.4047     |            |       | 11.79

Nlocal:        5552.90 ave        7867 max           0 min
Histogram: 4 2 2 0 2 6 4 0 14 18
Nghost:        6213.81 ave        8771 max         412 min
Histogram: 4 0 4 0 8 0 4 5 7 20
Neighs:       158427.0 ave      229130 max           0 min
Histogram: 4 2 2 0 4 4 4 4 10 18

Total # of neighbors = 8238212
Ave neighs/atom = 28.530506
Neighbor list builds = 0
Dangerous builds = 0
The dot product: -1.62595386284812e-08
Setting atom values ...
  1 settings made for x
  1 settings made for y
  1 settings made for z
Setting up cg style minimization ...
  Unit style    : metal
  Current step  : 6328
Per MPI rank memory allocation (min/avg/max) = 5.465 | 6.344 | 6.728 Mbytes
Step PotEng KinEng TotEng v_fx v_fy v_fz 
    6328   -1152448.7            0   -1152448.7 0.0056024178 -0.014947682  0.018406225 
    6499   -1152448.7            0   -1152448.7 1.3997441e-05 -4.2233059e-05 5.0808713e-05 
Loop time of 3.77927 on 52 procs for 171 steps with 288751 atoms

99.9% CPU use with 52 MPI tasks x 1 OpenMP threads

Minimization stats:
  Stopping criterion = energy tolerance
  Energy initial, next-to-last, final = 
     -1152448.67134137  -1152448.67309121  -1152448.67309121
  Force two-norm initial, final = 0.1805342 0.00020227155
  Force max component initial, final = 0.15191752 5.0808713e-05
  Final line search alpha, max atom move = 1.0000000 5.0808713e-05
  Iterations, force evaluations = 171 342

MPI task timing breakdown:
Section |  min time  |  avg time  |  max time  |%varavg| %total
---------------------------------------------------------------
Pair    | 0.95727    | 2.7172     | 3.5674     |  45.7 | 71.90
Neigh   | 0          | 0          | 0          |   0.0 |  0.00
Comm    | 0.051085   | 0.60645    | 1.9044     |  69.9 | 16.05
Output  | 0          | 0          | 0          |   0.0 |  0.00
Modify  | 6.0211e-05 | 0.0056968  | 0.012069   |   3.5 |  0.15
Other   |            | 0.45       |            |       | 11.91

Nlocal:        5552.90 ave        7868 max           0 min
Histogram: 4 2 2 0 2 6 4 0 14 18
Nghost:        6213.81 ave        8771 max         412 min
Histogram: 4 0 4 0 8 0 4 5 7 20
Neighs:       158427.0 ave      229193 max           0 min
Histogram: 4 2 2 0 4 4 4 4 10 18

Total # of neighbors = 8238207
Ave neighs/atom = 28.530488
Neighbor list builds = 0
Dangerous builds = 0
The dot product: 1.41433351632035e-08
Setting atom values ...
  1 settings made for x
  1 settings made for y
  1 settings made for z
Setting up cg style minimization ...
  Unit style    : metal
  Current step  : 6499
Per MPI rank memory allocation (min/avg/max) = 5.465 | 6.344 | 6.728 Mbytes
Step PotEng KinEng TotEng v_fx v_fy v_fz 
    6499   -1152448.6            0   -1152448.6 0.0059720209  -0.01790498  0.021578365 
    6690   -1152448.6            0   -1152448.6 1.1619089e-05 -3.2272613e-05 3.9454251e-05 
Loop time of 4.22385 on 52 procs for 191 steps with 288751 atoms

99.9% CPU use with 52 MPI tasks x 1 OpenMP threads

Minimization stats:
  Stopping criterion = linesearch alpha is zero
  Energy initial, next-to-last, final = 
     -1152448.63159794  -1152448.63361634  -1152448.63361634
  Force two-norm initial, final = 0.17962777 0.00015782511
  Force max component initial, final = 0.15169247 3.9454251e-05
  Final line search alpha, max atom move = 0.5 1.9727126e-05
  Iterations, force evaluations = 191 383

MPI task timing breakdown:
Section |  min time  |  avg time  |  max time  |%varavg| %total
---------------------------------------------------------------
Pair    | 1.0703     | 3.0531     | 3.9951     |  48.4 | 72.28
Neigh   | 0          | 0          | 0          |   0.0 |  0.00
Comm    | 0.058706   | 0.67628    | 2.1375     |  74.1 | 16.01
Output  | 0          | 0          | 0          |   0.0 |  0.00
Modify  | 6.6003e-05 | 0.0063743  | 0.013546   |   3.7 |  0.15
Other   |            | 0.4881     |            |       | 11.56

Nlocal:        5552.90 ave        7867 max           0 min
Histogram: 4 2 2 0 2 6 4 0 14 18
Nghost:        6213.73 ave        8771 max         412 min
Histogram: 4 0 4 0 8 0 4 5 7 20
Neighs:       158427.0 ave      229157 max           0 min
Histogram: 4 2 2 0 4 4 4 4 10 18

Total # of neighbors = 8238199
Ave neighs/atom = 28.530461
Neighbor list builds = 0
Dangerous builds = 0
The dot product: 2.77249129060376e-08
Setting atom values ...
  1 settings made for x
  1 settings made for y
  1 settings made for z
Setting up cg style minimization ...
  Unit style    : metal
  Current step  : 6690
Per MPI rank memory allocation (min/avg/max) = 5.465 | 6.344 | 6.728 Mbytes
Step PotEng KinEng TotEng v_fx v_fy v_fz 
    6690   -1152448.6            0   -1152448.6 0.0094417164 -0.018929273  0.024908861 
    6868   -1152448.6            0   -1152448.6 1.2991493e-05 -2.3541647e-05 3.1802444e-05 
Loop time of 4.01762 on 52 procs for 178 steps with 288751 atoms

99.9% CPU use with 52 MPI tasks x 1 OpenMP threads

Minimization stats:
  Stopping criterion = linesearch alpha is zero
  Energy initial, next-to-last, final = 
     -1152448.59290422  -1152448.59507996  -1152448.59507996
  Force two-norm initial, final = 0.17789219 0.00031911969
  Force max component initial, final = 0.14911521 3.1802444e-05
  Final line search alpha, max atom move = 0.0625 1.9876528e-06
  Iterations, force evaluations = 178 363

MPI task timing breakdown:
Section |  min time  |  avg time  |  max time  |%varavg| %total
---------------------------------------------------------------
Pair    | 1.017      | 2.8866     | 3.7847     |  47.0 | 71.85
Neigh   | 0          | 0          | 0          |   0.0 |  0.00
Comm    | 0.054561   | 0.64333    | 2.0375     |  72.2 | 16.01
Output  | 0          | 0          | 0          |   0.0 |  0.00
Modify  | 5.866e-05  | 0.0060477  | 0.012854   |   3.6 |  0.15
Other   |            | 0.4816     |            |       | 11.99

Nlocal:        5552.90 ave        7867 max           0 min
Histogram: 4 2 2 0 2 6 4 0 14 18
Nghost:        6213.73 ave        8771 max         412 min
Histogram: 4 0 4 0 8 0 4 5 7 20
Neighs:       158427.0 ave      229151 max           0 min
Histogram: 4 2 2 0 4 4 4 4 10 18

Total # of neighbors = 8238205
Ave neighs/atom = 28.530481
Neighbor list builds = 0
Dangerous builds = 0
The dot product: 1.96581208269741e-08
Setting atom values ...
  1 settings made for x
  1 settings made for y
  1 settings made for z
Setting up cg style minimization ...
  Unit style    : metal
  Current step  : 6868
Per MPI rank memory allocation (min/avg/max) = 5.465 | 6.344 | 6.728 Mbytes
Step PotEng KinEng TotEng v_fx v_fy v_fz 
    6868   -1152448.6            0   -1152448.6  0.011438218 -0.018609755  0.025947692 
    7000   -1152448.6            0   -1152448.6 0.00023578908 -0.00056442625 0.00071318738 
    7098   -1152448.6            0   -1152448.6 1.320695e-05 -2.9173792e-05 3.7539963e-05 
Loop time of 5.08433 on 52 procs for 230 steps with 288751 atoms

99.9% CPU use with 52 MPI tasks x 1 OpenMP threads

Minimization stats:
  Stopping criterion = energy tolerance
  Energy initial, next-to-last, final = 
     -1152448.55619826  -1152448.56858626  -1152448.56858626
  Force two-norm initial, final = 0.1858746 0.00016868148
  Force max component initial, final = 0.14655373 3.7539963e-05
  Final line search alpha, max atom move = 1.0000000 3.7539963e-05
  Iterations, force evaluations = 230 460

MPI task timing breakdown:
Section |  min time  |  avg time  |  max time  |%varavg| %total
---------------------------------------------------------------
Pair    | 1.2959     | 3.6681     | 4.7952     |  52.9 | 72.15
Neigh   | 1.9161e-05 | 0.0058356  | 0.0085542  |   3.2 |  0.11
Comm    | 0.072429   | 0.81479    | 2.5738     |  81.2 | 16.03
Output  | 0.00016493 | 0.0001691  | 0.00031418 |   0.0 |  0.00
Modify  | 7.4176e-05 | 0.00766    | 0.016266   |   4.0 |  0.15
Other   |            | 0.5877     |            |       | 11.56

Nlocal:        5552.90 ave        7867 max           0 min
Histogram: 4 2 2 0 2 6 4 0 14 18
Nghost:        6213.71 ave        8770 max         412 min
Histogram: 4 0 4 0 8 0 4 5 7 20
Neighs:       158427.0 ave      229129 max           0 min
Histogram: 4 2 2 0 4 4 4 4 10 18

Total # of neighbors = 8238192
Ave neighs/atom = 28.530436
Neighbor list builds = 1
Dangerous builds = 0
The dot product: -7.00003701191528e-07
Setting atom values ...
  1 settings made for x
  1 settings made for y
  1 settings made for z
Setting up cg style minimization ...
  Unit style    : metal
  Current step  : 7098
Per MPI rank memory allocation (min/avg/max) = 5.465 | 6.344 | 6.728 Mbytes
Step PotEng KinEng TotEng v_fx v_fy v_fz 
    7098   -1152448.5            0   -1152448.5 0.0053428476  -0.01415943  0.016866846 
    7328   -1152448.5            0   -1152448.5 -1.4125483e-05 3.5123818e-05 -4.2402558e-05 
Loop time of 5.11467 on 52 procs for 230 steps with 288751 atoms

99.9% CPU use with 52 MPI tasks x 1 OpenMP threads

Minimization stats:
  Stopping criterion = linesearch alpha is zero
  Energy initial, next-to-last, final = 
[...]
Nghost:        6213.23 ave        8773 max         412 min
Histogram: 4 0 4 0 8 0 4 5 7 20
Neighs:       158427.0 ave      229881 max           0 min
Histogram: 4 2 2 0 5 3 4 4 11 17

Total # of neighbors = 8238201
Ave neighs/atom = 28.530467
Neighbor list builds = 0
Dangerous builds = 0
The dot product: 2.0283891916742e-07
Setting atom values ...
  1 settings made for x
  1 settings made for y
  1 settings made for z
Setting up cg style minimization ...
  Unit style    : metal
  Current step  : 25718
Per MPI rank memory allocation (min/avg/max) = 5.465 | 6.344 | 6.730 Mbytes
Step PotEng KinEng TotEng v_fx v_fy v_fz 
   25718   -1152449.4            0   -1152449.4  0.024438184  0.018826529 -0.040625325 
   25858   -1152449.4            0   -1152449.4 -6.2715045e-06 5.259058e-05 -6.0500041e-05 
Loop time of 3.09486 on 52 procs for 140 steps with 288751 atoms

99.9% CPU use with 52 MPI tasks x 1 OpenMP threads

Minimization stats:
  Stopping criterion = energy tolerance
  Energy initial, next-to-last, final = 
     -1152449.42823231  -1152449.42963667  -1152449.42963667
  Force two-norm initial, final = 0.17115989 0.00040880302
  Force max component initial, final = 0.073627059 7.6232639e-05
  Final line search alpha, max atom move = 1.0000000 7.6232639e-05
  Iterations, force evaluations = 140 280

MPI task timing breakdown:
Section |  min time  |  avg time  |  max time  |%varavg| %total
---------------------------------------------------------------
Pair    | 0.79285    | 2.2242     | 2.8991     |  41.1 | 71.87
Neigh   | 0          | 0          | 0          |   0.0 |  0.00
Comm    | 0.042571   | 0.49534    | 1.5663     |  63.3 | 16.01
Output  | 0          | 0          | 0          |   0.0 |  0.00
Modify  | 3.468e-05  | 0.0047106  | 0.010088   |   3.2 |  0.15
Other   |            | 0.3706     |            |       | 11.97

Nlocal:        5552.90 ave        7886 max           0 min
Histogram: 4 2 2 0 2 6 4 0 14 18
Nghost:        6213.19 ave        8772 max         412 min
Histogram: 4 0 4 0 8 0 4 5 7 20
Neighs:       158427.0 ave      229939 max           0 min
Histogram: 4 2 2 0 5 3 4 4 11 17

Total # of neighbors = 8238205
Ave neighs/atom = 28.530481
Neighbor list builds = 0
Dangerous builds = 0
The dot product: 2.62168108528012e-07
Setting atom values ...
  1 settings made for x
  1 settings made for y
  1 settings made for z
Setting up cg style minimization ...
  Unit style    : metal
  Current step  : 25858
Per MPI rank memory allocation (min/avg/max) = 5.465 | 6.344 | 6.730 Mbytes
Step PotEng KinEng TotEng v_fx v_fy v_fz 
   25858   -1152449.4            0   -1152449.4  0.027690593  0.015151644 -0.038484287 
   26000   -1152449.4            0   -1152449.4 -7.6505773e-05 6.4837518e-05 -2.5798406e-05 
   26044   -1152449.4            0   -1152449.4 8.7880293e-06 -1.8582664e-05 1.6751756e-05 
Loop time of 4.08682 on 52 procs for 186 steps with 288751 atoms

99.9% CPU use with 52 MPI tasks x 1 OpenMP threads

Minimization stats:
  Stopping criterion = linesearch alpha is zero
  Energy initial, next-to-last, final = 
     -1152449.42121303  -1152449.42256425  -1152449.42256425
  Force two-norm initial, final = 0.1684755 0.0001280455
  Force max component initial, final = 0.072838075 2.9011900e-05
  Final line search alpha, max atom move = 0.5 1.4505950e-05
  Iterations, force evaluations = 186 373

MPI task timing breakdown:
Section |  min time  |  avg time  |  max time  |%varavg| %total
---------------------------------------------------------------
Pair    | 1.0567     | 2.9602     | 3.8587     |  47.5 | 72.43
Neigh   | 0          | 0          | 0          |   0.0 |  0.00
Comm    | 0.056864   | 0.65646    | 2.0994     |  73.2 | 16.06
Output  | 0.00016647 | 0.00017163 | 0.00036085 |   0.0 |  0.00
Modify  | 4.6913e-05 | 0.0062479  | 0.013226   |   3.7 |  0.15
Other   |            | 0.4638     |            |       | 11.35

Nlocal:        5552.90 ave        7888 max           0 min
Histogram: 4 2 2 0 2 6 4 0 14 18
Nghost:        6213.19 ave        8772 max         412 min
Histogram: 4 0 4 0 8 0 4 5 7 20
Neighs:       158427.0 ave      230009 max           0 min
Histogram: 4 2 2 0 5 3 4 4 12 16

Total # of neighbors = 8238205
Ave neighs/atom = 28.530481
Neighbor list builds = 0
Dangerous builds = 0
The dot product: -6.29048310248207e-08
Setting atom values ...
  1 settings made for x
  1 settings made for y
  1 settings made for z
Setting up cg style minimization ...
  Unit style    : metal
  Current step  : 26044
Per MPI rank memory allocation (min/avg/max) = 5.465 | 6.344 | 6.730 Mbytes
Step PotEng KinEng TotEng v_fx v_fy v_fz 
   26044   -1152449.4            0   -1152449.4  0.031831023  0.010444861 -0.035682006 
   26248   -1152449.4            0   -1152449.4 1.3890761e-05 -1.7530704e-05 1.1841344e-05 
Loop time of 4.49019 on 52 procs for 204 steps with 288751 atoms

99.9% CPU use with 52 MPI tasks x 1 OpenMP threads

Minimization stats:
  Stopping criterion = linesearch alpha is zero
  Energy initial, next-to-last, final = 
     -1152449.41265712  -1152449.41395212  -1152449.41395212
  Force two-norm initial, final = 0.1660345 7.9193171e-05
  Force max component initial, final = 0.071960339 1.8676614e-05
  Final line search alpha, max atom move = 0.5 9.3383069e-06
  Iterations, force evaluations = 204 409

MPI task timing breakdown:
Section |  min time  |  avg time  |  max time  |%varavg| %total
---------------------------------------------------------------
Pair    | 1.159      | 3.2438     | 4.2336     |  49.7 | 72.24
Neigh   | 0          | 0          | 0          |   0.0 |  0.00
Comm    | 0.061543   | 0.71841    | 2.2871     |  76.5 | 16.00
Output  | 0          | 0          | 0          |   0.0 |  0.00
Modify  | 5.0485e-05 | 0.0068621  | 0.014729   |   3.8 |  0.15
Other   |            | 0.5211     |            |       | 11.61

Nlocal:        5552.90 ave        7889 max           0 min
Histogram: 4 2 2 0 2 6 4 0 14 18
Nghost:        6213.19 ave        8772 max         412 min
Histogram: 4 0 4 0 8 0 4 5 7 20
Neighs:       158427.0 ave      230039 max           0 min
Histogram: 4 2 2 0 5 3 4 4 12 16

Total # of neighbors = 8238207
Ave neighs/atom = 28.530488
Neighbor list builds = 0
Dangerous builds = 0
The dot product: -2.50072863207004e-08
Setting atom values ...
  1 settings made for x
  1 settings made for y
  1 settings made for z
Setting up cg style minimization ...
  Unit style    : metal
  Current step  : 26248
Per MPI rank memory allocation (min/avg/max) = 5.465 | 6.344 | 6.730 Mbytes
Step PotEng KinEng TotEng v_fx v_fy v_fz 
   26248   -1152449.4            0   -1152449.4  0.038114601 0.0033953273 -0.031495258 
   26442   -1152449.4            0   -1152449.4 9.003649e-06 8.6245434e-06 -1.7165685e-05 
Loop time of 4.26372 on 52 procs for 194 steps with 288751 atoms

99.9% CPU use with 52 MPI tasks x 1 OpenMP threads

Minimization stats:
  Stopping criterion = energy tolerance
  Energy initial, next-to-last, final = 
     -1152449.40273099  -1152449.40398997  -1152449.40398997
  Force two-norm initial, final = 0.16485769 8.1329673e-05
  Force max component initial, final = 0.071622344 2.0418048e-05
  Final line search alpha, max atom move = 1.0000000 2.0418048e-05
  Iterations, force evaluations = 194 388

MPI task timing breakdown:
Section |  min time  |  avg time  |  max time  |%varavg| %total
---------------------------------------------------------------
Pair    | 1.1026     | 3.0804     | 4.0224     |  48.3 | 72.25
Neigh   | 0          | 0          | 0          |   0.0 |  0.00
Comm    | 0.061492   | 0.68081    | 2.1648     |  74.5 | 15.97
Output  | 0          | 0          | 0          |   0.0 |  0.00
Modify  | 5.6206e-05 | 0.0064863  | 0.013772   |   3.7 |  0.15
Other   |            | 0.496      |            |       | 11.63

Nlocal:        5552.90 ave        7889 max           0 min
Histogram: 4 2 2 0 2 6 4 0 13 19
Nghost:        6213.19 ave        8772 max         412 min
Histogram: 4 0 4 0 8 0 4 5 7 20
Neighs:       158427.0 ave      230045 max           0 min
Histogram: 4 2 2 0 5 3 4 4 12 16

Total # of neighbors = 8238204
Ave neighs/atom = 28.530478
Neighbor list builds = 0
Dangerous builds = 0
The dot product: 5.81056555867831e-08
Setting atom values ...
  1 settings made for x
  1 settings made for y
  1 settings made for z
Setting up cg style minimization ...
  Unit style    : metal
  Current step  : 26442
Per MPI rank memory allocation (min/avg/max) = 5.465 | 6.344 | 6.730 Mbytes
Step PotEng KinEng TotEng v_fx v_fy v_fz 
   26442   -1152449.4            0   -1152449.4  0.045825634 -0.0051834391  -0.02646054 
   26499   -1152449.4            0   -1152449.4 3.1583138e-06 6.7693885e-06 -1.069287e-05 
Loop time of 1.28171 on 52 procs for 57 steps with 288751 atoms

99.9% CPU use with 52 MPI tasks x 1 OpenMP threads

Minimization stats:
  Stopping criterion = linesearch alpha is zero
  Energy initial, next-to-last, final = 
      -1152449.3918438  -1152449.39331153  -1152449.39331153
  Force two-norm initial, final = 0.16725193 0.00014400689
  Force max component initial, final = 0.071395918 1.3308508e-05
  Final line search alpha, max atom move = 0.5 6.6542541e-06
  Iterations, force evaluations = 57 115

MPI task timing breakdown:
Section |  min time  |  avg time  |  max time  |%varavg| %total
---------------------------------------------------------------
Pair    | 0.32654    | 0.91892    | 1.2005     |  26.5 | 71.70
Neigh   | 0          | 0          | 0          |   0.0 |  0.00
Comm    | 0.01888    | 0.20552    | 0.65105    |  40.4 | 16.03
Output  | 0          | 0          | 0          |   0.0 |  0.00
Modify  | 1.4768e-05 | 0.0019469  | 0.0041419  |   2.0 |  0.15
Other   |            | 0.1553     |            |       | 12.12

Nlocal:        5552.90 ave        7889 max           0 min
Histogram: 4 2 2 0 2 6 4 0 13 19
Nghost:        6213.23 ave        8772 max         412 min
Histogram: 4 0 4 0 8 0 4 5 7 20
Neighs:       158427.0 ave      230055 max           0 min
Histogram: 4 2 2 0 5 3 4 4 12 16

Total # of neighbors = 8238204
Ave neighs/atom = 28.530478
Neighbor list builds = 0
Dangerous builds = 0
The dot product: 7.04446234624486e-09
Setting atom values ...
  1 settings made for x
  1 settings made for y
  1 settings made for z
Setting up cg style minimization ...
  Unit style    : metal
  Current step  : 26499
Per MPI rank memory allocation (min/avg/max) = 5.465 | 6.344 | 6.730 Mbytes
Step PotEng KinEng TotEng v_fx v_fy v_fz 
   26499   -1152449.4            0   -1152449.4  0.053351971 -0.013193985 -0.022203874 
   26668   -1152449.4            0   -1152449.4 1.3271326e-05 3.2483109e-05 -4.9966711e-05 
Loop time of 3.74643 on 52 procs for 169 steps with 288751 atoms

99.9% CPU use with 52 MPI tasks x 1 OpenMP threads

Minimization stats:
  Stopping criterion = linesearch alpha is zero
  Energy initial, next-to-last, final = 
     -1152449.38126026  -1152449.38324965  -1152449.38324965
  Force two-norm initial, final = 0.17127327 0.00017882097
  Force max component initial, final = 0.070119869 4.9966711e-05
  Final line search alpha, max atom move = 0.25 1.2491678e-05
  Iterations, force evaluations = 169 341

MPI task timing breakdown:
Section |  min time  |  avg time  |  max time  |%varavg| %total
---------------------------------------------------------------
Pair    | 0.96692    | 2.7067     | 3.533      |  45.4 | 72.25
Neigh   | 0          | 0          | 0          |   0.0 |  0.00
Comm    | 0.056916   | 0.60146    | 1.912      |  69.8 | 16.05
Output  | 0          | 0          | 0          |   0.0 |  0.00
Modify  | 4.5443e-05 | 0.0057121  | 0.01212    |   3.5 |  0.15
Other   |            | 0.4326     |            |       | 11.55

Nlocal:        5552.90 ave        7889 max           0 min
Histogram: 4 2 2 0 2 6 4 0 13 19
Nghost:        6213.23 ave        8772 max         412 min
Histogram: 4 0 4 0 8 0 4 5 7 20
Neighs:       158427.0 ave      230057 max           0 min
Histogram: 4 2 2 0 5 3 4 4 12 16

Total # of neighbors = 8238207
Ave neighs/atom = 28.530488
Neighbor list builds = 0
Dangerous builds = 0
The dot product: -9.31696207271597e-08
Setting atom values ...
  1 settings made for x
  1 settings made for y
  1 settings made for z
Setting up cg style minimization ...
  Unit style    : metal
  Current step  : 26668
Per MPI rank memory allocation (min/avg/max) = 5.465 | 6.344 | 6.730 Mbytes
Step PotEng KinEng TotEng v_fx v_fy v_fz 
   26668   -1152449.4            0   -1152449.4  0.052936932 -0.013462716 -0.022096594 
   26738   -1152449.4            0   -1152449.4 3.1932744e-05 -1.7061331e-05 -2.2658389e-06 
Loop time of 1.57426 on 52 procs for 70 steps with 288751 atoms

99.8% CPU use with 52 MPI tasks x 1 OpenMP threads

Minimization stats:
  Stopping criterion = linesearch alpha is zero
  Energy initial, next-to-last, final = 
     -1152449.37208572  -1152449.37373399  -1152449.37373399
  Force two-norm initial, final = 0.16744235 0.00020233164
  Force max component initial, final = 0.070125433 3.2486963e-05
  Final line search alpha, max atom move = 0.25 8.1217407e-06
  Iterations, force evaluations = 70 143

MPI task timing breakdown:
Section |  min time  |  avg time  |  max time  |%varavg| %total
---------------------------------------------------------------
Pair    | 0.40697    | 1.1399     | 1.4865     |  29.4 | 72.41
Neigh   | 0          | 0          | 0          |   0.0 |  0.00
Comm    | 0.022231   | 0.25262    | 0.80657    |  45.4 | 16.05
Output  | 0          | 0          | 0          |   0.0 |  0.00
Modify  | 1.8033e-05 | 0.0024056  | 0.0051053  |   2.3 |  0.15
Other   |            | 0.1794     |            |       | 11.39

Nlocal:        5552.90 ave        7889 max           0 min
Histogram: 4 2 2 0 2 6 4 0 13 19
Nghost:        6213.23 ave        8772 max         412 min
Histogram: 4 0 4 0 8 0 4 5 7 20
Neighs:       158427.0 ave      230047 max           0 min
Histogram: 4 2 2 0 5 3 4 4 12 16

Total # of neighbors = 8238205
Ave neighs/atom = 28.530481
Neighbor list builds = 0
Dangerous builds = 0
The dot product: 4.45780556709252e-07
Setting atom values ...
  1 settings made for x
  1 settings made for y
  1 settings made for z
Setting up cg style minimization ...
  Unit style    : metal
  Current step  : 26738
Per MPI rank memory allocation (min/avg/max) = 5.465 | 6.344 | 6.730 Mbytes
Step PotEng KinEng TotEng v_fx v_fy v_fz 
   26738   -1152449.4            0   -1152449.4   0.05018138 -0.011962047 -0.022290461 
   26782   -1152449.4            0   -1152449.4 -1.5813023e-05 5.4007371e-06 5.0107109e-06 
Loop time of 0.973219 on 52 procs for 44 steps with 288751 atoms

99.9% CPU use with 52 MPI tasks x 1 OpenMP threads

Minimization stats:
  Stopping criterion = energy tolerance
  Energy initial, next-to-last, final = 
     -1152449.36268505  -1152449.36412941  -1152449.36412941
  Force two-norm initial, final = 0.16306922 0.00036680832
  Force max component initial, final = 0.069788538 6.2248928e-05
  Final line search alpha, max atom move = 1.0000000 6.2248928e-05
  Iterations, force evaluations = 44 88

MPI task timing breakdown:
Section |  min time  |  avg time  |  max time  |%varavg| %total
---------------------------------------------------------------
Pair    | 0.25179    | 0.70479    | 0.91849    |  23.2 | 72.42
Neigh   | 0          | 0          | 0          |   0.0 |  0.00
Comm    | 0.013754   | 0.15561    | 0.49378    |  35.7 | 15.99
Output  | 0          | 0          | 0          |   0.0 |  0.00
Modify  | 1.1364e-05 | 0.0014848  | 0.0031588  |   1.8 |  0.15
Other   |            | 0.1113     |            |       | 11.44

Nlocal:        5552.90 ave        7889 max           0 min
Histogram: 4 2 2 0 2 6 4 0 13 19
Nghost:        6213.23 ave        8772 max         412 min
Histogram: 4 0 4 0 8 0 4 5 7 20
Neighs:       158427.0 ave      230039 max           0 min
Histogram: 4 2 2 0 5 3 4 4 12 16

Total # of neighbors = 8238206
Ave neighs/atom = 28.530485
Neighbor list builds = 0
Dangerous builds = 0
The dot product: -1.52873788329267e-07
Setting atom values ...
  1 settings made for x
  1 settings made for y
  1 settings made for z
Setting up cg style minimization ...
  Unit style    : metal
  Current step  : 26782
Per MPI rank memory allocation (min/avg/max) = 5.465 | 6.344 | 6.730 Mbytes
Step PotEng KinEng TotEng v_fx v_fy v_fz 
   26782   -1152449.4            0   -1152449.4   0.04870189 -0.011690264 -0.021792397 
   26975   -1152449.4            0   -1152449.4 2.9037689e-06 6.4156389e-06 -1.0064159e-05 
Loop time of 4.27398 on 52 procs for 193 steps with 288751 atoms

99.9% CPU use with 52 MPI tasks x 1 OpenMP threads

Minimization stats:
  Stopping criterion = linesearch alpha is zero
  Energy initial, next-to-last, final = 
     -1152449.35275786    -1152449.354134    -1152449.354134
  Force two-norm initial, final = 0.1601128 4.5643952e-05
  Force max component initial, final = 0.069262945 1.0064159e-05
  Final line search alpha, max atom move = 0.5 5.0320793e-06
  Iterations, force evaluations = 193 387

MPI task timing breakdown:
Section |  min time  |  avg time  |  max time  |%varavg| %total
---------------------------------------------------------------
Pair    | 1.0977     | 3.0796     | 4.0262     |  48.5 | 72.05
Neigh   | 0          | 0          | 0          |   0.0 |  0.00
Comm    | 0.069255   | 0.68296    | 2.1734     |  74.4 | 15.98
Output  | 0          | 0          | 0          |   0.0 |  0.00
Modify  | 5.3513e-05 | 0.0064868  | 0.013732   |   3.7 |  0.15
Other   |            | 0.5049     |            |       | 11.81

Nlocal:        5552.90 ave        7889 max           0 min
Histogram: 4 2 2 0 2 6 4 0 13 19
Nghost:        6213.23 ave        8772 max         412 min
Histogram: 4 0 4 0 8 0 4 5 7 20
Neighs:       158427.0 ave      230036 max           0 min
Histogram: 4 2 2 0 5 3 4 4 12 16

Total # of neighbors = 8238203
Ave neighs/atom = 28.530474
Neighbor list builds = 0
Dangerous builds = 0
The dot product: 3.84279388657624e-09
Setting atom values ...
  1 settings made for x
  1 settings made for y
  1 settings made for z
Setting up cg style minimization ...
  Unit style    : metal
  Current step  : 26975
Per MPI rank memory allocation (min/avg/max) = 5.465 | 6.344 | 6.730 Mbytes
Step PotEng KinEng TotEng v_fx v_fy v_fz 
   26975   -1152449.3            0   -1152449.3  0.048953827 -0.013375685 -0.020131057 
   27000   -1152449.3            0   -1152449.3 -0.00013797676 9.1604345e-06 9.1862833e-05 
   27114   -1152449.3            0   -1152449.3 -5.1979445e-06 2.2375513e-05 -2.3652339e-05 
Loop time of 3.07164 on 52 procs for 139 steps with 288751 atoms

99.9% CPU use with 52 MPI tasks x 1 OpenMP threads

Minimization stats:
  Stopping criterion = linesearch alpha is zero
  Energy initial, next-to-last, final = 
     -1152449.34233698  -1152449.34372574  -1152449.34372574
  Force two-norm initial, final = 0.15855296 0.00010062272
  Force max component initial, final = 0.068558753 2.3652339e-05
  Final line search alpha, max atom move = 0.5 1.1826170e-05
  Iterations, force evaluations = 139 279

MPI task timing breakdown:
Section |  min time  |  avg time  |  max time  |%varavg| %total
---------------------------------------------------------------
Pair    | 0.79409    | 2.2184     | 2.8927     |  41.0 | 72.22
Neigh   | 0          | 0          | 0          |   0.0 |  0.00
Comm    | 0.041929   | 0.49051    | 1.5653     |  63.4 | 15.97
Output  | 0.00016649 | 0.00017094 | 0.00034128 |   0.0 |  0.01
Modify  | 4.0212e-05 | 0.0046677  | 0.0099397  |   3.2 |  0.15
Other   |            | 0.3579     |            |       | 11.65

Nlocal:        5552.90 ave        7889 max           0 min
Histogram: 4 2 2 0 2 6 4 0 13 19
Nghost:        6213.23 ave        8772 max         412 min
Histogram: 4 0 4 0 8 0 4 5 7 20
Neighs:       158427.0 ave      230045 max           0 min
Histogram: 4 2 2 0 5 3 4 4 12 16

Total # of neighbors = 8238204
Ave neighs/atom = 28.530478
Neighbor list builds = 0
Dangerous builds = 0
The dot product: -1.15082007958531e-07
