LAMMPS (29 Oct 2020)
OMP_NUM_THREADS environment is not set. Defaulting to 1 thread. (../comm.cpp:94)
  using 1 OpenMP thread(s) per MPI task
OMP_NUM_THREADS environment is not set. Defaulting to 1 thread. (../comm.cpp:94)
  using 1 OpenMP thread(s) per MPI task
Reading data file ...
  orthogonal box = (-122.39241 -121.13707 -37.090501) to (122.39241 121.13707 37.090501)
  13 by 4 by 2 MPI processor grid
  reading atoms ...
  288751 atoms
  read_data CPU = 0.369 seconds
199981 atoms in group inner
88770 atoms in group outer
1 atoms in group carbon
Neighbor list info ...
  update every 1 steps, delay 0 steps, check yes
  max neighbors/atom: 2000, page size: 100000
  master list distance cutoff = 5.6
  ghost atom cutoff = 5.6
  binsize = 2.8, bins = 88 87 27
  1 neighbor lists, perpetual/occasional/extra = 1 0 0
  (1) pair eam/alloy, perpetual
      attributes: half, newton on
      pair build: half/bin/atomonly/newton
      stencil: half/bin/3d/newton
      bin: standard
Setting up cg style minimization ...
  Unit style    : metal
  Current step  : 0
Per MPI rank memory allocation (min/avg/max) = 5.441 | 5.816 | 6.074 Mbytes
Step v_fx v_fy v_fz PotEng KinEng TotEng 
       0   -1.5122626   -1.1188664    -2.535556   -1152447.8            0   -1152447.8 
     153 -1.1314394e-05 -1.7029913e-05 -3.5553449e-05   -1152449.5            0   -1152449.5 
Loop time of 1.82938 on 104 procs for 153 steps with 288751 atoms

99.8% CPU use with 104 MPI tasks x 1 OpenMP threads

Minimization stats:
  Stopping criterion = energy tolerance
  Energy initial, next-to-last, final = 
     -1152447.78349991  -1152449.45035269  -1152449.45035269
  Force two-norm initial, final = 10.170019 0.0002003329
  Force max component initial, final = 4.5579609 4.9470820e-05
  Final line search alpha, max atom move = 1.0000000 4.9470820e-05
  Iterations, force evaluations = 153 305

MPI task timing breakdown:
Section |  min time  |  avg time  |  max time  |%varavg| %total
---------------------------------------------------------------
Pair    | 0.4825     | 1.2906     | 1.6767     |  30.1 | 70.55
Neigh   | 3.3292e-05 | 0.0087354  | 0.012931   |   3.9 |  0.48
Comm    | 0.029862   | 0.29677    | 0.8736     |  44.2 | 16.22
Output  | 0          | 0          | 0          |   0.0 |  0.00
Modify  | 1.9078e-05 | 0.0016539  | 0.0042006  |   2.5 |  0.09
Other   |            | 0.2316     |            |       | 12.66

Nlocal:        2776.45 ave        3961 max           0 min
Histogram: 8 4 4 0 6 10 8 2 28 34
Nghost:        3879.01 ave        5424 max         232 min
Histogram: 8 0 8 0 16 0 8 8 16 40
Neighs:        79213.5 ave      115455 max           0 min
Histogram: 8 4 4 0 10 6 8 8 24 32

Total # of neighbors = 8238207
Ave neighs/atom = 28.530488
Neighbor list builds = 3
Dangerous builds = 1
Setting atom values ...
  1 settings made for x
  1 settings made for y
  1 settings made for z
Setting up cg style minimization ...
  Unit style    : metal
  Current step  : 153
Per MPI rank memory allocation (min/avg/max) = 5.441 | 5.816 | 6.074 Mbytes
Step PotEng KinEng TotEng v_fx v_fy v_fz 
     153   -1152449.4            0   -1152449.4 -0.0077743435 0.0064410047 0.0011806259 
     258   -1152449.5            0   -1152449.5 2.3311939e-06 2.776259e-09 5.8212786e-06 
Loop time of 1.25113 on 104 procs for 105 steps with 288751 atoms

99.9% CPU use with 104 MPI tasks x 1 OpenMP threads

Minimization stats:
  Stopping criterion = energy tolerance
  Energy initial, next-to-last, final = 
     -1152449.44945361  -1152449.45006281  -1152449.45006281
  Force two-norm initial, final = 0.11539233 0.00019268593
  Force max component initial, final = 0.051767563 6.2331169e-06
  Final line search alpha, max atom move = 1.0000000 6.2331169e-06
  Iterations, force evaluations = 105 210

MPI task timing breakdown:
Section |  min time  |  avg time  |  max time  |%varavg| %total
---------------------------------------------------------------
Pair    | 0.31981    | 0.89117    | 1.1655     |  25.5 | 71.23
Neigh   | 0          | 0          | 0          |   0.0 |  0.00
Comm    | 0.021111   | 0.204      | 0.60306    |  36.7 | 16.31
Output  | 0          | 0          | 0          |   0.0 |  0.00
Modify  | 1.3794e-05 | 0.0017414  | 0.0036956  |   2.0 |  0.14
Other   |            | 0.1542     |            |       | 12.33

Nlocal:        2776.45 ave        3961 max           0 min
Histogram: 8 4 4 0 6 10 8 2 28 34
Nghost:        3879.01 ave        5425 max         232 min
Histogram: 8 0 8 0 16 0 8 8 16 40
Neighs:        79213.4 ave      115455 max           0 min
Histogram: 8 4 4 0 10 6 8 8 24 32

Total # of neighbors = 8238198
Ave neighs/atom = 28.530457
Neighbor list builds = 0
Dangerous builds = 0
Setting atom values ...
  1 settings made for x
  1 settings made for y
  1 settings made for z
Setting up cg style minimization ...
  Unit style    : metal
  Current step  : 258
Per MPI rank memory allocation (min/avg/max) = 5.441 | 5.816 | 6.074 Mbytes
Step PotEng KinEng TotEng v_fx v_fy v_fz 
     258   -1152449.4            0   -1152449.4 -0.018709552  0.018082274 0.0027053679 
     395   -1152449.4            0   -1152449.4 9.1193313e-07 3.771742e-06 1.8207235e-05 
Loop time of 1.63161 on 104 procs for 137 steps with 288751 atoms

99.9% CPU use with 104 MPI tasks x 1 OpenMP threads

Minimization stats:
  Stopping criterion = energy tolerance
  Energy initial, next-to-last, final = 
     -1152449.44670584  -1152449.44838218  -1152449.44838218
  Force two-norm initial, final = 0.19214305 0.00017342429
  Force max component initial, final = 0.080023539 1.8207235e-05
  Final line search alpha, max atom move = 1.0000000 1.8207235e-05
  Iterations, force evaluations = 137 274

MPI task timing breakdown:
Section |  min time  |  avg time  |  max time  |%varavg| %total
---------------------------------------------------------------
Pair    | 0.42097    | 1.1577     | 1.5105     |  29.0 | 70.95
Neigh   | 0          | 0          | 0          |   0.0 |  0.00
Comm    | 0.028748   | 0.26585    | 0.7883     |  41.9 | 16.29
Output  | 0          | 0          | 0          |   0.0 |  0.00
Modify  | 1.8007e-05 | 0.0022745  | 0.0048062  |   2.2 |  0.14
Other   |            | 0.2058     |            |       | 12.61

Nlocal:        2776.45 ave        3961 max           0 min
Histogram: 8 4 4 0 6 10 8 2 28 34
Nghost:        3879.01 ave        5426 max         232 min
Histogram: 8 0 8 0 16 0 8 8 16 40
Neighs:        79213.5 ave      115455 max           0 min
Histogram: 8 4 4 0 10 6 8 8 24 32

Total # of neighbors = 8238199
Ave neighs/atom = 28.530461
Neighbor list builds = 0
Dangerous builds = 0
The dot product: -2.32317811336139e-08
Setting atom values ...
  1 settings made for x
  1 settings made for y
  1 settings made for z
Setting up cg style minimization ...
  Unit style    : metal
  Current step  : 395
Per MPI rank memory allocation (min/avg/max) = 5.441 | 5.816 | 6.074 Mbytes
Step PotEng KinEng TotEng v_fx v_fy v_fz 
     395   -1152449.4            0   -1152449.4 -0.023610147  0.026783732 0.0027608479 
     515   -1152449.4            0   -1152449.4 2.6905625e-06 -4.9529885e-06 -9.6695667e-06 
Loop time of 1.42742 on 104 procs for 120 steps with 288751 atoms

99.8% CPU use with 104 MPI tasks x 1 OpenMP threads

Minimization stats:
  Stopping criterion = energy tolerance
  Energy initial, next-to-last, final = 
     -1152449.44354961  -1152449.44522709  -1152449.44522709
  Force two-norm initial, final = 0.19235321 0.0001550132
  Force max component initial, final = 0.076118895 2.8780915e-05
  Final line search alpha, max atom move = 1.0000000 2.8780915e-05
  Iterations, force evaluations = 120 240

MPI task timing breakdown:
Section |  min time  |  avg time  |  max time  |%varavg| %total
---------------------------------------------------------------
Pair    | 0.36525    | 1.0178     | 1.3212     |  27.3 | 71.30
Neigh   | 0          | 0          | 0          |   0.0 |  0.00
Comm    | 0.021464   | 0.23478    | 0.69869    |  39.1 | 16.45
Output  | 0          | 0          | 0          |   0.0 |  0.00
Modify  | 1.5213e-05 | 0.0019982  | 0.0042069  |   2.1 |  0.14
Other   |            | 0.1728     |            |       | 12.11

Nlocal:        2776.45 ave        3961 max           0 min
Histogram: 8 4 4 0 6 10 8 2 28 34
Nghost:        3879.01 ave        5427 max         232 min
Histogram: 8 0 8 0 16 0 8 8 16 40
Neighs:        79213.5 ave      115455 max           0 min
Histogram: 8 4 4 0 10 6 8 8 24 32

Total # of neighbors = 8238201
Ave neighs/atom = 28.530467
Neighbor list builds = 0
Dangerous builds = 0
The dot product: -3.03920859662148e-09
Setting atom values ...
  1 settings made for x
  1 settings made for y
  1 settings made for z
Setting up cg style minimization ...
  Unit style    : metal
  Current step  : 515
Per MPI rank memory allocation (min/avg/max) = 5.441 | 5.816 | 6.074 Mbytes
Step PotEng KinEng TotEng v_fx v_fy v_fz 
     515   -1152449.4            0   -1152449.4 -0.025607412  0.033923332 0.0040136175 
     624   -1152449.4            0   -1152449.4 3.5659388e-07 -6.293158e-06 -3.6326943e-05 
Loop time of 1.28088 on 104 procs for 109 steps with 288751 atoms

99.9% CPU use with 104 MPI tasks x 1 OpenMP threads

Minimization stats:
  Stopping criterion = energy tolerance
  Energy initial, next-to-last, final = 
      -1152449.4389095   -1152449.4405787   -1152449.4405787
  Force two-norm initial, final = 0.1919271 0.00020903053
  Force max component initial, final = 0.0735049 3.6326943e-05
  Final line search alpha, max atom move = 1.0000000 3.6326943e-05
  Iterations, force evaluations = 109 218

MPI task timing breakdown:
Section |  min time  |  avg time  |  max time  |%varavg| %total
---------------------------------------------------------------
Pair    | 0.33514    | 0.91855    | 1.1944     |  25.7 | 71.71
Neigh   | 0          | 0          | 0          |   0.0 |  0.00
Comm    | 0.023064   | 0.20827    | 0.62428    |  37.7 | 16.26
Output  | 0          | 0          | 0          |   0.0 |  0.00
Modify  | 1.4251e-05 | 0.0018078  | 0.0038277  |   2.0 |  0.14
Other   |            | 0.1523     |            |       | 11.89

Nlocal:        2776.45 ave        3961 max           0 min
Histogram: 8 4 4 0 6 10 8 2 28 34
Nghost:        3879.01 ave        5427 max         232 min
Histogram: 8 0 8 0 16 0 8 8 16 40
Neighs:        79213.5 ave      115455 max           0 min
Histogram: 8 4 4 0 10 6 8 8 24 32

Total # of neighbors = 8238201
Ave neighs/atom = 28.530467
Neighbor list builds = 0
Dangerous builds = 0
The dot product: 4.93116216888945e-08
Setting atom values ...
  1 settings made for x
  1 settings made for y
  1 settings made for z
Setting up cg style minimization ...
  Unit style    : metal
  Current step  : 624
Per MPI rank memory allocation (min/avg/max) = 5.441 | 5.816 | 6.074 Mbytes
Step PotEng KinEng TotEng v_fx v_fy v_fz 
     624   -1152449.4            0   -1152449.4 -0.025937594  0.039467028 0.0062059881 
     753   -1152449.4            0   -1152449.4 -5.6996587e-07 -1.0941931e-07 -7.6794549e-06 
Loop time of 1.518 on 104 procs for 129 steps with 288751 atoms

99.9% CPU use with 104 MPI tasks x 1 OpenMP threads

Minimization stats:
  Stopping criterion = energy tolerance
  Energy initial, next-to-last, final = 
     -1152449.43275258  -1152449.43440647  -1152449.43440647
  Force two-norm initial, final = 0.19102249 8.4207535e-05
  Force max component initial, final = 0.073828702 7.6794549e-06
  Final line search alpha, max atom move = 1.0000000 7.6794549e-06
  Iterations, force evaluations = 129 258

MPI task timing breakdown:
Section |  min time  |  avg time  |  max time  |%varavg| %total
---------------------------------------------------------------
Pair    | 0.39381    | 1.0909     | 1.4169     |  28.1 | 71.87
Neigh   | 0          | 0          | 0          |   0.0 |  0.00
Comm    | 0.022183   | 0.24831    | 0.74166    |  41.0 | 16.36
Output  | 0          | 0          | 0          |   0.0 |  0.00
Modify  | 1.706e-05  | 0.0021348  | 0.004504   |   2.2 |  0.14
Other   |            | 0.1766     |            |       | 11.64

Nlocal:        2776.45 ave        3961 max           0 min
Histogram: 8 4 4 0 6 10 8 2 28 34
Nghost:        3879.01 ave        5427 max         232 min
Histogram: 8 0 8 0 16 0 8 8 16 40
Neighs:        79213.5 ave      115455 max           0 min
Histogram: 8 4 4 0 10 6 8 8 24 32

Total # of neighbors = 8238200
Ave neighs/atom = 28.530464
Neighbor list builds = 0
Dangerous builds = 0
The dot product: 1.55522345515934e-08
Setting atom values ...
  1 settings made for x
  1 settings made for y
  1 settings made for z
Setting up cg style minimization ...
  Unit style    : metal
  Current step  : 753
Per MPI rank memory allocation (min/avg/max) = 5.441 | 5.816 | 6.074 Mbytes
Step PotEng KinEng TotEng v_fx v_fy v_fz 
     753   -1152449.4            0   -1152449.4 -0.025539059  0.043958299 0.0091739968 
     907   -1152449.4            0   -1152449.4 1.4557528e-07 1.1310158e-06 1.4251038e-05 
Loop time of 1.81194 on 104 procs for 154 steps with 288751 atoms

99.9% CPU use with 104 MPI tasks x 1 OpenMP threads

Minimization stats:
  Stopping criterion = energy tolerance
  Energy initial, next-to-last, final = 
     -1152449.42504421  -1152449.42667981  -1152449.42667981
  Force two-norm initial, final = 0.18989945 3.8254658e-05
  Force max component initial, final = 0.073475467 1.4251038e-05
  Final line search alpha, max atom move = 1.0000000 1.4251038e-05
  Iterations, force evaluations = 154 308

MPI task timing breakdown:
Section |  min time  |  avg time  |  max time  |%varavg| %total
---------------------------------------------------------------
Pair    | 0.46791    | 1.2949     | 1.686      |  30.8 | 71.47
Neigh   | 0          | 0          | 0          |   0.0 |  0.00
Comm    | 0.028799   | 0.29425    | 0.88083    |  44.6 | 16.24
Output  | 0          | 0          | 0          |   0.0 |  0.00
Modify  | 1.8889e-05 | 0.0025549  | 0.0053791  |   2.4 |  0.14
Other   |            | 0.2202     |            |       | 12.15

Nlocal:        2776.45 ave        3961 max           0 min
Histogram: 8 4 4 0 6 10 8 2 28 34
Nghost:        3879.01 ave        5427 max         232 min
Histogram: 8 0 8 0 16 0 8 8 16 40
Neighs:        79213.5 ave      115455 max           0 min
Histogram: 8 4 4 0 10 6 8 8 24 32

Total # of neighbors = 8238202
Ave neighs/atom = 28.530471
Neighbor list builds = 0
Dangerous builds = 0
The dot product: -1.74276614613879e-08
Setting atom values ...
  1 settings made for x
  1 settings made for y
  1 settings made for z
Setting up cg style minimization ...
  Unit style    : metal
  Current step  : 907
Per MPI rank memory allocation (min/avg/max) = 5.441 | 5.816 | 6.074 Mbytes
Step PotEng KinEng TotEng v_fx v_fy v_fz 
     907   -1152449.4            0   -1152449.4 -0.024908737  0.047959286  0.012680207 
    1000   -1152449.4            0   -1152449.4 -1.0272357e-05 1.0344724e-05 -0.00011971032 
    1053   -1152449.4            0   -1152449.4 1.4486903e-06 -1.9414539e-06 1.049151e-05 
Loop time of 1.72949 on 104 procs for 146 steps with 288751 atoms

99.9% CPU use with 104 MPI tasks x 1 OpenMP threads

Minimization stats:
  Stopping criterion = energy tolerance
  Energy initial, next-to-last, final = 
     -1152449.41575859  -1152449.41737564  -1152449.41737564
  Force two-norm initial, final = 0.18875349 5.2309741e-05
  Force max component initial, final = 0.072577218 1.0491510e-05
  Final line search alpha, max atom move = 1.0000000 1.0491510e-05
  Iterations, force evaluations = 146 292

MPI task timing breakdown:
Section |  min time  |  avg time  |  max time  |%varavg| %total
---------------------------------------------------------------
Pair    | 0.44446    | 1.234      | 1.6061     |  29.9 | 71.35
Neigh   | 0          | 0          | 0          |   0.0 |  0.00
Comm    | 0.030399   | 0.2801     | 0.83397    |  43.6 | 16.20
Output  | 0.00022765 | 0.0002353  | 0.00037115 |   0.0 |  0.01
Modify  | 1.8909e-05 | 0.0024184  | 0.0051149  |   2.3 |  0.14
Other   |            | 0.2128     |            |       | 12.30

Nlocal:        2776.45 ave        3961 max           0 min
Histogram: 8 4 4 0 6 10 8 2 28 34
Nghost:        3879.01 ave        5426 max         232 min
Histogram: 8 0 8 0 16 0 8 8 16 40
Neighs:        79213.5 ave      115455 max           0 min
Histogram: 8 4 4 0 10 6 8 8 24 32

Total # of neighbors = 8238201
Ave neighs/atom = 28.530467
Neighbor list builds = 0
Dangerous builds = 0
The dot product: -2.55176546993709e-08
Setting atom values ...
  1 settings made for x
  1 settings made for y
  1 settings made for z
Setting up cg style minimization ...
  Unit style    : metal
  Current step  : 1053
Per MPI rank memory allocation (min/avg/max) = 5.441 | 5.816 | 6.074 Mbytes
Step PotEng KinEng TotEng v_fx v_fy v_fz 
    1053   -1152449.4            0   -1152449.4 -0.024298357  0.052055058  0.016739872 
    1181   -1152449.4            0   -1152449.4  3.20277e-06 -4.594751e-06 3.4160606e-05 
Loop time of 1.49045 on 104 procs for 128 steps with 288751 atoms

99.9% CPU use with 104 MPI tasks x 1 OpenMP threads

Minimization stats:
  Stopping criterion = energy tolerance
  Energy initial, next-to-last, final = 
     -1152449.40488198  -1152449.40648288  -1152449.40648288
  Force two-norm initial, final = 0.18776095 0.0001154585
  Force max component initial, final = 0.071143201 3.4160606e-05
  Final line search alpha, max atom move = 1.0000000 3.4160606e-05
  Iterations, force evaluations = 128 256

MPI task timing breakdown:
Section |  min time  |  avg time  |  max time  |%varavg| %total
---------------------------------------------------------------
Pair    | 0.39043    | 1.0761     | 1.3968     |  27.9 | 72.20
Neigh   | 0          | 0          | 0          |   0.0 |  0.00
Comm    | 0.023819   | 0.24178    | 0.73016    |  41.2 | 16.22
Output  | 0          | 0          | 0          |   0.0 |  0.00
Modify  | 1.7019e-05 | 0.0021187  | 0.0044748  |   2.2 |  0.14
Other   |            | 0.1704     |            |       | 11.43

Nlocal:        2776.45 ave        3961 max           0 min
Histogram: 8 4 4 0 6 10 8 2 28 34
Nghost:        3879.01 ave        5424 max         232 min
Histogram: 8 0 8 0 16 0 8 8 16 40
Neighs:        79213.5 ave      115455 max           0 min
Histogram: 8 4 4 0 10 6 8 8 24 32

Total # of neighbors = 8238200
Ave neighs/atom = 28.530464
Neighbor list builds = 0
Dangerous builds = 0
The dot product: -5.30223453071414e-08
Setting atom values ...
  1 settings made for x
  1 settings made for y
  1 settings made for z
Setting up cg style minimization ...
  Unit style    : metal
  Current step  : 1181
Per MPI rank memory allocation (min/avg/max) = 5.441 | 5.816 | 6.074 Mbytes
Step PotEng KinEng TotEng v_fx v_fy v_fz 
    1181   -1152449.4            0   -1152449.4 -0.023816524    0.0569032  0.021607255 
    1326   -1152449.4            0   -1152449.4 -5.2809362e-07 7.4063408e-07 -8.3900135e-06 
Loop time of 1.69335 on 104 procs for 145 steps with 288751 atoms

99.9% CPU use with 104 MPI tasks x 1 OpenMP threads

Minimization stats:
  Stopping criterion = energy tolerance
  Energy initial, next-to-last, final = 
     -1152449.39241411  -1152449.39400835  -1152449.39400835
  Force two-norm initial, final = 0.18718286 4.5021905e-05
  Force max component initial, final = 0.069131081 8.3900135e-06
  Final line search alpha, max atom move = 1.0000000 8.3900135e-06
  Iterations, force evaluations = 145 290

MPI task timing breakdown:
Section |  min time  |  avg time  |  max time  |%varavg| %total
---------------------------------------------------------------
Pair    | 0.43919    | 1.2251     | 1.591      |  29.9 | 72.35
Neigh   | 0          | 0          | 0          |   0.0 |  0.00
Comm    | 0.026122   | 0.2764     | 0.83632    |  43.8 | 16.32
Output  | 0          | 0          | 0          |   0.0 |  0.00
Modify  | 1.8262e-05 | 0.0023996  | 0.0050699  |   2.3 |  0.14
Other   |            | 0.1894     |            |       | 11.19

Nlocal:        2776.45 ave        3961 max           0 min
Histogram: 8 4 4 0 6 10 8 2 28 34
Nghost:        3879.05 ave        5424 max         232 min
Histogram: 8 0 8 0 16 0 8 8 16 40
Neighs:        79213.4 ave      115455 max           0 min
Histogram: 8 4 4 0 10 6 8 8 24 32

Total # of neighbors = 8238198
Ave neighs/atom = 28.530457
Neighbor list builds = 0
Dangerous builds = 0
The dot product: 4.28360693431222e-09
Setting atom values ...
  1 settings made for x
  1 settings made for y
  1 settings made for z
Setting up cg style minimization ...
  Unit style    : metal
  Current step  : 1326
Per MPI rank memory allocation (min/avg/max) = 5.441 | 5.816 | 6.074 Mbytes
Step PotEng KinEng TotEng v_fx v_fy v_fz 
    1326   -1152449.4            0   -1152449.4 -0.023449817  0.063300022  0.027535725 
    1479   -1152449.4            0   -1152449.4 -1.335628e-06 3.1389285e-06 -5.258717e-06 
Loop time of 1.78484 on 104 procs for 153 steps with 288751 atoms

99.9% CPU use with 104 MPI tasks x 1 OpenMP threads

Minimization stats:
  Stopping criterion = energy tolerance
  Energy initial, next-to-last, final = 
     -1152449.37838115  -1152449.37999044  -1152449.37999044
  Force two-norm initial, final = 0.18738587 3.3035146e-05
  Force max component initial, final = 0.066321406 5.3841420e-06
  Final line search alpha, max atom move = 1.0000000 5.3841420e-06
  Iterations, force evaluations = 153 306

MPI task timing breakdown:
Section |  min time  |  avg time  |  max time  |%varavg| %total
---------------------------------------------------------------
Pair    | 0.46146    | 1.2891     | 1.6745     |  30.7 | 72.22
Neigh   | 0          | 0          | 0          |   0.0 |  0.00
Comm    | 0.027184   | 0.29183    | 0.87702    |  45.2 | 16.35
Output  | 0          | 0          | 0          |   0.0 |  0.00
Modify  | 1.9274e-05 | 0.0025335  | 0.0053832  |   2.4 |  0.14
Other   |            | 0.2014     |            |       | 11.28

Nlocal:        2776.45 ave        3961 max           0 min
Histogram: 8 4 4 0 6 10 8 2 28 34
Nghost:        3879.05 ave        5424 max         232 min
Histogram: 8 0 8 0 16 0 8 8 16 40
Neighs:        79213.4 ave      115455 max           0 min
Histogram: 8 4 4 0 10 6 8 8 24 32

Total # of neighbors = 8238198
Ave neighs/atom = 28.530457
Neighbor list builds = 0
Dangerous builds = 0
The dot product: 2.06415904564603e-08
Setting atom values ...
  1 settings made for x
  1 settings made for y
  1 settings made for z
Setting up cg style minimization ...
  Unit style    : metal
  Current step  : 1479
Per MPI rank memory allocation (min/avg/max) = 5.441 | 5.816 | 6.074 Mbytes
Step PotEng KinEng TotEng v_fx v_fy v_fz 
    1479   -1152449.4            0   -1152449.4 -0.023604449  0.074649288  0.038056377 
    1661   -1152449.4            0   -1152449.4 4.5225637e-06 -1.2315152e-05  1.24143e-05 
Loop time of 2.15502 on 104 procs for 182 steps with 288751 atoms

99.9% CPU use with 104 MPI tasks x 1 OpenMP threads

Minimization stats:
  Stopping criterion = energy tolerance
  Energy initial, next-to-last, final = 
     -1152449.36286889  -1152449.36461478  -1152449.36461478
  Force two-norm initial, final = 0.19053116 8.2773340e-05
  Force max component initial, final = 0.074649288 1.5127329e-05
  Final line search alpha, max atom move = 1.0000000 1.5127329e-05
  Iterations, force evaluations = 182 364

MPI task timing breakdown:
Section |  min time  |  avg time  |  max time  |%varavg| %total
---------------------------------------------------------------
Pair    | 0.55303    | 1.5363     | 2.0121     |  33.4 | 71.29
Neigh   | 0          | 0          | 0          |   0.0 |  0.00
Comm    | 0.035867   | 0.35205    | 1.0398     |  48.2 | 16.34
Output  | 0          | 0          | 0          |   0.0 |  0.00
Modify  | 2.3047e-05 | 0.0030074  | 0.0063957  |   2.6 |  0.14
Other   |            | 0.2636     |            |       | 12.23

Nlocal:        2776.45 ave        3961 max           0 min
Histogram: 8 4 4 0 6 10 8 2 28 34
Nghost:        3879.05 ave        5424 max         232 min
Histogram: 8 0 8 0 16 0 8 8 16 40
Neighs:        79213.4 ave      115455 max           0 min
Histogram: 8 4 4 0 10 6 8 8 24 32

Total # of neighbors = 8238197
Ave neighs/atom = 28.530454
Neighbor list builds = 0
Dangerous builds = 0
The dot product: -1.03370062596331e-07
Setting atom values ...
  1 settings made for x
  1 settings made for y
  1 settings made for z
Setting up cg style minimization ...
  Unit style    : metal
  Current step  : 1661
Per MPI rank memory allocation (min/avg/max) = 5.441 | 5.816 | 6.074 Mbytes
Step PotEng KinEng TotEng v_fx v_fy v_fz 
    1661   -1152449.3            0   -1152449.3 -0.023550783   0.10240373  0.062686363 
    1812   -1152449.4            0   -1152449.4 -2.3801063e-07 -7.230623e-06 -3.6309324e-05 
Loop time of 1.75453 on 104 procs for 151 steps with 288751 atoms

99.9% CPU use with 104 MPI tasks x 1 OpenMP threads

Minimization stats:
  Stopping criterion = energy tolerance
  Energy initial, next-to-last, final = 
     -1152449.34635721  -1152449.35088123  -1152449.35088123
  Force two-norm initial, final = 0.20591692 0.00015991444
  Force max component initial, final = 0.10240373 3.6309324e-05
  Final line search alpha, max atom move = 1.0000000 3.6309324e-05
  Iterations, force evaluations = 151 302

MPI task timing breakdown:
Section |  min time  |  avg time  |  max time  |%varavg| %total
---------------------------------------------------------------
Pair    | 0.46015    | 1.2673     | 1.6489     |  30.3 | 72.23
Neigh   | 0          | 0          | 0          |   0.0 |  0.00
Comm    | 0.026868   | 0.28532    | 0.85887    |  44.5 | 16.26
Output  | 0          | 0          | 0          |   0.0 |  0.00
Modify  | 1.941e-05  | 0.002497   | 0.0052768  |   2.3 |  0.14
Other   |            | 0.1994     |            |       | 11.37

Nlocal:        2776.45 ave        3961 max           0 min
Histogram: 8 4 4 0 6 10 8 2 28 34
Nghost:        3879.05 ave        5427 max         232 min
Histogram: 8 0 8 0 16 0 8 8 16 40
Neighs:        79213.4 ave      115455 max           0 min
Histogram: 8 4 4 0 10 6 8 8 24 32

Total # of neighbors = 8238192
Ave neighs/atom = 28.530436
Neighbor list builds = 0
Dangerous builds = 0
The dot product: -1.79373793793692e-06
Setting atom values ...
  1 settings made for x
  1 settings made for y
  1 settings made for z
Setting up cg style minimization ...
  Unit style    : metal
  Current step  : 1812
Per MPI rank memory allocation (min/avg/max) = 5.441 | 5.816 | 6.074 Mbytes
Step PotEng KinEng TotEng v_fx v_fy v_fz 
    1812   -1152449.3            0   -1152449.3  0.023678406   0.21791141   0.13886137 
    2000   -1152449.3            0   -1152449.3 1.1314014e-05 4.5524485e-05 5.7813965e-05 
    2070   -1152449.3            0   -1152449.3 -8.7122506e-07 -3.1722207e-06 -4.4033467e-06 
Loop time of 3.02123 on 104 procs for 258 steps with 288751 atoms

99.9% CPU use with 104 MPI tasks x 1 OpenMP threads

Minimization stats:
  Stopping criterion = energy tolerance
  Energy initial, next-to-last, final = 
     -1152449.33553805  -1152449.34591172  -1152449.34591172
  Force two-norm initial, final = 0.29926748 2.1503406e-05
  Force max component initial, final = 0.21791141 4.4033467e-06
  Final line search alpha, max atom move = 1.0000000 4.4033467e-06
  Iterations, force evaluations = 258 516

MPI task timing breakdown:
Section |  min time  |  avg time  |  max time  |%varavg| %total
---------------------------------------------------------------
Pair    | 0.78477    | 2.1732     | 2.8286     |  39.6 | 71.93
Neigh   | 1.0271e-05 | 0.0029438  | 0.00434    |   2.2 |  0.10
Comm    | 0.046931   | 0.49505    | 1.4893     |  58.0 | 16.39
Output  | 0.0002345  | 0.00024513 | 0.00039671 |   0.0 |  0.01
Modify  | 3.1788e-05 | 0.0042667  | 0.0090259  |   3.1 |  0.14
Other   |            | 0.3455     |            |       | 11.44

Nlocal:        2776.45 ave        3961 max           0 min
Histogram: 8 4 4 0 6 10 8 2 28 34
Nghost:        3879.05 ave        5428 max         232 min
Histogram: 8 0 8 0 16 0 8 8 16 40
Neighs:        79213.4 ave      115457 max           0 min
Histogram: 8 4 4 0 10 6 8 8 24 32

Total # of neighbors = 8238196
Ave neighs/atom = 28.530450
Neighbor list builds = 1
Dangerous builds = 0
The dot product: -3.7503469478948e-07
Setting atom values ...
  1 settings made for x
  1 settings made for y
  1 settings made for z
Setting up cg style minimization ...
  Unit style    : metal
  Current step  : 2070
Per MPI rank memory allocation (min/avg/max) = 5.441 | 5.816 | 6.074 Mbytes
Step PotEng KinEng TotEng v_fx v_fy v_fz 
    2070   -1152449.3            0   -1152449.3  0.070503397   0.17564455  0.080189985 
    2323   -1152449.3            0   -1152449.3 -2.9605291e-06 -1.384997e-05 7.1413795e-07 
Loop time of 2.95258 on 104 procs for 253 steps with 288751 atoms

99.9% CPU use with 104 MPI tasks x 1 OpenMP threads

Minimization stats:
  Stopping criterion = energy tolerance
  Energy initial, next-to-last, final = 
     -1152449.33327174  -1152449.34468717  -1152449.34468717
  Force two-norm initial, final = 0.2476547 0.00016200982
  Force max component initial, final = 0.17564455 2.3756809e-05
  Final line search alpha, max atom move = 1.0000000 2.3756809e-05
  Iterations, force evaluations = 253 506

MPI task timing breakdown:
Section |  min time  |  avg time  |  max time  |%varavg| %total
---------------------------------------------------------------
Pair    | 0.76943    | 2.1244     | 2.7692     |  39.3 | 71.95
Neigh   | 1.0418e-05 | 0.0029157  | 0.0042959  |   2.2 |  0.10
Comm    | 0.04475    | 0.48033    | 1.4415     |  57.5 | 16.27
Output  | 0          | 0          | 0          |   0.0 |  0.00
Modify  | 3.1385e-05 | 0.0041742  | 0.0088406  |   3.0 |  0.14
Other   |            | 0.3408     |            |       | 11.54

Nlocal:        2776.45 ave        3960 max           0 min
Histogram: 8 4 4 0 4 12 8 2 28 34
Nghost:        3879.03 ave        5424 max         232 min
Histogram: 8 0 8 0 16 0 8 8 16 40
Neighs:        79213.4 ave      115438 max           0 min
Histogram: 8 4 4 0 10 6 8 8 24 32

Total # of neighbors = 8238189
Ave neighs/atom = 28.530426
Neighbor list builds = 1
Dangerous builds = 0
The dot product: -9.62582623718832e-07
Setting atom values ...
  1 settings made for x
  1 settings made for y
  1 settings made for z
Setting up cg style minimization ...
  Unit style    : metal
  Current step  : 2323
Per MPI rank memory allocation (min/avg/max) = 5.441 | 5.816 | 6.074 Mbytes
Step PotEng KinEng TotEng v_fx v_fy v_fz 
    2323   -1152449.3            0   -1152449.3 -0.050020635 -0.030057752 -0.047976758 
    2464   -1152449.3            0   -1152449.3 2.2691846e-05 -6.3380487e-06 3.7501594e-05 
Loop time of 1.67091 on 104 procs for 141 steps with 288751 atoms

99.9% CPU use with 104 MPI tasks x 1 OpenMP threads

Minimization stats:
  Stopping criterion = energy tolerance
  Energy initial, next-to-last, final = 
     -1152449.34688329  -1152449.34819253  -1152449.34819253
  Force two-norm initial, final = 0.1464177 0.00013228251
  Force max component initial, final = 0.050020635 3.7501594e-05
  Final line search alpha, max atom move = 1.0000000 3.7501594e-05
  Iterations, force evaluations = 141 282

MPI task timing breakdown:
Section |  min time  |  avg time  |  max time  |%varavg| %total
---------------------------------------------------------------
Pair    | 0.42863    | 1.1893     | 1.5411     |  29.4 | 71.18
Neigh   | 0          | 0          | 0          |   0.0 |  0.00
Comm    | 0.024738   | 0.27361    | 0.81188    |  42.6 | 16.37
Output  | 0          | 0          | 0          |   0.0 |  0.00
Modify  | 1.7713e-05 | 0.0023318  | 0.0049395  |   2.3 |  0.14
Other   |            | 0.2056     |            |       | 12.31

Nlocal:        2776.45 ave        3961 max           0 min
Histogram: 8 4 4 0 6 10 8 2 28 34
Nghost:        3879.09 ave        5425 max         232 min
Histogram: 8 0 8 0 16 0 8 8 16 40
Neighs:        79213.4 ave      115455 max           0 min
Histogram: 8 4 4 0 10 6 8 8 24 32

Total # of neighbors = 8238192
Ave neighs/atom = 28.530436
Neighbor list builds = 0
Dangerous builds = 0
The dot product: -3.02919217853021e-07
Setting atom values ...
  1 settings made for x
  1 settings made for y
  1 settings made for z
Setting up cg style minimization ...
  Unit style    : metal
  Current step  : 2464
Per MPI rank memory allocation (min/avg/max) = 5.441 | 5.816 | 6.074 Mbytes
Step PotEng KinEng TotEng v_fx v_fy v_fz 
    2464   -1152449.3            0   -1152449.3 -0.0066512918 0.0096230336 -0.017491707 
    2623   -1152449.4            0   -1152449.4 4.018547e-05 1.4909643e-05 4.9535235e-05 
Loop time of 1.84805 on 104 procs for 159 steps with 288751 atoms

99.9% CPU use with 104 MPI tasks x 1 OpenMP threads

Minimization stats:
  Stopping criterion = energy tolerance
  Energy initial, next-to-last, final = 
     -1152449.34955319  -1152449.35045927  -1152449.35045927
  Force two-norm initial, final = 0.12492278 0.00021889139
  Force max component initial, final = 0.047676687 4.9535235e-05
  Final line search alpha, max atom move = 1.0000000 4.9535235e-05
  Iterations, force evaluations = 159 318

MPI task timing breakdown:
Section |  min time  |  avg time  |  max time  |%varavg| %total
---------------------------------------------------------------
Pair    | 0.48226    | 1.3327     | 1.7339     |  31.1 | 72.12
Neigh   | 0          | 0          | 0          |   0.0 |  0.00
Comm    | 0.027381   | 0.29959    | 0.90909    |  45.9 | 16.21
Output  | 0          | 0          | 0          |   0.0 |  0.00
Modify  | 2.0828e-05 | 0.0026324  | 0.005554   |   2.4 |  0.14
Other   |            | 0.2131     |            |       | 11.53

Nlocal:        2776.45 ave        3961 max           0 min
Histogram: 8 4 4 0 6 10 8 2 28 34
Nghost:        3879.09 ave        5426 max         232 min
Histogram: 8 0 8 0 16 0 8 8 16 40
Neighs:        79213.4 ave      115445 max           0 min
Histogram: 8 4 4 0 10 6 8 8 24 32

Total # of neighbors = 8238193
Ave neighs/atom = 28.530440
Neighbor list builds = 0
Dangerous builds = 0
The dot product: 2.89567869107779e-08
Setting atom values ...
  1 settings made for x
  1 settings made for y
  1 settings made for z
Setting up cg style minimization ...
  Unit style    : metal
  Current step  : 2623
Per MPI rank memory allocation (min/avg/max) = 5.441 | 5.816 | 6.074 Mbytes
Step PotEng KinEng TotEng v_fx v_fy v_fz 
    2623   -1152449.4            0   -1152449.4 -0.010187884 0.0063264214 -0.020331403 
    2808   -1152449.4            0   -1152449.4 2.7810705e-05 2.0296599e-05 2.6452745e-05 
Loop time of 2.15625 on 104 procs for 185 steps with 288751 atoms

99.9% CPU use with 104 MPI tasks x 1 OpenMP threads

Minimization stats:
  Stopping criterion = energy tolerance
  Energy initial, next-to-last, final = 
     -1152449.35060953  -1152449.35151165  -1152449.35151165
  Force two-norm initial, final = 0.12555165 0.00011289428
  Force max component initial, final = 0.047064767 3.0532853e-05
  Final line search alpha, max atom move = 1.0000000 3.0532853e-05
  Iterations, force evaluations = 185 370

MPI task timing breakdown:
Section |  min time  |  avg time  |  max time  |%varavg| %total
---------------------------------------------------------------
Pair    | 0.55987    | 1.5608     | 2.0288     |  33.7 | 72.38
Neigh   | 0          | 0          | 0          |   0.0 |  0.00
Comm    | 0.033398   | 0.35179    | 1.0614     |  49.6 | 16.31
Output  | 0          | 0          | 0          |   0.0 |  0.00
Modify  | 2.2843e-05 | 0.0030648  | 0.006497   |   2.6 |  0.14
Other   |            | 0.2406     |            |       | 11.16

Nlocal:        2776.45 ave        3961 max           0 min
Histogram: 8 4 4 0 6 10 8 2 28 34
Nghost:        3879.09 ave        5424 max         232 min
Histogram: 8 0 8 0 16 0 8 8 16 40
Neighs:        79213.4 ave      115457 max           0 min
Histogram: 8 4 4 0 10 6 8 8 24 32

Total # of neighbors = 8238189
Ave neighs/atom = 28.530426
Neighbor list builds = 0
Dangerous builds = 0
The dot product: -1.12131491301214e-08
Setting atom values ...
  1 settings made for x
  1 settings made for y
  1 settings made for z
Setting up cg style minimization ...
  Unit style    : metal
  Current step  : 2808
Per MPI rank memory allocation (min/avg/max) = 5.441 | 5.816 | 6.074 Mbytes
Step PotEng KinEng TotEng v_fx v_fy v_fz 
    2808   -1152449.4            0   -1152449.4 -0.0094508447 0.0065854019 -0.019476711 
    3000   -1152449.4            0   -1152449.4 1.3217907e-05 2.7534814e-06 1.7952273e-05 
Loop time of 2.24994 on 104 procs for 192 steps with 288751 atoms

99.9% CPU use with 104 MPI tasks x 1 OpenMP threads

Minimization stats:
  Stopping criterion = energy tolerance
  Energy initial, next-to-last, final = 
     -1152449.35035382   -1152449.3512491   -1152449.3512491
  Force two-norm initial, final = 0.1251381 9.1536516e-05
  Force max component initial, final = 0.046469251 1.7952273e-05
  Final line search alpha, max atom move = 1.0000000 1.7952273e-05
  Iterations, force evaluations = 192 384

MPI task timing breakdown:
Section |  min time  |  avg time  |  max time  |%varavg| %total
---------------------------------------------------------------
Pair    | 0.58368    | 1.6145     | 2.1092     |  34.3 | 71.76
Neigh   | 0          | 0          | 0          |   0.0 |  0.00
Comm    | 0.033542   | 0.36708    | 1.0972     |  50.2 | 16.32
Output  | 0          | 0          | 0          |   0.0 |  0.00
Modify  | 2.4694e-05 | 0.0031779  | 0.0067077  |   2.6 |  0.14
Other   |            | 0.2652     |            |       | 11.79

Nlocal:        2776.45 ave        3961 max           0 min
Histogram: 8 4 4 0 6 10 8 2 28 34
Nghost:        3879.05 ave        5424 max         232 min
Histogram: 8 0 8 0 16 0 8 8 16 40
Neighs:        79213.4 ave      115465 max           0 min
Histogram: 8 4 4 0 10 6 8 8 24 32

Total # of neighbors = 8238191
Ave neighs/atom = 28.530433
Neighbor list builds = 0
Dangerous builds = 0
The dot product: -8.63796958148112e-09
Setting atom values ...
  1 settings made for x
  1 settings made for y
  1 settings made for z
Setting up cg style minimization ...
  Unit style    : metal
  Current step  : 3000
Per MPI rank memory allocation (min/avg/max) = 5.441 | 5.816 | 6.074 Mbytes
Step PotEng KinEng TotEng v_fx v_fy v_fz 
    3000   -1152449.3            0   -1152449.3 -0.0085514363 0.0064576279 -0.018067356 
    3190   -1152449.3            0   -1152449.3 -2.3774642e-05 -1.2634753e-05 -2.6378866e-05 
Loop time of 2.22173 on 104 procs for 190 steps with 288751 atoms

99.9% CPU use with 104 MPI tasks x 1 OpenMP threads

Minimization stats:
  Stopping criterion = energy tolerance
  Energy initial, next-to-last, final = 
     -1152449.34875459  -1152449.34963789  -1152449.34963789
  Force two-norm initial, final = 0.12424828 0.00010148646
  Force max component initial, final = 0.045826876 2.6378866e-05
  Final line search alpha, max atom move = 1.0000000 2.6378866e-05
  Iterations, force evaluations = 190 380

MPI task timing breakdown:
Section |  min time  |  avg time  |  max time  |%varavg| %total
---------------------------------------------------------------
Pair    | 0.57621    | 1.6034     | 2.0888     |  34.1 | 72.17
Neigh   | 0          | 0          | 0          |   0.0 |  0.00
Comm    | 0.034186   | 0.36333    | 1.0951     |  49.9 | 16.35
Output  | 0          | 0          | 0          |   0.0 |  0.00
Modify  | 2.3914e-05 | 0.003142   | 0.0066495  |   2.6 |  0.14
Other   |            | 0.2519     |            |       | 11.34

Nlocal:        2776.45 ave        3961 max           0 min
Histogram: 8 4 4 0 6 10 8 2 28 34
Nghost:        3879.01 ave        5424 max         232 min
Histogram: 8 0 8 0 16 0 8 8 16 40
Neighs:        79213.4 ave      115465 max           0 min
Histogram: 8 4 4 0 10 6 8 8 24 32

Total # of neighbors = 8238191
Ave neighs/atom = 28.530433
Neighbor list builds = 0
Dangerous builds = 0
The dot product: 8.37236623143452e-09
Setting atom values ...
  1 settings made for x
  1 settings made for y
  1 settings made for z
Setting up cg style minimization ...
  Unit style    : metal
  Current step  : 3190
Per MPI rank memory allocation (min/avg/max) = 5.441 | 5.816 | 6.074 Mbytes
Step PotEng KinEng TotEng v_fx v_fy v_fz 
    3190   -1152449.3            0   -1152449.3 -0.0076302221 0.0060808739 -0.016416084 
    3380   -1152449.3            0   -1152449.3 -3.276025e-06 7.4200277e-07 -5.5848212e-06 
Loop time of 2.22029 on 104 procs for 190 steps with 288751 atoms

99.9% CPU use with 104 MPI tasks x 1 OpenMP threads

Minimization stats:
  Stopping criterion = energy tolerance
  Energy initial, next-to-last, final = 
     -1152449.34580066  -1152449.34667008  -1152449.34667008
  Force two-norm initial, final = 0.12326623 9.3640406e-05
  Force max component initial, final = 0.04513955 5.5848212e-06
  Final line search alpha, max atom move = 1.0000000 5.5848212e-06
  Iterations, force evaluations = 190 380

MPI task timing breakdown:
Section |  min time  |  avg time  |  max time  |%varavg| %total
---------------------------------------------------------------
Pair    | 0.58065    | 1.6017     | 2.0806     |  34.1 | 72.14
Neigh   | 0          | 0          | 0          |   0.0 |  0.00
Comm    | 0.036802   | 0.36283    | 1.0927     |  50.3 | 16.34
Output  | 0          | 0          | 0          |   0.0 |  0.00
Modify  | 2.3592e-05 | 0.0031395  | 0.006661   |   2.6 |  0.14
Other   |            | 0.2526     |            |       | 11.38

Nlocal:        2776.45 ave        3960 max           0 min
Histogram: 8 4 4 0 4 12 8 2 28 34
Nghost:        3879.01 ave        5424 max         232 min
Histogram: 8 0 8 0 16 0 8 8 16 40
Neighs:        79213.4 ave      115434 max           0 min
Histogram: 8 4 4 0 10 6 8 8 24 32

Total # of neighbors = 8238190
Ave neighs/atom = 28.530429
Neighbor list builds = 0
Dangerous builds = 0
The dot product: 2.50665154730808e-09
Setting atom values ...
  1 settings made for x
  1 settings made for y
  1 settings made for z
Setting up cg style minimization ...
  Unit style    : metal
  Current step  : 3380
Per MPI rank memory allocation (min/avg/max) = 5.441 | 5.816 | 6.074 Mbytes
Step PotEng KinEng TotEng v_fx v_fy v_fz 
    3380   -1152449.3            0   -1152449.3 -0.0067852621 0.0054500695 -0.014667025 
    3583   -1152449.3            0   -1152449.3 -7.1810244e-06 -9.2397793e-06 -3.7265309e-06 
Loop time of 2.36624 on 104 procs for 203 steps with 288751 atoms

99.9% CPU use with 104 MPI tasks x 1 OpenMP threads

Minimization stats:
  Stopping criterion = energy tolerance
  Energy initial, next-to-last, final = 
     -1152449.34148366  -1152449.34234019  -1152449.34234019
  Force two-norm initial, final = 0.12244181 7.0889397e-05
  Force max component initial, final = 0.044420147 9.2397793e-06
  Final line search alpha, max atom move = 1.0000000 9.2397793e-06
  Iterations, force evaluations = 203 406

MPI task timing breakdown:
Section |  min time  |  avg time  |  max time  |%varavg| %total
---------------------------------------------------------------
Pair    | 0.6149     | 1.7067     | 2.229      |  35.2 | 72.13
Neigh   | 0          | 0          | 0          |   0.0 |  0.00
Comm    | 0.036659   | 0.38443    | 1.1556     |  51.6 | 16.25
Output  | 0          | 0          | 0          |   0.0 |  0.00
Modify  | 2.501e-05  | 0.0033535  | 0.0071     |   2.7 |  0.14
Other   |            | 0.2717     |            |       | 11.48

Nlocal:        2776.45 ave        3960 max           0 min
Histogram: 8 4 4 0 4 12 8 2 28 34
Nghost:        3879.01 ave        5424 max         232 min
Histogram: 8 0 8 0 16 0 8 8 16 40
Neighs:        79213.4 ave      115434 max           0 min
Histogram: 8 4 4 0 10 6 8 8 24 32

Total # of neighbors = 8238191
Ave neighs/atom = 28.530433
Neighbor list builds = 0
Dangerous builds = 0
The dot product: -1.23697033583728e-09
Setting atom values ...
  1 settings made for x
  1 settings made for y
  1 settings made for z
Setting up cg style minimization ...
  Unit style    : metal
  Current step  : 3583
Per MPI rank memory allocation (min/avg/max) = 5.441 | 5.816 | 6.074 Mbytes
Step PotEng KinEng TotEng v_fx v_fy v_fz 
    3583   -1152449.3            0   -1152449.3 -0.0061804758 0.0044940568 -0.013016199 
    3772   -1152449.3            0   -1152449.3 -4.6149529e-06 1.7150637e-05 -2.0596031e-05 
Loop time of 2.20301 on 104 procs for 189 steps with 288751 atoms

99.9% CPU use with 104 MPI tasks x 1 OpenMP threads

Minimization stats:
  Stopping criterion = energy tolerance
  Energy initial, next-to-last, final = 
     -1152449.33578887  -1152449.33663778  -1152449.33663778
  Force two-norm initial, final = 0.12196161 9.7795543e-05
  Force max component initial, final = 0.0441794 2.2891775e-05
  Final line search alpha, max atom move = 1.0000000 2.2891775e-05
  Iterations, force evaluations = 189 378

MPI task timing breakdown:
Section |  min time  |  avg time  |  max time  |%varavg| %total
---------------------------------------------------------------
Pair    | 0.5743     | 1.5851     | 2.0635     |  33.9 | 71.95
Neigh   | 0          | 0          | 0          |   0.0 |  0.00
Comm    | 0.034936   | 0.35746    | 1.0775     |  49.9 | 16.23
Output  | 0          | 0          | 0          |   0.0 |  0.00
Modify  | 2.3215e-05 | 0.0031251  | 0.0065952  |   2.6 |  0.14
Other   |            | 0.2573     |            |       | 11.68

Nlocal:        2776.45 ave        3960 max           0 min
Histogram: 8 4 4 0 4 12 8 2 28 34
Nghost:        3879.03 ave        5424 max         232 min
Histogram: 8 0 8 0 16 0 8 8 16 40
Neighs:        79213.4 ave      115434 max           0 min
Histogram: 8 4 4 0 10 6 8 8 24 32

Total # of neighbors = 8238192
Ave neighs/atom = 28.530436
Neighbor list builds = 0
Dangerous builds = 0
The dot product: 1.03394506264193e-08
Setting atom values ...
  1 settings made for x
  1 settings made for y
  1 settings made for z
Setting up cg style minimization ...
  Unit style    : metal
  Current step  : 3772
Per MPI rank memory allocation (min/avg/max) = 5.441 | 5.816 | 6.074 Mbytes
Step PotEng KinEng TotEng v_fx v_fy v_fz 
    3772   -1152449.3            0   -1152449.3 -0.0058182307 0.0032665868 -0.011512157 
    4000   -1152449.3            0   -1152449.3 -2.3497053e-06 -1.2747727e-07 -3.5056722e-06 
    4024   -1152449.3            0   -1152449.3 -8.3845914e-07 -1.7228299e-07 -1.1507251e-06 
Loop time of 2.94815 on 104 procs for 252 steps with 288751 atoms

99.9% CPU use with 104 MPI tasks x 1 OpenMP threads

Minimization stats:
  Stopping criterion = energy tolerance
  Energy initial, next-to-last, final = 
     -1152449.32869749  -1152449.32954385  -1152449.32954385
  Force two-norm initial, final = 0.12186846 6.4645923e-06
  Force max component initial, final = 0.04401823 1.1507251e-06
  Final line search alpha, max atom move = 1.0000000 1.1507251e-06
  Iterations, force evaluations = 252 504

MPI task timing breakdown:
Section |  min time  |  avg time  |  max time  |%varavg| %total
---------------------------------------------------------------
Pair    | 0.76119    | 2.1225     | 2.7681     |  39.3 | 71.99
Neigh   | 0          | 0          | 0          |   0.0 |  0.00
Comm    | 0.045125   | 0.48331    | 1.4443     |  57.3 | 16.39
Output  | 0.00024128 | 0.00024608 | 0.00040242 |   0.0 |  0.01
Modify  | 3.1001e-05 | 0.0041597  | 0.0087854  |   3.0 |  0.14
Other   |            | 0.338      |            |       | 11.46

Nlocal:        2776.45 ave        3960 max           0 min
Histogram: 8 4 4 0 4 12 8 2 28 34
Nghost:        3879.03 ave        5424 max         232 min
Histogram: 8 0 8 0 16 0 8 8 16 40
Neighs:        79213.4 ave      115434 max           0 min
Histogram: 8 4 4 0 10 6 8 8 24 32

Total # of neighbors = 8238190
Ave neighs/atom = 28.530429
Neighbor list builds = 0
Dangerous builds = 0
The dot product: 3.28919842673851e-10
Setting atom values ...
  1 settings made for x
  1 settings made for y
  1 settings made for z
Setting up cg style minimization ...
  Unit style    : metal
  Current step  : 4024
Per MPI rank memory allocation (min/avg/max) = 5.441 | 5.816 | 6.074 Mbytes
Step PotEng KinEng TotEng v_fx v_fy v_fz 
    4024   -1152449.3            0   -1152449.3  -0.00574045 0.0017076699  -0.01017383 
    4226   -1152449.3            0   -1152449.3 -4.9061567e-06 7.9609829e-06 -1.3843575e-05 
Loop time of 2.34181 on 104 procs for 202 steps with 288751 atoms

99.9% CPU use with 104 MPI tasks x 1 OpenMP threads

Minimization stats:
  Stopping criterion = energy tolerance
  Energy initial, next-to-last, final = 
     -1152449.32018029  -1152449.32103015  -1152449.32103015
  Force two-norm initial, final = 0.12213131 7.0899454e-05
  Force max component initial, final = 0.043871716 1.3843575e-05
  Final line search alpha, max atom move = 1.0000000 1.3843575e-05
  Iterations, force evaluations = 202 404

MPI task timing breakdown:
Section |  min time  |  avg time  |  max time  |%varavg| %total
---------------------------------------------------------------
Pair    | 0.61192    | 1.6934     | 2.2044     |  35.1 | 72.31
Neigh   | 0          | 0          | 0          |   0.0 |  0.00
Comm    | 0.035084   | 0.38155    | 1.1535     |  51.6 | 16.29
Output  | 0          | 0          | 0          |   0.0 |  0.00
Modify  | 2.4957e-05 | 0.003343   | 0.0070581  |   2.7 |  0.14
Other   |            | 0.2635     |            |       | 11.25

Nlocal:        2776.45 ave        3960 max           0 min
Histogram: 8 4 4 0 4 12 8 2 28 34
Nghost:        3879.01 ave        5424 max         232 min
Histogram: 8 0 8 0 16 0 8 8 16 40
Neighs:        79213.3 ave      115434 max           0 min
Histogram: 8 4 4 0 10 6 8 8 24 32

Total # of neighbors = 8238188
Ave neighs/atom = 28.530422
Neighbor list builds = 0
Dangerous builds = 0
The dot product: 4.26196418569312e-09
Setting atom values ...
  1 settings made for x
  1 settings made for y
  1 settings made for z
Setting up cg style minimization ...
  Unit style    : metal
  Current step  : 4226
Per MPI rank memory allocation (min/avg/max) = 5.441 | 5.816 | 6.074 Mbytes
Step PotEng KinEng TotEng v_fx v_fy v_fz 
    4226   -1152449.3            0   -1152449.3 -0.0059496742 -8.7077444e-05 -0.0090854201 
    4402   -1152449.3            0   -1152449.3 4.2431264e-05 3.8012247e-05 3.5150826e-05 
Loop time of 2.0479 on 104 procs for 176 steps with 288751 atoms

99.9% CPU use with 104 MPI tasks x 1 OpenMP threads

Minimization stats:
  Stopping criterion = energy tolerance
  Energy initial, next-to-last, final = 
     -1152449.31020582  -1152449.31106243  -1152449.31106243
  Force two-norm initial, final = 0.1226639 0.0001635588
  Force max component initial, final = 0.04369813 4.2431264e-05
  Final line search alpha, max atom move = 1.0000000 4.2431264e-05
  Iterations, force evaluations = 176 352

MPI task timing breakdown:
Section |  min time  |  avg time  |  max time  |%varavg| %total
---------------------------------------------------------------
Pair    | 0.53385    | 1.4881     | 1.9305     |  32.9 | 72.66
Neigh   | 0          | 0          | 0          |   0.0 |  0.00
Comm    | 0.02983    | 0.3373     | 1.0201     |  48.6 | 16.47
Output  | 0          | 0          | 0          |   0.0 |  0.00
Modify  | 2.2643e-05 | 0.002909   | 0.0061563  |   2.5 |  0.14
Other   |            | 0.2196     |            |       | 10.72

Nlocal:        2776.45 ave        3960 max           0 min
Histogram: 8 4 4 0 4 12 8 2 28 34
Nghost:        3879.01 ave        5424 max         232 min
Histogram: 8 0 8 0 16 0 8 8 16 40
Neighs:        79213.4 ave      115439 max           0 min
Histogram: 8 4 4 0 10 6 8 8 24 32

Total # of neighbors = 8238189
Ave neighs/atom = 28.530426
Neighbor list builds = 0
Dangerous builds = 0
The dot product: -1.84940461642004e-08
Setting atom values ...
  1 settings made for x
  1 settings made for y
  1 settings made for z
Setting up cg style minimization ...
  Unit style    : metal
  Current step  : 4402
Per MPI rank memory allocation (min/avg/max) = 5.441 | 5.816 | 6.074 Mbytes
Step PotEng KinEng TotEng v_fx v_fy v_fz 
    4402   -1152449.3            0   -1152449.3 -0.0064203471 -0.0020627562 -0.0082554472 
    4574   -1152449.3            0   -1152449.3 4.0823239e-06 3.0577102e-06 3.8640929e-06 
Loop time of 2.04862 on 104 procs for 172 steps with 288751 atoms

99.9% CPU use with 104 MPI tasks x 1 OpenMP threads

Minimization stats:
  Stopping criterion = energy tolerance
  Energy initial, next-to-last, final = 
     -1152449.29874564  -1152449.29960851  -1152449.29960851
  Force two-norm initial, final = 0.12331207 0.00017533289
  Force max component initial, final = 0.043542936 5.8115696e-06
  Final line search alpha, max atom move = 1.0000000 5.8115696e-06
  Iterations, force evaluations = 172 344

MPI task timing breakdown:
Section |  min time  |  avg time  |  max time  |%varavg| %total
---------------------------------------------------------------
Pair    | 0.52024    | 1.4449     | 1.8882     |  32.5 | 70.53
Neigh   | 0          | 0          | 0          |   0.0 |  0.00
Comm    | 0.030497   | 0.33159    | 0.98364    |  46.9 | 16.19
Output  | 0          | 0          | 0          |   0.0 |  0.00
Modify  | 2.2445e-05 | 0.0028456  | 0.0060135  |   2.5 |  0.14
Other   |            | 0.2693     |            |       | 13.15

Nlocal:        2776.45 ave        3960 max           0 min
Histogram: 8 4 4 0 4 12 8 2 28 34
Nghost:        3879.11 ave        5424 max         232 min
Histogram: 8 0 8 0 16 0 8 8 16 40
Neighs:        79213.4 ave      115439 max           0 min
Histogram: 8 4 4 0 10 6 8 8 24 32

Total # of neighbors = 8238189
Ave neighs/atom = 28.530426
Neighbor list builds = 0
Dangerous builds = 0
The dot product: -2.52921654684561e-09
Setting atom values ...
  1 settings made for x
  1 settings made for y
  1 settings made for z
Setting up cg style minimization ...
  Unit style    : metal
  Current step  : 4574
Per MPI rank memory allocation (min/avg/max) = 5.441 | 5.816 | 6.074 Mbytes
Step PotEng KinEng TotEng v_fx v_fy v_fz 
    4574   -1152449.3            0   -1152449.3 -0.0073829624 -0.0042212111 -0.0080429798 
    4798   -1152449.3            0   -1152449.3 -4.9427093e-06 -1.9118935e-06 -6.1096131e-06 
Loop time of 2.61308 on 104 procs for 224 steps with 288751 atoms

99.9% CPU use with 104 MPI tasks x 1 OpenMP threads

Minimization stats:
  Stopping criterion = energy tolerance
  Energy initial, next-to-last, final = 
     -1152449.28577907  -1152449.28664437  -1152449.28664437
  Force two-norm initial, final = 0.1239852 2.4538396e-05
  Force max component initial, final = 0.043338076 6.1096131e-06
  Final line search alpha, max atom move = 1.0000000 6.1096131e-06
  Iterations, force evaluations = 224 448

MPI task timing breakdown:
Section |  min time  |  avg time  |  max time  |%varavg| %total
---------------------------------------------------------------
Pair    | 0.68014    | 1.8886     | 2.4541     |  37.0 | 72.27
Neigh   | 0          | 0          | 0          |   0.0 |  0.00
Comm    | 0.042088   | 0.42729    | 1.2882     |  54.1 | 16.35
Output  | 0          | 0          | 0          |   0.0 |  0.00
Modify  | 2.7669e-05 | 0.0037022  | 0.0078294  |   2.9 |  0.14
Other   |            | 0.2935     |            |       | 11.23

Nlocal:        2776.45 ave        3960 max           0 min
Histogram: 8 4 4 0 4 12 8 2 28 34
Nghost:        3879.12 ave        5424 max         232 min
Histogram: 8 0 8 0 16 0 8 8 16 40
Neighs:        79213.3 ave      115439 max           0 min
Histogram: 8 4 4 0 10 6 8 8 24 32

Total # of neighbors = 8238187
Ave neighs/atom = 28.530419
Neighbor list builds = 0
Dangerous builds = 0
The dot product: 4.03789903173052e-09
Setting atom values ...
  1 settings made for x
  1 settings made for y
  1 settings made for z
Setting up cg style minimization ...
  Unit style    : metal
  Current step  : 4798
Per MPI rank memory allocation (min/avg/max) = 5.441 | 5.816 | 6.074 Mbytes
Step PotEng KinEng TotEng v_fx v_fy v_fz 
    4798   -1152449.3            0   -1152449.3 -0.0088541734 -0.0063211781 -0.0086739788 
    5000   -1152449.3            0   -1152449.3 -1.2799735e-05 -7.1819873e-06 -1.4089833e-05 
    5047   -1152449.3            0   -1152449.3 5.9024545e-07 8.8021254e-07 2.1450869e-07 
Loop time of 2.9301 on 104 procs for 249 steps with 288751 atoms

99.9% CPU use with 104 MPI tasks x 1 OpenMP threads

Minimization stats:
  Stopping criterion = energy tolerance
  Energy initial, next-to-last, final = 
     -1152449.27130271  -1152449.27216332  -1152449.27216332
  Force two-norm initial, final = 0.12455325 7.1995681e-06
  Force max component initial, final = 0.04313872 8.8021254e-07
  Final line search alpha, max atom move = 1.0000000 8.8021254e-07
  Iterations, force evaluations = 249 498

MPI task timing breakdown:
Section |  min time  |  avg time  |  max time  |%varavg| %total
---------------------------------------------------------------
Pair    | 0.75362    | 2.0949     | 2.7312     |  39.2 | 71.50
Neigh   | 0          | 0          | 0          |   0.0 |  0.00
Comm    | 0.04534    | 0.47618    | 1.4255     |  57.2 | 16.25
Output  | 0.00021709 | 0.00022499 | 0.00037801 |   0.0 |  0.01
Modify  | 3.1008e-05 | 0.0041155  | 0.0086839  |   3.0 |  0.14
Other   |            | 0.3547     |            |       | 12.10

Nlocal:        2776.45 ave        3960 max           0 min
Histogram: 8 4 4 0 4 12 8 2 28 34
Nghost:        3879.11 ave        5424 max         232 min
Histogram: 8 0 8 0 16 0 8 8 16 40
Neighs:        79213.3 ave      115443 max           0 min
Histogram: 8 4 4 0 10 6 8 8 24 32

Total # of neighbors = 8238186
Ave neighs/atom = 28.530415
Neighbor list builds = 0
Dangerous builds = 0
The dot product: -8.10382619987143e-10
Setting atom values ...
  1 settings made for x
  1 settings made for y
  1 settings made for z
Setting up cg style minimization ...
  Unit style    : metal
  Current step  : 5047
Per MPI rank memory allocation (min/avg/max) = 5.441 | 5.816 | 6.074 Mbytes
Step PotEng KinEng TotEng v_fx v_fy v_fz 
    5047   -1152449.3            0   -1152449.3  -0.01101861 -0.0081482977 -0.010618559 
    5235   -1152449.3            0   -1152449.3 -1.6020088e-05 -1.1935999e-05 -1.5367863e-05 
Loop time of 2.19355 on 104 procs for 188 steps with 288751 atoms

99.9% CPU use with 104 MPI tasks x 1 OpenMP threads

Minimization stats:
  Stopping criterion = energy tolerance
  Energy initial, next-to-last, final = 
     -1152449.25534167  -1152449.25618939  -1152449.25618939
  Force two-norm initial, final = 0.12511906 9.8451533e-05
  Force max component initial, final = 0.044206017 1.6020088e-05
  Final line search alpha, max atom move = 1.0000000 1.6020088e-05
  Iterations, force evaluations = 188 376

MPI task timing breakdown:
Section |  min time  |  avg time  |  max time  |%varavg| %total
---------------------------------------------------------------
Pair    | 0.56792    | 1.5841     | 2.0664     |  33.9 | 72.22
Neigh   | 0          | 0          | 0          |   0.0 |  0.00
Comm    | 0.034302   | 0.35699    | 1.0697     |  49.5 | 16.27
Output  | 0          | 0          | 0          |   0.0 |  0.00
Modify  | 2.3063e-05 | 0.0031014  | 0.0065524  |   2.6 |  0.14
Other   |            | 0.2493     |            |       | 11.37

Nlocal:        2776.45 ave        3960 max           0 min
Histogram: 8 4 4 0 4 12 8 2 28 34
Nghost:        3879.11 ave        5424 max         232 min
Histogram: 8 0 8 0 16 0 8 8 16 40
Neighs:        79213.3 ave      115442 max           0 min
Histogram: 8 4 4 0 10 6 8 8 24 32

Total # of neighbors = 8238187
Ave neighs/atom = 28.530419
Neighbor list builds = 0
Dangerous builds = 0
The dot product: 3.09605184694811e-08
Setting atom values ...
  1 settings made for x
  1 settings made for y
  1 settings made for z
Setting up cg style minimization ...
  Unit style    : metal
  Current step  : 5235
Per MPI rank memory allocation (min/avg/max) = 5.441 | 5.816 | 6.074 Mbytes
Step PotEng KinEng TotEng v_fx v_fy v_fz 
    5235   -1152449.2            0   -1152449.2 -0.014300775 -0.0096341599 -0.014618648 
    5435   -1152449.2            0   -1152449.2 -3.3146492e-06 5.608316e-06 -9.6018013e-06 
Loop time of 2.32402 on 104 procs for 200 steps with 288751 atoms

99.9% CPU use with 104 MPI tasks x 1 OpenMP threads

Minimization stats:
  Stopping criterion = energy tolerance
  Energy initial, next-to-last, final = 
     -1152449.23797803  -1152449.23881427  -1152449.23881427
  Force two-norm initial, final = 0.12633937 6.8566224e-05
  Force max component initial, final = 0.047471352 1.0285034e-05
  Final line search alpha, max atom move = 1.0000000 1.0285034e-05
  Iterations, force evaluations = 200 400

MPI task timing breakdown:
Section |  min time  |  avg time  |  max time  |%varavg| %total
---------------------------------------------------------------
Pair    | 0.60529    | 1.6804     | 2.1892     |  35.0 | 72.31
Neigh   | 0          | 0          | 0          |   0.0 |  0.00
Comm    | 0.035147   | 0.37849    | 1.1422     |  51.6 | 16.29
Output  | 0          | 0          | 0          |   0.0 |  0.00
Modify  | 2.5534e-05 | 0.0033069  | 0.006996   |   2.7 |  0.14
Other   |            | 0.2618     |            |       | 11.27

Nlocal:        2776.45 ave        3960 max           0 min
Histogram: 8 4 4 0 4 12 8 2 28 34
Nghost:        3879.12 ave        5424 max         232 min
Histogram: 8 0 8 0 16 0 8 8 16 40
Neighs:        79213.3 ave      115442 max           0 min
Histogram: 8 4 4 0 10 6 8 8 24 32

Total # of neighbors = 8238185
Ave neighs/atom = 28.530412
Neighbor list builds = 0
Dangerous builds = 0
The dot product: 1.5944781495116e-08
Setting atom values ...
  1 settings made for x
  1 settings made for y
  1 settings made for z
Setting up cg style minimization ...
  Unit style    : metal
  Current step  : 5435
Per MPI rank memory allocation (min/avg/max) = 5.441 | 5.816 | 6.074 Mbytes
Step PotEng KinEng TotEng v_fx v_fy v_fz 
    5435   -1152449.2            0   -1152449.2 -0.019328857 -0.010401038 -0.022043204 
    5693   -1152449.3            0   -1152449.3 3.0810892e-05 3.6853253e-06 4.5382106e-05 
Loop time of 3.01126 on 104 procs for 258 steps with 288751 atoms

99.9% CPU use with 104 MPI tasks x 1 OpenMP threads

Minimization stats:
  Stopping criterion = energy tolerance
  Energy initial, next-to-last, final = 
     -1152449.21944038   -1152449.2500407   -1152449.2500407
  Force two-norm initial, final = 0.13032584 0.00015829554
  Force max component initial, final = 0.050701711 4.5382106e-05
  Final line search alpha, max atom move = 1.0000000 4.5382106e-05
  Iterations, force evaluations = 258 517

MPI task timing breakdown:
Section |  min time  |  avg time  |  max time  |%varavg| %total
---------------------------------------------------------------
Pair    | 0.78971    | 2.1764     | 2.8286     |  39.6 | 72.28
Neigh   | 2.0623e-05 | 0.0058865  | 0.0087183  |   3.2 |  0.20
Comm    | 0.048358   | 0.48866    | 1.4726     |  58.5 | 16.23
Output  | 0          | 0          | 0          |   0.0 |  0.00
Modify  | 3.1663e-05 | 0.0042646  | 0.0090168  |   3.1 |  0.14
Other   |            | 0.336      |            |       | 11.16

Nlocal:        2776.45 ave        3960 max           0 min
Histogram: 8 4 4 0 4 12 8 2 28 34
Nghost:        3879.11 ave        5424 max         232 min
Histogram: 8 0 8 0 16 0 8 8 16 40
Neighs:        79213.2 ave      115442 max           0 min
Histogram: 8 4 4 0 10 6 8 8 24 32

Total # of neighbors = 8238170
Ave neighs/atom = 28.530360
Neighbor list builds = 2
Dangerous builds = 0
The dot product: -4.35368213123073e-06
Setting atom values ...
  1 settings made for x
  1 settings made for y
  1 settings made for z
Setting up cg style minimization ...
  Unit style    : metal
  Current step  : 5693
Per MPI rank memory allocation (min/avg/max) = 5.441 | 5.816 | 6.074 Mbytes
Step PotEng KinEng TotEng v_fx v_fy v_fz 
    5693   -1152449.2            0   -1152449.2 -0.027964725 -0.033895853 -0.023770286 
    5901   -1152449.2            0   -1152449.2 7.9713665e-06 4.3933736e-06 1.2510298e-05 
Loop time of 2.4186 on 104 procs for 208 steps with 288751 atoms

99.9% CPU use with 104 MPI tasks x 1 OpenMP threads

Minimization stats:
  Stopping criterion = energy tolerance
  Energy initial, next-to-last, final = 
     -1152449.24563748  -1152449.24930922  -1152449.24930922
  Force two-norm initial, final = 0.15068256 0.0002319374
  Force max component initial, final = 0.055829852 3.3420823e-05
  Final line search alpha, max atom move = 1.0000000 3.3420823e-05
  Iterations, force evaluations = 208 416

MPI task timing breakdown:
Section |  min time  |  avg time  |  max time  |%varavg| %total
---------------------------------------------------------------
Pair    | 0.63183    | 1.7422     | 2.2668     |  35.5 | 72.04
Neigh   | 0          | 0          | 0          |   0.0 |  0.00
Comm    | 0.038459   | 0.39136    | 1.1932     |  52.4 | 16.18
Output  | 0          | 0          | 0          |   0.0 |  0.00
Modify  | 2.5769e-05 | 0.003441   | 0.0072806  |   2.7 |  0.14
Other   |            | 0.2816     |            |       | 11.64

Nlocal:        2776.45 ave        3960 max           0 min
Histogram: 8 4 4 0 4 12 8 2 28 34
Nghost:        3879.01 ave        5424 max         232 min
Histogram: 8 0 8 0 16 0 8 8 16 40
Neighs:        79213.3 ave      115434 max           0 min
Histogram: 8 4 4 0 10 6 8 8 24 32

Total # of neighbors = 8238183
Ave neighs/atom = 28.530405
Neighbor list builds = 0
Dangerous builds = 0
The dot product: -7.1234179045748e-07
Setting atom values ...
  1 settings made for x
  1 settings made for y
  1 settings made for z
Setting up cg style minimization ...
  Unit style    : metal
  Current step  : 5901
Per MPI rank memory allocation (min/avg/max) = 5.441 | 5.816 | 6.074 Mbytes
Step PotEng KinEng TotEng v_fx v_fy v_fz 
    5901   -1152449.3            0   -1152449.3 -0.014960546 -0.038217899 0.0010455957 
    6000   -1152449.3            0   -1152449.3 -2.9138818e-05 -3.9061959e-05 -3.3613557e-05 
    6121   -1152449.3            0   -1152449.3 3.9363657e-06 -6.6047098e-07 1.0524305e-05 
Loop time of 2.57399 on 104 procs for 220 steps with 288751 atoms

99.9% CPU use with 104 MPI tasks x 1 OpenMP threads

Minimization stats:
  Stopping criterion = energy tolerance
  Energy initial, next-to-last, final = 
     -1152449.25028889  -1152449.25219366  -1152449.25219366
  Force two-norm initial, final = 0.15356882 3.5726427e-05
  Force max component initial, final = 0.055025553 1.0524305e-05
  Final line search alpha, max atom move = 1.0000000 1.0524305e-05
  Iterations, force evaluations = 220 440

MPI task timing breakdown:
Section |  min time  |  avg time  |  max time  |%varavg| %total
---------------------------------------------------------------
Pair    | 0.66424    | 1.8582     | 2.4265     |  36.9 | 72.19
Neigh   | 0          | 0          | 0          |   0.0 |  0.00
Comm    | 0.039636   | 0.42305    | 1.2619     |  53.5 | 16.44
Output  | 0.00025899 | 0.00026137 | 0.00038639 |   0.0 |  0.01
Modify  | 2.7045e-05 | 0.0036359  | 0.007698   |   2.8 |  0.14
Other   |            | 0.2889     |            |       | 11.22

Nlocal:        2776.45 ave        3961 max           0 min
Histogram: 8 4 4 0 6 10 8 2 28 34
Nghost:        3879.09 ave        5424 max         232 min
Histogram: 8 0 8 0 16 0 8 8 16 40
Neighs:        79213.3 ave      115455 max           0 min
Histogram: 8 4 4 0 10 6 8 8 24 32

Total # of neighbors = 8238186
Ave neighs/atom = 28.530415
Neighbor list builds = 0
Dangerous builds = 0
The dot product: -9.28792567659119e-08
Setting atom values ...
  1 settings made for x
  1 settings made for y
  1 settings made for z
Setting up cg style minimization ...
  Unit style    : metal
  Current step  : 6121
Per MPI rank memory allocation (min/avg/max) = 5.441 | 5.816 | 6.074 Mbytes
Step PotEng KinEng TotEng v_fx v_fy v_fz 
    6121   -1152449.3            0   -1152449.3 -0.014271463 -0.049365634   0.01279587 
    6260   -1152449.3            0   -1152449.3 -3.6724545e-06 -3.5708298e-06 -5.9497631e-06 
Loop time of 1.61354 on 104 procs for 139 steps with 288751 atoms

99.9% CPU use with 104 MPI tasks x 1 OpenMP threads

Minimization stats:
  Stopping criterion = energy tolerance
  Energy initial, next-to-last, final = 
     -1152449.25427517  -1152449.25547517  -1152449.25547517
  Force two-norm initial, final = 0.15226807 7.6132646e-05
  Force max component initial, final = 0.055471832 6.0621561e-06
  Final line search alpha, max atom move = 1.0000000 6.0621561e-06
  Iterations, force evaluations = 139 278

MPI task timing breakdown:
Section |  min time  |  avg time  |  max time  |%varavg| %total
---------------------------------------------------------------
Pair    | 0.42144    | 1.1669     | 1.5216     |  29.1 | 72.32
Neigh   | 0          | 0          | 0          |   0.0 |  0.00
Comm    | 0.0245     | 0.26333    | 0.79564    |  43.0 | 16.32
Output  | 0          | 0          | 0          |   0.0 |  0.00
Modify  | 1.7528e-05 | 0.0022981  | 0.0048648  |   2.3 |  0.14
Other   |            | 0.181      |            |       | 11.22

Nlocal:        2776.45 ave        3961 max           0 min
Histogram: 8 4 4 0 6 10 8 2 28 34
Nghost:        3879.09 ave        5424 max         232 min
Histogram: 8 0 8 0 16 0 8 8 16 40
Neighs:        79213.3 ave      115455 max           0 min
Histogram: 8 4 4 0 10 6 8 8 24 32

Total # of neighbors = 8238182
Ave neighs/atom = 28.530402
Neighbor list builds = 0
Dangerous builds = 0
The dot product: 5.82355926730849e-08
Setting atom values ...
  1 settings made for x
  1 settings made for y
  1 settings made for z
Setting up cg style minimization ...
  Unit style    : metal
  Current step  : 6260
Per MPI rank memory allocation (min/avg/max) = 5.441 | 5.816 | 6.074 Mbytes
Step PotEng KinEng TotEng v_fx v_fy v_fz 
    6260   -1152449.3            0   -1152449.3 -0.013644506 -0.057482099  0.020573931 
    6489   -1152449.3            0   -1152449.3 4.0001468e-06 1.446011e-05 -3.6740215e-06 
Loop time of 2.68078 on 104 procs for 229 steps with 288751 atoms

99.9% CPU use with 104 MPI tasks x 1 OpenMP threads

Minimization stats:
  Stopping criterion = energy tolerance
  Energy initial, next-to-last, final = 
     -1152449.25693451  -1152449.29757003  -1152449.29757003
  Force two-norm initial, final = 0.15749096 0.00020479817
  Force max component initial, final = 0.057482099 2.0823498e-05
  Final line search alpha, max atom move = 1.0000000 2.0823498e-05
  Iterations, force evaluations = 229 457

MPI task timing breakdown:
Section |  min time  |  avg time  |  max time  |%varavg| %total
---------------------------------------------------------------
Pair    | 0.69466    | 1.9316     | 2.5125     |  37.4 | 72.05
Neigh   | 1.0274e-05 | 0.0029347  | 0.0043427  |   2.2 |  0.11
Comm    | 0.04066    | 0.43941    | 1.3213     |  54.7 | 16.39
Output  | 0          | 0          | 0          |   0.0 |  0.00
Modify  | 2.8469e-05 | 0.0037744  | 0.0079956  |   2.9 |  0.14
Other   |            | 0.3031     |            |       | 11.31

Nlocal:        2776.45 ave        3961 max           0 min
Histogram: 8 4 4 0 6 10 8 2 28 34
Nghost:        3879.09 ave        5424 max         232 min
Histogram: 8 0 8 0 16 0 8 8 16 40
Neighs:        79213.4 ave      115455 max           0 min
Histogram: 8 4 4 0 10 6 8 8 24 32

Total # of neighbors = 8238197
Ave neighs/atom = 28.530454
Neighbor list builds = 1
Dangerous builds = 0
The dot product: -1.82729409269413e-06
Setting atom values ...
  1 settings made for x
  1 settings made for y
  1 settings made for z
Setting up cg style minimization ...
  Unit style    : metal
  Current step  : 6489
Per MPI rank memory allocation (min/avg/max) = 5.441 | 5.816 | 6.074 Mbytes
Step PotEng KinEng TotEng v_fx v_fy v_fz 
    6489   -1152449.3            0   -1152449.3  0.028765547  0.058989219  0.058742893 
    6669   -1152449.3            0   -1152449.3 1.0062589e-05 -3.3504322e-05 5.1218958e-05 
Loop time of 2.09585 on 104 procs for 180 steps with 288751 atoms

99.9% CPU use with 104 MPI tasks x 1 OpenMP threads

Minimization stats:
  Stopping criterion = energy tolerance
  Energy initial, next-to-last, final = 
     -1152449.30888424  -1152449.31116526  -1152449.31116526
  Force two-norm initial, final = 0.16257771 0.00022383497
  Force max component initial, final = 0.058989219 5.1218958e-05
  Final line search alpha, max atom move = 1.0000000 5.1218958e-05
  Iterations, force evaluations = 180 360

MPI task timing breakdown:
Section |  min time  |  avg time  |  max time  |%varavg| %total
---------------------------------------------------------------
Pair    | 0.54822    | 1.5125     | 1.9684     |  33.1 | 72.17
Neigh   | 0          | 0          | 0          |   0.0 |  0.00
Comm    | 0.033217   | 0.34124    | 1.0294     |  48.8 | 16.28
Output  | 0          | 0          | 0          |   0.0 |  0.00
Modify  | 2.2853e-05 | 0.002973   | 0.0062835  |   2.6 |  0.14
Other   |            | 0.2391     |            |       | 11.41

Nlocal:        2776.45 ave        3959 max           0 min
Histogram: 8 4 4 0 4 12 8 6 24 34
Nghost:        3879.07 ave        5426 max         232 min
Histogram: 8 0 8 0 16 0 8 8 16 40
Neighs:        79213.4 ave      115390 max           0 min
Histogram: 8 4 4 0 10 6 8 8 24 32

Total # of neighbors = 8238197
Ave neighs/atom = 28.530454
Neighbor list builds = 0
Dangerous builds = 0
The dot product: -3.35384058380497e-07
Setting atom values ...
  1 settings made for x
  1 settings made for y
  1 settings made for z
Setting up cg style minimization ...
  Unit style    : metal
  Current step  : 6669
Per MPI rank memory allocation (min/avg/max) = 5.441 | 5.816 | 6.074 Mbytes
Step PotEng KinEng TotEng v_fx v_fy v_fz 
    6669   -1152449.3            0   -1152449.3 -0.0060370295 -0.071156627  0.027129071 
    6876   -1152449.3            0   -1152449.3 -3.0925444e-06 -6.7269226e-06 -5.22988e-06 
Loop time of 2.41925 on 104 procs for 207 steps with 288751 atoms

99.9% CPU use with 104 MPI tasks x 1 OpenMP threads

Minimization stats:
  Stopping criterion = energy tolerance
  Energy initial, next-to-last, final = 
     -1152449.32051023  -1152449.32175515  -1152449.32175515
  Force two-norm initial, final = 0.16167564 5.5393257e-05
  Force max component initial, final = 0.071156627 9.0045754e-06
  Final line search alpha, max atom move = 1.0000000 9.0045754e-06
  Iterations, force evaluations = 207 414

MPI task timing breakdown:
Section |  min time  |  avg time  |  max time  |%varavg| %total
---------------------------------------------------------------
Pair    | 0.62677    | 1.7422     | 2.2767     |  35.6 | 72.01
Neigh   | 0          | 0          | 0          |   0.0 |  0.00
Comm    | 0.038269   | 0.39281    | 1.1811     |  52.1 | 16.24
Output  | 0          | 0          | 0          |   0.0 |  0.00
Modify  | 2.608e-05  | 0.0034186  | 0.0072225  |   2.7 |  0.14
Other   |            | 0.2808     |            |       | 11.61

Nlocal:        2776.45 ave        3960 max           0 min
Histogram: 8 4 4 0 4 12 8 4 26 34
Nghost:        3879.01 ave        5428 max         232 min
Histogram: 8 0 8 0 16 0 8 8 16 40
Neighs:        79213.4 ave      115422 max           0 min
Histogram: 8 4 4 0 10 6 8 8 24 32

Total # of neighbors = 8238195
Ave neighs/atom = 28.530447
Neighbor list builds = 0
Dangerous builds = 0
The dot product: 4.3601761191151e-08
Setting atom values ...
  1 settings made for x
  1 settings made for y
  1 settings made for z
Setting up cg style minimization ...
  Unit style    : metal
  Current step  : 6876
Per MPI rank memory allocation (min/avg/max) = 5.441 | 5.816 | 6.074 Mbytes
Step PotEng KinEng TotEng v_fx v_fy v_fz 
    6876   -1152449.3            0   -1152449.3 -0.00051098349 -0.053810659  0.031363235 
    7000   -1152449.3            0   -1152449.3 2.0391311e-05 3.6787683e-05 4.0316436e-05 
    7091   -1152449.3            0   -1152449.3 -1.6239481e-07 2.2800739e-06 -1.8960536e-06 
Loop time of 2.48915 on 104 procs for 215 steps with 288751 atoms

99.9% CPU use with 104 MPI tasks x 1 OpenMP threads

Minimization stats:
  Stopping criterion = energy tolerance
  Energy initial, next-to-last, final = 
     -1152449.32953065  -1152449.33071493  -1152449.33071493
  Force two-norm initial, final = 0.1565125 3.9279129e-05
  Force max component initial, final = 0.0540257 7.9258456e-06
  Final line search alpha, max atom move = 1.0000000 7.9258456e-06
  Iterations, force evaluations = 215 430

MPI task timing breakdown:
Section |  min time  |  avg time  |  max time  |%varavg| %total
---------------------------------------------------------------
Pair    | 0.65164    | 1.8054     | 2.349      |  36.3 | 72.53
Neigh   | 0          | 0          | 0          |   0.0 |  0.00
Comm    | 0.038092   | 0.40636    | 1.2273     |  53.5 | 16.33
Output  | 0.00015615 | 0.00015915 | 0.00028938 |   0.0 |  0.01
Modify  | 2.6609e-05 | 0.0035512  | 0.0074942  |   2.8 |  0.14
Other   |            | 0.2736     |            |       | 10.99

Nlocal:        2776.45 ave        3961 max           0 min
Histogram: 8 4 4 0 6 10 8 4 26 34
Nghost:        3879.07 ave        5429 max         232 min
Histogram: 8 0 8 0 16 0 8 8 16 40
Neighs:        79213.4 ave      115445 max           0 min
Histogram: 8 4 4 0 10 6 8 8 24 32

Total # of neighbors = 8238197
Ave neighs/atom = 28.530454
Neighbor list builds = 0
Dangerous builds = 0
The dot product: -9.33248407240819e-09
Setting atom values ...
  1 settings made for x
  1 settings made for y
  1 settings made for z
Setting up cg style minimization ...
  Unit style    : metal
  Current step  : 7091
Per MPI rank memory allocation (min/avg/max) = 5.441 | 5.816 | 6.074 Mbytes
Step PotEng KinEng TotEng v_fx v_fy v_fz 
    7091   -1152449.3            0   -1152449.3 -0.0012662941 -0.058241915  0.030904335 
    7320   -1152449.3            0   -1152449.3 4.7361459e-07 3.0888506e-06 -3.9552261e-07 
Loop time of 2.67582 on 104 procs for 229 steps with 288751 atoms

99.9% CPU use with 104 MPI tasks x 1 OpenMP threads

Minimization stats:
  Stopping criterion = energy tolerance
  Energy initial, next-to-last, final = 
     -1152449.33685704  -1152449.33807324  -1152449.33807324
  Force two-norm initial, final = 0.15887815 2.3912774e-05
  Force max component initial, final = 0.058241915 5.1233334e-06
  Final line search alpha, max atom move = 1.0000000 5.1233334e-06
  Iterations, force evaluations = 229 458

MPI task timing breakdown:
Section |  min time  |  avg time  |  max time  |%varavg| %total
---------------------------------------------------------------
Pair    | 0.6935     | 1.9314     | 2.5216     |  37.5 | 72.18
Neigh   | 0          | 0          | 0          |   0.0 |  0.00
Comm    | 0.04946    | 0.43666    | 1.3047     |  54.8 | 16.32
Output  | 0          | 0          | 0          |   0.0 |  0.00
Modify  | 2.8396e-05 | 0.0037749  | 0.0079783  |   2.9 |  0.14
Other   |            | 0.304      |            |       | 11.36

Nlocal:        2776.45 ave        3961 max           0 min
Histogram: 8 4 4 0 6 10 8 4 26 34
Nghost:        3879.07 ave        5429 max         232 min
Histogram: 8 0 8 0 16 0 8 8 16 40
Neighs:        79213.4 ave      115445 max           0 min
Histogram: 8 4 4 0 10 6 8 8 24 32

Total # of neighbors = 8238197
Ave neighs/atom = 28.530454
Neighbor list builds = 0
Dangerous builds = 0
The dot product: -1.13314815145511e-08
Setting atom values ...
  1 settings made for x
  1 settings made for y
  1 settings made for z
Setting up cg style minimization ...
  Unit style    : metal
  Current step  : 7320
Per MPI rank memory allocation (min/avg/max) = 5.441 | 5.816 | 6.074 Mbytes
Step PotEng KinEng TotEng v_fx v_fy v_fz 
    7320   -1152449.3            0   -1152449.3 -0.0013005181 -0.058784301  0.030116521 
    7501   -1152449.3            0   -1152449.3 -2.7333764e-06 1.4326606e-05 -1.6607614e-05 
Loop time of 2.10134 on 104 procs for 181 steps with 288751 atoms

[...]

Nlocal:        2776.45 ave        3960 max           0 min
Histogram: 8 4 4 0 4 12 8 2 28 34
Nghost:        3879.01 ave        5424 max         232 min
Histogram: 8 0 8 0 16 0 8 8 16 40
Neighs:        79213.5 ave      115434 max           0 min
Histogram: 8 4 4 0 10 6 8 8 24 32

Total # of neighbors = 8238202
Ave neighs/atom = 28.530471
Neighbor list builds = 0
Dangerous builds = 0
The dot product: 6.30431442916858e-08
Setting atom values ...
  1 settings made for x
  1 settings made for y
  1 settings made for z
Setting up cg style minimization ...
  Unit style    : metal
  Current step  : 2238
Per MPI rank memory allocation (min/avg/max) = 5.441 | 5.816 | 6.074 Mbytes
Step PotEng KinEng TotEng v_fx v_fy v_fz 
    2238   -1152449.3            0   -1152449.3 0.0045872161 0.0056907005 0.0036474746 
    2329   -1152449.4            0   -1152449.4 1.1862831e-05 6.567666e-06 1.8304596e-05 
Loop time of 1.06078 on 104 procs for 91 steps with 288751 atoms

99.9% CPU use with 104 MPI tasks x 1 OpenMP threads

Minimization stats:
  Stopping criterion = energy tolerance
  Energy initial, next-to-last, final = 
     -1152449.34942591   -1152449.3506404   -1152449.3506404
  Force two-norm initial, final = 0.13672395 0.00017287276
  Force max component initial, final = 0.067890721 2.0619845e-05
  Final line search alpha, max atom move = 1.0000000 2.0619845e-05
  Iterations, force evaluations = 91 182

MPI task timing breakdown:
Section |  min time  |  avg time  |  max time  |%varavg| %total
---------------------------------------------------------------
Pair    | 0.27689    | 0.76761    | 0.99982    |  23.6 | 72.36
Neigh   | 0          | 0          | 0          |   0.0 |  0.00
Comm    | 0.015947   | 0.17342    | 0.51795    |  34.8 | 16.35
Output  | 0          | 0          | 0          |   0.0 |  0.00
Modify  | 1.1019e-05 | 0.0015112  | 0.0032298  |   1.8 |  0.14
Other   |            | 0.1182     |            |       | 11.15

Nlocal:        2776.45 ave        3960 max           0 min
Histogram: 8 4 4 0 4 12 8 2 28 34
Nghost:        3879.01 ave        5424 max         232 min
Histogram: 8 0 8 0 16 0 8 8 16 40
Neighs:        79213.5 ave      115434 max           0 min
Histogram: 8 4 4 0 10 6 8 8 24 32

Total # of neighbors = 8238201
Ave neighs/atom = 28.530467
Neighbor list builds = 0
Dangerous builds = 0
The dot product: 1.00311916614888e-07
Setting atom values ...
  1 settings made for x
  1 settings made for y
  1 settings made for z
Setting up cg style minimization ...
  Unit style    : metal
  Current step  : 2329
Per MPI rank memory allocation (min/avg/max) = 5.441 | 5.816 | 6.074 Mbytes
Step PotEng KinEng TotEng v_fx v_fy v_fz 
    2329   -1152449.3            0   -1152449.3 0.0073903575 0.0023379545  0.012681266 
    2522   -1152449.3            0   -1152449.3 -8.6293307e-06 -1.0665934e-05 -6.4504126e-06 
Loop time of 2.24742 on 104 procs for 193 steps with 288751 atoms

99.9% CPU use with 104 MPI tasks x 1 OpenMP threads

Minimization stats:
  Stopping criterion = energy tolerance
  Energy initial, next-to-last, final = 
     -1152449.34002751  -1152449.34213236  -1152449.34213236
  Force two-norm initial, final = 0.1410457 0.0002209289
  Force max component initial, final = 0.06602663 1.8560637e-05
  Final line search alpha, max atom move = 1.0000000 1.8560637e-05
  Iterations, force evaluations = 193 386

MPI task timing breakdown:
Section |  min time  |  avg time  |  max time  |%varavg| %total
---------------------------------------------------------------
Pair    | 0.5853     | 1.6234     | 2.12       |  34.4 | 72.23
Neigh   | 0          | 0          | 0          |   0.0 |  0.00
Comm    | 0.033969   | 0.36565    | 1.0899     |  50.5 | 16.27
Output  | 0          | 0          | 0          |   0.0 |  0.00
Modify  | 2.3561e-05 | 0.0031888  | 0.0067983  |   2.7 |  0.14
Other   |            | 0.2552     |            |       | 11.35

Nlocal:        2776.45 ave        3960 max           0 min
Histogram: 8 4 4 0 4 12 8 2 28 34
Nghost:        3879.01 ave        5424 max         232 min
Histogram: 8 0 8 0 16 0 8 8 16 40
Neighs:        79213.5 ave      115434 max           0 min
Histogram: 8 4 4 0 10 6 8 8 24 32

Total # of neighbors = 8238202
Ave neighs/atom = 28.530471
Neighbor list builds = 0
Dangerous builds = 0
The dot product: -1.15495699309095e-07
Setting atom values ...
  1 settings made for x
  1 settings made for y
  1 settings made for z
Setting up cg style minimization ...
  Unit style    : metal
  Current step  : 2522
Per MPI rank memory allocation (min/avg/max) = 5.441 | 5.816 | 6.074 Mbytes
Step PotEng KinEng TotEng v_fx v_fy v_fz 
    2522   -1152449.3            0   -1152449.3  0.012912994 -0.0011469536   0.02409296 
    2795   -1152449.3            0   -1152449.3 2.9468489e-06 2.1397237e-06 3.2875095e-06 
Loop time of 3.17529 on 104 procs for 273 steps with 288751 atoms

99.9% CPU use with 104 MPI tasks x 1 OpenMP threads

Minimization stats:
  Stopping criterion = energy tolerance
  Energy initial, next-to-last, final = 
      -1152449.3358933  -1152449.34624221  -1152449.34624221
  Force two-norm initial, final = 0.15627137 1.8967913e-05
  Force max component initial, final = 0.05923447 3.3305577e-06
  Final line search alpha, max atom move = 1.0000000 3.3305577e-06
  Iterations, force evaluations = 273 546

MPI task timing breakdown:
Section |  min time  |  avg time  |  max time  |%varavg| %total
---------------------------------------------------------------
Pair    | 0.83499    | 2.3009     | 2.9861     |  40.8 | 72.46
Neigh   | 1.0236e-05 | 0.0029339  | 0.0042581  |   2.2 |  0.09
Comm    | 0.048185   | 0.51961    | 1.5603     |  60.7 | 16.36
Output  | 0          | 0          | 0          |   0.0 |  0.00
Modify  | 3.3458e-05 | 0.0045116  | 0.0096414  |   3.2 |  0.14
Other   |            | 0.3474     |            |       | 10.94

Nlocal:        2776.45 ave        3960 max           0 min
Histogram: 8 4 4 0 4 12 8 2 28 34
Nghost:        3879.03 ave        5424 max         232 min
Histogram: 8 0 8 0 16 0 8 8 16 40
Neighs:        79213.4 ave      115434 max           0 min
Histogram: 8 4 4 0 10 6 8 8 24 32

Total # of neighbors = 8238193
Ave neighs/atom = 28.530440
Neighbor list builds = 1
Dangerous builds = 0
The dot product: 8.45428711907494e-08
Setting atom values ...
  1 settings made for x
  1 settings made for y
  1 settings made for z
Setting up cg style minimization ...
  Unit style    : metal
  Current step  : 2795
Per MPI rank memory allocation (min/avg/max) = 5.441 | 5.816 | 6.074 Mbytes
Step PotEng KinEng TotEng v_fx v_fy v_fz 
    2795   -1152449.3            0   -1152449.3 -0.015197116 0.0099925397 -0.030204721 
    2916   -1152449.3            0   -1152449.3 -2.2114032e-06 -3.9904041e-06 -2.7141553e-07 
Loop time of 1.41123 on 104 procs for 121 steps with 288751 atoms

99.9% CPU use with 104 MPI tasks x 1 OpenMP threads

Minimization stats:
  Stopping criterion = energy tolerance
  Energy initial, next-to-last, final = 
     -1152449.34821967  -1152449.34916333  -1152449.34916333
  Force two-norm initial, final = 0.12861795 0.00015784478
  Force max component initial, final = 0.048201469 4.5335632e-06
  Final line search alpha, max atom move = 1.0000000 4.5335632e-06
  Iterations, force evaluations = 121 242

MPI task timing breakdown:
Section |  min time  |  avg time  |  max time  |%varavg| %total
---------------------------------------------------------------
Pair    | 0.36751    | 1.0197     | 1.3324     |  27.3 | 72.26
Neigh   | 0          | 0          | 0          |   0.0 |  0.00
Comm    | 0.021609   | 0.22937    | 0.68886    |  40.2 | 16.25
Output  | 0          | 0          | 0          |   0.0 |  0.00
Modify  | 1.47e-05   | 0.0020064  | 0.0042746  |   2.1 |  0.14
Other   |            | 0.1601     |            |       | 11.35

Nlocal:        2776.45 ave        3961 max           0 min
Histogram: 8 4 4 0 6 10 8 2 28 34
Nghost:        3879.09 ave        5424 max         232 min
Histogram: 8 0 8 0 16 0 8 8 16 40
Neighs:        79213.4 ave      115445 max           0 min
Histogram: 8 4 4 0 10 6 8 8 24 32

Total # of neighbors = 8238191
Ave neighs/atom = 28.530433
Neighbor list builds = 0
Dangerous builds = 0
The dot product: -6.31728100114392e-10
Setting atom values ...
  1 settings made for x
  1 settings made for y
  1 settings made for z
Setting up cg style minimization ...
  Unit style    : metal
  Current step  : 2916
Per MPI rank memory allocation (min/avg/max) = 5.441 | 5.816 | 6.074 Mbytes
Step PotEng KinEng TotEng v_fx v_fy v_fz 
    2916   -1152449.4            0   -1152449.4 -0.0097530634 0.0060448121 -0.019441849 
    3000   -1152449.4            0   -1152449.4 6.2461288e-06 -9.1740745e-06 1.6546662e-05 
    3136   -1152449.4            0   -1152449.4 -7.6185251e-06 -4.3276142e-06 -8.1975807e-06 
Loop time of 2.55736 on 104 procs for 220 steps with 288751 atoms

99.9% CPU use with 104 MPI tasks x 1 OpenMP threads

Minimization stats:
  Stopping criterion = energy tolerance
  Energy initial, next-to-last, final = 
     -1152449.35009421  -1152449.35099824  -1152449.35099824
  Force two-norm initial, final = 0.12529346 3.1345194e-05
  Force max component initial, final = 0.047432342 8.6027011e-06
  Final line search alpha, max atom move = 1.0000000 8.6027011e-06
  Iterations, force evaluations = 220 440

MPI task timing breakdown:
Section |  min time  |  avg time  |  max time  |%varavg| %total
---------------------------------------------------------------
Pair    | 0.66944    | 1.8504     | 2.407      |  36.6 | 72.36
Neigh   | 0          | 0          | 0          |   0.0 |  0.00
Comm    | 0.037283   | 0.41888    | 1.2643     |  54.2 | 16.38
Output  | 0.00014741 | 0.00015531 | 0.00031198 |   0.0 |  0.01
Modify  | 2.6334e-05 | 0.0036325  | 0.0077397  |   2.8 |  0.14
Other   |            | 0.2843     |            |       | 11.12

Nlocal:        2776.45 ave        3961 max           0 min
Histogram: 8 4 4 0 6 10 8 2 28 34
Nghost:        3879.09 ave        5426 max         232 min
Histogram: 8 0 8 0 16 0 8 8 16 40
Neighs:        79213.4 ave      115445 max           0 min
Histogram: 8 4 4 0 10 6 8 8 24 32

Total # of neighbors = 8238192
Ave neighs/atom = 28.530436
Neighbor list builds = 0
Dangerous builds = 0
The dot product: 1.77508325852087e-09
Setting atom values ...
  1 settings made for x
  1 settings made for y
  1 settings made for z
Setting up cg style minimization ...
  Unit style    : metal
  Current step  : 3136
Per MPI rank memory allocation (min/avg/max) = 5.441 | 5.816 | 6.074 Mbytes
Step PotEng KinEng TotEng v_fx v_fy v_fz 
    3136   -1152449.4            0   -1152449.4 -0.0099431043 0.0065396352 -0.020146638 
    3310   -1152449.4            0   -1152449.4 -3.181357e-05 -4.1112716e-06 -4.5079615e-05 
Loop time of 2.0226 on 104 procs for 174 steps with 288751 atoms

99.9% CPU use with 104 MPI tasks x 1 OpenMP threads

Minimization stats:
  Stopping criterion = energy tolerance
  Energy initial, next-to-last, final = 
     -1152449.35067009  -1152449.35157041  -1152449.35157041
  Force two-norm initial, final = 0.12550962 0.00018161196
  Force max component initial, final = 0.046864153 4.5079615e-05
  Final line search alpha, max atom move = 1.0000000 4.5079615e-05
  Iterations, force evaluations = 174 348

MPI task timing breakdown:
Section |  min time  |  avg time  |  max time  |%varavg| %total
---------------------------------------------------------------
Pair    | 0.52916    | 1.4644     | 1.908      |  32.6 | 72.40
Neigh   | 0          | 0          | 0          |   0.0 |  0.00
Comm    | 0.032251   | 0.32869    | 0.98427    |  48.1 | 16.25
Output  | 0          | 0          | 0          |   0.0 |  0.00
Modify  | 2.1114e-05 | 0.002868   | 0.0061102  |   2.5 |  0.14
Other   |            | 0.2266     |            |       | 11.21

Nlocal:        2776.45 ave        3961 max           0 min
Histogram: 8 4 4 0 6 10 8 2 28 34
Nghost:        3879.09 ave        5424 max         232 min
Histogram: 8 0 8 0 16 0 8 8 16 40
Neighs:        79213.4 ave      115457 max           0 min
Histogram: 8 4 4 0 10 6 8 8 24 32

Total # of neighbors = 8238190
Ave neighs/atom = 28.530429
Neighbor list builds = 0
Dangerous builds = 0
The dot product: 2.41568861217307e-08
Setting atom values ...
  1 settings made for x
  1 settings made for y
  1 settings made for z
Setting up cg style minimization ...
  Unit style    : metal
  Current step  : 3310
Per MPI rank memory allocation (min/avg/max) = 5.441 | 5.816 | 6.074 Mbytes
Step PotEng KinEng TotEng v_fx v_fy v_fz 
    3310   -1152449.3            0   -1152449.3 -0.0091917117 0.0065435779  -0.01907332 
    3523   -1152449.4            0   -1152449.4 8.0236337e-06 -1.8722161e-07 1.2353301e-05 
Loop time of 2.47172 on 104 procs for 213 steps with 288751 atoms

99.9% CPU use with 104 MPI tasks x 1 OpenMP threads

Minimization stats:
  Stopping criterion = energy tolerance
  Energy initial, next-to-last, final = 
     -1152449.34991864  -1152449.35081013  -1152449.35081013
  Force two-norm initial, final = 0.12488839 5.0711812e-05
  Force max component initial, final = 0.046260275 1.4985039e-05
  Final line search alpha, max atom move = 1.0000000 1.4985039e-05
  Iterations, force evaluations = 213 426

MPI task timing breakdown:
Section |  min time  |  avg time  |  max time  |%varavg| %total
---------------------------------------------------------------
Pair    | 0.64694    | 1.7891     | 2.3325     |  36.0 | 72.38
Neigh   | 0          | 0          | 0          |   0.0 |  0.00
Comm    | 0.036167   | 0.40309    | 1.2076     |  53.2 | 16.31
Output  | 0          | 0          | 0          |   0.0 |  0.00
Modify  | 2.5631e-05 | 0.0035116  | 0.0074805  |   2.8 |  0.14
Other   |            | 0.276      |            |       | 11.17

Nlocal:        2776.45 ave        3961 max           0 min
Histogram: 8 4 4 0 6 10 8 2 28 34
Nghost:        3879.05 ave        5424 max         232 min
Histogram: 8 0 8 0 16 0 8 8 16 40
Neighs:        79213.4 ave      115465 max           0 min
Histogram: 8 4 4 0 10 6 8 8 24 32

Total # of neighbors = 8238192
Ave neighs/atom = 28.530436
Neighbor list builds = 0
Dangerous builds = 0
The dot product: -6.21095629665421e-09
Setting atom values ...
  1 settings made for x
  1 settings made for y
  1 settings made for z
Setting up cg style minimization ...
  Unit style    : metal
  Current step  : 3523
Per MPI rank memory allocation (min/avg/max) = 5.441 | 5.816 | 6.074 Mbytes
Step PotEng KinEng TotEng v_fx v_fy v_fz 
    3523   -1152449.3            0   -1152449.3 -0.0081957611 0.0063532343 -0.017462501 
    3726   -1152449.3            0   -1152449.3 1.5905112e-05 1.9798921e-05 8.7964471e-06 
Loop time of 2.36655 on 104 procs for 203 steps with 288751 atoms

99.9% CPU use with 104 MPI tasks x 1 OpenMP threads

Minimization stats:
  Stopping criterion = energy tolerance
  Energy initial, next-to-last, final = 
     -1152449.34781858  -1152449.34869681  -1152449.34869681
  Force two-norm initial, final = 0.12387149 7.4929277e-05
  Force max component initial, final = 0.045573255 1.9798921e-05
  Final line search alpha, max atom move = 1.0000000 1.9798921e-05
  Iterations, force evaluations = 203 406

MPI task timing breakdown:
Section |  min time  |  avg time  |  max time  |%varavg| %total
---------------------------------------------------------------
Pair    | 0.61335    | 1.7095     | 2.2269     |  35.2 | 72.24
Neigh   | 0          | 0          | 0          |   0.0 |  0.00
Comm    | 0.036934   | 0.38815    | 1.155      |  51.7 | 16.40
Output  | 0          | 0          | 0          |   0.0 |  0.00
Modify  | 2.4577e-05 | 0.0033453  | 0.0071459  |   2.7 |  0.14
Other   |            | 0.2655     |            |       | 11.22

Nlocal:        2776.45 ave        3961 max           0 min
Histogram: 8 4 4 0 6 10 8 2 28 34
Nghost:        3879.01 ave        5424 max         232 min
Histogram: 8 0 8 0 16 0 8 8 16 40
Neighs:        79213.4 ave      115465 max           0 min
Histogram: 8 4 4 0 10 6 8 8 24 32

Total # of neighbors = 8238191
Ave neighs/atom = 28.530433
Neighbor list builds = 0
Dangerous builds = 0
The dot product: 2.39646577608331e-09
Setting atom values ...
  1 settings made for x
  1 settings made for y
  1 settings made for z
Setting up cg style minimization ...
  Unit style    : metal
  Current step  : 3726
Per MPI rank memory allocation (min/avg/max) = 5.441 | 5.816 | 6.074 Mbytes
Step PotEng KinEng TotEng v_fx v_fy v_fz 
    3726   -1152449.3            0   -1152449.3 -0.0072642394 0.0059084197 -0.015736683 
    3995   -1152449.3            0   -1152449.3 8.9971502e-08 -5.7253645e-09 1.4201135e-07 
Loop time of 3.12977 on 104 procs for 269 steps with 288751 atoms

99.9% CPU use with 104 MPI tasks x 1 OpenMP threads

Minimization stats:
  Stopping criterion = energy tolerance
  Energy initial, next-to-last, final = 
     -1152449.34436109   -1152449.3452252   -1152449.3452252
  Force two-norm initial, final = 0.12291429 2.8464852e-06
  Force max component initial, final = 0.044878239 2.5139935e-07
  Final line search alpha, max atom move = 1.0000000 2.5139935e-07
  Iterations, force evaluations = 269 538

MPI task timing breakdown:
Section |  min time  |  avg time  |  max time  |%varavg| %total
---------------------------------------------------------------
Pair    | 0.81839    | 2.2624     | 2.9491     |  40.5 | 72.29
Neigh   | 0          | 0          | 0          |   0.0 |  0.00
Comm    | 0.050088   | 0.51044    | 1.5218     |  59.8 | 16.31
Output  | 0          | 0          | 0          |   0.0 |  0.00
Modify  | 3.259e-05  | 0.0044437  | 0.0095319  |   3.1 |  0.14
Other   |            | 0.3524     |            |       | 11.26

Nlocal:        2776.45 ave        3960 max           0 min
Histogram: 8 4 4 0 4 12 8 2 28 34
Nghost:        3879.01 ave        5424 max         232 min
Histogram: 8 0 8 0 16 0 8 8 16 40
Neighs:        79213.4 ave      115434 max           0 min
Histogram: 8 4 4 0 10 6 8 8 24 32

Total # of neighbors = 8238190
Ave neighs/atom = 28.530429
Neighbor list builds = 0
Dangerous builds = 0
The dot product: -5.61840594977479e-11
Setting up cg style minimization ...
  Unit style    : metal
  Current step  : 3995
Per MPI rank memory allocation (min/avg/max) = 5.441 | 5.816 | 6.074 Mbytes
Step PotEng KinEng TotEng v_fx v_fy v_fz 
    3995   -1152449.3            0   -1152449.3   0.15966008 -0.081911929  -0.10445506 
    4000   -1152449.4            0   -1152449.4 0.0096163458 0.0041831513 0.0072732761 
    4211   -1152449.4            0   -1152449.4 -2.5707876e-05 -2.7022635e-05 -2.9599634e-05 
Loop time of 2.5322 on 104 procs for 216 steps with 288751 atoms

99.9% CPU use with 104 MPI tasks x 1 OpenMP threads

Minimization stats:
  Stopping criterion = energy tolerance
  Energy initial, next-to-last, final = 
      -1152449.3452252  -1152449.35157333  -1152449.35157333
  Force two-norm initial, final = 0.20763372 0.00013442695
  Force max component initial, final = 0.15966008 2.9599634e-05
  Final line search alpha, max atom move = 1.0000000 2.9599634e-05
  Iterations, force evaluations = 216 432

MPI task timing breakdown:
Section |  min time  |  avg time  |  max time  |%varavg| %total
---------------------------------------------------------------
Pair    | 0.66821    | 1.8212     | 2.3739     |  36.1 | 71.92
Neigh   | 0          | 0          | 0          |   0.0 |  0.00
Comm    | 0.039895   | 0.41038    | 1.2238     |  53.3 | 16.21
Output  | 0.0001842  | 0.00018702 | 0.00026285 |   0.0 |  0.01
Modify  | 2.4285e-05 | 0.0023223  | 0.0060091  |   3.0 |  0.09
Other   |            | 0.2981     |            |       | 11.77

Nlocal:        2776.45 ave        3960 max           0 min
Histogram: 8 4 4 0 4 12 8 2 28 34
Nghost:        3879.01 ave        5424 max         232 min
Histogram: 8 0 8 0 16 0 8 8 16 40
Neighs:        79213.4 ave      115434 max           0 min
Histogram: 8 4 4 0 10 6 8 8 24 32

Total # of neighbors = 8238190
Ave neighs/atom = 28.530429
Neighbor list builds = 0
Dangerous builds = 0
