LAMMPS (29 Oct 2020)
OMP_NUM_THREADS environment is not set. Defaulting to 1 thread. (../comm.cpp:94)
  using 1 OpenMP thread(s) per MPI task
OMP_NUM_THREADS environment is not set. Defaulting to 1 thread. (../comm.cpp:94)
  using 1 OpenMP thread(s) per MPI task
Reading data file ...
  orthogonal box = (-122.39241 -121.13707 -37.090501) to (122.39241 121.13707 37.090501)
  13 by 4 by 2 MPI processor grid
  reading atoms ...
  288751 atoms
  read_data CPU = 0.383 seconds
199981 atoms in group inner
88770 atoms in group outer
1 atoms in group carbon
Neighbor list info ...
  update every 1 steps, delay 0 steps, check yes
  max neighbors/atom: 2000, page size: 100000
  master list distance cutoff = 5.6
  ghost atom cutoff = 5.6
  binsize = 2.8, bins = 88 87 27
  1 neighbor lists, perpetual/occasional/extra = 1 0 0
  (1) pair eam/alloy, perpetual
      attributes: half, newton on
      pair build: half/bin/atomonly/newton
      stencil: half/bin/3d/newton
      bin: standard
Setting up cg style minimization ...
  Unit style    : metal
  Current step  : 0
Per MPI rank memory allocation (min/avg/max) = 5.441 | 5.816 | 6.074 Mbytes
Step v_fx v_fy v_fz PotEng KinEng TotEng 
       0    1.7695677  -0.78474488   -2.6021184   -1152447.8            0   -1152447.8 
     157 2.8877955e-05 -4.5897844e-08 -2.54903e-05   -1152449.5            0   -1152449.5 
Loop time of 1.85006 on 104 procs for 157 steps with 288751 atoms

99.8% CPU use with 104 MPI tasks x 1 OpenMP threads

Minimization stats:
  Stopping criterion = energy tolerance
  Energy initial, next-to-last, final = 
     -1152447.77573971  -1152449.45035285  -1152449.45035285
  Force two-norm initial, final = 10.239924 0.00015213266
  Force max component initial, final = 6.2445985 3.7319735e-05
  Final line search alpha, max atom move = 1.0000000 3.7319735e-05
  Iterations, force evaluations = 157 313

MPI task timing breakdown:
Section |  min time  |  avg time  |  max time  |%varavg| %total
---------------------------------------------------------------
Pair    | 0.49101    | 1.318      | 1.7114     |  30.5 | 71.24
Neigh   | 3.1278e-05 | 0.0087528  | 0.012664   |   3.9 |  0.47
Comm    | 0.031171   | 0.29956    | 0.89701    |  45.2 | 16.19
Output  | 0          | 0          | 0          |   0.0 |  0.00
Modify  | 1.9738e-05 | 0.0016911  | 0.0043247  |   2.6 |  0.09
Other   |            | 0.222      |            |       | 12.00

Nlocal:        2776.45 ave        3956 max           0 min
Histogram: 8 4 4 0 4 12 8 0 30 34
Nghost:        3879.03 ave        5425 max         232 min
Histogram: 8 0 8 0 16 0 8 8 16 40
Neighs:        79213.5 ave      115330 max           0 min
Histogram: 8 4 4 0 10 6 8 8 24 32

Total # of neighbors = 8238206
Ave neighs/atom = 28.530485
Neighbor list builds = 3
Dangerous builds = 0
Setting atom values ...
  1 settings made for x
  1 settings made for y
  1 settings made for z
Setting up cg style minimization ...
  Unit style    : metal
  Current step  : 157
Per MPI rank memory allocation (min/avg/max) = 5.441 | 5.816 | 6.074 Mbytes
Step PotEng KinEng TotEng v_fx v_fy v_fz 
     157   -1152449.4            0   -1152449.4  0.012444114 -0.016227979 -0.020784817 
     287   -1152449.5            0   -1152449.5 -2.3158697e-05 6.6744282e-06 -3.6432241e-05 
Loop time of 1.54014 on 104 procs for 130 steps with 288751 atoms

99.9% CPU use with 104 MPI tasks x 1 OpenMP threads

Minimization stats:
  Stopping criterion = energy tolerance
  Energy initial, next-to-last, final = 
     -1152449.44946998  -1152449.45002037  -1152449.45002037
  Force two-norm initial, final = 0.10824937 0.00016231561
  Force max component initial, final = 0.047637126 4.3216213e-05
  Final line search alpha, max atom move = 1.0000000 4.3216213e-05
  Iterations, force evaluations = 130 260

MPI task timing breakdown:
Section |  min time  |  avg time  |  max time  |%varavg| %total
---------------------------------------------------------------
Pair    | 0.39985    | 1.1005     | 1.4364     |  28.2 | 71.46
Neigh   | 0          | 0          | 0          |   0.0 |  0.00
Comm    | 0.028719   | 0.24872    | 0.73634    |  41.4 | 16.15
Output  | 0          | 0          | 0          |   0.0 |  0.00
Modify  | 1.5846e-05 | 0.0021493  | 0.0046021  |   2.2 |  0.14
Other   |            | 0.1888     |            |       | 12.26

Nlocal:        2776.45 ave        3959 max           0 min
Histogram: 8 4 4 0 4 12 8 2 28 34
Nghost:        3879.03 ave        5424 max         232 min
Histogram: 8 0 8 0 16 0 8 8 16 40
Neighs:        79213.4 ave      115406 max           0 min
Histogram: 8 4 4 0 10 6 8 8 24 32

Total # of neighbors = 8238197
Ave neighs/atom = 28.530454
Neighbor list builds = 0
Dangerous builds = 0
Setting atom values ...
  1 settings made for x
  1 settings made for y
  1 settings made for z
Setting up cg style minimization ...
  Unit style    : metal
  Current step  : 287
Per MPI rank memory allocation (min/avg/max) = 5.441 | 5.816 | 6.074 Mbytes
Step PotEng KinEng TotEng v_fx v_fy v_fz 
     287   -1152449.4            0   -1152449.4  0.021647536 -0.023251278 -0.033945022 
     463   -1152449.4            0   -1152449.4 1.6678945e-05 -1.4338916e-05 -8.4439734e-06 
Loop time of 2.03063 on 104 procs for 176 steps with 288751 atoms

99.9% CPU use with 104 MPI tasks x 1 OpenMP threads

Minimization stats:
  Stopping criterion = energy tolerance
  Energy initial, next-to-last, final = 
     -1152449.44665771  -1152449.44808484  -1152449.44808484
  Force two-norm initial, final = 0.17473111 0.00012033166
  Force max component initial, final = 0.079536505 2.3315772e-05
  Final line search alpha, max atom move = 1.0000000 2.3315772e-05
  Iterations, force evaluations = 176 352

MPI task timing breakdown:
Section |  min time  |  avg time  |  max time  |%varavg| %total
---------------------------------------------------------------
Pair    | 0.53551    | 1.4747     | 1.9182     |  32.7 | 72.62
Neigh   | 0          | 0          | 0          |   0.0 |  0.00
Comm    | 0.032515   | 0.33068    | 0.99696    |  48.6 | 16.28
Output  | 0          | 0          | 0          |   0.0 |  0.00
Modify  | 2.2253e-05 | 0.0029057  | 0.0062156  |   2.5 |  0.14
Other   |            | 0.2224     |            |       | 10.95

Nlocal:        2776.45 ave        3958 max           0 min
Histogram: 8 4 4 0 4 12 8 2 28 34
Nghost:        3879.03 ave        5424 max         232 min
Histogram: 8 0 8 0 16 0 8 8 16 40
Neighs:        79213.5 ave      115384 max           0 min
Histogram: 8 4 4 0 10 6 8 8 24 32

Total # of neighbors = 8238199
Ave neighs/atom = 28.530461
Neighbor list builds = 0
Dangerous builds = 0
The dot product: 2.53606295037116e-08
Setting atom values ...
  1 settings made for x
  1 settings made for y
  1 settings made for z
Setting up cg style minimization ...
  Unit style    : metal
  Current step  : 463
Per MPI rank memory allocation (min/avg/max) = 5.441 | 5.816 | 6.074 Mbytes
Step PotEng KinEng TotEng v_fx v_fy v_fz 
     463   -1152449.4            0   -1152449.4  0.021038788 -0.019079876 -0.031941318 
     581   -1152449.4            0   -1152449.4 1.6763093e-05 -1.502679e-05 -2.3779999e-05 
Loop time of 1.37642 on 104 procs for 118 steps with 288751 atoms

99.9% CPU use with 104 MPI tasks x 1 OpenMP threads

Minimization stats:
  Stopping criterion = energy tolerance
  Energy initial, next-to-last, final = 
     -1152449.44327946  -1152449.44465987  -1152449.44465987
  Force two-norm initial, final = 0.17152403 0.00014456926
  Force max component initial, final = 0.079142536 2.3779999e-05
  Final line search alpha, max atom move = 1.0000000 2.3779999e-05
  Iterations, force evaluations = 118 236

MPI task timing breakdown:
Section |  min time  |  avg time  |  max time  |%varavg| %total
---------------------------------------------------------------
Pair    | 0.35995    | 0.99814    | 1.2895     |  26.9 | 72.52
Neigh   | 0          | 0          | 0          |   0.0 |  0.00
Comm    | 0.024581   | 0.22407    | 0.68315    |  39.8 | 16.28
Output  | 0          | 0          | 0          |   0.0 |  0.00
Modify  | 1.4408e-05 | 0.0019575  | 0.0041764  |   2.1 |  0.14
Other   |            | 0.1522     |            |       | 11.06

Nlocal:        2776.45 ave        3957 max           0 min
Histogram: 8 4 4 0 4 12 8 2 28 34
Nghost:        3879.03 ave        5424 max         232 min
Histogram: 8 0 8 0 16 0 8 8 16 40
Neighs:        79213.5 ave      115361 max           0 min
Histogram: 8 4 4 0 10 6 8 8 24 32

Total # of neighbors = 8238199
Ave neighs/atom = 28.530461
Neighbor list builds = 0
Dangerous builds = 0
The dot product: 6.85218160292585e-08
Setting atom values ...
  1 settings made for x
  1 settings made for y
  1 settings made for z
Setting up cg style minimization ...
  Unit style    : metal
  Current step  : 581
Per MPI rank memory allocation (min/avg/max) = 5.441 | 5.816 | 6.074 Mbytes
Step PotEng KinEng TotEng v_fx v_fy v_fz 
     581   -1152449.4            0   -1152449.4  0.019628549 -0.015627826 -0.026313628 
     722   -1152449.4            0   -1152449.4 -1.1201022e-05 9.5181889e-06 3.9235957e-05 
Loop time of 1.62619 on 104 procs for 141 steps with 288751 atoms

99.9% CPU use with 104 MPI tasks x 1 OpenMP threads

Minimization stats:
  Stopping criterion = energy tolerance
  Energy initial, next-to-last, final = 
     -1152449.43854517  -1152449.43990915  -1152449.43990915
  Force two-norm initial, final = 0.16887775 0.00014663095
  Force max component initial, final = 0.077237475 3.9235957e-05
  Final line search alpha, max atom move = 1.0000000 3.9235957e-05
  Iterations, force evaluations = 141 282

MPI task timing breakdown:
Section |  min time  |  avg time  |  max time  |%varavg| %total
---------------------------------------------------------------
Pair    | 0.43614    | 1.185      | 1.5364     |  29.1 | 72.87
Neigh   | 0          | 0          | 0          |   0.0 |  0.00
Comm    | 0.026197   | 0.26385    | 0.79809    |  43.5 | 16.23
Output  | 0          | 0          | 0          |   0.0 |  0.00
Modify  | 1.7224e-05 | 0.0023246  | 0.0049614  |   2.3 |  0.14
Other   |            | 0.175      |            |       | 10.76

Nlocal:        2776.45 ave        3956 max           0 min
Histogram: 8 4 4 0 4 12 8 0 30 34
Nghost:        3879.03 ave        5424 max         232 min
Histogram: 8 0 8 0 16 0 8 8 16 40
Neighs:        79213.5 ave      115321 max           0 min
Histogram: 8 4 4 0 10 6 8 8 24 32

Total # of neighbors = 8238201
Ave neighs/atom = 28.530467
Neighbor list builds = 0
Dangerous builds = 0
The dot product: -1.14114592571177e-07
Setting atom values ...
  1 settings made for x
  1 settings made for y
  1 settings made for z
Setting up cg style minimization ...
  Unit style    : metal
  Current step  : 722
Per MPI rank memory allocation (min/avg/max) = 5.441 | 5.816 | 6.074 Mbytes
Step PotEng KinEng TotEng v_fx v_fy v_fz 
     722   -1152449.4            0   -1152449.4  0.017877953 -0.013495549 -0.019526556 
     892   -1152449.4            0   -1152449.4 9.6369076e-06 -7.776401e-06 3.7411173e-06 
Loop time of 1.98764 on 104 procs for 170 steps with 288751 atoms

99.9% CPU use with 104 MPI tasks x 1 OpenMP threads

Minimization stats:
  Stopping criterion = energy tolerance
  Energy initial, next-to-last, final = 
     -1152449.43244093  -1152449.43379698  -1152449.43379698
  Force two-norm initial, final = 0.16728839 0.00018745227
  Force max component initial, final = 0.074598823 4.2040508e-05
  Final line search alpha, max atom move = 1.0000000 4.2040508e-05
  Iterations, force evaluations = 170 340

MPI task timing breakdown:
Section |  min time  |  avg time  |  max time  |%varavg| %total
---------------------------------------------------------------
Pair    | 0.51901    | 1.4377     | 1.8557     |  32.3 | 72.33
Neigh   | 0          | 0          | 0          |   0.0 |  0.00
Comm    | 0.031677   | 0.32269    | 0.96495    |  47.7 | 16.23
Output  | 0          | 0          | 0          |   0.0 |  0.00
Modify  | 2.2688e-05 | 0.0028091  | 0.0060017  |   2.5 |  0.14
Other   |            | 0.2244     |            |       | 11.29

Nlocal:        2776.45 ave        3955 max           0 min
Histogram: 8 4 4 0 4 12 8 0 30 34
Nghost:        3879.03 ave        5424 max         232 min
Histogram: 8 0 8 0 16 0 8 8 16 40
Neighs:        79213.5 ave      115280 max           0 min
Histogram: 8 4 4 0 10 6 8 8 24 32

Total # of neighbors = 8238202
Ave neighs/atom = 28.530471
Neighbor list builds = 0
Dangerous builds = 0
The dot product: -3.72293226003889e-08
Setting atom values ...
  1 settings made for x
  1 settings made for y
  1 settings made for z
Setting up cg style minimization ...
  Unit style    : metal
  Current step  : 892
Per MPI rank memory allocation (min/avg/max) = 5.441 | 5.816 | 6.074 Mbytes
Step PotEng KinEng TotEng v_fx v_fy v_fz 
     892   -1152449.4            0   -1152449.4  0.016188657 -0.012380682 -0.013544378 
    1000   -1152449.4            0   -1152449.4 -2.3066008e-05 1.9441633e-05 -3.5483241e-06 
    1091   -1152449.4            0   -1152449.4 -4.0583474e-06 2.6531207e-06 9.1105683e-06 
Loop time of 2.30421 on 104 procs for 199 steps with 288751 atoms

99.9% CPU use with 104 MPI tasks x 1 OpenMP threads

Minimization stats:
  Stopping criterion = energy tolerance
  Energy initial, next-to-last, final = 
     -1152449.42492618  -1152449.42628293  -1152449.42628293
  Force two-norm initial, final = 0.16674809 5.6661388e-05
  Force max component initial, final = 0.074367468 1.2310192e-05
  Final line search alpha, max atom move = 1.0000000 1.2310192e-05
  Iterations, force evaluations = 199 398

MPI task timing breakdown:
Section |  min time  |  avg time  |  max time  |%varavg| %total
---------------------------------------------------------------
Pair    | 0.60545    | 1.6664     | 2.1632     |  34.7 | 72.32
Neigh   | 0          | 0          | 0          |   0.0 |  0.00
Comm    | 0.038017   | 0.37382    | 1.1284     |  51.4 | 16.22
Output  | 0.00015202 | 0.0001548  | 0.00029014 |   0.0 |  0.01
Modify  | 2.3351e-05 | 0.003283   | 0.0069933  |   2.7 |  0.14
Other   |            | 0.2605     |            |       | 11.31

Nlocal:        2776.45 ave        3954 max           0 min
Histogram: 8 4 4 0 4 12 8 0 30 34
Nghost:        3879.03 ave        5424 max         232 min
Histogram: 8 0 8 0 16 0 8 8 16 40
Neighs:        79213.5 ave      115241 max           0 min
Histogram: 8 4 4 0 10 6 8 8 24 32

Total # of neighbors = 8238201
Ave neighs/atom = 28.530467
Neighbor list builds = 0
Dangerous builds = 0
The dot product: -1.07671479749171e-08
Setting atom values ...
  1 settings made for x
  1 settings made for y
  1 settings made for z
Setting up cg style minimization ...
  Unit style    : metal
  Current step  : 1091
Per MPI rank memory allocation (min/avg/max) = 5.441 | 5.816 | 6.074 Mbytes
Step PotEng KinEng TotEng v_fx v_fy v_fz 
    1091   -1152449.4            0   -1152449.4  0.014774245 -0.011906887 -0.0087013655 
    1250   -1152449.4            0   -1152449.4 7.2177045e-06 -2.6685847e-06 -3.2653654e-05 
Loop time of 1.8342 on 104 procs for 159 steps with 288751 atoms

99.9% CPU use with 104 MPI tasks x 1 OpenMP threads

Minimization stats:
  Stopping criterion = energy tolerance
  Energy initial, next-to-last, final = 
     -1152449.41597214  -1152449.41733581  -1152449.41733581
  Force two-norm initial, final = 0.1667928 0.00017920786
  Force max component initial, final = 0.074748255 3.2653654e-05
  Final line search alpha, max atom move = 1.0000000 3.2653654e-05
  Iterations, force evaluations = 159 318

MPI task timing breakdown:
Section |  min time  |  avg time  |  max time  |%varavg| %total
---------------------------------------------------------------
Pair    | 0.48281    | 1.3369     | 1.739      |  31.1 | 72.89
Neigh   | 0          | 0          | 0          |   0.0 |  0.00
Comm    | 0.030161   | 0.29619    | 0.89425    |  46.4 | 16.15
Output  | 0          | 0          | 0          |   0.0 |  0.00
Modify  | 1.8743e-05 | 0.0026298  | 0.0056965  |   2.4 |  0.14
Other   |            | 0.1985     |            |       | 10.82

Nlocal:        2776.45 ave        3952 max           0 min
Histogram: 8 4 4 0 4 12 8 1 29 34
Nghost:        3879.03 ave        5424 max         232 min
Histogram: 8 0 8 0 16 0 8 8 16 40
Neighs:        79213.5 ave      115170 max           0 min
Histogram: 8 4 4 0 10 6 8 8 24 32

Total # of neighbors = 8238203
Ave neighs/atom = 28.530474
Neighbor list builds = 0
Dangerous builds = 0
The dot product: 4.78013249453651e-08
Setting atom values ...
  1 settings made for x
  1 settings made for y
  1 settings made for z
Setting up cg style minimization ...
  Unit style    : metal
  Current step  : 1250
Per MPI rank memory allocation (min/avg/max) = 5.441 | 5.816 | 6.074 Mbytes
Step PotEng KinEng TotEng v_fx v_fy v_fz 
    1250   -1152449.4            0   -1152449.4  0.013929914 -0.012019129 -0.0050479539 
    1527   -1152449.4            0   -1152449.4 -5.7481692e-08 2.0194322e-08 2.3893898e-07 
Loop time of 3.22193 on 104 procs for 277 steps with 288751 atoms

99.9% CPU use with 104 MPI tasks x 1 OpenMP threads

Minimization stats:
  Stopping criterion = energy tolerance
  Energy initial, next-to-last, final = 
     -1152449.40555836   -1152449.4069302   -1152449.4069302
  Force two-norm initial, final = 0.1671332 2.1568005e-06
  Force max component initial, final = 0.074721519 3.0491474e-07
  Final line search alpha, max atom move = 1.0000000 3.0491474e-07
  Iterations, force evaluations = 277 554

MPI task timing breakdown:
Section |  min time  |  avg time  |  max time  |%varavg| %total
---------------------------------------------------------------
Pair    | 0.84278    | 2.3234     | 3.0123     |  40.9 | 72.11
Neigh   | 0          | 0          | 0          |   0.0 |  0.00
Comm    | 0.055277   | 0.52224    | 1.5704     |  60.7 | 16.21
Output  | 0          | 0          | 0          |   0.0 |  0.00
Modify  | 3.4311e-05 | 0.0045704  | 0.0097894  |   3.2 |  0.14
Other   |            | 0.3717     |            |       | 11.54

Nlocal:        2776.45 ave        3951 max           0 min
Histogram: 8 4 4 0 4 12 8 1 29 34
Nghost:        3879.03 ave        5424 max         232 min
Histogram: 8 0 8 0 16 0 8 8 16 40
Neighs:        79213.5 ave      115137 max           0 min
Histogram: 8 4 4 0 10 6 8 8 24 32

Total # of neighbors = 8238201
Ave neighs/atom = 28.530467
Neighbor list builds = 0
Dangerous builds = 0
The dot product: -2.65408158744117e-10
Setting atom values ...
  1 settings made for x
  1 settings made for y
  1 settings made for z
Setting up cg style minimization ...
  Unit style    : metal
  Current step  : 1527
Per MPI rank memory allocation (min/avg/max) = 5.441 | 5.816 | 6.074 Mbytes
Step PotEng KinEng TotEng v_fx v_fy v_fz 
    1527   -1152449.4            0   -1152449.4   0.01386493 -0.012774368 -0.0025041786 
    1647   -1152449.4            0   -1152449.4 -2.7739816e-05 1.8876621e-05 4.8418988e-05 
Loop time of 1.39272 on 104 procs for 120 steps with 288751 atoms

99.9% CPU use with 104 MPI tasks x 1 OpenMP threads

Minimization stats:
  Stopping criterion = energy tolerance
  Energy initial, next-to-last, final = 
     -1152449.39366433  -1152449.39504265  -1152449.39504265
  Force two-norm initial, final = 0.16755049 0.00022663021
  Force max component initial, final = 0.074533058 5.4627304e-05
  Final line search alpha, max atom move = 1.0000000 5.4627304e-05
  Iterations, force evaluations = 120 240

MPI task timing breakdown:
Section |  min time  |  avg time  |  max time  |%varavg| %total
---------------------------------------------------------------
Pair    | 0.36557    | 1.0138     | 1.3129     |  27.1 | 72.80
Neigh   | 0          | 0          | 0          |   0.0 |  0.00
Comm    | 0.022037   | 0.2245     | 0.68369    |  40.5 | 16.12
Output  | 0          | 0          | 0          |   0.0 |  0.00
Modify  | 1.4316e-05 | 0.0019836  | 0.0042632  |   2.1 |  0.14
Other   |            | 0.1524     |            |       | 10.94

Nlocal:        2776.45 ave        3949 max           0 min
Histogram: 8 4 4 0 4 12 8 2 26 36
Nghost:        3879.03 ave        5424 max         232 min
Histogram: 8 0 8 0 16 0 8 8 16 40
Neighs:        79213.5 ave      115072 max           0 min
Histogram: 8 4 4 0 10 6 8 8 24 32

Total # of neighbors = 8238202
Ave neighs/atom = 28.530471
Neighbor list builds = 0
Dangerous builds = 0
The dot product: 1.7788418153325e-08
Setting atom values ...
  1 settings made for x
  1 settings made for y
  1 settings made for z
Setting up cg style minimization ...
  Unit style    : metal
  Current step  : 1647
Per MPI rank memory allocation (min/avg/max) = 5.441 | 5.816 | 6.074 Mbytes
Step PotEng KinEng TotEng v_fx v_fy v_fz 
    1647   -1152449.4            0   -1152449.4   0.01449403 -0.014131822 -0.00054563252 
    1771   -1152449.4            0   -1152449.4 -4.1850241e-05 2.9582188e-05 6.7828101e-05 
Loop time of 1.43261 on 104 procs for 124 steps with 288751 atoms

99.9% CPU use with 104 MPI tasks x 1 OpenMP threads

Minimization stats:
  Stopping criterion = energy tolerance
  Energy initial, next-to-last, final = 
     -1152449.38027058  -1152449.38165399  -1152449.38165399
  Force two-norm initial, final = 0.16795261 0.00027394709
  Force max component initial, final = 0.074369628 6.7828101e-05
  Final line search alpha, max atom move = 1.0000000 6.7828101e-05
  Iterations, force evaluations = 124 248

MPI task timing breakdown:
Section |  min time  |  avg time  |  max time  |%varavg| %total
---------------------------------------------------------------
Pair    | 0.37832    | 1.0433     | 1.3554     |  27.6 | 72.82
Neigh   | 0          | 0          | 0          |   0.0 |  0.00
Comm    | 0.022969   | 0.23302    | 0.70925    |  41.1 | 16.27
Output  | 0          | 0          | 0          |   0.0 |  0.00
Modify  | 1.4809e-05 | 0.0020511  | 0.0043966  |   2.1 |  0.14
Other   |            | 0.1543     |            |       | 10.77

Nlocal:        2776.45 ave        3948 max           0 min
Histogram: 8 4 4 0 4 12 8 2 26 36
Nghost:        3879.03 ave        5424 max         232 min
Histogram: 8 0 8 0 16 0 8 8 16 40
Neighs:        79213.5 ave      115044 max           0 min
Histogram: 8 4 4 0 10 6 8 8 24 32

Total # of neighbors = 8238203
Ave neighs/atom = 28.530474
Neighbor list builds = 0
Dangerous builds = 0
The dot product: 2.41218396769096e-08
Setting atom values ...
  1 settings made for x
  1 settings made for y
  1 settings made for z
Setting up cg style minimization ...
  Unit style    : metal
  Current step  : 1771
Per MPI rank memory allocation (min/avg/max) = 5.441 | 5.816 | 6.074 Mbytes
Step PotEng KinEng TotEng v_fx v_fy v_fz 
    1771   -1152449.4            0   -1152449.4  0.015515967 -0.015729694 0.00052989305 
    1929   -1152449.4            0   -1152449.4 -2.6955923e-05 1.496165e-05 6.6697587e-05 
Loop time of 1.8374 on 104 procs for 158 steps with 288751 atoms

99.9% CPU use with 104 MPI tasks x 1 OpenMP threads

Minimization stats:
  Stopping criterion = energy tolerance
  Energy initial, next-to-last, final = 
     -1152449.36535988  -1152449.36674775  -1152449.36674775
  Force two-norm initial, final = 0.16833247 0.00026310378
  Force max component initial, final = 0.074351069 6.6697587e-05
  Final line search alpha, max atom move = 1.0000000 6.6697587e-05
  Iterations, force evaluations = 158 316

MPI task timing breakdown:
Section |  min time  |  avg time  |  max time  |%varavg| %total
---------------------------------------------------------------
Pair    | 0.48401    | 1.3325     | 1.7316     |  31.0 | 72.52
Neigh   | 0          | 0          | 0          |   0.0 |  0.00
Comm    | 0.031703   | 0.29967    | 0.89295    |  45.7 | 16.31
Output  | 0          | 0          | 0          |   0.0 |  0.00
Modify  | 1.8492e-05 | 0.0026015  | 0.0055447  |   2.4 |  0.14
Other   |            | 0.2026     |            |       | 11.03

Nlocal:        2776.45 ave        3946 max           0 min
Histogram: 8 4 4 0 4 12 8 2 26 36
Nghost:        3879.03 ave        5424 max         232 min
Histogram: 8 0 8 0 16 0 8 8 16 40
Neighs:        79213.5 ave      114989 max           0 min
Histogram: 8 4 4 0 10 6 8 8 24 32

Total # of neighbors = 8238204
Ave neighs/atom = 28.530478
Neighbor list builds = 0
Dangerous builds = 0
The dot product: -4.31468484116196e-08
Setting atom values ...
  1 settings made for x
  1 settings made for y
  1 settings made for z
Setting up cg style minimization ...
  Unit style    : metal
  Current step  : 1929
Per MPI rank memory allocation (min/avg/max) = 5.441 | 5.816 | 6.074 Mbytes
Step PotEng KinEng TotEng v_fx v_fy v_fz 
    1929   -1152449.3            0   -1152449.3  0.016232836 -0.016830831 0.00067113428 
    2000   -1152449.4            0   -1152449.4 5.2528887e-05 -4.5935151e-05 -4.1375892e-05 
    2092   -1152449.4            0   -1152449.4 -1.3783536e-05 1.7254099e-05 -1.569772e-05 
Loop time of 1.86661 on 104 procs for 163 steps with 288751 atoms

99.9% CPU use with 104 MPI tasks x 1 OpenMP threads

Minimization stats:
  Stopping criterion = energy tolerance
  Energy initial, next-to-last, final = 
     -1152449.34890904  -1152449.35030134  -1152449.35030134
  Force two-norm initial, final = 0.16859506 0.00021493363
  Force max component initial, final = 0.074403312 4.5155004e-05
  Final line search alpha, max atom move = 1.0000000 4.5155004e-05
  Iterations, force evaluations = 163 326

MPI task timing breakdown:
Section |  min time  |  avg time  |  max time  |%varavg| %total
---------------------------------------------------------------
Pair    | 0.49628    | 1.3636     | 1.7674     |  31.4 | 73.05
Neigh   | 0          | 0          | 0          |   0.0 |  0.00
Comm    | 0.029418   | 0.30193    | 0.91824    |  47.0 | 16.18
Output  | 9.0632e-05 | 9.8393e-05 | 0.00021452 |   0.0 |  0.01
Modify  | 1.9186e-05 | 0.0026893  | 0.00573    |   2.5 |  0.14
Other   |            | 0.1983     |            |       | 10.63

Nlocal:        2776.45 ave        3944 max           0 min
Histogram: 8 4 4 0 4 12 8 2 26 36
Nghost:        3879.03 ave        5424 max         232 min
Histogram: 8 0 8 0 16 0 8 8 16 40
Neighs:        79213.5 ave      114940 max           0 min
Histogram: 8 4 4 0 10 6 8 8 22 34

Total # of neighbors = 8238204
Ave neighs/atom = 28.530478
Neighbor list builds = 0
Dangerous builds = 0
The dot product: 7.69987360324006e-08
Setting atom values ...
  1 settings made for x
  1 settings made for y
  1 settings made for z
Setting up cg style minimization ...
  Unit style    : metal
  Current step  : 2092
Per MPI rank memory allocation (min/avg/max) = 5.441 | 5.816 | 6.074 Mbytes
Step PotEng KinEng TotEng v_fx v_fy v_fz 
    2092   -1152449.3            0   -1152449.3  0.016136828 -0.016877609 -0.00015312228 
    2273   -1152449.3            0   -1152449.3 8.5808108e-06 -5.044777e-06 -1.8806239e-05 
Loop time of 2.07776 on 104 procs for 181 steps with 288751 atoms

99.9% CPU use with 104 MPI tasks x 1 OpenMP threads

Minimization stats:
  Stopping criterion = energy tolerance
  Energy initial, next-to-last, final = 
     -1152449.33089052  -1152449.33230199  -1152449.33230199
  Force two-norm initial, final = 0.16870507 0.00014219642
  Force max component initial, final = 0.074486088 3.3001413e-05
  Final line search alpha, max atom move = 1.0000000 3.3001413e-05
  Iterations, force evaluations = 181 362

MPI task timing breakdown:
Section |  min time  |  avg time  |  max time  |%varavg| %total
---------------------------------------------------------------
Pair    | 0.55019    | 1.521      | 1.9699     |  33.2 | 73.20
Neigh   | 0          | 0          | 0          |   0.0 |  0.00
Comm    | 0.033406   | 0.33675    | 1.0252     |  49.7 | 16.21
Output  | 0          | 0          | 0          |   0.0 |  0.00
Modify  | 2.1913e-05 | 0.0029853  | 0.006372   |   2.6 |  0.14
Other   |            | 0.2171     |            |       | 10.45

Nlocal:        2776.45 ave        3942 max           0 min
Histogram: 8 4 4 0 4 12 8 2 26 36
Nghost:        3879.03 ave        5424 max         232 min
Histogram: 8 0 8 0 16 0 8 8 16 40
Neighs:        79213.5 ave      114874 max           0 min
Histogram: 8 4 4 0 10 6 8 8 22 34

Total # of neighbors = 8238202
Ave neighs/atom = 28.530471
Neighbor list builds = 0
Dangerous builds = 0
The dot product: 3.00469370016554e-08
Setting atom values ...
  1 settings made for x
  1 settings made for y
  1 settings made for z
Setting up cg style minimization ...
  Unit style    : metal
  Current step  : 2273
Per MPI rank memory allocation (min/avg/max) = 5.441 | 5.816 | 6.074 Mbytes
Step PotEng KinEng TotEng v_fx v_fy v_fz 
    2273   -1152449.3            0   -1152449.3  0.013886498 -0.013898306 -0.0043009402 
    2473   -1152449.3            0   -1152449.3 1.3160838e-06 -1.7952576e-06 1.6677561e-06 
Loop time of 2.29449 on 104 procs for 200 steps with 288751 atoms

99.9% CPU use with 104 MPI tasks x 1 OpenMP threads

Minimization stats:
  Stopping criterion = energy tolerance
  Energy initial, next-to-last, final = 
     -1152449.31130171  -1152449.31286869  -1152449.31286869
  Force two-norm initial, final = 0.1686333 8.3528137e-05
  Force max component initial, final = 0.074299981 1.2577397e-05
  Final line search alpha, max atom move = 1.0000000 1.2577397e-05
  Iterations, force evaluations = 200 400

MPI task timing breakdown:
Section |  min time  |  avg time  |  max time  |%varavg| %total
---------------------------------------------------------------
Pair    | 0.60635    | 1.6735     | 2.1681     |  34.9 | 72.93
Neigh   | 0          | 0          | 0          |   0.0 |  0.00
Comm    | 0.036196   | 0.37385    | 1.1356     |  52.0 | 16.29
Output  | 0          | 0          | 0          |   0.0 |  0.00
Modify  | 2.3559e-05 | 0.003301   | 0.0070269  |   2.7 |  0.14
Other   |            | 0.2439     |            |       | 10.63

Nlocal:        2776.45 ave        3936 max           0 min
Histogram: 8 4 4 0 4 12 8 0 28 36
Nghost:        3879.07 ave        5424 max         232 min
Histogram: 8 0 8 0 16 0 8 8 16 40
Neighs:        79213.4 ave      114664 max           0 min
Histogram: 8 4 4 0 8 8 8 8 22 34

Total # of neighbors = 8238196
Ave neighs/atom = 28.530450
Neighbor list builds = 0
Dangerous builds = 0
The dot product: -3.42515570701357e-08
Setting atom values ...
  1 settings made for x
  1 settings made for y
  1 settings made for z
Setting up cg style minimization ...
  Unit style    : metal
  Current step  : 2473
Per MPI rank memory allocation (min/avg/max) = 5.441 | 5.816 | 6.074 Mbytes
Step PotEng KinEng TotEng v_fx v_fy v_fz 
    2473   -1152449.3            0   -1152449.3 -0.0018269647  0.010034215 -0.027512419 
    2689   -1152449.3            0   -1152449.3 1.1398152e-05 -3.3973121e-06 -3.3482763e-05 
Loop time of 2.47225 on 104 procs for 216 steps with 288751 atoms

99.9% CPU use with 104 MPI tasks x 1 OpenMP threads

Minimization stats:
  Stopping criterion = energy tolerance
  Energy initial, next-to-last, final = 
     -1152449.29038836  -1152449.29270745  -1152449.29270745
  Force two-norm initial, final = 0.17084068 8.8370523e-05
  Force max component initial, final = 0.072050978 3.3482763e-05
  Final line search alpha, max atom move = 1.0000000 3.3482763e-05
  Iterations, force evaluations = 216 432

MPI task timing breakdown:
Section |  min time  |  avg time  |  max time  |%varavg| %total
---------------------------------------------------------------
Pair    | 0.65732    | 1.8137     | 2.3322     |  36.2 | 73.36
Neigh   | 0          | 0          | 0          |   0.0 |  0.00
Comm    | 0.03906    | 0.40107    | 1.2267     |  54.5 | 16.22
Output  | 0          | 0          | 0          |   0.0 |  0.00
Modify  | 2.6723e-05 | 0.003562   | 0.0076015  |   2.8 |  0.14
Other   |            | 0.2539     |            |       | 10.27

Nlocal:        2776.45 ave        3930 max           0 min
Histogram: 8 4 4 0 4 12 8 0 26 38
Nghost:        3879.07 ave        5424 max         232 min
Histogram: 8 0 8 0 16 0 8 8 16 40
Neighs:        79213.5 ave      114455 max           0 min
Histogram: 8 4 4 0 8 8 8 8 20 36

Total # of neighbors = 8238199
Ave neighs/atom = 28.530461
Neighbor list builds = 0
Dangerous builds = 0
The dot product: 3.7228135977144e-07
Setting atom values ...
  1 settings made for x
  1 settings made for y
  1 settings made for z
Setting up cg style minimization ...
  Unit style    : metal
  Current step  : 2689
Per MPI rank memory allocation (min/avg/max) = 5.441 | 5.816 | 6.074 Mbytes
Step PotEng KinEng TotEng v_fx v_fy v_fz 
    2689   -1152449.3            0   -1152449.3 -0.025286165   0.05833113 -0.059012783 
    2891   -1152449.3            0   -1152449.3 1.7381097e-05 -3.5845698e-06 -4.6940843e-05 
Loop time of 2.31945 on 104 procs for 202 steps with 288751 atoms

99.9% CPU use with 104 MPI tasks x 1 OpenMP threads

Minimization stats:
  Stopping criterion = energy tolerance
  Energy initial, next-to-last, final = 
     -1152449.26907962  -1152449.27259665  -1152449.27259665
  Force two-norm initial, final = 0.19066632 0.00017565903
  Force max component initial, final = 0.078929314 4.6940843e-05
  Final line search alpha, max atom move = 1.0000000 4.6940843e-05
  Iterations, force evaluations = 202 404

MPI task timing breakdown:
Section |  min time  |  avg time  |  max time  |%varavg| %total
---------------------------------------------------------------
Pair    | 0.61694    | 1.6907     | 2.1878     |  34.9 | 72.89
Neigh   | 0          | 0          | 0          |   0.0 |  0.00
Comm    | 0.037168   | 0.37569    | 1.1428     |  52.2 | 16.20
Output  | 0          | 0          | 0          |   0.0 |  0.00
Modify  | 2.3952e-05 | 0.0033359  | 0.0070995  |   2.7 |  0.14
Other   |            | 0.2498     |            |       | 10.77

Nlocal:        2776.45 ave        3930 max           0 min
Histogram: 8 4 4 0 4 12 8 0 26 38
Nghost:        3879.11 ave        5425 max         232 min
Histogram: 8 0 8 0 16 0 8 8 16 40
Neighs:        79213.4 ave      114456 max           0 min
Histogram: 8 4 4 0 8 8 8 8 20 36

Total # of neighbors = 8238195
Ave neighs/atom = 28.530447
Neighbor list builds = 0
Dangerous builds = 0
The dot product: 5.7734235198747e-07
Setting atom values ...
  1 settings made for x
  1 settings made for y
  1 settings made for z
Setting up cg style minimization ...
  Unit style    : metal
  Current step  : 2891
Per MPI rank memory allocation (min/avg/max) = 5.441 | 5.816 | 6.074 Mbytes
Step PotEng KinEng TotEng v_fx v_fy v_fz 
    2891   -1152449.2            0   -1152449.2 -0.031744379  0.091147627 -0.064457575 
    3000   -1152449.3            0   -1152449.3 -1.7376691e-05 -7.4739903e-05 0.00016971563 
    3104   -1152449.3            0   -1152449.3 -8.5404475e-06 2.1461267e-06 1.9462957e-05 
Loop time of 2.47818 on 104 procs for 213 steps with 288751 atoms

99.9% CPU use with 104 MPI tasks x 1 OpenMP threads

Minimization stats:
  Stopping criterion = energy tolerance
  Energy initial, next-to-last, final = 
      -1152449.2479807  -1152449.25210645  -1152449.25210645
  Force two-norm initial, final = 0.20676479 0.00013098168
  Force max component initial, final = 0.091147627 3.3419822e-05
  Final line search alpha, max atom move = 1.0000000 3.3419822e-05
  Iterations, force evaluations = 213 426

MPI task timing breakdown:
Section |  min time  |  avg time  |  max time  |%varavg| %total
---------------------------------------------------------------
Pair    | 0.64727    | 1.7982     | 2.33       |  36.2 | 72.56
Neigh   | 0          | 0          | 0          |   0.0 |  0.00
Comm    | 0.048596   | 0.40088    | 1.2228     |  53.7 | 16.18
Output  | 0.00010899 | 0.00011201 | 0.00023988 |   0.0 |  0.00
Modify  | 2.5931e-05 | 0.0035117  | 0.0075313  |   2.8 |  0.14
Other   |            | 0.2755     |            |       | 11.12

Nlocal:        2776.45 ave        3936 max           0 min
Histogram: 8 4 4 0 4 12 8 0 28 36
Nghost:        3879.14 ave        5425 max         232 min
Histogram: 8 0 8 0 16 0 8 8 16 40
Neighs:        79213.4 ave      114639 max           0 min
Histogram: 8 4 4 0 8 8 8 8 20 36

Total # of neighbors = 8238198
Ave neighs/atom = 28.530457
Neighbor list builds = 0
Dangerous builds = 0
The dot product: -2.07483293510231e-07
Setting atom values ...
  1 settings made for x
  1 settings made for y
  1 settings made for z
Setting up cg style minimization ...
  Unit style    : metal
  Current step  : 3104
Per MPI rank memory allocation (min/avg/max) = 5.441 | 5.816 | 6.074 Mbytes
Step PotEng KinEng TotEng v_fx v_fy v_fz 
    3104   -1152449.2            0   -1152449.2  -0.02554434   0.10297305 -0.056978967 
    3305   -1152449.2            0   -1152449.2 -1.4258311e-05 -5.1181262e-06 3.953414e-05 
Loop time of 2.32803 on 104 procs for 201 steps with 288751 atoms

99.9% CPU use with 104 MPI tasks x 1 OpenMP threads

Minimization stats:
  Stopping criterion = energy tolerance
  Energy initial, next-to-last, final = 
       -1152449.226771   -1152449.2307958   -1152449.2307958
  Force two-norm initial, final = 0.20960352 0.00019080563
  Force max component initial, final = 0.10297305 5.4912635e-05
  Final line search alpha, max atom move = 1.0000000 5.4912635e-05
  Iterations, force evaluations = 201 402

MPI task timing breakdown:
Section |  min time  |  avg time  |  max time  |%varavg| %total
---------------------------------------------------------------
Pair    | 0.61089    | 1.6858     | 2.196      |  35.1 | 72.41
Neigh   | 0          | 0          | 0          |   0.0 |  0.00
Comm    | 0.037979   | 0.3787     | 1.1524     |  52.0 | 16.27
Output  | 0          | 0          | 0          |   0.0 |  0.00
Modify  | 2.4553e-05 | 0.0033173  | 0.0071596  |   2.7 |  0.14
Other   |            | 0.2602     |            |       | 11.18

Nlocal:        2776.45 ave        3944 max           0 min
Histogram: 8 4 4 0 4 12 8 2 26 36
Nghost:        3879.11 ave        5425 max         232 min
Histogram: 8 0 8 0 16 0 8 8 16 40
Neighs:        79213.5 ave      114923 max           0 min
Histogram: 8 4 4 0 10 6 8 8 22 34

Total # of neighbors = 8238203
Ave neighs/atom = 28.530474
Neighbor list builds = 0
Dangerous builds = 0
The dot product: -6.88549808700895e-07
Setting atom values ...
  1 settings made for x
  1 settings made for y
  1 settings made for z
Setting up cg style minimization ...
  Unit style    : metal
  Current step  : 3305
Per MPI rank memory allocation (min/avg/max) = 5.441 | 5.816 | 6.074 Mbytes
Step PotEng KinEng TotEng v_fx v_fy v_fz 
    3305   -1152449.2            0   -1152449.2 -0.015459897  0.094075352  -0.04319956 
    3517   -1152449.2            0   -1152449.2 2.4786237e-06 4.1359497e-07 -5.6535656e-06 
Loop time of 2.45355 on 104 procs for 212 steps with 288751 atoms

99.9% CPU use with 104 MPI tasks x 1 OpenMP threads

Minimization stats:
  Stopping criterion = energy tolerance
  Energy initial, next-to-last, final = 
     -1152449.20475246  -1152449.20820005  -1152449.20820005
  Force two-norm initial, final = 0.20088176 0.00012318819
  Force max component initial, final = 0.11008539 1.4036723e-05
  Final line search alpha, max atom move = 1.0000000 1.4036723e-05
  Iterations, force evaluations = 212 424

MPI task timing breakdown:
Section |  min time  |  avg time  |  max time  |%varavg| %total
---------------------------------------------------------------
Pair    | 0.644      | 1.7894     | 2.3248     |  36.1 | 72.93
Neigh   | 0          | 0          | 0          |   0.0 |  0.00
Comm    | 0.040328   | 0.39678    | 1.2089     |  53.6 | 16.17
Output  | 0          | 0          | 0          |   0.0 |  0.00
Modify  | 2.5942e-05 | 0.0034967  | 0.0075237  |   2.8 |  0.14
Other   |            | 0.2638     |            |       | 10.75

Nlocal:        2776.45 ave        3949 max           0 min
Histogram: 8 4 4 0 4 12 8 2 26 36
Nghost:        3879.05 ave        5425 max         232 min
Histogram: 8 0 8 0 16 0 8 8 16 40
Neighs:        79213.5 ave      115055 max           0 min
Histogram: 8 4 4 0 10 6 8 8 24 32

Total # of neighbors = 8238206
Ave neighs/atom = 28.530485
Neighbor list builds = 0
Dangerous builds = 0
The dot product: 8.44332744781769e-08
Setting atom values ...
  1 settings made for x
  1 settings made for y
  1 settings made for z
Setting up cg style minimization ...
  Unit style    : metal
  Current step  : 3517
Per MPI rank memory allocation (min/avg/max) = 5.441 | 5.816 | 6.074 Mbytes
Step PotEng KinEng TotEng v_fx v_fy v_fz 
    3517   -1152449.2            0   -1152449.2 -0.0059951386  0.077720711 -0.034130898 
    3717   -1152449.2            0   -1152449.2 2.3170788e-06 -2.8955426e-06 -2.8679803e-06 
Loop time of 2.30841 on 104 procs for 200 steps with 288751 atoms

99.9% CPU use with 104 MPI tasks x 1 OpenMP threads

Minimization stats:
  Stopping criterion = energy tolerance
  Energy initial, next-to-last, final = 
      -1152449.1815519  -1152449.18464385  -1152449.18464385
  Force two-norm initial, final = 0.19074239 0.00014091521
  Force max component initial, final = 0.11588865 1.3938434e-05
  Final line search alpha, max atom move = 1.0000000 1.3938434e-05
  Iterations, force evaluations = 200 400

MPI task timing breakdown:
Section |  min time  |  avg time  |  max time  |%varavg| %total
---------------------------------------------------------------
Pair    | 0.61041    | 1.6827     | 2.1886     |  35.0 | 72.90
Neigh   | 0          | 0          | 0          |   0.0 |  0.00
Comm    | 0.037525   | 0.37714    | 1.1343     |  52.1 | 16.34
Output  | 0          | 0          | 0          |   0.0 |  0.00
Modify  | 2.3572e-05 | 0.0032972  | 0.0070632  |   2.7 |  0.14
Other   |            | 0.2452     |            |       | 10.62

Nlocal:        2776.45 ave        3953 max           0 min
Histogram: 8 4 4 0 4 12 8 2 28 34
Nghost:        3879.05 ave        5426 max         232 min
Histogram: 8 0 8 0 16 0 8 8 16 40
Neighs:        79213.5 ave      115183 max           0 min
Histogram: 8 4 4 0 10 6 8 8 24 32

Total # of neighbors = 8238206
Ave neighs/atom = 28.530485
Neighbor list builds = 0
Dangerous builds = 0
The dot product: -1.89207226538556e-08
Setting atom values ...
  1 settings made for x
  1 settings made for y
  1 settings made for z
Setting up cg style minimization ...
  Unit style    : metal
  Current step  : 3717
Per MPI rank memory allocation (min/avg/max) = 5.441 | 5.816 | 6.074 Mbytes
Step PotEng KinEng TotEng v_fx v_fy v_fz 
    3717   -1152449.2            0   -1152449.2 0.0025057455  0.063920922 -0.032439023 
    3909   -1152449.2            0   -1152449.2 2.0552626e-05 -5.4752587e-06 -3.5136844e-05 
Loop time of 2.20432 on 104 procs for 192 steps with 288751 atoms

99.9% CPU use with 104 MPI tasks x 1 OpenMP threads

Minimization stats:
  Stopping criterion = energy tolerance
  Energy initial, next-to-last, final = 
     -1152449.15753251  -1152449.16026806  -1152449.16026806
  Force two-norm initial, final = 0.18405536 0.00015991166
  Force max component initial, final = 0.12001383 3.9348102e-05
  Final line search alpha, max atom move = 1.0000000 3.9348102e-05
  Iterations, force evaluations = 192 384

MPI task timing breakdown:
Section |  min time  |  avg time  |  max time  |%varavg| %total
---------------------------------------------------------------
Pair    | 0.58346    | 1.6105     | 2.0884     |  34.1 | 73.06
Neigh   | 0          | 0          | 0          |   0.0 |  0.00
Comm    | 0.036849   | 0.3548     | 1.0758     |  51.3 | 16.10
Output  | 0          | 0          | 0          |   0.0 |  0.00
Modify  | 2.2743e-05 | 0.0031705  | 0.0067895  |   2.7 |  0.14
Other   |            | 0.2358     |            |       | 10.70

Nlocal:        2776.45 ave        3955 max           0 min
Histogram: 8 4 4 0 4 12 8 2 28 34
Nghost:        3878.99 ave        5425 max         232 min
Histogram: 8 0 8 0 16 0 8 8 16 40
Neighs:        79213.6 ave      115258 max           0 min
Histogram: 8 4 4 0 10 6 8 8 24 32

Total # of neighbors = 8238211
Ave neighs/atom = 28.530502
Neighbor list builds = 0
Dangerous builds = 0
The dot product: 4.63777940295238e-07
Setting atom values ...
  1 settings made for x
  1 settings made for y
  1 settings made for z
Setting up cg style minimization ...
  Unit style    : metal
  Current step  : 3909
Per MPI rank memory allocation (min/avg/max) = 5.441 | 5.816 | 6.074 Mbytes
Step PotEng KinEng TotEng v_fx v_fy v_fz 
    3909   -1152449.1            0   -1152449.1 0.0087417368  0.056051251  -0.03270379 
    4000   -1152449.1            0   -1152449.1 -0.00012671729 2.5085133e-05 0.0002059508 
    4157   -1152449.1            0   -1152449.1 1.7653863e-06 -3.2927255e-07 -2.875711e-06 
Loop time of 2.87924 on 104 procs for 248 steps with 288751 atoms

99.9% CPU use with 104 MPI tasks x 1 OpenMP threads

Minimization stats:
  Stopping criterion = energy tolerance
  Energy initial, next-to-last, final = 
     -1152449.13243643  -1152449.13490528  -1152449.13490528
  Force two-norm initial, final = 0.18140004 1.5919436e-05
  Force max component initial, final = 0.124185 2.8757110e-06
  Final line search alpha, max atom move = 1.0000000 2.8757110e-06
  Iterations, force evaluations = 248 496

MPI task timing breakdown:
Section |  min time  |  avg time  |  max time  |%varavg| %total
---------------------------------------------------------------
Pair    | 0.75406    | 2.0798     | 2.7038     |  38.8 | 72.24
Neigh   | 0          | 0          | 0          |   0.0 |  0.00
Comm    | 0.046789   | 0.46619    | 1.4134     |  57.7 | 16.19
Output  | 0.00010705 | 0.00011004 | 0.00023466 |   0.0 |  0.00
Modify  | 2.8894e-05 | 0.0040877  | 0.0087813  |   3.0 |  0.14
Other   |            | 0.329      |            |       | 11.43

Nlocal:        2776.45 ave        3956 max           0 min
Histogram: 8 4 4 0 4 12 8 2 28 34
Nghost:        3878.99 ave        5425 max         232 min
Histogram: 8 0 8 0 16 0 8 8 16 40
Neighs:        79213.6 ave      115305 max           0 min
Histogram: 8 4 4 0 10 6 8 8 24 32

Total # of neighbors = 8238214
Ave neighs/atom = 28.530512
Neighbor list builds = 0
Dangerous builds = 0
The dot product: 4.1140017548206e-08
Setting atom values ...
  1 settings made for x
  1 settings made for y
  1 settings made for z
Setting up cg style minimization ...
  Unit style    : metal
  Current step  : 4157
Per MPI rank memory allocation (min/avg/max) = 5.441 | 5.816 | 6.074 Mbytes
Step PotEng KinEng TotEng v_fx v_fy v_fz 
    4157   -1152449.1            0   -1152449.1  0.011392767  0.046550742 -0.028947273 
    4386   -1152449.1            0   -1152449.1 2.0700424e-06 6.9096525e-07 -3.4220308e-06 
Loop time of 2.65779 on 104 procs for 229 steps with 288751 atoms

99.9% CPU use with 104 MPI tasks x 1 OpenMP threads

Minimization stats:
  Stopping criterion = energy tolerance
  Energy initial, next-to-last, final = 
       -1152449.106153  -1152449.10829086  -1152449.10829086
  Force two-norm initial, final = 0.17858987 2.9294515e-05
  Force max component initial, final = 0.12818655 8.5614602e-06
  Final line search alpha, max atom move = 1.0000000 8.5614602e-06
  Iterations, force evaluations = 229 458

MPI task timing breakdown:
Section |  min time  |  avg time  |  max time  |%varavg| %total
---------------------------------------------------------------
Pair    | 0.70214    | 1.9289     | 2.5122     |  37.3 | 72.58
Neigh   | 0          | 0          | 0          |   0.0 |  0.00
Comm    | 0.045621   | 0.43119    | 1.2902     |  55.3 | 16.22
Output  | 0          | 0          | 0          |   0.0 |  0.00
Modify  | 2.9055e-05 | 0.0037678  | 0.0080481  |   2.9 |  0.14
Other   |            | 0.2939     |            |       | 11.06

Nlocal:        2776.45 ave        3957 max           0 min
Histogram: 8 4 4 0 4 12 8 2 28 34
Nghost:        3878.97 ave        5425 max         232 min
Histogram: 8 0 8 0 16 0 8 8 16 40
Neighs:        79213.6 ave      115346 max           0 min
Histogram: 8 4 4 0 10 6 8 8 24 32

Total # of neighbors = 8238213
Ave neighs/atom = 28.530509
Neighbor list builds = 0
Dangerous builds = 0
The dot product: 5.70122955008804e-08
Setting atom values ...
  1 settings made for x
  1 settings made for y
  1 settings made for z
Setting up cg style minimization ...
  Unit style    : metal
  Current step  : 4386
Per MPI rank memory allocation (min/avg/max) = 5.441 | 5.816 | 6.074 Mbytes
Step PotEng KinEng TotEng v_fx v_fy v_fz 
    4386   -1152449.1            0   -1152449.1   0.01084936  0.035995055 -0.022583657 
    4599   -1152449.1            0   -1152449.1 -9.7607316e-07 -5.2234901e-07 1.5443541e-06 
Loop time of 2.45275 on 104 procs for 213 steps with 288751 atoms

99.9% CPU use with 104 MPI tasks x 1 OpenMP threads

Minimization stats:
  Stopping criterion = energy tolerance
  Energy initial, next-to-last, final = 
     -1152449.07842108  -1152449.08032247  -1152449.08032247
  Force two-norm initial, final = 0.1761229 5.3963589e-05
  Force max component initial, final = 0.1318008 5.2129341e-06
  Final line search alpha, max atom move = 1.0000000 5.2129341e-06
  Iterations, force evaluations = 213 426

MPI task timing breakdown:
Section |  min time  |  avg time  |  max time  |%varavg| %total
---------------------------------------------------------------
Pair    | 0.64626    | 1.7836     | 2.3239     |  36.0 | 72.72
Neigh   | 0          | 0          | 0          |   0.0 |  0.00
Comm    | 0.037681   | 0.39831    | 1.2044     |  53.5 | 16.24
Output  | 0          | 0          | 0          |   0.0 |  0.00
Modify  | 2.5002e-05 | 0.0035135  | 0.0075025  |   2.8 |  0.14
Other   |            | 0.2673     |            |       | 10.90

Nlocal:        2776.45 ave        3958 max           0 min
Histogram: 8 4 4 0 4 12 8 2 28 34
Nghost:        3878.93 ave        5425 max         232 min
Histogram: 8 0 8 0 16 0 8 8 16 40
Neighs:        79213.6 ave      115368 max           0 min
Histogram: 8 4 4 0 10 6 8 8 24 32

Total # of neighbors = 8238212
Ave neighs/atom = 28.530506
Neighbor list builds = 0
Dangerous builds = 0
The dot product: -2.3563762461346e-08
Setting atom values ...
  1 settings made for x
  1 settings made for y
  1 settings made for z
Setting up cg style minimization ...
  Unit style    : metal
  Current step  : 4599
Per MPI rank memory allocation (min/avg/max) = 5.441 | 5.816 | 6.074 Mbytes
Step PotEng KinEng TotEng v_fx v_fy v_fz 
    4599     -1152449            0     -1152449 0.0089215186  0.026459019 -0.016400815 
    4782   -1152449.1            0   -1152449.1 2.1526925e-05 -3.1328575e-06 -3.0118386e-05 
Loop time of 2.11982 on 104 procs for 183 steps with 288751 atoms

99.9% CPU use with 104 MPI tasks x 1 OpenMP threads

Minimization stats:
  Stopping criterion = energy tolerance
  Energy initial, next-to-last, final = 
     -1152449.04926185  -1152449.05101758  -1152449.05101758
  Force two-norm initial, final = 0.17483277 0.00014873919
  Force max component initial, final = 0.13495915 3.0118386e-05
  Final line search alpha, max atom move = 1.0000000 3.0118386e-05
  Iterations, force evaluations = 183 366

MPI task timing breakdown:
Section |  min time  |  avg time  |  max time  |%varavg| %total
---------------------------------------------------------------
Pair    | 0.55751    | 1.5463     | 2.0042     |  33.5 | 72.95
Neigh   | 0          | 0          | 0          |   0.0 |  0.00
Comm    | 0.032108   | 0.34356    | 1.0524     |  50.0 | 16.21
Output  | 0          | 0          | 0          |   0.0 |  0.00
Modify  | 2.14e-05   | 0.0030227  | 0.0064883  |   2.6 |  0.14
Other   |            | 0.2269     |            |       | 10.70

Nlocal:        2776.45 ave        3958 max           0 min
Histogram: 8 4 4 0 4 12 8 2 28 34
Nghost:        3878.97 ave        5425 max         232 min
Histogram: 8 0 8 0 16 0 8 8 16 40
Neighs:        79213.6 ave      115368 max           0 min
Histogram: 8 4 4 0 10 6 8 8 24 32

Total # of neighbors = 8238215
Ave neighs/atom = 28.530516
Neighbor list builds = 0
Dangerous builds = 0
The dot product: 3.01550241046944e-07
Setting atom values ...
  1 settings made for x
  1 settings made for y
  1 settings made for z
Setting up cg style minimization ...
  Unit style    : metal
  Current step  : 4782
Per MPI rank memory allocation (min/avg/max) = 5.441 | 5.816 | 6.074 Mbytes
Step PotEng KinEng TotEng v_fx v_fy v_fz 
    4782     -1152449            0     -1152449 0.0066649844  0.018765012 -0.011293149 
    4977     -1152449            0     -1152449 1.3823626e-05 -4.0933876e-06 -1.8446419e-05 
Loop time of 2.25632 on 104 procs for 195 steps with 288751 atoms

99.9% CPU use with 104 MPI tasks x 1 OpenMP threads

Minimization stats:
  Stopping criterion = energy tolerance
  Energy initial, next-to-last, final = 
     -1152449.01876373  -1152449.02048257  -1152449.02048257
  Force two-norm initial, final = 0.17460294 0.00011183838
  Force max component initial, final = 0.13770267 2.5593574e-05
  Final line search alpha, max atom move = 1.0000000 2.5593574e-05
  Iterations, force evaluations = 195 390

MPI task timing breakdown:
Section |  min time  |  avg time  |  max time  |%varavg| %total
---------------------------------------------------------------
Pair    | 0.59396    | 1.6338     | 2.1314     |  34.5 | 72.41
Neigh   | 0          | 0          | 0          |   0.0 |  0.00
Comm    | 0.039617   | 0.36711    | 1.1141     |  51.0 | 16.27
Output  | 0          | 0          | 0          |   0.0 |  0.00
Modify  | 2.3904e-05 | 0.0032173  | 0.0068803  |   2.7 |  0.14
Other   |            | 0.2522     |            |       | 11.18

Nlocal:        2776.45 ave        3959 max           0 min
Histogram: 8 4 4 0 4 12 8 2 28 34
Nghost:        3878.97 ave        5425 max         232 min
Histogram: 8 0 8 0 16 0 8 8 16 40
Neighs:        79213.6 ave      115394 max           0 min
Histogram: 8 4 4 0 10 6 8 8 24 32

Total # of neighbors = 8238218
Ave neighs/atom = 28.530526
Neighbor list builds = 0
Dangerous builds = 0
The dot product: 1.57782176269776e-07
Setting atom values ...
  1 settings made for x
  1 settings made for y
  1 settings made for z
Setting up cg style minimization ...
  Unit style    : metal
  Current step  : 4977
Per MPI rank memory allocation (min/avg/max) = 5.441 | 5.816 | 6.074 Mbytes
Step PotEng KinEng TotEng v_fx v_fy v_fz 
    4977     -1152449            0     -1152449 0.0048197744  0.012985181 -0.0076787284 
    5000     -1152449            0     -1152449 0.00028372415 -0.00037393459 -0.00033970127 
    5156     -1152449            0     -1152449 1.7677809e-05 -4.1286397e-06 -2.3057046e-05 
Loop time of 2.06981 on 104 procs for 179 steps with 288751 atoms

99.9% CPU use with 104 MPI tasks x 1 OpenMP threads

Minimization stats:
  Stopping criterion = energy tolerance
  Energy initial, next-to-last, final = 
     -1152448.98714558  -1152448.98882843  -1152448.98882843
  Force two-norm initial, final = 0.17493623 0.00017709918
  Force max component initial, final = 0.14000305 2.3057046e-05
  Final line search alpha, max atom move = 1.0000000 2.3057046e-05
  Iterations, force evaluations = 179 358

MPI task timing breakdown:
Section |  min time  |  avg time  |  max time  |%varavg| %total
---------------------------------------------------------------
Pair    | 0.54732    | 1.5094     | 1.9622     |  33.0 | 72.92
Neigh   | 0          | 0          | 0          |   0.0 |  0.00
Comm    | 0.033275   | 0.33518    | 1.0174     |  49.2 | 16.19
Output  | 0.0001057  | 0.00010757 | 0.00018025 |   0.0 |  0.01
Modify  | 2.1563e-05 | 0.0029528  | 0.0068367  |   2.6 |  0.14
Other   |            | 0.2222     |            |       | 10.74

Nlocal:        2776.45 ave        3959 max           0 min
Histogram: 8 4 4 0 4 12 8 2 28 34
Nghost:        3878.97 ave        5425 max         232 min
Histogram: 8 0 8 0 16 0 8 8 16 40
Neighs:        79213.6 ave      115400 max           0 min
Histogram: 8 4 4 0 10 6 8 8 24 32

Total # of neighbors = 8238215
Ave neighs/atom = 28.530516
Neighbor list builds = 0
Dangerous builds = 0
The dot product: 1.82518375896242e-07
Setting atom values ...
  1 settings made for x
  1 settings made for y
  1 settings made for z
Setting up cg style minimization ...
  Unit style    : metal
  Current step  : 5156
Per MPI rank memory allocation (min/avg/max) = 5.441 | 5.816 | 6.074 Mbytes
Step PotEng KinEng TotEng v_fx v_fy v_fz 
    5156     -1152449            0     -1152449 0.0027820552 0.0087852201 -0.0043672487 
    5332     -1152449            0     -1152449 -4.3738554e-05 5.8851588e-06 5.6066388e-05 
Loop time of 2.07478 on 104 procs for 176 steps with 288751 atoms

99.9% CPU use with 104 MPI tasks x 1 OpenMP threads

Minimization stats:
  Stopping criterion = energy tolerance
  Energy initial, next-to-last, final = 
     -1152448.95444306  -1152448.95615055  -1152448.95615055
  Force two-norm initial, final = 0.17564787 0.00021205863
  Force max component initial, final = 0.14209006 5.6066388e-05
  Final line search alpha, max atom move = 1.0000000 5.6066388e-05
  Iterations, force evaluations = 176 352

MPI task timing breakdown:
Section |  min time  |  avg time  |  max time  |%varavg| %total
---------------------------------------------------------------
Pair    | 0.53939    | 1.4829     | 1.931      |  32.8 | 71.47
Neigh   | 0          | 0          | 0          |   0.0 |  0.00
Comm    | 0.034889   | 0.33514    | 1.0023     |  48.4 | 16.15
Output  | 0          | 0          | 0          |   0.0 |  0.00
Modify  | 2.0984e-05 | 0.0029043  | 0.0062058  |   2.5 |  0.14
Other   |            | 0.2538     |            |       | 12.23

Nlocal:        2776.45 ave        3960 max           0 min
Histogram: 8 4 4 0 4 12 8 2 28 34
Nghost:        3878.93 ave        5425 max         232 min
Histogram: 8 0 8 0 16 0 8 8 16 40
Neighs:        79213.6 ave      115420 max           0 min
Histogram: 8 4 4 0 10 6 8 8 24 32

Total # of neighbors = 8238219
Ave neighs/atom = 28.530530
Neighbor list builds = 0
Dangerous builds = 0
The dot product: -4.27947291782801e-07
Setting atom values ...
  1 settings made for x
  1 settings made for y
  1 settings made for z
Setting up cg style minimization ...
  Unit style    : metal
  Current step  : 5332
Per MPI rank memory allocation (min/avg/max) = 5.441 | 5.816 | 6.074 Mbytes
Step PotEng KinEng TotEng v_fx v_fy v_fz 
    5332   -1152448.9            0   -1152448.9 0.0011339298 0.0059401694 -0.0019094457 
    5547   -1152448.9            0   -1152448.9 9.3043075e-06 -1.9252901e-06 -1.161215e-05 
Loop time of 2.50201 on 104 procs for 215 steps with 288751 atoms

99.9% CPU use with 104 MPI tasks x 1 OpenMP threads

Minimization stats:
  Stopping criterion = energy tolerance
  Energy initial, next-to-last, final = 
     -1152448.92085647  -1152448.92256689  -1152448.92256689
  Force two-norm initial, final = 0.17635966 8.1542418e-05
  Force max component initial, final = 0.14381005 1.3455812e-05
  Final line search alpha, max atom move = 1.0000000 1.3455812e-05
  Iterations, force evaluations = 215 430

MPI task timing breakdown:
Section |  min time  |  avg time  |  max time  |%varavg| %total
---------------------------------------------------------------
Pair    | 0.6537     | 1.8097     | 2.368      |  36.2 | 72.33
Neigh   | 0          | 0          | 0          |   0.0 |  0.00
Comm    | 0.041842   | 0.40603    | 1.205      |  53.4 | 16.23
Output  | 0          | 0          | 0          |   0.0 |  0.00
Modify  | 2.5071e-05 | 0.0035473  | 0.0081057  |   2.8 |  0.14
Other   |            | 0.2827     |            |       | 11.30

Nlocal:        2776.45 ave        3960 max           0 min
Histogram: 8 4 4 0 4 12 8 2 28 34
Nghost:        3878.93 ave        5425 max         232 min
Histogram: 8 0 8 0 16 0 8 8 16 40
Neighs:        79213.6 ave      115424 max           0 min
Histogram: 8 4 4 0 10 6 8 8 24 32

Total # of neighbors = 8238214
Ave neighs/atom = 28.530512
Neighbor list builds = 0
Dangerous builds = 0
The dot product: 7.95988490146736e-08
Setting atom values ...
  1 settings made for x
  1 settings made for y
  1 settings made for z
Setting up cg style minimization ...
  Unit style    : metal
  Current step  : 5547
Per MPI rank memory allocation (min/avg/max) = 5.441 | 5.816 | 6.074 Mbytes
Step PotEng KinEng TotEng v_fx v_fy v_fz 
    5547   -1152448.9            0   -1152448.9 -0.000833916 0.0039454897 0.00073702495 
    5741   -1152448.9            0   -1152448.9 7.9909486e-07 1.6422011e-06 -1.1147977e-06 
Loop time of 2.23945 on 104 procs for 194 steps with 288751 atoms

99.9% CPU use with 104 MPI tasks x 1 OpenMP threads

Minimization stats:
  Stopping criterion = energy tolerance
  Energy initial, next-to-last, final = 
     -1152448.88635833  -1152448.88798049  -1152448.88798049
  Force two-norm initial, final = 0.17721326 0.00010920683
  Force max component initial, final = 0.14538645 2.1214353e-05
  Final line search alpha, max atom move = 1.0000000 2.1214353e-05
  Iterations, force evaluations = 194 388

MPI task timing breakdown:
Section |  min time  |  avg time  |  max time  |%varavg| %total
---------------------------------------------------------------
Pair    | 0.58758    | 1.6276     | 2.1224     |  34.5 | 72.68
Neigh   | 0          | 0          | 0          |   0.0 |  0.00
Comm    | 0.033932   | 0.36512    | 1.0983     |  51.0 | 16.30
Output  | 0          | 0          | 0          |   0.0 |  0.00
Modify  | 2.3344e-05 | 0.0032026  | 0.0068967  |   2.7 |  0.14
Other   |            | 0.2435     |            |       | 10.87

Nlocal:        2776.45 ave        3960 max           0 min
Histogram: 8 4 4 0 4 12 8 2 28 34
Nghost:        3878.96 ave        5426 max         232 min
Histogram: 8 0 8 0 16 0 8 8 16 40
Neighs:        79213.6 ave      115433 max           0 min
Histogram: 8 4 4 0 10 6 8 8 24 32

Total # of neighbors = 8238216
Ave neighs/atom = 28.530519
Neighbor list builds = 0
Dangerous builds = 0
The dot product: 7.38824389007572e-09
Setting atom values ...
  1 settings made for x
  1 settings made for y
  1 settings made for z
Setting up cg style minimization ...
  Unit style    : metal
  Current step  : 5741
Per MPI rank memory allocation (min/avg/max) = 5.441 | 5.816 | 6.074 Mbytes
Step PotEng KinEng TotEng v_fx v_fy v_fz 
    5741   -1152448.9            0   -1152448.9 -0.0036968593 0.0026211457 0.0043258329 
    5947   -1152448.9            0   -1152448.9 1.3807482e-05 -3.4027333e-06 -1.662049e-05 
Loop time of 2.38987 on 104 procs for 206 steps with 288751 atoms

99.9% CPU use with 104 MPI tasks x 1 OpenMP threads

Minimization stats:
  Stopping criterion = energy tolerance
  Energy initial, next-to-last, final = 
     -1152448.85071937  -1152448.85234422  -1152448.85234422
  Force two-norm initial, final = 0.1785741 8.6182789e-05
  Force max component initial, final = 0.14719992 1.6620490e-05
  Final line search alpha, max atom move = 1.0000000 1.6620490e-05
  Iterations, force evaluations = 206 412

MPI task timing breakdown:
Section |  min time  |  avg time  |  max time  |%varavg| %total
---------------------------------------------------------------
Pair    | 0.63044    | 1.7331     | 2.2595     |  35.3 | 72.52
Neigh   | 0          | 0          | 0          |   0.0 |  0.00
Comm    | 0.03888    | 0.38671    | 1.164      |  52.6 | 16.18
Output  | 0          | 0          | 0          |   0.0 |  0.00
Modify  | 2.4399e-05 | 0.0033894  | 0.0072686  |   2.8 |  0.14
Other   |            | 0.2666     |            |       | 11.16

Nlocal:        2776.45 ave        3960 max           0 min
Histogram: 8 4 4 0 4 12 8 2 28 34
Nghost:        3878.97 ave        5426 max         232 min
Histogram: 8 0 8 0 16 0 8 8 16 40
Neighs:        79213.6 ave      115427 max           0 min
Histogram: 8 4 4 0 10 6 8 8 24 32

Total # of neighbors = 8238215
Ave neighs/atom = 28.530516
Neighbor list builds = 0
Dangerous builds = 0
The dot product: 7.75217491841328e-08
Setting atom values ...
  1 settings made for x
  1 settings made for y
  1 settings made for z
Setting up cg style minimization ...
  Unit style    : metal
  Current step  : 5947
Per MPI rank memory allocation (min/avg/max) = 5.441 | 5.816 | 6.074 Mbytes
Step PotEng KinEng TotEng v_fx v_fy v_fz 
    5947   -1152448.8            0   -1152448.8 -0.006254705 0.0019385596 0.0074123374 
    6000   -1152448.8            0   -1152448.8 0.00051203006 -0.0001012761 -0.00061088847 
    6181   -1152448.8            0   -1152448.8 -6.4429145e-06 6.3245286e-07 7.7325908e-06 
Loop time of 2.72186 on 104 procs for 234 steps with 288751 atoms

99.9% CPU use with 104 MPI tasks x 1 OpenMP threads

Minimization stats:
  Stopping criterion = energy tolerance
  Energy initial, next-to-last, final = 
     -1152448.81407802    -1152448.815838    -1152448.815838
  Force two-norm initial, final = 0.17975535 3.8791300e-05
  Force max component initial, final = 0.14871181 7.7325908e-06
  Final line search alpha, max atom move = 1.0000000 7.7325908e-06
  Iterations, force evaluations = 234 468

MPI task timing breakdown:
Section |  min time  |  avg time  |  max time  |%varavg| %total
---------------------------------------------------------------
Pair    | 0.72071    | 1.9643     | 2.5573     |  37.4 | 72.17
Neigh   | 0          | 0          | 0          |   0.0 |  0.00
Comm    | 0.0469     | 0.44076    | 1.3188     |  55.6 | 16.19
Output  | 0.00010328 | 0.0001062  | 0.00022435 |   0.0 |  0.00
Modify  | 2.8378e-05 | 0.0038553  | 0.0082216  |   2.9 |  0.14
Other   |            | 0.3129     |            |       | 11.49

Nlocal:        2776.45 ave        3960 max           0 min
Histogram: 8 4 4 0 4 12 8 2 28 34
Nghost:        3879.01 ave        5426 max         232 min
Histogram: 8 0 8 0 16 0 8 8 16 40
Neighs:        79213.6 ave      115427 max           0 min
Histogram: 8 4 4 0 10 6 8 8 24 32

Total # of neighbors = 8238213
Ave neighs/atom = 28.530509
Neighbor list builds = 0
Dangerous builds = 0
The dot product: -3.16956599501004e-08
Setting atom values ...
  1 settings made for x
  1 settings made for y
  1 settings made for z
Setting up cg style minimization ...
  Unit style    : metal
  Current step  : 6181
Per MPI rank memory allocation (min/avg/max) = 5.441 | 5.816 | 6.074 Mbytes
Step PotEng KinEng TotEng v_fx v_fy v_fz 
    6181   -1152448.8            0   -1152448.8 -0.0083789781 0.0017453085 0.0098909656 
    6363   -1152448.8            0   -1152448.8 -3.1329909e-05 6.2639645e-06 3.7001941e-05 
Loop time of 2.11163 on 104 procs for 182 steps with 288751 atoms

99.9% CPU use with 104 MPI tasks x 1 OpenMP threads

Minimization stats:
  Stopping criterion = energy tolerance
  Energy initial, next-to-last, final = 
     -1152448.77673569  -1152448.77835299  -1152448.77835299
  Force two-norm initial, final = 0.18038399 0.00017780953
  Force max component initial, final = 0.14981153 3.9800059e-05
  Final line search alpha, max atom move = 1.0000000 3.9800059e-05
  Iterations, force evaluations = 182 364

MPI task timing breakdown:
Section |  min time  |  avg time  |  max time  |%varavg| %total
---------------------------------------------------------------
Pair    | 0.55607    | 1.5363     | 2.0021     |  33.3 | 72.75
Neigh   | 0          | 0          | 0          |   0.0 |  0.00
Comm    | 0.035873   | 0.34223    | 1.0323     |  49.7 | 16.21
Output  | 0          | 0          | 0          |   0.0 |  0.00
Modify  | 2.1353e-05 | 0.0030008  | 0.0064162  |   2.6 |  0.14
Other   |            | 0.2301     |            |       | 10.90

Nlocal:        2776.45 ave        3960 max           0 min
Histogram: 8 4 4 0 4 12 8 2 28 34
Nghost:        3878.95 ave        5426 max         232 min
Histogram: 8 0 8 0 16 0 8 8 16 40
Neighs:        79213.6 ave      115439 max           0 min
Histogram: 8 4 4 0 10 6 8 8 24 32

Total # of neighbors = 8238215
Ave neighs/atom = 28.530516
Neighbor list builds = 0
Dangerous builds = 0
The dot product: -1.00606274235807e-07
Setting atom values ...
  1 settings made for x
  1 settings made for y
  1 settings made for z
Setting up cg style minimization ...
  Unit style    : metal
  Current step  : 6363
Per MPI rank memory allocation (min/avg/max) = 5.441 | 5.816 | 6.074 Mbytes
Step PotEng KinEng TotEng v_fx v_fy v_fz 
    6363   -1152448.7            0   -1152448.7 -0.011578304 0.0020625208   0.01360533 
    6567   -1152448.7            0   -1152448.7 -1.8974055e-05 3.4105138e-06 2.2293693e-05 
Loop time of 2.35419 on 104 procs for 204 steps with 288751 atoms

99.9% CPU use with 104 MPI tasks x 1 OpenMP threads

Minimization stats:
  Stopping criterion = energy tolerance
  Energy initial, next-to-last, final = 
     -1152448.73824121  -1152448.73988792  -1152448.73988792
  Force two-norm initial, final = 0.18135612 8.6452713e-05
  Force max component initial, final = 0.15117615 2.2293693e-05
  Final line search alpha, max atom move = 1.0000000 2.2293693e-05
  Iterations, force evaluations = 204 408

MPI task timing breakdown:
Section |  min time  |  avg time  |  max time  |%varavg| %total
---------------------------------------------------------------
Pair    | 0.61994    | 1.7087     | 2.2318     |  35.3 | 72.58
Neigh   | 0          | 0          | 0          |   0.0 |  0.00
Comm    | 0.035984   | 0.38195    | 1.158      |  52.3 | 16.22
Output  | 0          | 0          | 0          |   0.0 |  0.00
Modify  | 2.4412e-05 | 0.0033639  | 0.0071862  |   2.7 |  0.14
Other   |            | 0.2602     |            |       | 11.05

Nlocal:        2776.45 ave        3960 max           0 min
Histogram: 8 4 4 0 4 12 8 2 28 34
Nghost:        3878.92 ave        5426 max         232 min
Histogram: 8 0 8 0 16 0 8 8 16 40
Neighs:        79213.6 ave      115439 max           0 min
Histogram: 8 4 4 0 10 6 8 8 24 32

Total # of neighbors = 8238213
Ave neighs/atom = 28.530509
Neighbor list builds = 0
Dangerous builds = 0
The dot product: -3.53127912871313e-08
Setting atom values ...
  1 settings made for x
  1 settings made for y
  1 settings made for z
Setting up cg style minimization ...
  Unit style    : metal
  Current step  : 6567
Per MPI rank memory allocation (min/avg/max) = 5.441 | 5.816 | 6.074 Mbytes
Step PotEng KinEng TotEng v_fx v_fy v_fz 
    6567   -1152448.7            0   -1152448.7 -0.014282319 0.0027524492  0.016707496 
    6748   -1152448.7            0   -1152448.7 -2.0271266e-05 5.2776514e-06 2.3614908e-05 
Loop time of 2.09937 on 104 procs for 181 steps with 288751 atoms

99.9% CPU use with 104 MPI tasks x 1 OpenMP threads

Minimization stats:
  Stopping criterion = energy tolerance
  Energy initial, next-to-last, final = 
     -1152448.69891695  -1152448.70080241  -1152448.70080241
  Force two-norm initial, final = 0.18153941 0.00012114565
  Force max component initial, final = 0.15209326 3.1775282e-05
  Final line search alpha, max atom move = 1.0000000 3.1775282e-05
  Iterations, force evaluations = 181 362

MPI task timing breakdown:
Section |  min time  |  avg time  |  max time  |%varavg| %total
---------------------------------------------------------------
Pair    | 0.55335    | 1.528      | 1.9822     |  33.2 | 72.79
Neigh   | 0          | 0          | 0          |   0.0 |  0.00
Comm    | 0.032324   | 0.34025    | 1.0452     |  49.6 | 16.21
Output  | 0          | 0          | 0          |   0.0 |  0.00
Modify  | 2.123e-05  | 0.0029743  | 0.0063507  |   2.6 |  0.14
Other   |            | 0.2281     |            |       | 10.87

Nlocal:        2776.45 ave        3959 max           0 min
Histogram: 8 4 4 0 4 12 8 2 28 34
Nghost:        3878.90 ave        5426 max         232 min
Histogram: 8 0 8 0 16 0 8 8 16 40
Neighs:        79213.6 ave      115411 max           0 min
Histogram: 8 4 4 0 10 6 8 8 24 32

Total # of neighbors = 8238215
Ave neighs/atom = 28.530516
Neighbor list builds = 0
Dangerous builds = 0
The dot product: -2.16442554826792e-08
Setting atom values ...
  1 settings made for x
  1 settings made for y
  1 settings made for z
Setting up cg style minimization ...
  Unit style    : metal
  Current step  : 6748
Per MPI rank memory allocation (min/avg/max) = 5.441 | 5.816 | 6.074 Mbytes
Step PotEng KinEng TotEng v_fx v_fy v_fz 
    6748   -1152448.7            0   -1152448.7 -0.016347385 0.0033015396  0.019075523 
    6935   -1152448.7            0   -1152448.7 1.0584778e-05 -3.1934128e-06 -1.2273625e-05 
Loop time of 2.16325 on 104 procs for 187 steps with 288751 atoms

99.9% CPU use with 104 MPI tasks x 1 OpenMP threads

Minimization stats:
  Stopping criterion = linesearch alpha is zero
  Energy initial, next-to-last, final = 
     -1152448.65945891  -1152448.66125008  -1152448.66125008
  Force two-norm initial, final = 0.180232 0.00011756151
  Force max component initial, final = 0.15193227 1.6980632e-05
  Final line search alpha, max atom move = 0.5 8.4903162e-06
  Iterations, force evaluations = 187 375

MPI task timing breakdown:
Section |  min time  |  avg time  |  max time  |%varavg| %total
---------------------------------------------------------------
Pair    | 0.56992    | 1.5727     | 2.0494     |  33.8 | 72.70
Neigh   | 0          | 0          | 0          |   0.0 |  0.00
Comm    | 0.034899   | 0.35219    | 1.0602     |  50.2 | 16.28
Output  | 0          | 0          | 0          |   0.0 |  0.00
Modify  | 2.1905e-05 | 0.003097   | 0.0066633  |   2.6 |  0.14
Other   |            | 0.2352     |            |       | 10.87

Nlocal:        2776.45 ave        3959 max           0 min
Histogram: 8 4 4 0 4 12 8 2 28 34
Nghost:        3878.85 ave        5426 max         232 min
Histogram: 8 0 8 0 16 0 8 8 16 40
Neighs:        79213.5 ave      115414 max           0 min
Histogram: 8 4 4 0 10 6 8 8 24 32

Total # of neighbors = 8238200
Ave neighs/atom = 28.530464
Neighbor list builds = 0
Dangerous builds = 0
The dot product: -6.05619605951905e-09
Setting atom values ...
  1 settings made for x
  1 settings made for y
  1 settings made for z
Setting up cg style minimization ...
  Unit style    : metal
  Current step  : 6935
Per MPI rank memory allocation (min/avg/max) = 5.441 | 5.816 | 6.074 Mbytes
Step PotEng KinEng TotEng v_fx v_fy v_fz 
    6935   -1152448.6            0   -1152448.6  -0.01919538 0.0037395557  0.022437676 
    7000   -1152448.6            0   -1152448.6 9.2500106e-05 4.0820157e-05 -0.00011259963 
    7112   -1152448.6            0   -1152448.6 4.8149182e-05 -7.6875342e-06 -5.6410811e-05 
Loop time of 2.04991 on 104 procs for 177 steps with 288751 atoms

99.9% CPU use with 104 MPI tasks x 1 OpenMP threads

Minimization stats:
  Stopping criterion = energy tolerance
  Energy initial, next-to-last, final = 
     -1152448.61982395  -1152448.62197405  -1152448.62197405
  Force two-norm initial, final = 0.17911299 0.00024627966
  Force max component initial, final = 0.15119847 5.6410811e-05
  Final line search alpha, max atom move = 1.0000000 5.6410811e-05
  Iterations, force evaluations = 177 354

MPI task timing breakdown:
Section |  min time  |  avg time  |  max time  |%varavg| %total
---------------------------------------------------------------
Pair    | 0.53857    | 1.4913     | 1.9428     |  32.9 | 72.75
Neigh   | 0          | 0          | 0          |   0.0 |  0.00
Comm    | 0.032412   | 0.33096    | 0.99288    |  48.7 | 16.14
Output  | 0.00010588 | 0.00010939 | 0.00021361 |   0.0 |  0.01
Modify  | 2.0915e-05 | 0.0029164  | 0.006198   |   2.6 |  0.14
Other   |            | 0.2246     |            |       | 10.96

Nlocal:        2776.45 ave        3958 max           0 min
Histogram: 8 4 4 0 4 12 8 2 28 34
Nghost:        3878.85 ave        5426 max         232 min
Histogram: 8 0 8 0 16 0 8 8 16 40
Neighs:        79213.5 ave      115372 max           0 min
Histogram: 8 4 4 0 10 6 8 8 24 32

Total # of neighbors = 8238201
Ave neighs/atom = 28.530467
Neighbor list builds = 0
Dangerous builds = 0
The dot product: -3.76303261567752e-08
Setting atom values ...
  1 settings made for x
  1 settings made for y
  1 settings made for z
Setting up cg style minimization ...
  Unit style    : metal
  Current step  : 7112
Per MPI rank memory allocation (min/avg/max) = 5.441 | 5.816 | 6.074 Mbytes
Step PotEng KinEng TotEng v_fx v_fy v_fz 
    7112   -1152448.6            0   -1152448.6 -0.021467231 0.00085284214  0.025390009 
    7341   -1152448.6            0   -1152448.6 2.6479183e-05 -5.7361978e-06 -3.0946102e-05 
Loop time of 2.64648 on 104 procs for 229 steps with 288751 atoms

99.9% CPU use with 104 MPI tasks x 1 OpenMP threads

Minimization stats:
  Stopping criterion = energy tolerance
  Energy initial, next-to-last, final = 
     -1152448.58158288  -1152448.58609448  -1152448.58609448
  Force two-norm initial, final = 0.17839604 0.00027560098
  Force max component initial, final = 0.1482612 3.5433051e-05
  Final line search alpha, max atom move = 1.0000000 3.5433051e-05
  Iterations, force evaluations = 229 458

MPI task timing breakdown:
Section |  min time  |  avg time  |  max time  |%varavg| %total
---------------------------------------------------------------
Pair    | 0.7015     | 1.9223     | 2.5027     |  37.3 | 72.64
Neigh   | 1.059e-05  | 0.002971   | 0.0042876  |   2.2 |  0.11
Comm    | 0.042058   | 0.431      | 1.2975     |  55.4 | 16.29
Output  | 0          | 0          | 0          |   0.0 |  0.00
Modify  | 2.7121e-05 | 0.0037668  | 0.0080497  |   2.9 |  0.14
Other   |            | 0.2865     |            |       | 10.82

Nlocal:        2776.45 ave        3955 max           0 min
Histogram: 8 4 4 0 4 12 8 0 30 34
Nghost:        3878.97 ave        5425 max         232 min
Histogram: 8 0 8 0 16 0 8 8 16 40
Neighs:        79213.4 ave      115309 max           0 min
Histogram: 8 4 4 0 10 6 8 8 24 32

Total # of neighbors = 8238196
Ave neighs/atom = 28.530450
Neighbor list builds = 1
Dangerous builds = 0
The dot product: 5.1866016760897e-07
Setting atom values ...
  1 settings made for x
  1 settings made for y
  1 settings made for z
Setting up cg style minimization ...
  Unit style    : metal
  Current step  : 7341
Per MPI rank memory allocation (min/avg/max) = 5.441 | 5.816 | 6.074 Mbytes
Step PotEng KinEng TotEng v_fx v_fy v_fz 
    7341   -1152448.6            0   -1152448.6 -0.011682371 -0.0012551088  0.013515156 
    7533   -1152448.6            0   -1152448.6 -3.2341467e-05 3.8298373e-06 3.6800298e-05 
Loop time of 2.24633 on 104 procs for 192 steps with 288751 atoms

99.9% CPU use with 104 MPI tasks x 1 OpenMP threads

Minimization stats:
  Stopping criterion = energy tolerance
  Energy initial, next-to-last, final = 
     -1152448.55847973  -1152448.56157854  -1152448.56157854
  Force two-norm initial, final = 0.18438903 0.000206488
  Force max component initial, final = 0.14844396 4.5168481e-05
  Final line search alpha, max atom move = 1.0000000 4.5168481e-05
  Iterations, force evaluations = 192 384

MPI task timing breakdown:
Section |  min time  |  avg time  |  max time  |%varavg| %total
---------------------------------------------------------------
Pair    | 0.59203    | 1.6211     | 2.1225     |  34.1 | 72.17
Neigh   | 0          | 0          | 0          |   0.0 |  0.00
Comm    | 0.039574   | 0.36481    | 1.0846     |  50.5 | 16.24
Output  | 0          | 0          | 0          |   0.0 |  0.00
Modify  | 2.4214e-05 | 0.0031624  | 0.0068011  |   2.7 |  0.14
Other   |            | 0.2572     |            |       | 11.45

Nlocal:        2776.45 ave        3957 max           0 min
Histogram: 8 4 4 0 4 12 8 2 28 34
Nghost:        3879.01 ave        5426 max         232 min
Histogram: 8 0 8 0 16 0 8 8 16 40
Neighs:        79213.5 ave      115348 max           0 min
Histogram: 8 4 4 0 10 6 8 8 24 32

Total # of neighbors = 8238199
Ave neighs/atom = 28.530461
Neighbor list builds = 0
Dangerous builds = 0
The dot product: -3.00258692553904e-07
Setting atom values ...
  1 settings made for x
  1 settings made for y
  1 settings made for z
Setting up cg style minimization ...
  Unit style    : metal
  Current step  : 7533
Per MPI rank memory allocation (min/avg/max) = 5.441 | 5.816 | 6.074 Mbytes
Step PotEng KinEng TotEng v_fx v_fy v_fz 
    7533   -1152448.5            0   -1152448.5 -0.024716802 0.0041701214  0.027575305 
    7734   -1152448.5            0   -1152448.5 -2.152742e-05 2.4669022e-06 2.4117034e-05 
[...]
Nghost:        3879.12 ave        5426 max         232 min
Histogram: 8 0 8 0 16 0 8 8 16 40
Neighs:        79213.6 ave      115114 max           0 min
Histogram: 8 4 4 0 10 6 8 8 24 32

Total # of neighbors = 8238216
Ave neighs/atom = 28.530519
Neighbor list builds = 0
Dangerous builds = 0
The dot product: 1.1835392478859e-07
Setting atom values ...
  1 settings made for x
  1 settings made for y
  1 settings made for z
Setting up cg style minimization ...
  Unit style    : metal
  Current step  : 19686
Per MPI rank memory allocation (min/avg/max) = 5.441 | 5.816 | 6.074 Mbytes
Step PotEng KinEng TotEng v_fx v_fy v_fz 
   19686     -1152448            0     -1152448  0.036546392 0.0047533332 -0.025350267 
   20000   -1152448.8            0   -1152448.8 6.3084361e-05 -2.9256819e-07 -3.6535303e-05 
   20033   -1152448.8            0   -1152448.8 -2.9380299e-05 -4.0885063e-06 2.060667e-05 
Loop time of 4.01249 on 104 procs for 347 steps with 288751 atoms

99.9% CPU use with 104 MPI tasks x 1 OpenMP threads

Minimization stats:
  Stopping criterion = energy tolerance
  Energy initial, next-to-last, final = 
     -1152448.03059756  -1152448.79933612  -1152448.79933612
  Force two-norm initial, final = 0.12509245 0.00013692754
  Force max component initial, final = 0.053337479 2.9380299e-05
  Final line search alpha, max atom move = 1.0000000 2.9380299e-05
  Iterations, force evaluations = 347 692

MPI task timing breakdown:
Section |  min time  |  avg time  |  max time  |%varavg| %total
---------------------------------------------------------------
Pair    | 1.0993     | 2.9016     | 3.7489     |  44.9 | 72.31
Neigh   | 0.00010052 | 0.029651   | 0.04311    |   7.1 |  0.74
Comm    | 0.069056   | 0.65048    | 1.9812     |  67.7 | 16.21
Output  | 0.00016839 | 0.00017933 | 0.00041276 |   0.0 |  0.00
Modify  | 4.5822e-05 | 0.0056986  | 0.012116   |   3.6 |  0.14
Other   |            | 0.4249     |            |       | 10.59

Nlocal:        2776.45 ave        3938 max           0 min
Histogram: 8 4 4 0 4 12 8 0 28 36
Nghost:        3879.12 ave        5424 max         232 min
Histogram: 8 0 8 0 16 0 8 8 16 40
Neighs:        79213.3 ave      114679 max           0 min
Histogram: 8 4 4 0 8 8 8 8 22 34

Total # of neighbors = 8238183
Ave neighs/atom = 28.530405
Neighbor list builds = 10
Dangerous builds = 0
The dot product: -7.50282468840981e-06
Setting atom values ...
  1 settings made for x
  1 settings made for y
  1 settings made for z
Setting up cg style minimization ...
  Unit style    : metal
  Current step  : 20033
Per MPI rank memory allocation (min/avg/max) = 5.441 | 5.816 | 6.074 Mbytes
Step PotEng KinEng TotEng v_fx v_fy v_fz 
   20033   -1152448.8            0   -1152448.8 -0.0025315745  -0.20665122   0.26213258 
   20283   -1152448.9            0   -1152448.9 -3.7355627e-06 -3.9112574e-06 7.5991899e-06 
Loop time of 2.89094 on 104 procs for 250 steps with 288751 atoms

99.9% CPU use with 104 MPI tasks x 1 OpenMP threads

Minimization stats:
  Stopping criterion = energy tolerance
  Energy initial, next-to-last, final = 
     -1152448.83438306  -1152448.85236836  -1152448.85236836
  Force two-norm initial, final = 0.3737406 3.8476055e-05
  Force max component initial, final = 0.26213258 7.7181847e-06
  Final line search alpha, max atom move = 1.0000000 7.7181847e-06
  Iterations, force evaluations = 250 500

MPI task timing breakdown:
Section |  min time  |  avg time  |  max time  |%varavg| %total
---------------------------------------------------------------
Pair    | 0.7722     | 2.1004     | 2.7196     |  38.9 | 72.65
Neigh   | 1.007e-05  | 0.002956   | 0.0042663  |   2.2 |  0.10
Comm    | 0.046396   | 0.47433    | 1.4283     |  57.4 | 16.41
Output  | 0          | 0          | 0          |   0.0 |  0.00
Modify  | 3.1544e-05 | 0.0041151  | 0.0087564  |   3.0 |  0.14
Other   |            | 0.3091     |            |       | 10.69

Nlocal:        2776.45 ave        3930 max           0 min
Histogram: 8 4 4 0 4 12 8 0 26 38
Nghost:        3878.99 ave        5425 max         232 min
Histogram: 8 0 8 0 16 0 8 8 16 40
Neighs:        79213.3 ave      114462 max           0 min
Histogram: 8 4 4 0 8 8 8 8 20 36

Total # of neighbors = 8238186
Ave neighs/atom = 28.530415
Neighbor list builds = 1
Dangerous builds = 0
The dot product: 7.78258477629894e-07
Setting atom values ...
  1 settings made for x
  1 settings made for y
  1 settings made for z
Setting up cg style minimization ...
  Unit style    : metal
  Current step  : 20283
Per MPI rank memory allocation (min/avg/max) = 5.441 | 5.816 | 6.074 Mbytes
Step PotEng KinEng TotEng v_fx v_fy v_fz 
   20283   -1152448.9            0   -1152448.9 0.0016821021   0.05279692 -0.062046035 
   20430   -1152448.9            0   -1152448.9 -4.5980282e-06 9.8079248e-07 2.001174e-06 
Loop time of 1.68602 on 104 procs for 147 steps with 288751 atoms

99.9% CPU use with 104 MPI tasks x 1 OpenMP threads

Minimization stats:
  Stopping criterion = energy tolerance
  Energy initial, next-to-last, final = 
     -1152448.88615154  -1152448.88815916  -1152448.88815916
  Force two-norm initial, final = 0.18908746 6.1860471e-05
  Force max component initial, final = 0.10545352 9.8699225e-06
  Final line search alpha, max atom move = 1.0000000 9.8699225e-06
  Iterations, force evaluations = 147 294

MPI task timing breakdown:
Section |  min time  |  avg time  |  max time  |%varavg| %total
---------------------------------------------------------------
Pair    | 0.44802    | 1.23       | 1.5973     |  29.9 | 72.96
Neigh   | 0          | 0          | 0          |   0.0 |  0.00
Comm    | 0.025531   | 0.27652    | 0.84079    |  44.2 | 16.40
Output  | 0          | 0          | 0          |   0.0 |  0.00
Modify  | 1.7795e-05 | 0.0024246  | 0.0051512  |   2.3 |  0.14
Other   |            | 0.177      |            |       | 10.50

Nlocal:        2776.45 ave        3930 max           0 min
Histogram: 8 4 4 0 4 12 8 0 26 38
Nghost:        3879.09 ave        5425 max         232 min
Histogram: 8 0 8 0 16 0 8 8 16 40
Neighs:        79213.3 ave      114451 max           0 min
Histogram: 8 4 4 0 8 8 8 8 20 36

Total # of neighbors = 8238183
Ave neighs/atom = 28.530405
Neighbor list builds = 0
Dangerous builds = 0
The dot product: -4.99355961129519e-09
Setting atom values ...
  1 settings made for x
  1 settings made for y
  1 settings made for z
Setting up cg style minimization ...
  Unit style    : metal
  Current step  : 20430
Per MPI rank memory allocation (min/avg/max) = 5.441 | 5.816 | 6.074 Mbytes
Step PotEng KinEng TotEng v_fx v_fy v_fz 
   20430   -1152448.9            0   -1152448.9 0.0047765246 -0.0027449784 -5.7048819e-05 
   20617   -1152448.9            0   -1152448.9 -2.7353989e-05 6.0582471e-06 1.1663671e-05 
Loop time of 2.15829 on 104 procs for 187 steps with 288751 atoms

99.9% CPU use with 104 MPI tasks x 1 OpenMP threads

Minimization stats:
  Stopping criterion = energy tolerance
  Energy initial, next-to-last, final = 
     -1152448.92032333  -1152448.92167444  -1152448.92167444
  Force two-norm initial, final = 0.16963708 0.00013358165
  Force max component initial, final = 0.10391386 3.0021449e-05
  Final line search alpha, max atom move = 1.0000000 3.0021449e-05
  Iterations, force evaluations = 187 374

MPI task timing breakdown:
Section |  min time  |  avg time  |  max time  |%varavg| %total
---------------------------------------------------------------
Pair    | 0.57205    | 1.5685     | 2.0342     |  33.7 | 72.67
Neigh   | 0          | 0          | 0          |   0.0 |  0.00
Comm    | 0.032244   | 0.35276    | 1.0751     |  50.0 | 16.34
Output  | 0          | 0          | 0          |   0.0 |  0.00
Modify  | 2.3726e-05 | 0.0030803  | 0.0065352  |   2.6 |  0.14
Other   |            | 0.234      |            |       | 10.84

Nlocal:        2776.45 ave        3930 max           0 min
Histogram: 8 4 4 0 4 12 8 0 26 38
Nghost:        3879.09 ave        5425 max         232 min
Histogram: 8 0 8 0 16 0 8 8 16 40
Neighs:        79213.3 ave      114451 max           0 min
Histogram: 8 4 4 0 8 8 8 8 20 36

Total # of neighbors = 8238184
Ave neighs/atom = 28.530409
Neighbor list builds = 0
Dangerous builds = 0
The dot product: 1.64694498514606e-08
Setting atom values ...
  1 settings made for x
  1 settings made for y
  1 settings made for z
Setting up cg style minimization ...
  Unit style    : metal
  Current step  : 20617
Per MPI rank memory allocation (min/avg/max) = 5.441 | 5.816 | 6.074 Mbytes
Step PotEng KinEng TotEng v_fx v_fy v_fz 
   20617     -1152449            0     -1152449 0.0046985072 0.0082818973 -0.012910462 
   20807     -1152449            0     -1152449 6.5524906e-06 -1.0877684e-05 8.239403e-06 
Loop time of 2.17359 on 104 procs for 190 steps with 288751 atoms

99.9% CPU use with 104 MPI tasks x 1 OpenMP threads

Minimization stats:
  Stopping criterion = energy tolerance
  Energy initial, next-to-last, final = 
     -1152448.95218501  -1152448.95352722  -1152448.95352722
  Force two-norm initial, final = 0.16976834 0.00011180328
  Force max component initial, final = 0.10322907 2.5165380e-05
  Final line search alpha, max atom move = 1.0000000 2.5165380e-05
  Iterations, force evaluations = 190 380

MPI task timing breakdown:
Section |  min time  |  avg time  |  max time  |%varavg| %total
---------------------------------------------------------------
Pair    | 0.58175    | 1.5902     | 2.0592     |  33.9 | 73.16
Neigh   | 0          | 0          | 0          |   0.0 |  0.00
Comm    | 0.032238   | 0.35489    | 1.0847     |  50.4 | 16.33
Output  | 0          | 0          | 0          |   0.0 |  0.00
Modify  | 2.3838e-05 | 0.0031353  | 0.0067359  |   2.6 |  0.14
Other   |            | 0.2254     |            |       | 10.37

Nlocal:        2776.45 ave        3930 max           0 min
Histogram: 8 4 4 0 4 12 8 0 26 38
Nghost:        3879.09 ave        5425 max         232 min
Histogram: 8 0 8 0 16 0 8 8 16 40
Neighs:        79213.3 ave      114447 max           0 min
Histogram: 8 4 4 0 8 8 8 8 20 36

Total # of neighbors = 8238185
Ave neighs/atom = 28.530412
Neighbor list builds = 0
Dangerous builds = 0
The dot product: -1.89536411434942e-08
Setting atom values ...
  1 settings made for x
  1 settings made for y
  1 settings made for z
Setting up cg style minimization ...
  Unit style    : metal
  Current step  : 20807
Per MPI rank memory allocation (min/avg/max) = 5.441 | 5.816 | 6.074 Mbytes
Step PotEng KinEng TotEng v_fx v_fy v_fz 
   20807     -1152449            0     -1152449 0.0063496548 0.0069875757 -0.012535836 
   20979     -1152449            0     -1152449 4.3247262e-05 -1.641245e-06 -2.770955e-05 
Loop time of 1.98899 on 104 procs for 172 steps with 288751 atoms

99.9% CPU use with 104 MPI tasks x 1 OpenMP threads

Minimization stats:
  Stopping criterion = energy tolerance
  Energy initial, next-to-last, final = 
     -1152448.98240215   -1152448.9837424   -1152448.9837424
  Force two-norm initial, final = 0.16907767 0.00023506975
  Force max component initial, final = 0.1024045 6.3464523e-05
  Final line search alpha, max atom move = 1.0000000 6.3464523e-05
  Iterations, force evaluations = 172 344

MPI task timing breakdown:
Section |  min time  |  avg time  |  max time  |%varavg| %total
---------------------------------------------------------------
Pair    | 0.52579    | 1.4406     | 1.8655     |  32.3 | 72.43
Neigh   | 0          | 0          | 0          |   0.0 |  0.00
Comm    | 0.029056   | 0.3251     | 0.99168    |  47.8 | 16.34
Output  | 0          | 0          | 0          |   0.0 |  0.00
Modify  | 2.1057e-05 | 0.002832   | 0.0060211  |   2.5 |  0.14
Other   |            | 0.2204     |            |       | 11.08

Nlocal:        2776.45 ave        3930 max           0 min
Histogram: 8 4 4 0 4 12 8 0 26 38
Nghost:        3879.01 ave        5425 max         232 min
Histogram: 8 0 8 0 16 0 8 8 16 40
Neighs:        79213.3 ave      114447 max           0 min
Histogram: 8 4 4 0 8 8 8 8 20 36

Total # of neighbors = 8238187
Ave neighs/atom = 28.530419
Neighbor list builds = 0
Dangerous builds = 0
The dot product: 1.52650422449117e-09
Setting atom values ...
  1 settings made for x
  1 settings made for y
  1 settings made for z
Setting up cg style minimization ...
  Unit style    : metal
  Current step  : 20979
Per MPI rank memory allocation (min/avg/max) = 5.441 | 5.816 | 6.074 Mbytes
Step PotEng KinEng TotEng v_fx v_fy v_fz 
   20979     -1152449            0     -1152449 0.0075273385 0.0078620919 -0.014372498 
   21000     -1152449            0     -1152449 -0.00053683893 0.00029192896 2.5708278e-05 
   21182     -1152449            0     -1152449 1.0232773e-05 -6.4614413e-07 -6.2544699e-06 
Loop time of 2.34862 on 104 procs for 203 steps with 288751 atoms

99.9% CPU use with 104 MPI tasks x 1 OpenMP threads

Minimization stats:
  Stopping criterion = energy tolerance
  Energy initial, next-to-last, final = 
     -1152449.01098632  -1152449.01232644  -1152449.01232644
  Force two-norm initial, final = 0.1686427 8.8741389e-05
  Force max component initial, final = 0.10144008 1.8787233e-05
  Final line search alpha, max atom move = 1.0000000 1.8787233e-05
  Iterations, force evaluations = 203 406

MPI task timing breakdown:
Section |  min time  |  avg time  |  max time  |%varavg| %total
---------------------------------------------------------------
Pair    | 0.62032    | 1.6986     | 2.2007     |  35.0 | 72.32
Neigh   | 0          | 0          | 0          |   0.0 |  0.00
Comm    | 0.036603   | 0.38222    | 1.1465     |  51.4 | 16.27
Output  | 9.2158e-05 | 0.00010066 | 0.00020401 |   0.0 |  0.00
Modify  | 2.4547e-05 | 0.0033428  | 0.0071047  |   2.7 |  0.14
Other   |            | 0.2643     |            |       | 11.25

Nlocal:        2776.45 ave        3930 max           0 min
Histogram: 8 4 4 0 4 12 8 0 26 38
Nghost:        3879.01 ave        5425 max         232 min
Histogram: 8 0 8 0 16 0 8 8 16 40
Neighs:        79213.4 ave      114454 max           0 min
Histogram: 8 4 4 0 8 8 8 8 20 36

Total # of neighbors = 8238189
Ave neighs/atom = 28.530426
Neighbor list builds = 0
Dangerous builds = 0
The dot product: 2.39055096105205e-09
Setting atom values ...
  1 settings made for x
  1 settings made for y
  1 settings made for z
Setting up cg style minimization ...
  Unit style    : metal
  Current step  : 21182
Per MPI rank memory allocation (min/avg/max) = 5.441 | 5.816 | 6.074 Mbytes
Step PotEng KinEng TotEng v_fx v_fy v_fz 
   21182     -1152449            0     -1152449 0.0087555257 0.0083549723 -0.015800656 
   21437     -1152449            0     -1152449 2.0207517e-06 -2.0397464e-07 -1.1458636e-06 
Loop time of 2.92237 on 104 procs for 255 steps with 288751 atoms

99.9% CPU use with 104 MPI tasks x 1 OpenMP threads

Minimization stats:
  Stopping criterion = energy tolerance
  Energy initial, next-to-last, final = 
     -1152449.03794693  -1152449.03928912  -1152449.03928912
  Force two-norm initial, final = 0.16833764 8.0954104e-06
  Force max component initial, final = 0.10055777 2.5738622e-06
  Final line search alpha, max atom move = 1.0000000 2.5738622e-06
  Iterations, force evaluations = 255 510

MPI task timing breakdown:
Section |  min time  |  avg time  |  max time  |%varavg| %total
---------------------------------------------------------------
Pair    | 0.77882    | 2.1328     | 2.76       |  39.3 | 72.98
Neigh   | 0          | 0          | 0          |   0.0 |  0.00
Comm    | 0.049559   | 0.47962    | 1.4559     |  58.4 | 16.41
Output  | 0          | 0          | 0          |   0.0 |  0.00
Modify  | 3.1084e-05 | 0.0042024  | 0.0089609  |   3.1 |  0.14
Other   |            | 0.3057     |            |       | 10.46

Nlocal:        2776.45 ave        3930 max           0 min
Histogram: 8 4 4 0 4 12 8 0 26 38
Nghost:        3878.99 ave        5425 max         232 min
Histogram: 8 0 8 0 16 0 8 8 16 40
Neighs:        79213.4 ave      114453 max           0 min
Histogram: 8 4 4 0 8 8 8 8 20 36

Total # of neighbors = 8238189
Ave neighs/atom = 28.530426
Neighbor list builds = 0
Dangerous builds = 0
The dot product: 8.68114605037561e-10
Setting atom values ...
  1 settings made for x
  1 settings made for y
  1 settings made for z
Setting up cg style minimization ...
  Unit style    : metal
  Current step  : 21437
Per MPI rank memory allocation (min/avg/max) = 5.441 | 5.816 | 6.074 Mbytes
Step PotEng KinEng TotEng v_fx v_fy v_fz 
   21437   -1152449.1            0   -1152449.1 0.0099119554 0.0088533706 -0.017190286 
   21780   -1152449.1            0   -1152449.1 3.2649676e-08 4.2463102e-09 -2.7376401e-08 
Loop time of 3.92273 on 104 procs for 343 steps with 288751 atoms

99.9% CPU use with 104 MPI tasks x 1 OpenMP threads

Minimization stats:
  Stopping criterion = energy tolerance
  Energy initial, next-to-last, final = 
      -1152449.0632971  -1152449.06464404  -1152449.06464404
  Force two-norm initial, final = 0.16809219 4.4085443e-07
  Force max component initial, final = 0.099558442 7.4124144e-08
  Final line search alpha, max atom move = 1.0000000 7.4124144e-08
  Iterations, force evaluations = 343 686

MPI task timing breakdown:
Section |  min time  |  avg time  |  max time  |%varavg| %total
---------------------------------------------------------------
Pair    | 1.0416     | 2.8637     | 3.7107     |  45.6 | 73.00
Neigh   | 0          | 0          | 0          |   0.0 |  0.00
Comm    | 0.058458   | 0.64239    | 1.9575     |  67.6 | 16.38
Output  | 0          | 0          | 0          |   0.0 |  0.00
Modify  | 4.1349e-05 | 0.0056415  | 0.012011   |   3.5 |  0.14
Other   |            | 0.4109     |            |       | 10.48

Nlocal:        2776.45 ave        3930 max           0 min
Histogram: 8 4 4 0 4 12 8 0 26 38
Nghost:        3878.99 ave        5425 max         232 min
Histogram: 8 0 8 0 16 0 8 8 16 40
Neighs:        79213.4 ave      114453 max           0 min
Histogram: 8 4 4 0 8 8 8 8 20 36

Total # of neighbors = 8238190
Ave neighs/atom = 28.530429
Neighbor list builds = 0
Dangerous builds = 0
The dot product: 3.50985144538363e-11
Setting up cg style minimization ...
  Unit style    : metal
  Current step  : 21780
Per MPI rank memory allocation (min/avg/max) = 5.441 | 5.816 | 6.074 Mbytes
Step PotEng KinEng TotEng v_fx v_fy v_fz 
   21780   -1152449.1            0   -1152449.1   0.49896798   0.85402168   0.72754565 
   22000   -1152449.3            0   -1152449.3 -0.00016228691 1.6026478e-05 0.0001297206 
   22055   -1152449.3            0   -1152449.3 1.0988067e-05 -1.3748063e-06 -1.1439378e-05 
Loop time of 3.14876 on 104 procs for 275 steps with 288751 atoms

99.9% CPU use with 104 MPI tasks x 1 OpenMP threads

Minimization stats:
  Stopping criterion = energy tolerance
  Energy initial, next-to-last, final = 
     -1152449.06464404  -1152449.26566399  -1152449.26566399
  Force two-norm initial, final = 1.2278619 5.9171127e-05
  Force max component initial, final = 0.85402168 1.1439378e-05
  Final line search alpha, max atom move = 1.0000000 1.1439378e-05
  Iterations, force evaluations = 275 550

MPI task timing breakdown:
Section |  min time  |  avg time  |  max time  |%varavg| %total
---------------------------------------------------------------
Pair    | 0.84435    | 2.3035     | 2.9746     |  40.8 | 73.15
Neigh   | 1.0128e-05 | 0.0029683  | 0.0042825  |   2.3 |  0.09
Comm    | 0.049076   | 0.51814    | 1.5754     |  60.6 | 16.46
Output  | 0.00015147 | 0.00016191 | 0.00034961 |   0.0 |  0.01
Modify  | 3.0653e-05 | 0.0029491  | 0.0074873  |   3.4 |  0.09
Other   |            | 0.3211     |            |       | 10.20

Nlocal:        2776.45 ave        3930 max           0 min
Histogram: 8 4 4 0 4 12 8 0 26 38
Nghost:        3878.99 ave        5425 max         232 min
Histogram: 8 0 8 0 16 0 8 8 16 40
Neighs:        79213.4 ave      114453 max           0 min
Histogram: 8 4 4 0 8 8 8 8 20 36

Total # of neighbors = 8238193
Ave neighs/atom = 28.530440
Neighbor list builds = 1
Dangerous builds = 0
