LAMMPS (29 Oct 2020)
OMP_NUM_THREADS environment is not set. Defaulting to 1 thread. (../comm.cpp:94)
  using 1 OpenMP thread(s) per MPI task
OMP_NUM_THREADS environment is not set. Defaulting to 1 thread. (../comm.cpp:94)
  using 1 OpenMP thread(s) per MPI task
Reading data file ...
  orthogonal box = (-122.39241 -121.13707 -37.090501) to (122.39241 121.13707 37.090501)
  13 by 4 by 2 MPI processor grid
  reading atoms ...
  288751 atoms
  read_data CPU = 0.385 seconds
199981 atoms in group inner
88770 atoms in group outer
1 atoms in group carbon
Neighbor list info ...
  update every 1 steps, delay 0 steps, check yes
  max neighbors/atom: 2000, page size: 100000
  master list distance cutoff = 5.6
  ghost atom cutoff = 5.6
  binsize = 2.8, bins = 88 87 27
  1 neighbor lists, perpetual/occasional/extra = 1 0 0
  (1) pair eam/alloy, perpetual
      attributes: half, newton on
      pair build: half/bin/atomonly/newton
      stencil: half/bin/3d/newton
      bin: standard
Setting up cg style minimization ...
  Unit style    : metal
  Current step  : 0
Per MPI rank memory allocation (min/avg/max) = 5.441 | 5.816 | 6.074 Mbytes
Step v_fx v_fy v_fz PotEng KinEng TotEng 
       0    0.2177876    1.7961801    2.4161678   -1152447.8            0   -1152447.8 
     182 -3.035401e-07 -1.0076489e-06 -8.4661716e-06   -1152449.5            0   -1152449.5 
Loop time of 2.19143 on 104 procs for 182 steps with 288751 atoms

99.8% CPU use with 104 MPI tasks x 1 OpenMP threads

Minimization stats:
  Stopping criterion = energy tolerance
  Energy initial, next-to-last, final = 
     -1152447.79457694  -1152449.45035262  -1152449.45035262
  Force two-norm initial, final = 10.052776 4.0160045e-05
  Force max component initial, final = 6.1235551 8.4661716e-06
  Final line search alpha, max atom move = 1.0000000 8.4661716e-06
  Iterations, force evaluations = 182 363

MPI task timing breakdown:
Section |  min time  |  avg time  |  max time  |%varavg| %total
---------------------------------------------------------------
Pair    | 0.56384    | 1.5352     | 2.0001     |  33.2 | 70.05
Neigh   | 3.1559e-05 | 0.0087764  | 0.012643   |   3.9 |  0.40
Comm    | 0.034794   | 0.35642    | 1.0457     |  47.9 | 16.26
Output  | 0          | 0          | 0          |   0.0 |  0.00
Modify  | 2.1858e-05 | 0.0019647  | 0.0050139  |   2.8 |  0.09
Other   |            | 0.2891     |            |       | 13.19

Nlocal:        2776.45 ave        3958 max           0 min
Histogram: 8 4 4 0 4 12 8 2 28 34
Nghost:        3879.03 ave        5425 max         232 min
Histogram: 8 0 8 0 16 0 8 8 16 40
Neighs:        79213.5 ave      115378 max           0 min
Histogram: 8 4 4 0 10 6 8 8 24 32

Total # of neighbors = 8238204
Ave neighs/atom = 28.530478
Neighbor list builds = 3
Dangerous builds = 0
Setting atom values ...
  1 settings made for x
  1 settings made for y
  1 settings made for z
Setting up cg style minimization ...
  Unit style    : metal
  Current step  : 182
Per MPI rank memory allocation (min/avg/max) = 5.441 | 5.816 | 6.074 Mbytes
Step PotEng KinEng TotEng v_fx v_fy v_fz 
     182   -1152449.4            0   -1152449.4 0.0074173398 -0.015070069 -0.024564113 
     333   -1152449.5            0   -1152449.5 -2.1333222e-05 5.9076425e-06 3.8624961e-05 
Loop time of 1.80013 on 104 procs for 151 steps with 288751 atoms

99.9% CPU use with 104 MPI tasks x 1 OpenMP threads

Minimization stats:
  Stopping criterion = energy tolerance
  Energy initial, next-to-last, final = 
     -1152449.44965281  -1152449.45007933  -1152449.45007933
  Force two-norm initial, final = 0.094099522 0.00022211153
  Force max component initial, final = 0.043960014 5.6994180e-05
  Final line search alpha, max atom move = 1.0000000 5.6994180e-05
  Iterations, force evaluations = 151 302

MPI task timing breakdown:
Section |  min time  |  avg time  |  max time  |%varavg| %total
---------------------------------------------------------------
Pair    | 0.45353    | 1.2776     | 1.6739     |  30.8 | 70.97
Neigh   | 0          | 0          | 0          |   0.0 |  0.00
Comm    | 0.033168   | 0.29234    | 0.86652    |  44.2 | 16.24
Output  | 0          | 0          | 0          |   0.0 |  0.00
Modify  | 1.9927e-05 | 0.0025026  | 0.0053162  |   2.3 |  0.14
Other   |            | 0.2276     |            |       | 12.65

Nlocal:        2776.45 ave        3956 max           0 min
Histogram: 8 4 4 0 4 12 8 0 30 34
Nghost:        3879.03 ave        5424 max         232 min
Histogram: 8 0 8 0 16 0 8 8 16 40
Neighs:        79213.4 ave      115324 max           0 min
Histogram: 8 4 4 0 10 6 8 8 24 32

Total # of neighbors = 8238197
Ave neighs/atom = 28.530454
Neighbor list builds = 0
Dangerous builds = 0
Setting atom values ...
  1 settings made for x
  1 settings made for y
  1 settings made for z
Setting up cg style minimization ...
  Unit style    : metal
  Current step  : 333
Per MPI rank memory allocation (min/avg/max) = 5.441 | 5.816 | 6.074 Mbytes
Step PotEng KinEng TotEng v_fx v_fy v_fz 
     333   -1152449.4            0   -1152449.4 0.0083965269 -0.016962571 -0.038802863 
     552   -1152449.4            0   -1152449.4 7.4747601e-07 -2.4261243e-06 -4.6241319e-06 
Loop time of 2.61284 on 104 procs for 219 steps with 288751 atoms

99.9% CPU use with 104 MPI tasks x 1 OpenMP threads

Minimization stats:
  Stopping criterion = energy tolerance
  Energy initial, next-to-last, final = 
     -1152449.44696402  -1152449.44825599  -1152449.44825599
  Force two-norm initial, final = 0.16098874 3.4441790e-05
  Force max component initial, final = 0.087278553 4.6241319e-06
  Final line search alpha, max atom move = 1.0000000 4.6241319e-06
  Iterations, force evaluations = 219 438

MPI task timing breakdown:
Section |  min time  |  avg time  |  max time  |%varavg| %total
---------------------------------------------------------------
Pair    | 0.66105    | 1.8444     | 2.4167     |  36.8 | 70.59
Neigh   | 0          | 0          | 0          |   0.0 |  0.00
Comm    | 0.042678   | 0.42378    | 1.2485     |  52.8 | 16.22
Output  | 0          | 0          | 0          |   0.0 |  0.00
Modify  | 2.7389e-05 | 0.0036262  | 0.0076926  |   2.8 |  0.14
Other   |            | 0.3411     |            |       | 13.05

Nlocal:        2776.45 ave        3956 max           0 min
Histogram: 8 4 4 0 4 12 8 0 30 34
Nghost:        3879.03 ave        5424 max         232 min
Histogram: 8 0 8 0 16 0 8 8 16 40
Neighs:        79213.4 ave      115324 max           0 min
Histogram: 8 4 4 0 10 6 8 8 24 32

Total # of neighbors = 8238196
Ave neighs/atom = 28.530450
Neighbor list builds = 0
Dangerous builds = 0
The dot product: 1.35703330296486e-08
Setting atom values ...
  1 settings made for x
  1 settings made for y
  1 settings made for z
Setting up cg style minimization ...
  Unit style    : metal
  Current step  : 552
Per MPI rank memory allocation (min/avg/max) = 5.441 | 5.816 | 6.074 Mbytes
Step PotEng KinEng TotEng v_fx v_fy v_fz 
     552   -1152449.4            0   -1152449.4 0.0058505074 -0.009609529 -0.031263798 
     696   -1152449.4            0   -1152449.4 -1.7724753e-06 -1.2347479e-05 -1.6412795e-05 
Loop time of 1.71509 on 104 procs for 144 steps with 288751 atoms

99.9% CPU use with 104 MPI tasks x 1 OpenMP threads

Minimization stats:
  Stopping criterion = energy tolerance
  Energy initial, next-to-last, final = 
     -1152449.44358872  -1152449.44482297  -1152449.44482297
  Force two-norm initial, final = 0.15520514 0.00014969738
  Force max component initial, final = 0.092344917 1.6412795e-05
  Final line search alpha, max atom move = 1.0000000 1.6412795e-05
  Iterations, force evaluations = 144 288

MPI task timing breakdown:
Section |  min time  |  avg time  |  max time  |%varavg| %total
---------------------------------------------------------------
Pair    | 0.43376    | 1.2164     | 1.6023     |  29.9 | 70.92
Neigh   | 0          | 0          | 0          |   0.0 |  0.00
Comm    | 0.025656   | 0.2815     | 0.82648    |  43.2 | 16.41
Output  | 0          | 0          | 0          |   0.0 |  0.00
Modify  | 1.7933e-05 | 0.0023861  | 0.0050914  |   2.3 |  0.14
Other   |            | 0.2148     |            |       | 12.52

Nlocal:        2776.45 ave        3956 max           0 min
Histogram: 8 4 4 0 4 12 8 0 30 34
Nghost:        3879.03 ave        5424 max         232 min
Histogram: 8 0 8 0 16 0 8 8 16 40
Neighs:        79213.4 ave      115324 max           0 min
Histogram: 8 4 4 0 10 6 8 8 24 32

Total # of neighbors = 8238193
Ave neighs/atom = 28.530440
Neighbor list builds = 0
Dangerous builds = 0
The dot product: 4.2079112829443e-08
Setting atom values ...
  1 settings made for x
  1 settings made for y
  1 settings made for z
Setting up cg style minimization ...
  Unit style    : metal
  Current step  : 696
Per MPI rank memory allocation (min/avg/max) = 5.441 | 5.816 | 6.074 Mbytes
Step PotEng KinEng TotEng v_fx v_fy v_fz 
     696   -1152449.4            0   -1152449.4 0.0023031308 -0.0090039895 -0.024935094 
     835   -1152449.4            0   -1152449.4 4.244023e-06 1.5459338e-05 1.834115e-05 
Loop time of 1.64815 on 104 procs for 139 steps with 288751 atoms

99.9% CPU use with 104 MPI tasks x 1 OpenMP threads

Minimization stats:
  Stopping criterion = energy tolerance
  Energy initial, next-to-last, final = 
     -1152449.43869538  -1152449.43988093  -1152449.43988093
  Force two-norm initial, final = 0.15169536 0.00016200573
  Force max component initial, final = 0.096019534 3.5543213e-05
  Final line search alpha, max atom move = 1.0000000 3.5543213e-05
  Iterations, force evaluations = 139 278

MPI task timing breakdown:
Section |  min time  |  avg time  |  max time  |%varavg| %total
---------------------------------------------------------------
Pair    | 0.41675    | 1.1677     | 1.5276     |  29.3 | 70.85
Neigh   | 0          | 0          | 0          |   0.0 |  0.00
Comm    | 0.025372   | 0.26553    | 0.78414    |  42.3 | 16.11
Output  | 0          | 0          | 0          |   0.0 |  0.00
Modify  | 1.7023e-05 | 0.0022956  | 0.0048923  |   2.3 |  0.14
Other   |            | 0.2126     |            |       | 12.90

Nlocal:        2776.45 ave        3954 max           0 min
Histogram: 8 4 4 0 4 12 8 0 30 34
Nghost:        3879.03 ave        5424 max         232 min
Histogram: 8 0 8 0 16 0 8 8 16 40
Neighs:        79213.4 ave      115263 max           0 min
Histogram: 8 4 4 0 10 6 8 8 24 32

Total # of neighbors = 8238194
Ave neighs/atom = 28.530443
Neighbor list builds = 0
Dangerous builds = 0
The dot product: -4.535776887111e-08
Setting atom values ...
  1 settings made for x
  1 settings made for y
  1 settings made for z
Setting up cg style minimization ...
  Unit style    : metal
  Current step  : 835
Per MPI rank memory allocation (min/avg/max) = 5.441 | 5.816 | 6.074 Mbytes
Step PotEng KinEng TotEng v_fx v_fy v_fz 
     835   -1152449.4            0   -1152449.4 -0.0028853889 -0.012799914 -0.019418376 
    1000   -1152449.4            0   -1152449.4 -2.1365022e-05 -2.1216665e-05 2.2328777e-05 
    1027   -1152449.4            0   -1152449.4 -6.8333799e-06 -1.1110092e-05 -2.6230646e-06 
Loop time of 2.29047 on 104 procs for 192 steps with 288751 atoms

99.9% CPU use with 104 MPI tasks x 1 OpenMP threads

Minimization stats:
  Stopping criterion = energy tolerance
  Energy initial, next-to-last, final = 
     -1152449.43236604  -1152449.43353243  -1152449.43353243
  Force two-norm initial, final = 0.15009001 4.9715737e-05
  Force max component initial, final = 0.099036699 1.1110092e-05
  Final line search alpha, max atom move = 1.0000000 1.1110092e-05
  Iterations, force evaluations = 192 384

MPI task timing breakdown:
Section |  min time  |  avg time  |  max time  |%varavg| %total
---------------------------------------------------------------
Pair    | 0.5741     | 1.6209     | 2.1349     |  34.6 | 70.77
Neigh   | 0          | 0          | 0          |   0.0 |  0.00
Comm    | 0.040139   | 0.37187    | 1.0946     |  49.8 | 16.24
Output  | 0.00047805 | 0.00048074 | 0.00061769 |   0.0 |  0.02
Modify  | 2.5264e-05 | 0.0031785  | 0.0067184  |   2.6 |  0.14
Other   |            | 0.2941     |            |       | 12.84

Nlocal:        2776.45 ave        3954 max           0 min
Histogram: 8 4 4 0 4 12 8 0 30 34
Nghost:        3879.03 ave        5424 max         232 min
Histogram: 8 0 8 0 16 0 8 8 16 40
Neighs:        79213.4 ave      115262 max           0 min
Histogram: 8 4 4 0 10 6 8 8 24 32

Total # of neighbors = 8238194
Ave neighs/atom = 28.530443
Neighbor list builds = 0
Dangerous builds = 0
The dot product: 3.86057613700476e-08
Setting atom values ...
  1 settings made for x
  1 settings made for y
  1 settings made for z
Setting up cg style minimization ...
  Unit style    : metal
  Current step  : 1027
Per MPI rank memory allocation (min/avg/max) = 5.441 | 5.816 | 6.074 Mbytes
Step PotEng KinEng TotEng v_fx v_fy v_fz 
    1027   -1152449.4            0   -1152449.4 -0.0078866568 -0.016488913 -0.014419185 
    1134   -1152449.4            0   -1152449.4 -5.0394181e-06 5.4690091e-07 1.8752933e-05 
Loop time of 1.25174 on 104 procs for 107 steps with 288751 atoms

99.9% CPU use with 104 MPI tasks x 1 OpenMP threads

Minimization stats:
  Stopping criterion = energy tolerance
  Energy initial, next-to-last, final = 
     -1152449.42472378  -1152449.42589745  -1152449.42589745
  Force two-norm initial, final = 0.14950343 0.00022213935
  Force max component initial, final = 0.10165516 3.0186690e-05
  Final line search alpha, max atom move = 1.0000000 3.0186690e-05
  Iterations, force evaluations = 107 214

MPI task timing breakdown:
Section |  min time  |  avg time  |  max time  |%varavg| %total
---------------------------------------------------------------
Pair    | 0.3232     | 0.89856    | 1.1739     |  25.6 | 71.78
Neigh   | 0          | 0          | 0          |   0.0 |  0.00
Comm    | 0.019541   | 0.20432    | 0.60702    |  37.5 | 16.32
Output  | 0          | 0          | 0          |   0.0 |  0.00
Modify  | 1.345e-05  | 0.0017701  | 0.0037705  |   2.0 |  0.14
Other   |            | 0.1471     |            |       | 11.75

Nlocal:        2776.45 ave        3953 max           0 min
Histogram: 8 4 4 0 4 12 8 0 30 34
Nghost:        3879.03 ave        5424 max         232 min
Histogram: 8 0 8 0 16 0 8 8 16 40
Neighs:        79213.4 ave      115238 max           0 min
Histogram: 8 4 4 0 10 6 8 8 24 32

Total # of neighbors = 8238194
Ave neighs/atom = 28.530443
Neighbor list builds = 0
Dangerous builds = 0
The dot product: -1.04753341591943e-08
Setting atom values ...
  1 settings made for x
  1 settings made for y
  1 settings made for z
Setting up cg style minimization ...
  Unit style    : metal
  Current step  : 1134
Per MPI rank memory allocation (min/avg/max) = 5.441 | 5.816 | 6.074 Mbytes
Step PotEng KinEng TotEng v_fx v_fy v_fz 
    1134   -1152449.4            0   -1152449.4 -0.010867985 -0.017282778  -0.01030683 
    1272   -1152449.4            0   -1152449.4 1.3255226e-05 1.0243304e-05 -1.7761394e-05 
Loop time of 1.61487 on 104 procs for 138 steps with 288751 atoms

99.9% CPU use with 104 MPI tasks x 1 OpenMP threads

Minimization stats:
  Stopping criterion = energy tolerance
  Energy initial, next-to-last, final = 
     -1152449.41580229  -1152449.41698641  -1152449.41698641
  Force two-norm initial, final = 0.14932088 0.00015859711
  Force max component initial, final = 0.10381278 3.6393415e-05
  Final line search alpha, max atom move = 1.0000000 3.6393415e-05
  Iterations, force evaluations = 138 276

MPI task timing breakdown:
Section |  min time  |  avg time  |  max time  |%varavg| %total
---------------------------------------------------------------
Pair    | 0.41344    | 1.1634     | 1.519      |  29.3 | 72.04
Neigh   | 0          | 0          | 0          |   0.0 |  0.00
Comm    | 0.0281     | 0.26281    | 0.7817     |  42.7 | 16.27
Output  | 0          | 0          | 0          |   0.0 |  0.00
Modify  | 1.7137e-05 | 0.002284   | 0.0048542  |   2.3 |  0.14
Other   |            | 0.1864     |            |       | 11.54

Nlocal:        2776.45 ave        3953 max           0 min
Histogram: 8 4 4 0 4 12 8 0 30 34
Nghost:        3879.01 ave        5424 max         232 min
Histogram: 8 0 8 0 16 0 8 8 16 40
Neighs:        79213.4 ave      115238 max           0 min
Histogram: 8 4 4 0 10 6 8 8 24 32

Total # of neighbors = 8238193
Ave neighs/atom = 28.530440
Neighbor list builds = 0
Dangerous builds = 0
The dot product: -7.56571093689533e-08
Setting atom values ...
  1 settings made for x
  1 settings made for y
  1 settings made for z
Setting up cg style minimization ...
  Unit style    : metal
  Current step  : 1272
Per MPI rank memory allocation (min/avg/max) = 5.441 | 5.816 | 6.074 Mbytes
Step PotEng KinEng TotEng v_fx v_fy v_fz 
    1272   -1152449.4            0   -1152449.4 -0.011630809 -0.015606705 -0.0070503206 
    1425   -1152449.4            0   -1152449.4 -3.9534291e-06 2.1904642e-06 2.052166e-05 
Loop time of 1.79859 on 104 procs for 153 steps with 288751 atoms

99.9% CPU use with 104 MPI tasks x 1 OpenMP threads

Minimization stats:
  Stopping criterion = energy tolerance
  Energy initial, next-to-last, final = 
     -1152449.40558895  -1152449.40677472  -1152449.40677472
  Force two-norm initial, final = 0.1494382 0.00017046613
  Force max component initial, final = 0.10560958 2.0521660e-05
  Final line search alpha, max atom move = 1.0000000 2.0521660e-05
  Iterations, force evaluations = 153 306

MPI task timing breakdown:
Section |  min time  |  avg time  |  max time  |%varavg| %total
---------------------------------------------------------------
Pair    | 0.45837    | 1.2846     | 1.679      |  30.7 | 71.42
Neigh   | 0          | 0          | 0          |   0.0 |  0.00
Comm    | 0.028085   | 0.2922     | 0.87084    |  44.9 | 16.25
Output  | 0          | 0          | 0          |   0.0 |  0.00
Modify  | 1.9087e-05 | 0.0025298  | 0.0053736  |   2.4 |  0.14
Other   |            | 0.2193     |            |       | 12.19

Nlocal:        2776.45 ave        3951 max           0 min
Histogram: 8 4 4 0 4 12 8 0 30 34
Nghost:        3879.01 ave        5424 max         232 min
Histogram: 8 0 8 0 16 0 8 8 16 40
Neighs:        79213.4 ave      115191 max           0 min
Histogram: 8 4 4 0 10 6 8 8 24 32

Total # of neighbors = 8238195
Ave neighs/atom = 28.530447
Neighbor list builds = 0
Dangerous builds = 0
The dot product: -1.12948229252284e-08
Setting atom values ...
  1 settings made for x
  1 settings made for y
  1 settings made for z
Setting up cg style minimization ...
  Unit style    : metal
  Current step  : 1425
Per MPI rank memory allocation (min/avg/max) = 5.441 | 5.816 | 6.074 Mbytes
Step PotEng KinEng TotEng v_fx v_fy v_fz 
    1425   -1152449.4            0   -1152449.4 -0.010498912 -0.012438971 -0.0044951234 
    1625   -1152449.4            0   -1152449.4 -1.8547442e-06 -2.8524889e-06 -2.9453419e-06 
Loop time of 2.36289 on 104 procs for 200 steps with 288751 atoms

99.9% CPU use with 104 MPI tasks x 1 OpenMP threads

Minimization stats:
  Stopping criterion = energy tolerance
  Energy initial, next-to-last, final = 
     -1152449.39404942  -1152449.39522745  -1152449.39522745
  Force two-norm initial, final = 0.14971271 4.3051036e-05
  Force max component initial, final = 0.10707518 4.5190093e-06
  Final line search alpha, max atom move = 1.0000000 4.5190093e-06
  Iterations, force evaluations = 200 400

MPI task timing breakdown:
Section |  min time  |  avg time  |  max time  |%varavg| %total
---------------------------------------------------------------
Pair    | 0.60338    | 1.6899     | 2.2019     |  35.1 | 71.52
Neigh   | 0          | 0          | 0          |   0.0 |  0.00
Comm    | 0.043427   | 0.38832    | 1.1427     |  50.8 | 16.43
Output  | 0          | 0          | 0          |   0.0 |  0.00
Modify  | 2.5027e-05 | 0.0033031  | 0.007041   |   2.7 |  0.14
Other   |            | 0.2814     |            |       | 11.91

Nlocal:        2776.45 ave        3950 max           0 min
Histogram: 8 4 4 0 4 12 8 0 28 36
Nghost:        3879.01 ave        5424 max         232 min
Histogram: 8 0 8 0 16 0 8 8 16 40
Neighs:        79213.4 ave      115149 max           0 min
Histogram: 8 4 4 0 10 6 8 8 24 32

Total # of neighbors = 8238196
Ave neighs/atom = 28.530450
Neighbor list builds = 0
Dangerous builds = 0
The dot product: 2.11700943787467e-08
Setting atom values ...
  1 settings made for x
  1 settings made for y
  1 settings made for z
Setting up cg style minimization ...
  Unit style    : metal
  Current step  : 1625
Per MPI rank memory allocation (min/avg/max) = 5.441 | 5.816 | 6.074 Mbytes
Step PotEng KinEng TotEng v_fx v_fy v_fz 
    1625   -1152449.4            0   -1152449.4 -0.0079570385 -0.0086076217 -0.0026537017 
    1805   -1152449.4            0   -1152449.4 -6.3938814e-06 -8.1648575e-06 -6.4706628e-06 
Loop time of 2.09586 on 104 procs for 180 steps with 288751 atoms

99.9% CPU use with 104 MPI tasks x 1 OpenMP threads

Minimization stats:
  Stopping criterion = energy tolerance
  Energy initial, next-to-last, final = 
     -1152449.38114671  -1152449.38231349  -1152449.38231349
  Force two-norm initial, final = 0.15020035 7.8329741e-05
  Force max component initial, final = 0.10843055 8.1648575e-06
  Final line search alpha, max atom move = 1.0000000 8.1648575e-06
  Iterations, force evaluations = 180 360

MPI task timing breakdown:
Section |  min time  |  avg time  |  max time  |%varavg| %total
---------------------------------------------------------------
Pair    | 0.5413     | 1.5134     | 1.9729     |  33.3 | 72.21
Neigh   | 0          | 0          | 0          |   0.0 |  0.00
Comm    | 0.035907   | 0.34275    | 1.0289     |  48.9 | 16.35
Output  | 0          | 0          | 0          |   0.0 |  0.00
Modify  | 2.2107e-05 | 0.0029748  | 0.0062964  |   2.6 |  0.14
Other   |            | 0.2368     |            |       | 11.30

Nlocal:        2776.45 ave        3945 max           0 min
Histogram: 8 4 4 0 4 12 8 0 28 36
Nghost:        3879.01 ave        5424 max         232 min
Histogram: 8 0 8 0 16 0 8 8 16 40
Neighs:        79213.4 ave      114959 max           0 min
Histogram: 8 4 4 0 10 6 8 8 24 32

Total # of neighbors = 8238193
Ave neighs/atom = 28.530440
Neighbor list builds = 0
Dangerous builds = 0
The dot product: 5.51752568002799e-08
Setting atom values ...
  1 settings made for x
  1 settings made for y
  1 settings made for z
Setting up cg style minimization ...
  Unit style    : metal
  Current step  : 1805
Per MPI rank memory allocation (min/avg/max) = 5.441 | 5.816 | 6.074 Mbytes
Step PotEng KinEng TotEng v_fx v_fy v_fz 
    1805   -1152449.4            0   -1152449.4 -0.0045203382 -0.0046367656 -0.0014751548 
    1950   -1152449.4            0   -1152449.4 -7.8847026e-06 8.738866e-07 3.0045122e-05 
Loop time of 1.73436 on 104 procs for 145 steps with 288751 atoms

99.9% CPU use with 104 MPI tasks x 1 OpenMP threads

Minimization stats:
  Stopping criterion = energy tolerance
  Energy initial, next-to-last, final = 
     -1152449.36685646  -1152449.36801324  -1152449.36801324
  Force two-norm initial, final = 0.15091089 0.00012440266
  Force max component initial, final = 0.10981613 3.0045122e-05
  Final line search alpha, max atom move = 1.0000000 3.0045122e-05
  Iterations, force evaluations = 145 290

MPI task timing breakdown:
Section |  min time  |  avg time  |  max time  |%varavg| %total
---------------------------------------------------------------
Pair    | 0.4342     | 1.2306     | 1.6147     |  30.3 | 70.95
Neigh   | 0          | 0          | 0          |   0.0 |  0.00
Comm    | 0.025868   | 0.28335    | 0.84494    |  43.2 | 16.34
Output  | 0          | 0          | 0          |   0.0 |  0.00
Modify  | 1.8167e-05 | 0.0024003  | 0.0051088  |   2.3 |  0.14
Other   |            | 0.218      |            |       | 12.57

Nlocal:        2776.45 ave        3943 max           0 min
Histogram: 8 4 4 0 4 12 8 0 28 36
Nghost:        3879.03 ave        5424 max         232 min
Histogram: 8 0 8 0 16 0 8 8 16 40
Neighs:        79213.4 ave      114887 max           0 min
Histogram: 8 4 4 0 10 6 8 8 22 34

Total # of neighbors = 8238192
Ave neighs/atom = 28.530436
Neighbor list builds = 0
Dangerous builds = 0
The dot product: -7.36304652731053e-09
Setting atom values ...
  1 settings made for x
  1 settings made for y
  1 settings made for z
Setting up cg style minimization ...
  Unit style    : metal
  Current step  : 1950
Per MPI rank memory allocation (min/avg/max) = 5.441 | 5.816 | 6.074 Mbytes
Step PotEng KinEng TotEng v_fx v_fy v_fz 
    1950   -1152449.4            0   -1152449.4 -0.00068581981 -0.00079950387 -0.00068308844 
    2000   -1152449.4            0   -1152449.4 -7.9945799e-05 -0.0001839811 -0.00042306709 
    2071   -1152449.4            0   -1152449.4 -2.4095328e-05 -1.8608311e-05 1.1868543e-05 
Loop time of 1.41385 on 104 procs for 121 steps with 288751 atoms

99.9% CPU use with 104 MPI tasks x 1 OpenMP threads

Minimization stats:
  Stopping criterion = energy tolerance
  Energy initial, next-to-last, final = 
     -1152449.35116385  -1152449.35230881  -1152449.35230881
  Force two-norm initial, final = 0.15186385 0.00018698474
  Force max component initial, final = 0.11133898 3.4847837e-05
  Final line search alpha, max atom move = 1.0000000 3.4847837e-05
  Iterations, force evaluations = 121 242

MPI task timing breakdown:
Section |  min time  |  avg time  |  max time  |%varavg| %total
---------------------------------------------------------------
Pair    | 0.36315    | 1.0154     | 1.3297     |  27.3 | 71.82
Neigh   | 0          | 0          | 0          |   0.0 |  0.00
Comm    | 0.02294    | 0.23053    | 0.68776    |  39.7 | 16.31
Output  | 0.00020853 | 0.00021082 | 0.000315   |   0.0 |  0.01
Modify  | 1.5462e-05 | 0.0020048  | 0.0042684  |   2.1 |  0.14
Other   |            | 0.1657     |            |       | 11.72

Nlocal:        2776.45 ave        3941 max           0 min
Histogram: 8 4 4 0 4 12 8 0 28 36
Nghost:        3879.03 ave        5424 max         232 min
Histogram: 8 0 8 0 16 0 8 8 16 40
Neighs:        79213.4 ave      114824 max           0 min
Histogram: 8 4 4 0 10 6 8 8 22 34

Total # of neighbors = 8238192
Ave neighs/atom = 28.530436
Neighbor list builds = 0
Dangerous builds = 0
The dot product: 6.91659488359865e-08
Setting atom values ...
  1 settings made for x
  1 settings made for y
  1 settings made for z
Setting up cg style minimization ...
  Unit style    : metal
  Current step  : 2071
Per MPI rank memory allocation (min/avg/max) = 5.441 | 5.816 | 6.074 Mbytes
Step PotEng KinEng TotEng v_fx v_fy v_fz 
    2071   -1152449.3            0   -1152449.3 0.0030368382 0.0027033567 0.00010007488 
    2212   -1152449.3            0   -1152449.3 -8.7184239e-06 -4.7010822e-06 1.1649581e-05 
Loop time of 1.66174 on 104 procs for 141 steps with 288751 atoms

99.9% CPU use with 104 MPI tasks x 1 OpenMP threads

Minimization stats:
  Stopping criterion = energy tolerance
  Energy initial, next-to-last, final = 
     -1152449.33404482  -1152449.33518134  -1152449.33518134
  Force two-norm initial, final = 0.15306486 0.00017066186
  Force max component initial, final = 0.11305818 3.0997783e-05
  Final line search alpha, max atom move = 1.0000000 3.0997783e-05
  Iterations, force evaluations = 141 282

MPI task timing breakdown:
Section |  min time  |  avg time  |  max time  |%varavg| %total
---------------------------------------------------------------
Pair    | 0.4213     | 1.1865     | 1.5576     |  29.5 | 71.40
Neigh   | 0          | 0          | 0          |   0.0 |  0.00
Comm    | 0.024859   | 0.26979    | 0.79937    |  43.1 | 16.24
Output  | 0          | 0          | 0          |   0.0 |  0.00
Modify  | 1.7575e-05 | 0.0023371  | 0.0050106  |   2.3 |  0.14
Other   |            | 0.2031     |            |       | 12.23

Nlocal:        2776.45 ave        3938 max           0 min
Histogram: 8 4 4 0 4 12 8 0 28 36
Nghost:        3879.03 ave        5424 max         232 min
Histogram: 8 0 8 0 16 0 8 8 16 40
Neighs:        79213.4 ave      114718 max           0 min
Histogram: 8 4 4 0 9 7 8 8 22 34

Total # of neighbors = 8238191
Ave neighs/atom = 28.530433
Neighbor list builds = 0
Dangerous builds = 0
The dot product: 4.66158616260166e-09
Setting atom values ...
  1 settings made for x
  1 settings made for y
  1 settings made for z
Setting up cg style minimization ...
  Unit style    : metal
  Current step  : 2212
Per MPI rank memory allocation (min/avg/max) = 5.441 | 5.816 | 6.074 Mbytes
Step PotEng KinEng TotEng v_fx v_fy v_fz 
    2212   -1152449.3            0   -1152449.3  0.006567457 0.0059572355 0.00093913802 
    2375   -1152449.3            0   -1152449.3 4.358333e-07 2.1110194e-06 6.9077204e-06 
Loop time of 1.90312 on 104 procs for 163 steps with 288751 atoms

99.9% CPU use with 104 MPI tasks x 1 OpenMP threads

Minimization stats:
  Stopping criterion = energy tolerance
  Energy initial, next-to-last, final = 
     -1152449.31548017  -1152449.31661568  -1152449.31661568
  Force two-norm initial, final = 0.15452702 0.00017792827
  Force max component initial, final = 0.11495995 2.2610664e-05
  Final line search alpha, max atom move = 1.0000000 2.2610664e-05
  Iterations, force evaluations = 163 326

MPI task timing breakdown:
Section |  min time  |  avg time  |  max time  |%varavg| %total
---------------------------------------------------------------
Pair    | 0.48948    | 1.3667     | 1.7814     |  31.7 | 71.81
Neigh   | 0          | 0          | 0          |   0.0 |  0.00
Comm    | 0.033188   | 0.31002    | 0.92993    |  46.5 | 16.29
Output  | 0          | 0          | 0          |   0.0 |  0.00
Modify  | 2.0094e-05 | 0.0026931  | 0.0057379  |   2.4 |  0.14
Other   |            | 0.2237     |            |       | 11.76

Nlocal:        2776.45 ave        3932 max           0 min
Histogram: 8 4 4 0 4 12 8 0 26 38
Nghost:        3879.05 ave        5424 max         232 min
Histogram: 8 0 8 0 16 0 8 8 16 40
Neighs:        79213.4 ave      114522 max           0 min
Histogram: 8 4 4 0 8 8 8 8 20 36

Total # of neighbors = 8238191
Ave neighs/atom = 28.530433
Neighbor list builds = 0
Dangerous builds = 0
The dot product: -5.3368152233248e-09
Setting atom values ...
  1 settings made for x
  1 settings made for y
  1 settings made for z
Setting up cg style minimization ...
  Unit style    : metal
  Current step  : 2375
Per MPI rank memory allocation (min/avg/max) = 5.441 | 5.816 | 6.074 Mbytes
Step PotEng KinEng TotEng v_fx v_fy v_fz 
    2375   -1152449.3            0   -1152449.3 0.0099231233 0.0090438423 0.0016971652 
    2497   -1152449.3            0   -1152449.3 -1.4442747e-05 -1.520929e-05 -1.075697e-05 
Loop time of 1.42893 on 104 procs for 122 steps with 288751 atoms

99.9% CPU use with 104 MPI tasks x 1 OpenMP threads

Minimization stats:
  Stopping criterion = energy tolerance
  Energy initial, next-to-last, final = 
     -1152449.29545881  -1152449.29660152  -1152449.29660152
  Force two-norm initial, final = 0.1562969 0.00017407627
  Force max component initial, final = 0.11706199 2.7323271e-05
  Final line search alpha, max atom move = 1.0000000 2.7323271e-05
  Iterations, force evaluations = 122 244

MPI task timing breakdown:
Section |  min time  |  avg time  |  max time  |%varavg| %total
---------------------------------------------------------------
Pair    | 0.36389    | 1.0269     | 1.3472     |  27.5 | 71.86
Neigh   | 0          | 0          | 0          |   0.0 |  0.00
Comm    | 0.021964   | 0.23303    | 0.69328    |  40.4 | 16.31
Output  | 0          | 0          | 0          |   0.0 |  0.00
Modify  | 1.537e-05  | 0.0020202  | 0.0042811  |   2.1 |  0.14
Other   |            | 0.167      |            |       | 11.69

Nlocal:        2776.45 ave        3930 max           0 min
Histogram: 8 4 4 0 4 12 8 0 26 38
Nghost:        3879.05 ave        5424 max         232 min
Histogram: 8 0 8 0 16 0 8 8 16 40
Neighs:        79213.4 ave      114474 max           0 min
Histogram: 8 4 4 0 8 8 8 8 20 36

Total # of neighbors = 8238191
Ave neighs/atom = 28.530433
Neighbor list builds = 0
Dangerous builds = 0
The dot product: -1.07614208855375e-08
Setting atom values ...
  1 settings made for x
  1 settings made for y
  1 settings made for z
Setting up cg style minimization ...
  Unit style    : metal
  Current step  : 2497
Per MPI rank memory allocation (min/avg/max) = 5.441 | 5.816 | 6.074 Mbytes
Step PotEng KinEng TotEng v_fx v_fy v_fz 
    2497   -1152449.3            0   -1152449.3  0.013152116  0.012024386  0.002150938 
    2669   -1152449.3            0   -1152449.3 2.4173001e-05 1.4785946e-05 -2.5930681e-05 
Loop time of 2.01376 on 104 procs for 172 steps with 288751 atoms

99.9% CPU use with 104 MPI tasks x 1 OpenMP threads

Minimization stats:
  Stopping criterion = energy tolerance
  Energy initial, next-to-last, final = 
     -1152449.27397412  -1152449.27513415  -1152449.27513415
  Force two-norm initial, final = 0.15845133 0.00013522602
  Force max component initial, final = 0.11940216 3.3066021e-05
  Final line search alpha, max atom move = 1.0000000 3.3066021e-05
  Iterations, force evaluations = 172 344

MPI task timing breakdown:
Section |  min time  |  avg time  |  max time  |%varavg| %total
---------------------------------------------------------------
Pair    | 0.51527    | 1.4429     | 1.8806     |  32.6 | 71.65
Neigh   | 0          | 0          | 0          |   0.0 |  0.00
Comm    | 0.031641   | 0.32795    | 0.97247    |  47.3 | 16.29
Output  | 0          | 0          | 0          |   0.0 |  0.00
Modify  | 2.1485e-05 | 0.0028434  | 0.0060467  |   2.5 |  0.14
Other   |            | 0.2401     |            |       | 11.92

Nlocal:        2776.45 ave        3930 max           0 min
Histogram: 8 4 4 0 4 12 8 0 26 38
Nghost:        3879.11 ave        5424 max         232 min
Histogram: 8 0 8 0 16 0 8 8 16 40
Neighs:        79213.3 ave      114478 max           0 min
Histogram: 8 4 4 0 8 8 8 8 20 36

Total # of neighbors = 8238188
Ave neighs/atom = 28.530422
Neighbor list builds = 0
Dangerous builds = 0
The dot product: 6.79854913939434e-08
Setting atom values ...
  1 settings made for x
  1 settings made for y
  1 settings made for z
Setting up cg style minimization ...
  Unit style    : metal
  Current step  : 2669
Per MPI rank memory allocation (min/avg/max) = 5.441 | 5.816 | 6.074 Mbytes
Step PotEng KinEng TotEng v_fx v_fy v_fz 
    2669   -1152449.3            0   -1152449.3  0.016280888  0.015022535  0.002475453 
    2803   -1152449.3            0   -1152449.3 -8.6833827e-07 -5.9158935e-06 -2.1097072e-05 
Loop time of 1.55443 on 104 procs for 134 steps with 288751 atoms

99.9% CPU use with 104 MPI tasks x 1 OpenMP threads

Minimization stats:
  Stopping criterion = energy tolerance
  Energy initial, next-to-last, final = 
     -1152449.25102647  -1152449.25221305  -1152449.25221305
  Force two-norm initial, final = 0.1610074 0.00013279885
  Force max component initial, final = 0.12184762 2.1097072e-05
  Final line search alpha, max atom move = 1.0000000 2.1097072e-05
  Iterations, force evaluations = 134 268

MPI task timing breakdown:
Section |  min time  |  avg time  |  max time  |%varavg| %total
---------------------------------------------------------------
Pair    | 0.40158    | 1.1296     | 1.4662     |  28.8 | 72.67
Neigh   | 0          | 0          | 0          |   0.0 |  0.00
Comm    | 0.024612   | 0.25533    | 0.76096    |  42.2 | 16.43
Output  | 0          | 0          | 0          |   0.0 |  0.00
Modify  | 1.6428e-05 | 0.0022108  | 0.0047029  |   2.2 |  0.14
Other   |            | 0.1673     |            |       | 10.76

Nlocal:        2776.45 ave        3930 max           0 min
Histogram: 8 4 4 0 4 12 8 0 26 38
Nghost:        3879.09 ave        5424 max         232 min
Histogram: 8 0 8 0 16 0 8 8 16 40
Neighs:        79213.3 ave      114477 max           0 min
Histogram: 8 4 4 0 8 8 8 8 20 36

Total # of neighbors = 8238188
Ave neighs/atom = 28.530422
Neighbor list builds = 0
Dangerous builds = 0
The dot product: -3.96072270351541e-09
Setting atom values ...
  1 settings made for x
  1 settings made for y
  1 settings made for z
Setting up cg style minimization ...
  Unit style    : metal
  Current step  : 2803
Per MPI rank memory allocation (min/avg/max) = 5.441 | 5.816 | 6.074 Mbytes
Step PotEng KinEng TotEng v_fx v_fy v_fz 
    2803   -1152449.2            0   -1152449.2  0.019178609  0.017900231 0.0024086461 
    2948   -1152449.2            0   -1152449.2 -1.6236415e-05 -1.6369171e-07 5.9388836e-05 
Loop time of 1.6848 on 104 procs for 145 steps with 288751 atoms

99.9% CPU use with 104 MPI tasks x 1 OpenMP threads

Minimization stats:
  Stopping criterion = energy tolerance
  Energy initial, next-to-last, final = 
     -1152449.22661897  -1152449.22784308  -1152449.22784308
  Force two-norm initial, final = 0.16398956 0.00018366369
  Force max component initial, final = 0.12449953 5.9388836e-05
  Final line search alpha, max atom move = 1.0000000 5.9388836e-05
  Iterations, force evaluations = 145 290

MPI task timing breakdown:
Section |  min time  |  avg time  |  max time  |%varavg| %total
---------------------------------------------------------------
Pair    | 0.43503    | 1.2175     | 1.5836     |  29.9 | 72.26
Neigh   | 0          | 0          | 0          |   0.0 |  0.00
Comm    | 0.026366   | 0.27594    | 0.82629    |  43.8 | 16.38
Output  | 0          | 0          | 0          |   0.0 |  0.00
Modify  | 1.8311e-05 | 0.0023972  | 0.0051182  |   2.3 |  0.14
Other   |            | 0.189      |            |       | 11.22

Nlocal:        2776.45 ave        3930 max           0 min
Histogram: 8 4 4 0 4 12 8 0 26 38
Nghost:        3879.09 ave        5424 max         232 min
Histogram: 8 0 8 0 16 0 8 8 16 40
Neighs:        79213.3 ave      114477 max           0 min
Histogram: 8 4 4 0 8 8 8 8 20 36

Total # of neighbors = 8238188
Ave neighs/atom = 28.530422
Neighbor list builds = 0
Dangerous builds = 0
The dot product: -8.07142459710939e-08
Setting atom values ...
  1 settings made for x
  1 settings made for y
  1 settings made for z
Setting up cg style minimization ...
  Unit style    : metal
  Current step  : 2948
Per MPI rank memory allocation (min/avg/max) = 5.441 | 5.816 | 6.074 Mbytes
Step PotEng KinEng TotEng v_fx v_fy v_fz 
    2948   -1152449.2            0   -1152449.2  0.021784884  0.020705155 0.0022711624 
    3000   -1152449.2            0   -1152449.2 0.00011268903 0.00016345958 0.00024199299 
    3081   -1152449.2            0   -1152449.2 -6.633501e-06 -1.0253731e-05 -1.682546e-05 
Loop time of 1.55029 on 104 procs for 133 steps with 288751 atoms

99.9% CPU use with 104 MPI tasks x 1 OpenMP threads

Minimization stats:
  Stopping criterion = energy tolerance
  Energy initial, next-to-last, final = 
     -1152449.20076429   -1152449.2020358   -1152449.2020358
  Force two-norm initial, final = 0.16739478 0.00016716065
  Force max component initial, final = 0.12731574 1.9244206e-05
  Final line search alpha, max atom move = 1.0000000 1.9244206e-05
  Iterations, force evaluations = 133 266

MPI task timing breakdown:
Section |  min time  |  avg time  |  max time  |%varavg| %total
---------------------------------------------------------------
Pair    | 0.39869    | 1.1233     | 1.4564     |  28.7 | 72.46
Neigh   | 0          | 0          | 0          |   0.0 |  0.00
Comm    | 0.022944   | 0.25626    | 0.7587     |  41.8 | 16.53
Output  | 0.00016068 | 0.00016558 | 0.00028072 |   0.0 |  0.01
Modify  | 1.6608e-05 | 0.0022008  | 0.0047116  |   2.2 |  0.14
Other   |            | 0.1683     |            |       | 10.86

Nlocal:        2776.45 ave        3930 max           0 min
Histogram: 8 4 4 0 4 12 8 0 26 38
Nghost:        3879.09 ave        5424 max         232 min
Histogram: 8 0 8 0 16 0 8 8 16 40
Neighs:        79213.3 ave      114477 max           0 min
Histogram: 8 4 4 0 8 8 8 8 20 36

Total # of neighbors = 8238183
Ave neighs/atom = 28.530405
Neighbor list builds = 0
Dangerous builds = 0
The dot product: -5.29862675131861e-08
Setting atom values ...
  1 settings made for x
  1 settings made for y
  1 settings made for z
Setting up cg style minimization ...
  Unit style    : metal
  Current step  : 3081
Per MPI rank memory allocation (min/avg/max) = 5.441 | 5.816 | 6.074 Mbytes
Step PotEng KinEng TotEng v_fx v_fy v_fz 
    3081   -1152449.2            0   -1152449.2  0.025215505  0.024351972 0.0013991145 
    3239   -1152449.2            0   -1152449.2 6.517148e-06 1.4658412e-05 3.437478e-05 
Loop time of 1.85308 on 104 procs for 158 steps with 288751 atoms

99.9% CPU use with 104 MPI tasks x 1 OpenMP threads

Minimization stats:
  Stopping criterion = energy tolerance
  Energy initial, next-to-last, final = 
     -1152449.17348722  -1152449.17482859  -1152449.17482859
  Force two-norm initial, final = 0.17141532 0.00017808689
  Force max component initial, final = 0.13022004 3.4374780e-05
  Final line search alpha, max atom move = 1.0000000 3.4374780e-05
  Iterations, force evaluations = 158 316

MPI task timing breakdown:
Section |  min time  |  avg time  |  max time  |%varavg| %total
---------------------------------------------------------------
Pair    | 0.47423    | 1.3312     | 1.7364     |  31.3 | 71.84
Neigh   | 0          | 0          | 0          |   0.0 |  0.00
Comm    | 0.028574   | 0.30338    | 0.90934    |  45.9 | 16.37
Output  | 0          | 0          | 0          |   0.0 |  0.00
Modify  | 1.9651e-05 | 0.002616   | 0.0057421  |   2.4 |  0.14
Other   |            | 0.2159     |            |       | 11.65

Nlocal:        2776.45 ave        3930 max           0 min
Histogram: 8 4 4 0 4 12 8 0 26 38
Nghost:        3879.09 ave        5424 max         232 min
Histogram: 8 0 8 0 16 0 8 8 16 40
Neighs:        79213.3 ave      114477 max           0 min
Histogram: 8 4 4 0 8 8 8 8 20 36

Total # of neighbors = 8238183
Ave neighs/atom = 28.530405
Neighbor list builds = 0
Dangerous builds = 0
The dot product: 7.45560247181292e-08
Setting atom values ...
  1 settings made for x
  1 settings made for y
  1 settings made for z
Setting up cg style minimization ...
  Unit style    : metal
  Current step  : 3239
Per MPI rank memory allocation (min/avg/max) = 5.441 | 5.816 | 6.074 Mbytes
Step PotEng KinEng TotEng v_fx v_fy v_fz 
    3239   -1152449.1            0   -1152449.1   0.03034546  0.029075203 -0.0036135022 
    3465   -1152449.1            0   -1152449.1 3.0450459e-06 2.8739408e-06 -5.3921581e-07 
Loop time of 2.61523 on 104 procs for 226 steps with 288751 atoms

99.9% CPU use with 104 MPI tasks x 1 OpenMP threads

Minimization stats:
  Stopping criterion = energy tolerance
  Energy initial, next-to-last, final = 
     -1152449.14482506  -1152449.14628956  -1152449.14628956
  Force two-norm initial, final = 0.17602648 2.2060185e-05
  Force max component initial, final = 0.13342279 4.4001376e-06
  Final line search alpha, max atom move = 1.0000000 4.4001376e-06
  Iterations, force evaluations = 226 452

MPI task timing breakdown:
Section |  min time  |  avg time  |  max time  |%varavg| %total
---------------------------------------------------------------
Pair    | 0.67495    | 1.8955     | 2.4605     |  37.2 | 72.48
Neigh   | 0          | 0          | 0          |   0.0 |  0.00
Comm    | 0.044096   | 0.4257     | 1.2719     |  54.8 | 16.28
Output  | 0          | 0          | 0          |   0.0 |  0.00
Modify  | 2.8321e-05 | 0.0037271  | 0.0078972  |   2.9 |  0.14
Other   |            | 0.2903     |            |       | 11.10

Nlocal:        2776.45 ave        3930 max           0 min
Histogram: 8 4 4 0 4 12 8 0 26 38
Nghost:        3879.09 ave        5424 max         232 min
Histogram: 8 0 8 0 16 0 8 8 16 40
Neighs:        79213.3 ave      114468 max           0 min
Histogram: 8 4 4 0 8 8 8 8 20 36

Total # of neighbors = 8238185
Ave neighs/atom = 28.530412
Neighbor list builds = 0
Dangerous builds = 0
The dot product: 4.38909462918607e-08
Setting atom values ...
  1 settings made for x
  1 settings made for y
  1 settings made for z
Setting up cg style minimization ...
  Unit style    : metal
  Current step  : 3465
Per MPI rank memory allocation (min/avg/max) = 5.441 | 5.816 | 6.074 Mbytes
Step PotEng KinEng TotEng v_fx v_fy v_fz 
    3465   -1152449.1            0   -1152449.1  0.038984612  0.036300084  -0.01703937 
    3579   -1152449.1            0   -1152449.1 1.8705615e-06 1.5068388e-05 5.3485556e-05 
Loop time of 1.33177 on 104 procs for 114 steps with 288751 atoms

99.9% CPU use with 104 MPI tasks x 1 OpenMP threads

Minimization stats:
  Stopping criterion = energy tolerance
  Energy initial, next-to-last, final = 
      -1152449.1147171  -1152449.11645686  -1152449.11645686
  Force two-norm initial, final = 0.1832386 0.00021706115
  Force max component initial, final = 0.13703958 5.3485556e-05
  Final line search alpha, max atom move = 1.0000000 5.3485556e-05
  Iterations, force evaluations = 114 228

MPI task timing breakdown:
Section |  min time  |  avg time  |  max time  |%varavg| %total
---------------------------------------------------------------
Pair    | 0.34186    | 0.95942    | 1.2473     |  26.6 | 72.04
Neigh   | 0          | 0          | 0          |   0.0 |  0.00
Comm    | 0.021348   | 0.21825    | 0.65281    |  38.8 | 16.39
Output  | 0          | 0          | 0          |   0.0 |  0.00
Modify  | 1.4017e-05 | 0.0018895  | 0.0040365  |   2.0 |  0.14
Other   |            | 0.1522     |            |       | 11.43

Nlocal:        2776.45 ave        3930 max           0 min
Histogram: 8 4 4 0 4 12 8 0 26 38
Nghost:        3879.09 ave        5424 max         232 min
Histogram: 8 0 8 0 16 0 8 8 16 40
Neighs:        79213.3 ave      114466 max           0 min
Histogram: 8 4 4 0 8 8 8 8 20 36

Total # of neighbors = 8238183
Ave neighs/atom = 28.530405
Neighbor list builds = 0
Dangerous builds = 0
The dot product: -8.93210930910716e-08
Setting atom values ...
  1 settings made for x
  1 settings made for y
  1 settings made for z
Setting up cg style minimization ...
  Unit style    : metal
  Current step  : 3579
Per MPI rank memory allocation (min/avg/max) = 5.441 | 5.816 | 6.074 Mbytes
Step PotEng KinEng TotEng v_fx v_fy v_fz 
    3579   -1152449.1            0   -1152449.1  0.047940923  0.046385931 -0.029186577 
    3703   -1152449.1            0   -1152449.1 1.9345983e-05 2.3078211e-05 6.6178398e-06 
Loop time of 1.45166 on 104 procs for 124 steps with 288751 atoms

99.9% CPU use with 104 MPI tasks x 1 OpenMP threads

Minimization stats:
  Stopping criterion = energy tolerance
  Energy initial, next-to-last, final = 
     -1152449.08328169  -1152449.08534704  -1152449.08534704
  Force two-norm initial, final = 0.19292505 0.00014801154
  Force max component initial, final = 0.14124739 2.9462717e-05
  Final line search alpha, max atom move = 1.0000000 2.9462717e-05
  Iterations, force evaluations = 124 248

MPI task timing breakdown:
Section |  min time  |  avg time  |  max time  |%varavg| %total
---------------------------------------------------------------
Pair    | 0.37097    | 1.045      | 1.3701     |  27.7 | 71.99
Neigh   | 0          | 0          | 0          |   0.0 |  0.00
Comm    | 0.023844   | 0.23562    | 0.70388    |  40.7 | 16.23
Output  | 0          | 0          | 0          |   0.0 |  0.00
Modify  | 1.5777e-05 | 0.0020525  | 0.0043838  |   2.1 |  0.14
Other   |            | 0.169      |            |       | 11.64

Nlocal:        2776.45 ave        3930 max           0 min
Histogram: 8 4 4 0 4 12 8 0 26 38
Nghost:        3879.09 ave        5424 max         232 min
Histogram: 8 0 8 0 16 0 8 8 16 40
Neighs:        79213.3 ave      114465 max           0 min
Histogram: 8 4 4 0 8 8 8 8 20 36

Total # of neighbors = 8238183
Ave neighs/atom = 28.530405
Neighbor list builds = 0
Dangerous builds = 0
The dot product: 4.83653362672948e-07
Setting atom values ...
  1 settings made for x
  1 settings made for y
  1 settings made for z
Setting up cg style minimization ...
  Unit style    : metal
  Current step  : 3703
Per MPI rank memory allocation (min/avg/max) = 5.441 | 5.816 | 6.074 Mbytes
Step PotEng KinEng TotEng v_fx v_fy v_fz 
    3703   -1152449.1            0   -1152449.1  0.053156253  0.055568478 -0.037863812 
    3874   -1152449.1            0   -1152449.1 2.0237708e-06 -1.0478678e-05 -5.7994237e-05 
Loop time of 1.98201 on 104 procs for 171 steps with 288751 atoms

99.9% CPU use with 104 MPI tasks x 1 OpenMP threads

Minimization stats:
  Stopping criterion = energy tolerance
  Energy initial, next-to-last, final = 
     -1152449.05062749  -1152449.05296075  -1152449.05296075
  Force two-norm initial, final = 0.20167745 0.00020194498
  Force max component initial, final = 0.14555339 5.7994237e-05
  Final line search alpha, max atom move = 1.0000000 5.7994237e-05
  Iterations, force evaluations = 171 342

MPI task timing breakdown:
Section |  min time  |  avg time  |  max time  |%varavg| %total
---------------------------------------------------------------
Pair    | 0.51105    | 1.4325     | 1.8669     |  32.4 | 72.27
Neigh   | 0          | 0          | 0          |   0.0 |  0.00
Comm    | 0.030996   | 0.32378    | 0.96641    |  47.6 | 16.34
Output  | 0          | 0          | 0          |   0.0 |  0.00
Modify  | 2.1087e-05 | 0.0028241  | 0.0060145  |   2.5 |  0.14
Other   |            | 0.223      |            |       | 11.25

Nlocal:        2776.45 ave        3930 max           0 min
Histogram: 8 4 4 0 4 12 8 0 26 38
Nghost:        3879.09 ave        5424 max         232 min
Histogram: 8 0 8 0 16 0 8 8 16 40
Neighs:        79213.3 ave      114465 max           0 min
Histogram: 8 4 4 0 8 8 8 8 20 36

Total # of neighbors = 8238182
Ave neighs/atom = 28.530402
Neighbor list builds = 0
Dangerous builds = 0
The dot product: 4.05315876522536e-07
Setting atom values ...
  1 settings made for x
  1 settings made for y
  1 settings made for z
Setting up cg style minimization ...
  Unit style    : metal
  Current step  : 3874
Per MPI rank memory allocation (min/avg/max) = 5.441 | 5.816 | 6.074 Mbytes
Step PotEng KinEng TotEng v_fx v_fy v_fz 
    3874     -1152449            0     -1152449  0.055112968  0.062053339 -0.050483805 
    4000     -1152449            0     -1152449 -3.3964714e-05 -4.8991191e-05 -2.2127768e-05 
    4177     -1152449            0     -1152449 1.3672173e-07 1.9423046e-07 7.4319039e-08 
Loop time of 3.58114 on 104 procs for 303 steps with 288751 atoms

99.9% CPU use with 104 MPI tasks x 1 OpenMP threads

Minimization stats:
  Stopping criterion = energy tolerance
  Energy initial, next-to-last, final = 
     -1152449.01682013  -1152449.01940601  -1152449.01940601
  Force two-norm initial, final = 0.20995444 1.7183656e-06
  Force max component initial, final = 0.14964631 1.9643268e-07
  Final line search alpha, max atom move = 1.0000000 1.9643268e-07
  Iterations, force evaluations = 303 606

MPI task timing breakdown:
Section |  min time  |  avg time  |  max time  |%varavg| %total
---------------------------------------------------------------
Pair    | 0.90475    | 2.5564     | 3.347      |  43.4 | 71.39
Neigh   | 0          | 0          | 0          |   0.0 |  0.00
Comm    | 0.054627   | 0.588      | 1.7289     |  62.9 | 16.42
Output  | 0.00015488 | 0.00016206 | 0.00029731 |   0.0 |  0.00
Modify  | 3.6567e-05 | 0.0049918  | 0.010626   |   3.3 |  0.14
Other   |            | 0.4316     |            |       | 12.05

Nlocal:        2776.45 ave        3930 max           0 min
Histogram: 8 4 4 0 4 12 8 0 26 38
Nghost:        3879.09 ave        5425 max         232 min
Histogram: 8 0 8 0 16 0 8 8 16 40
Neighs:        79213.2 ave      114465 max           0 min
Histogram: 8 4 4 0 8 8 8 8 20 36

Total # of neighbors = 8238178
Ave neighs/atom = 28.530388
Neighbor list builds = 0
Dangerous builds = 0
The dot product: 3.79399986765887e-09
Setting atom values ...
  1 settings made for x
  1 settings made for y
  1 settings made for z
Setting up cg style minimization ...
  Unit style    : metal
  Current step  : 4177
Per MPI rank memory allocation (min/avg/max) = 5.441 | 5.816 | 6.074 Mbytes
Step PotEng KinEng TotEng v_fx v_fy v_fz 
    4177     -1152449            0     -1152449  0.053641225  0.065106168 -0.068684294 
    4352     -1152449            0     -1152449 2.4947356e-05 4.4011884e-05 5.0104321e-05 
Loop time of 2.05239 on 104 procs for 175 steps with 288751 atoms

99.9% CPU use with 104 MPI tasks x 1 OpenMP threads

Minimization stats:
  Stopping criterion = energy tolerance
  Energy initial, next-to-last, final = 
     -1152448.98210948  -1152448.98489101  -1152448.98489101
  Force two-norm initial, final = 0.21847576 0.0002376384
  Force max component initial, final = 0.15357271 5.0104321e-05
  Final line search alpha, max atom move = 1.0000000 5.0104321e-05
  Iterations, force evaluations = 175 350

MPI task timing breakdown:
Section |  min time  |  avg time  |  max time  |%varavg| %total
---------------------------------------------------------------
Pair    | 0.52127    | 1.4705     | 1.9162     |  33.0 | 71.65
Neigh   | 0          | 0          | 0          |   0.0 |  0.00
Comm    | 0.032941   | 0.3346     | 0.98846    |  47.5 | 16.30
Output  | 0          | 0          | 0          |   0.0 |  0.00
Modify  | 2.1188e-05 | 0.0028911  | 0.0061431  |   2.5 |  0.14
Other   |            | 0.2444     |            |       | 11.91

Nlocal:        2776.45 ave        3930 max           0 min
Histogram: 8 4 4 0 4 12 8 0 26 38
Nghost:        3879.02 ave        5425 max         232 min
Histogram: 8 0 8 0 16 0 8 8 16 40
Neighs:        79213.2 ave      114462 max           0 min
Histogram: 8 4 4 0 8 8 8 8 20 36

Total # of neighbors = 8238178
Ave neighs/atom = 28.530388
Neighbor list builds = 0
Dangerous builds = 0
The dot product: 1.57118367759741e-07
Setting atom values ...
  1 settings made for x
  1 settings made for y
  1 settings made for z
Setting up cg style minimization ...
  Unit style    : metal
  Current step  : 4352
Per MPI rank memory allocation (min/avg/max) = 5.441 | 5.816 | 6.074 Mbytes
Step PotEng KinEng TotEng v_fx v_fy v_fz 
    4352   -1152448.9            0   -1152448.9   0.04745227  0.063660667 -0.081669047 
    4746     -1152449            0     -1152449 7.6476334e-07 1.3032279e-06 1.0061994e-06 
Loop time of 4.59814 on 104 procs for 394 steps with 288751 atoms

99.9% CPU use with 104 MPI tasks x 1 OpenMP threads

Minimization stats:
  Stopping criterion = energy tolerance
  Energy initial, next-to-last, final = 
     -1152448.94672639  -1152448.98109933  -1152448.98109933
  Force two-norm initial, final = 0.22438875 1.4577815e-05
  Force max component initial, final = 0.15711739 3.6078397e-06
  Final line search alpha, max atom move = 1.0000000 3.6078397e-06
  Iterations, force evaluations = 394 786

MPI task timing breakdown:
Section |  min time  |  avg time  |  max time  |%varavg| %total
---------------------------------------------------------------
Pair    | 1.1898     | 3.3128     | 4.2973     |  49.1 | 72.05
Neigh   | 3.1067e-05 | 0.0086913  | 0.012852   |   3.9 |  0.19
Comm    | 0.073664   | 0.76313    | 2.2504     |  71.3 | 16.60
Output  | 0          | 0          | 0          |   0.0 |  0.00
Modify  | 4.8605e-05 | 0.0064894  | 0.013882   |   3.8 |  0.14
Other   |            | 0.507      |            |       | 11.03

Nlocal:        2776.45 ave        3937 max           0 min
Histogram: 8 4 4 0 4 12 8 0 28 36
Nghost:        3879.03 ave        5425 max         232 min
Histogram: 8 0 8 0 16 0 8 8 16 40
Neighs:        79213.3 ave      114703 max           0 min
Histogram: 8 4 4 0 8 8 8 8 22 34

Total # of neighbors = 8238180
Ave neighs/atom = 28.530395
Neighbor list builds = 3
Dangerous builds = 0
The dot product: -2.75825390078742e-08
Setting atom values ...
  1 settings made for x
  1 settings made for y
  1 settings made for z
Setting up cg style minimization ...
  Unit style    : metal
  Current step  : 4746
Per MPI rank memory allocation (min/avg/max) = 5.441 | 5.816 | 6.074 Mbytes
Step PotEng KinEng TotEng v_fx v_fy v_fz 
    4746     -1152449            0     -1152449  0.021534829  0.051741231  -0.14003477 
    4982     -1152449            0     -1152449 -1.2564934e-06 -1.9257783e-06 -2.1090293e-06 
Loop time of 2.75198 on 104 procs for 236 steps with 288751 atoms

99.9% CPU use with 104 MPI tasks x 1 OpenMP threads

Minimization stats:
  Stopping criterion = energy tolerance
  Energy initial, next-to-last, final = 
     -1152448.95874795  -1152448.96262804  -1152448.96262804
  Force two-norm initial, final = 0.25576958 2.7108231e-05
  Force max component initial, final = 0.16439556 8.2887315e-06
  Final line search alpha, max atom move = 1.0000000 8.2887315e-06
  Iterations, force evaluations = 236 472

MPI task timing breakdown:
Section |  min time  |  avg time  |  max time  |%varavg| %total
---------------------------------------------------------------
Pair    | 0.70476    | 1.9819     | 2.5893     |  38.3 | 72.02
Neigh   | 0          | 0          | 0          |   0.0 |  0.00
Comm    | 0.040617   | 0.45274    | 1.3566     |  56.0 | 16.45
Output  | 0          | 0          | 0          |   0.0 |  0.00
Modify  | 2.9182e-05 | 0.0038984  | 0.0082777  |   2.9 |  0.14
Other   |            | 0.3135     |            |       | 11.39

Nlocal:        2776.45 ave        3941 max           0 min
Histogram: 8 4 4 0 4 12 8 0 28 36
Nghost:        3879.05 ave        5427 max         232 min
Histogram: 8 0 8 0 16 0 8 8 16 40
Neighs:        79213.3 ave      114819 max           0 min
Histogram: 8 4 4 0 10 6 8 8 22 34

Total # of neighbors = 8238183
Ave neighs/atom = 28.530405
Neighbor list builds = 0
Dangerous builds = 0
The dot product: 3.55725313115192e-08
Setting atom values ...
  1 settings made for x
  1 settings made for y
  1 settings made for z
Setting up cg style minimization ...
  Unit style    : metal
  Current step  : 4982
Per MPI rank memory allocation (min/avg/max) = 5.441 | 5.816 | 6.074 Mbytes
Step PotEng KinEng TotEng v_fx v_fy v_fz 
    4982   -1152448.9            0   -1152448.9 0.0058939419  0.025029366  -0.06854429 
    5000   -1152448.9            0   -1152448.9 0.00016665232 0.00029148771 2.7534705e-05 
    5133   -1152448.9            0   -1152448.9 -1.3555781e-06 -5.6484832e-06 1.525411e-05 
Loop time of 1.75809 on 104 procs for 151 steps with 288751 atoms

99.9% CPU use with 104 MPI tasks x 1 OpenMP threads

Minimization stats:
  Stopping criterion = energy tolerance
  Energy initial, next-to-last, final = 
     -1152448.94018658   -1152448.9425502   -1152448.9425502
  Force two-norm initial, final = 0.22363649 0.00019773736
  Force max component initial, final = 0.16595432 6.8486348e-05
  Final line search alpha, max atom move = 1.0000000 6.8486348e-05
  Iterations, force evaluations = 151 302

MPI task timing breakdown:
Section |  min time  |  avg time  |  max time  |%varavg| %total
---------------------------------------------------------------
Pair    | 0.45473    | 1.2723     | 1.6526     |  30.5 | 72.37
Neigh   | 0          | 0          | 0          |   0.0 |  0.00
Comm    | 0.033377   | 0.28599    | 0.8587     |  45.0 | 16.27
Output  | 0.00015611 | 0.00016971 | 0.00024203 |   0.0 |  0.01
Modify  | 1.8586e-05 | 0.0024952  | 0.0053205  |   2.3 |  0.14
Other   |            | 0.1971     |            |       | 11.21

Nlocal:        2776.45 ave        3942 max           0 min
Histogram: 8 4 4 0 4 12 8 0 28 36
Nghost:        3879.03 ave        5424 max         232 min
Histogram: 8 0 8 0 16 0 8 8 16 40
Neighs:        79213.3 ave      114858 max           0 min
Histogram: 8 4 4 0 10 6 8 8 22 34

Total # of neighbors = 8238184
Ave neighs/atom = 28.530409
Neighbor list builds = 0
Dangerous builds = 0
The dot product: -2.28096261488671e-07
Setting atom values ...
  1 settings made for x
  1 settings made for y
  1 settings made for z
Setting up cg style minimization ...
  Unit style    : metal
  Current step  : 5133
Per MPI rank memory allocation (min/avg/max) = 5.441 | 5.816 | 6.074 Mbytes
Step PotEng KinEng TotEng v_fx v_fy v_fz 
    5133   -1152448.9            0   -1152448.9 0.0010596139  0.012814501  -0.04142689 
    5262   -1152448.9            0   -1152448.9 -1.1531646e-05 -1.5295596e-05 -2.139676e-05 
Loop time of 1.52031 on 104 procs for 129 steps with 288751 atoms

99.9% CPU use with 104 MPI tasks x 1 OpenMP threads

Minimization stats:
  Stopping criterion = energy tolerance
  Energy initial, next-to-last, final = 
     -1152448.92010324  -1152448.92239054  -1152448.92239054
  Force two-norm initial, final = 0.22076396 0.00026395697
  Force max component initial, final = 0.16759884 4.6240064e-05
  Final line search alpha, max atom move = 1.0000000 4.6240064e-05
  Iterations, force evaluations = 129 258

MPI task timing breakdown:
Section |  min time  |  avg time  |  max time  |%varavg| %total
---------------------------------------------------------------
Pair    | 0.38679    | 1.0843     | 1.4143     |  28.2 | 71.32
Neigh   | 0          | 0          | 0          |   0.0 |  0.00
Comm    | 0.023243   | 0.24801    | 0.74379    |  41.2 | 16.31
Output  | 0          | 0          | 0          |   0.0 |  0.00
Modify  | 1.5987e-05 | 0.0021327  | 0.0045398  |   2.2 |  0.14
Other   |            | 0.1859     |            |       | 12.23

Nlocal:        2776.45 ave        3942 max           0 min
Histogram: 8 4 4 0 4 12 8 0 28 36
Nghost:        3879.05 ave        5425 max         232 min
Histogram: 8 0 8 0 16 0 8 8 16 40
Neighs:        79213.3 ave      114848 max           0 min
Histogram: 8 4 4 0 10 6 8 8 22 34

Total # of neighbors = 8238185
Ave neighs/atom = 28.530412
Neighbor list builds = 0
Dangerous builds = 0
The dot product: 1.41645369879214e-07
Setting atom values ...
  1 settings made for x
  1 settings made for y
  1 settings made for z
Setting up cg style minimization ...
  Unit style    : metal
  Current step  : 5262
Per MPI rank memory allocation (min/avg/max) = 5.441 | 5.816 | 6.074 Mbytes
Step PotEng KinEng TotEng v_fx v_fy v_fz 
    5262   -1152448.9            0   -1152448.9 -0.00054917676   0.00789574 -0.030284363 
    5399   -1152448.9            0   -1152448.9 -1.3244595e-05 -2.6175569e-05 6.6579505e-06 
Loop time of 1.59668 on 104 procs for 137 steps with 288751 atoms

99.9% CPU use with 104 MPI tasks x 1 OpenMP threads

Minimization stats:
  Stopping criterion = energy tolerance
  Energy initial, next-to-last, final = 
     -1152448.90013572  -1152448.90212466  -1152448.90212466
  Force two-norm initial, final = 0.22076402 0.00024533429
  Force max component initial, final = 0.16962221 8.3917985e-05
  Final line search alpha, max atom move = 1.0000000 8.3917985e-05
  Iterations, force evaluations = 137 274

MPI task timing breakdown:
Section |  min time  |  avg time  |  max time  |%varavg| %total
---------------------------------------------------------------
Pair    | 0.41122    | 1.153      | 1.5021     |  29.0 | 72.21
Neigh   | 0          | 0          | 0          |   0.0 |  0.00
Comm    | 0.026927   | 0.2593     | 0.77355    |  42.7 | 16.24
Output  | 0          | 0          | 0          |   0.0 |  0.00
Modify  | 1.7565e-05 | 0.0022636  | 0.0048127  |   2.2 |  0.14
Other   |            | 0.1821     |            |       | 11.41

Nlocal:        2776.45 ave        3943 max           0 min
Histogram: 8 4 4 0 4 12 8 0 28 36
Nghost:        3879.07 ave        5425 max         232 min
Histogram: 8 0 8 0 16 0 8 8 16 40
Neighs:        79213.3 ave      114873 max           0 min
Histogram: 8 4 4 0 10 6 8 8 22 34

Total # of neighbors = 8238182
Ave neighs/atom = 28.530402
Neighbor list builds = 0
Dangerous builds = 0
The dot product: -5.69539358242223e-08
Setting atom values ...
  1 settings made for x
  1 settings made for y
  1 settings made for z
Setting up cg style minimization ...
  Unit style    : metal
  Current step  : 5399
Per MPI rank memory allocation (min/avg/max) = 5.441 | 5.816 | 6.074 Mbytes
Step PotEng KinEng TotEng v_fx v_fy v_fz 
    5399   -1152448.9            0   -1152448.9 -0.00045418581 0.0054877353   -0.0203089 
    5602   -1152448.9            0   -1152448.9 4.4977089e-06 7.824397e-06 1.3710566e-06 
Loop time of 2.36451 on 104 procs for 203 steps with 288751 atoms

99.9% CPU use with 104 MPI tasks x 1 OpenMP threads

Minimization stats:
  Stopping criterion = energy tolerance
  Energy initial, next-to-last, final = 
      -1152448.8788087   -1152448.8806159   -1152448.8806159
  Force two-norm initial, final = 0.21924835 6.4734536e-05
  Force max component initial, final = 0.17167009 1.4529547e-05
  Final line search alpha, max atom move = 1.0000000 1.4529547e-05
  Iterations, force evaluations = 203 406

MPI task timing breakdown:
Section |  min time  |  avg time  |  max time  |%varavg| %total
---------------------------------------------------------------
Pair    | 0.60683    | 1.6986     | 2.2187     |  35.3 | 71.84
Neigh   | 0          | 0          | 0          |   0.0 |  0.00
Comm    | 0.035631   | 0.38588    | 1.1482     |  51.4 | 16.32
Output  | 0          | 0          | 0          |   0.0 |  0.00
Modify  | 2.4764e-05 | 0.0033524  | 0.0071165  |   2.7 |  0.14
Other   |            | 0.2766     |            |       | 11.70

Nlocal:        2776.45 ave        3942 max           0 min
Histogram: 8 4 4 0 4 12 8 0 28 36
Nghost:        3879.05 ave        5425 max         232 min
Histogram: 8 0 8 0 16 0 8 8 16 40
Neighs:        79213.3 ave      114847 max           0 min
Histogram: 8 4 4 0 10 6 8 8 22 34

Total # of neighbors = 8238180
Ave neighs/atom = 28.530395
Neighbor list builds = 0
Dangerous builds = 0
The dot product: -3.65754832212903e-09
Setting atom values ...
  1 settings made for x
  1 settings made for y
  1 settings made for z
Setting up cg style minimization ...
  Unit style    : metal
  Current step  : 5602
Per MPI rank memory allocation (min/avg/max) = 5.441 | 5.816 | 6.074 Mbytes
Step PotEng KinEng TotEng v_fx v_fy v_fz 
    5602   -1152448.9            0   -1152448.9 -0.00023374198  0.003865725 -0.013484414 
    5790   -1152448.9            0   -1152448.9 -3.9819587e-06 -7.237793e-06 -2.0493043e-07 
Loop time of 2.20717 on 104 procs for 188 steps with 288751 atoms

99.9% CPU use with 104 MPI tasks x 1 OpenMP threads

Minimization stats:
  Stopping criterion = energy tolerance
  Energy initial, next-to-last, final = 
     -1152448.85530057   -1152448.8572198   -1152448.8572198
  Force two-norm initial, final = 0.22315506 0.00010579719
  Force max component initial, final = 0.17391264 2.6137373e-05
  Final line search alpha, max atom move = 1.0000000 2.6137373e-05
  Iterations, force evaluations = 188 376

MPI task timing breakdown:
Section |  min time  |  avg time  |  max time  |%varavg| %total
---------------------------------------------------------------
Pair    | 0.56242    | 1.5846     | 2.0797     |  34.2 | 71.79
Neigh   | 0          | 0          | 0          |   0.0 |  0.00
Comm    | 0.033985   | 0.36021    | 1.072      |  49.8 | 16.32
Output  | 0          | 0          | 0          |   0.0 |  0.00
Modify  | 2.292e-05  | 0.0031031  | 0.0065881  |   2.6 |  0.14
Other   |            | 0.2592     |            |       | 11.74

Nlocal:        2776.45 ave        3941 max           0 min
Histogram: 8 4 4 0 4 12 8 0 28 36
Nghost:        3879.03 ave        5425 max         232 min
Histogram: 8 0 8 0 16 0 8 8 16 40
Neighs:        79213.3 ave      114815 max           0 min
Histogram: 8 4 4 0 10 6 8 8 22 34

Total # of neighbors = 8238179
Ave neighs/atom = 28.530391
Neighbor list builds = 0
Dangerous builds = 0
The dot product: 4.83782230794978e-09
Setting atom values ...
  1 settings made for x
  1 settings made for y
  1 settings made for z
Setting up cg style minimization ...
  Unit style    : metal
  Current step  : 5790
Per MPI rank memory allocation (min/avg/max) = 5.441 | 5.816 | 6.074 Mbytes
Step PotEng KinEng TotEng v_fx v_fy v_fz 
    5790   -1152448.8            0   -1152448.8 -0.00011481738 0.0029424032 -0.0098392661 
    5933   -1152448.8            0   -1152448.8 -9.1168965e-06 -1.4720246e-05 -6.1358701e-06 
Loop time of 1.66355 on 104 procs for 143 steps with 288751 atoms

99.9% CPU use with 104 MPI tasks x 1 OpenMP threads

Minimization stats:
  Stopping criterion = energy tolerance
  Energy initial, next-to-last, final = 
      -1152448.8296728  -1152448.83170407  -1152448.83170407
  Force two-norm initial, final = 0.22783069 0.0002081586
  Force max component initial, final = 0.17621526 7.8549992e-05
  Final line search alpha, max atom move = 1.0000000 7.8549992e-05
  Iterations, force evaluations = 143 286

MPI task timing breakdown:
Section |  min time  |  avg time  |  max time  |%varavg| %total
---------------------------------------------------------------
Pair    | 0.42814    | 1.1995     | 1.5692     |  29.7 | 72.11
Neigh   | 0          | 0          | 0          |   0.0 |  0.00
Comm    | 0.024505   | 0.2711     | 0.8099     |  43.4 | 16.30
Output  | 0          | 0          | 0          |   0.0 |  0.00
Modify  | 1.7557e-05 | 0.0023609  | 0.0050117  |   2.3 |  0.14
Other   |            | 0.1906     |            |       | 11.45

Nlocal:        2776.45 ave        3939 max           0 min
Histogram: 8 4 4 0 4 12 8 0 28 36
Nghost:        3879.03 ave        5425 max         232 min
Histogram: 8 0 8 0 16 0 8 8 16 40
Neighs:        79213.2 ave      114752 max           0 min
Histogram: 8 4 4 0 9 7 8 8 22 34

Total # of neighbors = 8238177
Ave neighs/atom = 28.530384
Neighbor list builds = 0
Dangerous builds = 0
The dot product: 1.43573972485314e-08
Setting atom values ...
  1 settings made for x
  1 settings made for y
  1 settings made for z
Setting up cg style minimization ...
  Unit style    : metal
  Current step  : 5933
Per MPI rank memory allocation (min/avg/max) = 5.441 | 5.816 | 6.074 Mbytes
Step PotEng KinEng TotEng v_fx v_fy v_fz 
    5933   -1152448.8            0   -1152448.8  3.29617e-05 0.0025090009 -0.0076564585 
    6000   -1152448.8            0   -1152448.8 -1.2156385e-05 -1.887078e-05 -1.036314e-05 
    6167   -1152448.8            0   -1152448.8 5.3597854e-07 9.0730872e-07 2.2151357e-07 
Loop time of 2.74142 on 104 procs for 234 steps with 288751 atoms

99.9% CPU use with 104 MPI tasks x 1 OpenMP threads

Minimization stats:
  Stopping criterion = energy tolerance
  Energy initial, next-to-last, final = 
     -1152448.80181287  -1152448.80394398  -1152448.80394398
  Force two-norm initial, final = 0.23232851 3.1164034e-05
  Force max component initial, final = 0.17843844 7.9613833e-06
  Final line search alpha, max atom move = 1.0000000 7.9613833e-06
  Iterations, force evaluations = 234 468

MPI task timing breakdown:
Section |  min time  |  avg time  |  max time  |%varavg| %total
---------------------------------------------------------------
Pair    | 0.69749    | 1.9721     | 2.5828     |  38.1 | 71.94
Neigh   | 0          | 0          | 0          |   0.0 |  0.00
Comm    | 0.041396   | 0.44924    | 1.3401     |  55.8 | 16.39
Output  | 0.00022425 | 0.00023354 | 0.00034964 |   0.0 |  0.01
Modify  | 2.8807e-05 | 0.0038663  | 0.0081987  |   2.9 |  0.14
Other   |            | 0.316      |            |       | 11.53

Nlocal:        2776.45 ave        3937 max           0 min
Histogram: 8 4 4 0 4 12 8 0 28 36
Nghost:        3879.01 ave        5425 max         232 min
Histogram: 8 0 8 0 16 0 8 8 16 40
Neighs:        79213.2 ave      114690 max           0 min
Histogram: 8 4 4 0 8 8 8 8 22 34

Total # of neighbors = 8238176
Ave neighs/atom = 28.530381
Neighbor list builds = 0
Dangerous builds = 0
The dot product: -8.85071311609092e-10
Setting atom values ...
  1 settings made for x
  1 settings made for y
  1 settings made for z
Setting up cg style minimization ...
  Unit style    : metal
  Current step  : 6167
Per MPI rank memory allocation (min/avg/max) = 5.441 | 5.816 | 6.074 Mbytes
Step PotEng KinEng TotEng v_fx v_fy v_fz 
    6167   -1152448.8            0   -1152448.8 0.00026604356 0.0025577907 -0.0065156226 
    6345   -1152448.8            0   -1152448.8 7.2837605e-06 6.4983452e-06 2.1219651e-05 
Loop time of 2.06962 on 104 procs for 178 steps with 288751 atoms

99.9% CPU use with 104 MPI tasks x 1 OpenMP threads

Minimization stats:
  Stopping criterion = energy tolerance
  Energy initial, next-to-last, final = 
     -1152448.77164519   -1152448.7738525   -1152448.7738525
  Force two-norm initial, final = 0.23638248 0.00020363208
  Force max component initial, final = 0.18089703 6.7704383e-05
  Final line search alpha, max atom move = 1.0000000 6.7704383e-05
  Iterations, force evaluations = 178 356

MPI task timing breakdown:
Section |  min time  |  avg time  |  max time  |%varavg| %total
---------------------------------------------------------------
Pair    | 0.53159    | 1.493      | 1.9455     |  33.1 | 72.14
Neigh   | 0          | 0          | 0          |   0.0 |  0.00
Comm    | 0.030579   | 0.33898    | 1.0168     |  48.7 | 16.38
Output  | 0          | 0          | 0          |   0.0 |  0.00
Modify  | 2.1875e-05 | 0.0029383  | 0.0062578  |   2.6 |  0.14
Other   |            | 0.2347     |            |       | 11.34

Nlocal:        2776.45 ave        3930 max           0 min
Histogram: 8 4 4 0 4 12 8 0 26 38
Nghost:        3878.99 ave        5425 max         232 min
Histogram: 8 0 8 0 16 0 8 8 16 40
Neighs:        79213.2 ave      114462 max           0 min
Histogram: 8 4 4 0 8 8 8 8 20 36

Total # of neighbors = 8238169
Ave neighs/atom = 28.530357
Neighbor list builds = 0
Dangerous builds = 0
The dot product: 2.87295663667163e-09
Setting atom values ...
  1 settings made for x
  1 settings made for y
  1 settings made for z
Setting up cg style minimization ...
  Unit style    : metal
  Current step  : 6345
Per MPI rank memory allocation (min/avg/max) = 5.441 | 5.816 | 6.074 Mbytes
Step PotEng KinEng TotEng v_fx v_fy v_fz 
    6345   -1152448.7            0   -1152448.7 0.00056594296  0.002858656 -0.0057971566 
    6483   -1152448.7            0   -1152448.7 9.0325529e-06 8.3875857e-06 2.5306063e-05 
Loop time of 1.60094 on 104 procs for 138 steps with 288751 atoms

99.9% CPU use with 104 MPI tasks x 1 OpenMP threads

Minimization stats:
  Stopping criterion = energy tolerance
  Energy initial, next-to-last, final = 
     -1152448.73911288  -1152448.74137344  -1152448.74137344
  Force two-norm initial, final = 0.23965348 0.00023489859
  Force max component initial, final = 0.1833578 8.4194947e-05
  Final line search alpha, max atom move = 1.0000000 8.4194947e-05
  Iterations, force evaluations = 138 276

MPI task timing breakdown:
Section |  min time  |  avg time  |  max time  |%varavg| %total
---------------------------------------------------------------
Pair    | 0.4127     | 1.1624     | 1.5072     |  29.2 | 72.61
Neigh   | 0          | 0          | 0          |   0.0 |  0.00
Comm    | 0.025472   | 0.26281    | 0.78451    |  42.7 | 16.42
Output  | 0          | 0          | 0          |   0.0 |  0.00
Modify  | 1.7146e-05 | 0.0022827  | 0.0048741  |   2.3 |  0.14
Other   |            | 0.1735     |            |       | 10.83

Nlocal:        2776.45 ave        3930 max           0 min
Histogram: 8 4 4 0 4 12 8 0 26 38
Nghost:        3879.00 ave        5425 max         232 min
Histogram: 8 0 8 0 16 0 8 8 16 40
Neighs:        79213.1 ave      114461 max           0 min
Histogram: 8 4 4 0 8 8 8 8 20 36

Total # of neighbors = 8238166
Ave neighs/atom = 28.530346
Neighbor list builds = 0
Dangerous builds = 0
The dot product: 7.38605886937276e-09
Setting atom values ...
  1 settings made for x
  1 settings made for y
  1 settings made for z
Setting up cg style minimization ...
  Unit style    : metal
  Current step  : 6483
Per MPI rank memory allocation (min/avg/max) = 5.441 | 5.816 | 6.074 Mbytes
Step PotEng KinEng TotEng v_fx v_fy v_fz 
    6483   -1152448.7            0   -1152448.7 0.00087531391 0.0033387613 -0.0055998823 
    6629   -1152448.7            0   -1152448.7 5.6081649e-06 1.5136474e-05 -1.5922743e-05 
Loop time of 1.69968 on 104 procs for 146 steps with 288751 atoms

99.9% CPU use with 104 MPI tasks x 1 OpenMP threads

Minimization stats:
  Stopping criterion = energy tolerance
  Energy initial, next-to-last, final = 
     -1152448.70418558  -1152448.70647808  -1152448.70647808
  Force two-norm initial, final = 0.24218045 0.00026199283
  Force max component initial, final = 0.18579841 0.00010188117
  Final line search alpha, max atom move = 1.0000000 0.00010188117
  Iterations, force evaluations = 146 292

MPI task timing breakdown:
Section |  min time  |  avg time  |  max time  |%varavg| %total
---------------------------------------------------------------
Pair    | 0.43692    | 1.2262     | 1.5978     |  30.0 | 72.14
Neigh   | 0          | 0          | 0          |   0.0 |  0.00
Comm    | 0.026923   | 0.27886    | 0.83963    |  44.0 | 16.41
Output  | 0          | 0          | 0          |   0.0 |  0.00
Modify  | 1.8259e-05 | 0.0024234  | 0.0051238  |   2.3 |  0.14
Other   |            | 0.1922     |            |       | 11.31

Nlocal:        2776.45 ave        3930 max           0 min
Histogram: 8 4 4 0 4 12 8 0 26 38
Nghost:        3878.94 ave        5425 max         232 min
Histogram: 8 0 8 0 16 0 8 8 16 40
Neighs:        79213.1 ave      114461 max           0 min
Histogram: 8 4 4 0 8 8 8 8 20 36

Total # of neighbors = 8238166
Ave neighs/atom = 28.530346
Neighbor list builds = 0
Dangerous builds = 0
The dot product: -2.40939082263679e-08
Setting atom values ...
  1 settings made for x
  1 settings made for y
  1 settings made for z
Setting up cg style minimization ...
  Unit style    : metal
  Current step  : 6629
Per MPI rank memory allocation (min/avg/max) = 5.441 | 5.816 | 6.074 Mbytes
Step PotEng KinEng TotEng v_fx v_fy v_fz 
    6629   -1152448.7            0   -1152448.7 0.0011910566 0.0039939839 -0.0059343067 
    6779   -1152448.7            0   -1152448.7 4.0712553e-06 6.4054226e-06 3.0318573e-06 
Loop time of 1.74236 on 104 procs for 150 steps with 288751 atoms

99.9% CPU use with 104 MPI tasks x 1 OpenMP threads

Minimization stats:
  Stopping criterion = energy tolerance
  Energy initial, next-to-last, final = 
     -1152448.66685485  -1152448.66916123  -1152448.66916123
  Force two-norm initial, final = 0.24416258 0.00026041565
  Force max component initial, final = 0.18826285 8.5411513e-05
  Final line search alpha, max atom move = 1.0000000 8.5411513e-05
  Iterations, force evaluations = 150 300

MPI task timing breakdown:
Section |  min time  |  avg time  |  max time  |%varavg| %total
---------------------------------------------------------------
Pair    | 0.44777    | 1.2638     | 1.639      |  30.4 | 72.53
Neigh   | 0          | 0          | 0          |   0.0 |  0.00
Comm    | 0.034028   | 0.28421    | 0.85298    |  44.8 | 16.31
Output  | 0          | 0          | 0          |   0.0 |  0.00
Modify  | 1.8724e-05 | 0.0024813  | 0.0052765  |   2.3 |  0.14
Other   |            | 0.1919     |            |       | 11.01

Nlocal:        2776.45 ave        3930 max           0 min
Histogram: 8 4 4 0 4 12 8 0 26 38
Nghost:        3878.91 ave        5425 max         232 min
Histogram: 8 0 8 0 16 0 8 8 16 40
Neighs:        79213.1 ave      114462 max           0 min
Histogram: 8 4 4 0 8 8 8 8 20 36

Total # of neighbors = 8238163
Ave neighs/atom = 28.530336
Neighbor list builds = 0
Dangerous builds = 0
The dot product: -2.50968084703521e-09
Setting atom values ...
  1 settings made for x
  1 settings made for y
  1 settings made for z
Setting up cg style minimization ...
  Unit style    : metal
  Current step  : 6779
Per MPI rank memory allocation (min/avg/max) = 5.441 | 5.816 | 6.074 Mbytes
Step PotEng KinEng TotEng v_fx v_fy v_fz 
    6779   -1152448.6            0   -1152448.6 0.0015410802 0.0048012251 -0.0065722803 
    6926   -1152448.6            0   -1152448.6 -6.5619269e-06 -1.1345184e-05 -1.5382365e-06 
Loop time of 1.71069 on 104 procs for 147 steps with 288751 atoms

99.9% CPU use with 104 MPI tasks x 1 OpenMP threads

[...]
Nlocal:        2776.45 ave        3955 max           0 min
Histogram: 8 4 4 0 4 12 8 2 28 34
Nghost:        3879.16 ave        5425 max         232 min
Histogram: 8 0 8 0 16 0 8 8 16 40
Neighs:        79213.3 ave      115265 max           0 min
Histogram: 8 4 4 0 10 6 8 8 24 32

Total # of neighbors = 8238184
Ave neighs/atom = 28.530409
Neighbor list builds = 0
Dangerous builds = 0
The dot product: 1.14689438348004e-08
Setting atom values ...
  1 settings made for x
  1 settings made for y
  1 settings made for z
Setting up cg style minimization ...
  Unit style    : metal
  Current step  : 20289
Per MPI rank memory allocation (min/avg/max) = 5.441 | 5.816 | 6.074 Mbytes
Step PotEng KinEng TotEng v_fx v_fy v_fz 
   20289     -1152449            0     -1152449 0.0095496005 -3.0622396e-05  0.012949003 
   20489     -1152449            0     -1152449 1.2576336e-06 2.0522556e-05 1.8746599e-06 
Loop time of 2.33767 on 104 procs for 200 steps with 288751 atoms

99.9% CPU use with 104 MPI tasks x 1 OpenMP threads

Minimization stats:
  Stopping criterion = energy tolerance
  Energy initial, next-to-last, final = 
     -1152448.95327349  -1152448.95461605  -1152448.95461605
  Force two-norm initial, final = 0.16978502 9.2852794e-05
  Force max component initial, final = 0.079692639 2.0522556e-05
  Final line search alpha, max atom move = 1.0000000 2.0522556e-05
  Iterations, force evaluations = 200 400

MPI task timing breakdown:
Section |  min time  |  avg time  |  max time  |%varavg| %total
---------------------------------------------------------------
Pair    | 0.59986    | 1.6829     | 2.199      |  35.1 | 71.99
Neigh   | 0          | 0          | 0          |   0.0 |  0.00
Comm    | 0.035995   | 0.38257    | 1.1396     |  51.0 | 16.37
Output  | 0          | 0          | 0          |   0.0 |  0.00
Modify  | 2.4168e-05 | 0.0033033  | 0.0070309  |   2.7 |  0.14
Other   |            | 0.2689     |            |       | 11.50

Nlocal:        2776.45 ave        3955 max           0 min
Histogram: 8 4 4 0 4 12 8 2 28 34
Nghost:        3879.16 ave        5425 max         232 min
Histogram: 8 0 8 0 16 0 8 8 16 40
Neighs:        79213.3 ave      115274 max           0 min
Histogram: 8 4 4 0 10 6 8 8 24 32

Total # of neighbors = 8238185
Ave neighs/atom = 28.530412
Neighbor list builds = 0
Dangerous builds = 0
The dot product: -1.53111728209519e-08
Setting atom values ...
  1 settings made for x
  1 settings made for y
  1 settings made for z
Setting up cg style minimization ...
  Unit style    : metal
  Current step  : 20489
Per MPI rank memory allocation (min/avg/max) = 5.441 | 5.816 | 6.074 Mbytes
Step PotEng KinEng TotEng v_fx v_fy v_fz 
   20489     -1152449            0     -1152449 0.0092791807 0.0020411055  0.012608041 
   20730     -1152449            0     -1152449 -5.6073056e-07 7.6468794e-07 -7.550756e-07 
Loop time of 2.8123 on 104 procs for 241 steps with 288751 atoms

99.9% CPU use with 104 MPI tasks x 1 OpenMP threads

Minimization stats:
  Stopping criterion = energy tolerance
  Energy initial, next-to-last, final = 
     -1152448.98343361  -1152448.98477386  -1152448.98477386
  Force two-norm initial, final = 0.16906142 1.4832823e-05
  Force max component initial, final = 0.079334425 2.4135328e-06
  Final line search alpha, max atom move = 1.0000000 2.4135328e-06
  Iterations, force evaluations = 241 482

MPI task timing breakdown:
Section |  min time  |  avg time  |  max time  |%varavg| %total
---------------------------------------------------------------
Pair    | 0.72129    | 2.0237     | 2.6533     |  38.6 | 71.96
Neigh   | 0          | 0          | 0          |   0.0 |  0.00
Comm    | 0.04394    | 0.46023    | 1.3563     |  55.7 | 16.37
Output  | 0          | 0          | 0          |   0.0 |  0.00
Modify  | 2.8963e-05 | 0.0039761  | 0.0084586  |   3.0 |  0.14
Other   |            | 0.3244     |            |       | 11.53

Nlocal:        2776.45 ave        3956 max           0 min
Histogram: 8 4 4 0 4 12 8 2 28 34
Nghost:        3879.14 ave        5425 max         232 min
Histogram: 8 0 8 0 16 0 8 8 16 40
Neighs:        79213.3 ave      115303 max           0 min
Histogram: 8 4 4 0 10 6 8 8 24 32

Total # of neighbors = 8238187
Ave neighs/atom = 28.530419
Neighbor list builds = 0
Dangerous builds = 0
The dot product: -7.73244276079789e-10
Setting atom values ...
  1 settings made for x
  1 settings made for y
  1 settings made for z
Setting up cg style minimization ...
  Unit style    : metal
  Current step  : 20730
Per MPI rank memory allocation (min/avg/max) = 5.441 | 5.816 | 6.074 Mbytes
Step PotEng KinEng TotEng v_fx v_fy v_fz 
   20730     -1152449            0     -1152449  0.010592808 0.0025771409  0.014400141 
   20916     -1152449            0     -1152449 5.5093525e-06 -9.2805303e-06 7.4109416e-06 
Loop time of 2.18691 on 104 procs for 186 steps with 288751 atoms

99.9% CPU use with 104 MPI tasks x 1 OpenMP threads

Minimization stats:
  Stopping criterion = energy tolerance
  Energy initial, next-to-last, final = 
     -1152449.01196048  -1152449.01330068  -1152449.01330068
  Force two-norm initial, final = 0.16865531 0.00013309094
  Force max component initial, final = 0.078944885 3.2224263e-05
  Final line search alpha, max atom move = 1.0000000 3.2224263e-05
  Iterations, force evaluations = 186 372

MPI task timing breakdown:
Section |  min time  |  avg time  |  max time  |%varavg| %total
---------------------------------------------------------------
Pair    | 0.55666    | 1.566      | 2.0526     |  34.0 | 71.61
Neigh   | 0          | 0          | 0          |   0.0 |  0.00
Comm    | 0.034681   | 0.35908    | 1.0525     |  48.7 | 16.42
Output  | 0          | 0          | 0          |   0.0 |  0.00
Modify  | 2.2257e-05 | 0.0030726  | 0.0065263  |   2.6 |  0.14
Other   |            | 0.2587     |            |       | 11.83

Nlocal:        2776.45 ave        3956 max           0 min
Histogram: 8 4 4 0 4 12 8 2 28 34
Nghost:        3879.09 ave        5425 max         232 min
Histogram: 8 0 8 0 16 0 8 8 16 40
Neighs:        79213.4 ave      115304 max           0 min
Histogram: 8 4 4 0 10 6 8 8 24 32

Total # of neighbors = 8238189
Ave neighs/atom = 28.530426
Neighbor list builds = 0
Dangerous builds = 0
The dot product: 1.0348370989484e-08
Setting atom values ...
  1 settings made for x
  1 settings made for y
  1 settings made for z
Setting up cg style minimization ...
  Unit style    : metal
  Current step  : 20916
Per MPI rank memory allocation (min/avg/max) = 5.441 | 5.816 | 6.074 Mbytes
Step PotEng KinEng TotEng v_fx v_fy v_fz 
   20916     -1152449            0     -1152449    0.0116444 0.0034160987  0.015843323 
   21000     -1152449            0     -1152449 -6.0996641e-05 -9.3117197e-05 -8.3530733e-05 
   21107     -1152449            0     -1152449 -1.1834016e-05 -2.2129912e-05 -1.6234995e-05 
Loop time of 2.23125 on 104 procs for 191 steps with 288751 atoms

99.9% CPU use with 104 MPI tasks x 1 OpenMP threads

Minimization stats:
  Stopping criterion = energy tolerance
  Energy initial, next-to-last, final = 
     -1152449.03886447  -1152449.04020662  -1152449.04020662
  Force two-norm initial, final = 0.16829784 0.00011667858
  Force max component initial, final = 0.078498067 2.6694687e-05
  Final line search alpha, max atom move = 1.0000000 2.6694687e-05
  Iterations, force evaluations = 191 382

MPI task timing breakdown:
Section |  min time  |  avg time  |  max time  |%varavg| %total
---------------------------------------------------------------
Pair    | 0.57083    | 1.6043     | 2.101      |  34.4 | 71.90
Neigh   | 0          | 0          | 0          |   0.0 |  0.00
Comm    | 0.033048   | 0.36723    | 1.0858     |  49.8 | 16.46
Output  | 0.00015486 | 0.00016078 | 0.00027431 |   0.0 |  0.01
Modify  | 2.316e-05  | 0.0031566  | 0.0067255  |   2.6 |  0.14
Other   |            | 0.2564     |            |       | 11.49

Nlocal:        2776.45 ave        3956 max           0 min
Histogram: 8 4 4 0 4 12 8 2 28 34
Nghost:        3879.09 ave        5425 max         232 min
Histogram: 8 0 8 0 16 0 8 8 16 40
Neighs:        79213.4 ave      115304 max           0 min
Histogram: 8 4 4 0 10 6 8 8 24 32

Total # of neighbors = 8238189
Ave neighs/atom = 28.530426
Neighbor list builds = 0
Dangerous builds = 0
The dot product: -1.34986834684663e-08
Setting atom values ...
  1 settings made for x
  1 settings made for y
  1 settings made for z
Setting up cg style minimization ...
  Unit style    : metal
  Current step  : 21107
Per MPI rank memory allocation (min/avg/max) = 5.441 | 5.816 | 6.074 Mbytes
Step PotEng KinEng TotEng v_fx v_fy v_fz 
   21107   -1152449.1            0   -1152449.1  0.012643808 0.0041571378  0.017218858 
   21276   -1152449.1            0   -1152449.1 2.0392044e-05 4.5609596e-05 2.8043741e-05 
Loop time of 1.98173 on 104 procs for 169 steps with 288751 atoms

99.9% CPU use with 104 MPI tasks x 1 OpenMP threads

Minimization stats:
  Stopping criterion = energy tolerance
  Energy initial, next-to-last, final = 
     -1152449.06415819  -1152449.06550532  -1152449.06550532
  Force two-norm initial, final = 0.16808812 0.00026996899
  Force max component initial, final = 0.078127303 6.5102677e-05
  Final line search alpha, max atom move = 1.0000000 6.5102677e-05
  Iterations, force evaluations = 169 338

MPI task timing breakdown:
Section |  min time  |  avg time  |  max time  |%varavg| %total
---------------------------------------------------------------
Pair    | 0.50558    | 1.4234     | 1.8636     |  32.4 | 71.82
Neigh   | 0          | 0          | 0          |   0.0 |  0.00
Comm    | 0.028647   | 0.32655    | 0.96581    |  46.5 | 16.48
Output  | 0          | 0          | 0          |   0.0 |  0.00
Modify  | 2.0657e-05 | 0.0027923  | 0.0059667  |   2.5 |  0.14
Other   |            | 0.229      |            |       | 11.56

Nlocal:        2776.45 ave        3956 max           0 min
Histogram: 8 4 4 0 4 12 8 2 28 34
Nghost:        3879.11 ave        5426 max         232 min
Histogram: 8 0 8 0 16 0 8 8 16 40
Neighs:        79213.4 ave      115306 max           0 min
Histogram: 8 4 4 0 10 6 8 8 24 32

Total # of neighbors = 8238190
Ave neighs/atom = 28.530429
Neighbor list builds = 0
Dangerous builds = 0
The dot product: 3.46934659772009e-08
Setting atom values ...
  1 settings made for x
  1 settings made for y
  1 settings made for z
Setting up cg style minimization ...
  Unit style    : metal
  Current step  : 21276
Per MPI rank memory allocation (min/avg/max) = 5.441 | 5.816 | 6.074 Mbytes
Step PotEng KinEng TotEng v_fx v_fy v_fz 
   21276   -1152449.1            0   -1152449.1   0.01355605 0.0048395625  0.018480756 
   21483   -1152449.1            0   -1152449.1 4.3778982e-06 1.2245962e-05 6.0426447e-06 
Loop time of 2.41389 on 104 procs for 207 steps with 288751 atoms

99.9% CPU use with 104 MPI tasks x 1 OpenMP threads

Minimization stats:
  Stopping criterion = energy tolerance
  Energy initial, next-to-last, final = 
     -1152449.08786097  -1152449.08921625  -1152449.08921625
  Force two-norm initial, final = 0.16798597 7.3091375e-05
  Force max component initial, final = 0.07780763 1.2245962e-05
  Final line search alpha, max atom move = 1.0000000 1.2245962e-05
  Iterations, force evaluations = 207 414

MPI task timing breakdown:
Section |  min time  |  avg time  |  max time  |%varavg| %total
---------------------------------------------------------------
Pair    | 0.62122    | 1.7377     | 2.2771     |  35.7 | 71.99
Neigh   | 0          | 0          | 0          |   0.0 |  0.00
Comm    | 0.03667    | 0.39621    | 1.1665     |  51.7 | 16.41
Output  | 0          | 0          | 0          |   0.0 |  0.00
Modify  | 2.5045e-05 | 0.003413   | 0.0073032  |   2.8 |  0.14
Other   |            | 0.2765     |            |       | 11.46

Nlocal:        2776.45 ave        3956 max           0 min
Histogram: 8 4 4 0 4 12 8 2 28 34
Nghost:        3879.14 ave        5426 max         232 min
Histogram: 8 0 8 0 16 0 8 8 16 40
Neighs:        79213.4 ave      115308 max           0 min
Histogram: 8 4 4 0 10 6 8 8 24 32

Total # of neighbors = 8238193
Ave neighs/atom = 28.530440
Neighbor list builds = 0
Dangerous builds = 0
The dot product: 1.00614453690446e-08
Setting atom values ...
  1 settings made for x
  1 settings made for y
  1 settings made for z
Setting up cg style minimization ...
  Unit style    : metal
  Current step  : 21483
Per MPI rank memory allocation (min/avg/max) = 5.441 | 5.816 | 6.074 Mbytes
Step PotEng KinEng TotEng v_fx v_fy v_fz 
   21483   -1152449.1            0   -1152449.1  0.014308215 0.0052628607  0.019527961 
   21661   -1152449.1            0   -1152449.1 -9.65551e-06 -1.5900607e-05 -1.3264187e-05 
Loop time of 2.07707 on 104 procs for 178 steps with 288751 atoms

99.9% CPU use with 104 MPI tasks x 1 OpenMP threads

Minimization stats:
  Stopping criterion = energy tolerance
  Energy initial, next-to-last, final = 
     -1152449.10999856  -1152449.11136186  -1152449.11136186
  Force two-norm initial, final = 0.16784784 0.00017483347
  Force max component initial, final = 0.077380394 2.6778040e-05
  Final line search alpha, max atom move = 1.0000000 2.6778040e-05
  Iterations, force evaluations = 178 356

MPI task timing breakdown:
Section |  min time  |  avg time  |  max time  |%varavg| %total
---------------------------------------------------------------
Pair    | 0.53209    | 1.4965     | 1.96       |  33.2 | 72.05
Neigh   | 0          | 0          | 0          |   0.0 |  0.00
Comm    | 0.03203    | 0.34051    | 1.0044     |  48.1 | 16.39
Output  | 0          | 0          | 0          |   0.0 |  0.00
Modify  | 2.1871e-05 | 0.002941   | 0.0062591  |   2.6 |  0.14
Other   |            | 0.2371     |            |       | 11.41

Nlocal:        2776.45 ave        3957 max           0 min
Histogram: 8 4 4 0 4 12 8 2 28 34
Nghost:        3879.18 ave        5426 max         232 min
Histogram: 8 0 8 0 16 0 8 8 16 40
Neighs:        79213.4 ave      115334 max           0 min
Histogram: 8 4 4 0 10 6 8 8 24 32

Total # of neighbors = 8238191
Ave neighs/atom = 28.530433
Neighbor list builds = 0
Dangerous builds = 0
The dot product: -2.6141508006782e-08
Setting atom values ...
  1 settings made for x
  1 settings made for y
  1 settings made for z
Setting up cg style minimization ...
  Unit style    : metal
  Current step  : 21661
Per MPI rank memory allocation (min/avg/max) = 5.441 | 5.816 | 6.074 Mbytes
Step PotEng KinEng TotEng v_fx v_fy v_fz 
   21661   -1152449.1            0   -1152449.1  0.014938897 0.0055702901  0.020414317 
   21868   -1152449.1            0   -1152449.1 -5.87024e-06 -1.545795e-05 -8.115527e-06 
Loop time of 2.45682 on 104 procs for 207 steps with 288751 atoms

99.9% CPU use with 104 MPI tasks x 1 OpenMP threads

Minimization stats:
  Stopping criterion = energy tolerance
  Energy initial, next-to-last, final = 
     -1152449.13059262  -1152449.13196303  -1152449.13196303
  Force two-norm initial, final = 0.16775806 7.4110452e-05
  Force max component initial, final = 0.076940581 1.5457950e-05
  Final line search alpha, max atom move = 1.0000000 1.5457950e-05
  Iterations, force evaluations = 207 414

MPI task timing breakdown:
Section |  min time  |  avg time  |  max time  |%varavg| %total
---------------------------------------------------------------
Pair    | 0.61998    | 1.7422     | 2.2861     |  35.9 | 70.91
Neigh   | 0          | 0          | 0          |   0.0 |  0.00
Comm    | 0.038761   | 0.40259    | 1.1674     |  51.0 | 16.39
Output  | 0          | 0          | 0          |   0.0 |  0.00
Modify  | 2.672e-05  | 0.0034211  | 0.0072807  |   2.7 |  0.14
Other   |            | 0.3086     |            |       | 12.56

Nlocal:        2776.45 ave        3957 max           0 min
Histogram: 8 4 4 0 4 12 8 2 28 34
Nghost:        3879.20 ave        5426 max         232 min
Histogram: 8 0 8 0 16 0 8 8 16 40
Neighs:        79213.4 ave      115333 max           0 min
Histogram: 8 4 4 0 10 6 8 8 24 32

Total # of neighbors = 8238191
Ave neighs/atom = 28.530433
Neighbor list builds = 0
Dangerous builds = 0
The dot product: -1.90718517284052e-08
Setting atom values ...
  1 settings made for x
  1 settings made for y
  1 settings made for z
Setting up cg style minimization ...
  Unit style    : metal
  Current step  : 21868
Per MPI rank memory allocation (min/avg/max) = 5.441 | 5.816 | 6.074 Mbytes
Step PotEng KinEng TotEng v_fx v_fy v_fz 
   21868   -1152449.1            0   -1152449.1  0.015513803 0.0057938002  0.021228416 
   22000   -1152449.2            0   -1152449.2 -4.8949169e-05 -6.8331998e-05 -6.7339756e-05 
   22075   -1152449.2            0   -1152449.2 -1.7316535e-07 1.5687498e-06 -2.2520882e-07 
Loop time of 2.41811 on 104 procs for 207 steps with 288751 atoms

99.9% CPU use with 104 MPI tasks x 1 OpenMP threads

Minimization stats:
  Stopping criterion = energy tolerance
  Energy initial, next-to-last, final = 
     -1152449.14966006  -1152449.15103343  -1152449.15103343
  Force two-norm initial, final = 0.16773064 7.5035729e-05
  Force max component initial, final = 0.076496349 1.5179090e-05
  Final line search alpha, max atom move = 1.0000000 1.5179090e-05
  Iterations, force evaluations = 207 414

MPI task timing breakdown:
Section |  min time  |  avg time  |  max time  |%varavg| %total
---------------------------------------------------------------
Pair    | 0.61999    | 1.7404     | 2.2806     |  35.8 | 71.97
Neigh   | 0          | 0          | 0          |   0.0 |  0.00
Comm    | 0.036657   | 0.39611    | 1.1719     |  51.9 | 16.38
Output  | 0.00016232 | 0.00017118 | 0.00030879 |   0.0 |  0.01
Modify  | 2.5455e-05 | 0.0034234  | 0.0072891  |   2.7 |  0.14
Other   |            | 0.278      |            |       | 11.50

Nlocal:        2776.45 ave        3957 max           0 min
Histogram: 8 4 4 0 4 12 8 2 28 34
Nghost:        3879.22 ave        5426 max         232 min
Histogram: 8 0 8 0 16 0 8 8 16 40
Neighs:        79213.4 ave      115333 max           0 min
Histogram: 8 4 4 0 10 6 8 8 24 32

Total # of neighbors = 8238193
Ave neighs/atom = 28.530440
Neighbor list builds = 0
Dangerous builds = 0
The dot product: -9.14099548561373e-11
Setting up cg style minimization ...
  Unit style    : metal
  Current step  : 22075
Per MPI rank memory allocation (min/avg/max) = 5.441 | 5.816 | 6.074 Mbytes
Step PotEng KinEng TotEng v_fx v_fy v_fz 
   22075   -1152449.2            0   -1152449.2   0.73861554 0.0038898585  -0.54084448 
   22319   -1152449.3            0   -1152449.3 -2.2521988e-05 -5.041156e-05 -4.6076428e-05 
Loop time of 2.87541 on 104 procs for 244 steps with 288751 atoms

99.9% CPU use with 104 MPI tasks x 1 OpenMP threads

Minimization stats:
  Stopping criterion = energy tolerance
  Energy initial, next-to-last, final = 
     -1152449.15103343  -1152449.26566366  -1152449.26566366
  Force two-norm initial, final = 0.91546753 0.00017855966
  Force max component initial, final = 0.73861554 5.0411560e-05
  Final line search alpha, max atom move = 1.0000000 5.0411560e-05
  Iterations, force evaluations = 244 488

MPI task timing breakdown:
Section |  min time  |  avg time  |  max time  |%varavg| %total
---------------------------------------------------------------
Pair    | 0.7368     | 2.0511     | 2.6888     |  38.8 | 71.33
Neigh   | 1.0071e-05 | 0.002951   | 0.004438   |   2.2 |  0.10
Comm    | 0.048311   | 0.4699     | 1.3761     |  55.7 | 16.34
Output  | 0          | 0          | 0          |   0.0 |  0.00
Modify  | 2.7859e-05 | 0.0026277  | 0.0067123  |   3.2 |  0.09
Other   |            | 0.3489     |            |       | 12.13

Nlocal:        2776.45 ave        3957 max           0 min
Histogram: 8 4 4 0 4 12 8 2 28 34
Nghost:        3879.18 ave        5426 max         232 min
Histogram: 8 0 8 0 16 0 8 8 16 40
Neighs:        79213.4 ave      115332 max           0 min
Histogram: 8 4 4 0 10 6 8 8 24 32

Total # of neighbors = 8238190
Ave neighs/atom = 28.530429
Neighbor list builds = 1
Dangerous builds = 0
