LAMMPS (29 Oct 2020)
OMP_NUM_THREADS environment is not set. Defaulting to 1 thread. (../comm.cpp:94)
  using 1 OpenMP thread(s) per MPI task
########
#
########
variable                delta             equal     0.02 # the step size should be larger otherwise the number of
#the energy minimum sites is smaller
variable                iter_tot          equal     150

label                   loop
variable                seed              loop     312 319 #20 simulations
variable                iteration         loop      ${iter_tot} #The maximum ietration number per random direction
variable                iteration         loop      150 
clear
OMP_NUM_THREADS environment is not set. Defaulting to 1 thread. (../comm.cpp:94)
  using 1 OpenMP thread(s) per MPI task
units                   metal
atom_style              atomic
dimension                   3
boundary                p p p
atom_modify             map array sort 0 0.0

read_data               poslmp_carbon.dat
Reading data file ...
  orthogonal box = (-122.39241 -121.13707 -37.090501) to (122.39241 121.13707 37.090501)
  13 by 4 by 2 MPI processor grid
  reading atoms ...
  288751 atoms
  read_data CPU = 0.385 seconds

variable                zmax     equal    zhi
variable                zmin     equal    zlo

region                  inner   cylinder   z  1.16564  0.67298333  100.0  ${zmin}  ${zmax}  units  box
region                  inner   cylinder   z  1.16564  0.67298333  100.0  -37.0905005093422  ${zmax}  units  box
region                  inner   cylinder   z  1.16564  0.67298333  100.0  -37.0905005093422  37.0905005093422  units  box
group                   inner   region     inner
199981 atoms in group inner
group                   outer   subtract   all  inner
88770 atoms in group outer
group                   carbon  type       2
1 atoms in group carbon

pair_style              eam/alloy
pair_coeff              * * FeC-Becquart2013.eam.txt Fe C
neighbor                0.3 bin
neigh_modify            delay 0 check yes every 1

compute                 force     carbon   reduce  sum  fx fy fz
variable                fx    equal    c_force[1]
variable                fy    equal    c_force[2]
variable                fz    equal    c_force[3]

fix                     force    outer    setforce      0.0 0.0 0.0
thermo_style            custom   step     v_fx v_fy v_fz pe ke etotal
min_style               cg
minimize                1.0e-30 1.0e-30 10000 10000
Neighbor list info ...
  update every 1 steps, delay 0 steps, check yes
  max neighbors/atom: 2000, page size: 100000
  master list distance cutoff = 5.6
  ghost atom cutoff = 5.6
  binsize = 2.8, bins = 88 87 27
  1 neighbor lists, perpetual/occasional/extra = 1 0 0
  (1) pair eam/alloy, perpetual
      attributes: half, newton on
      pair build: half/bin/atomonly/newton
      stencil: half/bin/3d/newton
      bin: standard
Per MPI rank memory allocation (min/avg/max) = 5.441 | 5.816 | 6.074 Mbytes
Step v_fx v_fy v_fz PotEng KinEng TotEng 
       0    0.2177876    1.7961801    2.4161678   -1152447.8            0   -1152447.8 
     182 -3.035401e-07 -1.0076489e-06 -8.4661716e-06   -1152449.5            0   -1152449.5 
Loop time of 2.19143 on 104 procs for 182 steps with 288751 atoms

99.8% CPU use with 104 MPI tasks x 1 OpenMP threads

Minimization stats:
  Stopping criterion = energy tolerance
  Energy initial, next-to-last, final = 
     -1152447.79457694  -1152449.45035262  -1152449.45035262
  Force two-norm initial, final = 10.052776 4.0160045e-05
  Force max component initial, final = 6.1235551 8.4661716e-06
  Final line search alpha, max atom move = 1.0000000 8.4661716e-06
  Iterations, force evaluations = 182 363

MPI task timing breakdown:
Section |  min time  |  avg time  |  max time  |%varavg| %total
---------------------------------------------------------------
Pair    | 0.56384    | 1.5352     | 2.0001     |  33.2 | 70.05
Neigh   | 3.1559e-05 | 0.0087764  | 0.012643   |   3.9 |  0.40
Comm    | 0.034794   | 0.35642    | 1.0457     |  47.9 | 16.26
Output  | 0          | 0          | 0          |   0.0 |  0.00
Modify  | 2.1858e-05 | 0.0019647  | 0.0050139  |   2.8 |  0.09
Other   |            | 0.2891     |            |       | 13.19

Nlocal:        2776.45 ave        3958 max           0 min
Histogram: 8 4 4 0 4 12 8 2 28 34
Nghost:        3879.03 ave        5425 max         232 min
Histogram: 8 0 8 0 16 0 8 8 16 40
Neighs:        79213.5 ave      115378 max           0 min
Histogram: 8 4 4 0 10 6 8 8 24 32

Total # of neighbors = 8238204
Ave neighs/atom = 28.530478
Neighbor list builds = 3
Dangerous builds = 0
#write_data              minimize.dat
#quit

variable                fx_0  equal    ${fx}
variable                fx_0  equal    -3.03540101609379e-07
variable                fy_0  equal    ${fy}
variable                fy_0  equal    -1.00764890809124e-06
variable                fz_0  equal    ${fz}
variable                fz_0  equal    -8.46617156843865e-06

variable                i     equal    288751

variable                x0    equal    x[v_i]
variable                y0    equal    y[v_i]
variable                z0    equal    z[v_i]

variable                x     equal    x[v_i]+v_delta*random(-1.0,1.0,${seed})
variable                x     equal    x[v_i]+v_delta*random(-1.0,1.0,312)
variable                y     equal    y[v_i]+v_delta*random(-1.0,1.0,${seed})
variable                y     equal    y[v_i]+v_delta*random(-1.0,1.0,312)
variable                z     equal    z[v_i]+v_delta*random(-1.0,1.0,${seed})
variable                z     equal    z[v_i]+v_delta*random(-1.0,1.0,312)
variable                x_0    equal     ${x0}
variable                x_0    equal     2.91402219970877
variable                y_0    equal     ${y0}
variable                y_0    equal     1.02288014516667
variable                z_0    equal     ${z0}
variable                z_0    equal     -33.5543721157185
variable                x_1    equal     $x
variable                x_1    equal     2.92247613628561
variable                y_1    equal     $y
variable                y_1    equal     1.0182845245345
variable                z_1    equal     $z
variable                z_1    equal     -33.5489999681584

set                atom        $i    x  ${x_1}  y  ${y_1}  z  ${z_1}
set                atom        288751    x  ${x_1}  y  ${y_1}  z  ${z_1}
set                atom        288751    x  2.92247613628561  y  ${y_1}  z  ${z_1}
set                atom        288751    x  2.92247613628561  y  1.0182845245345  z  ${z_1}
set                atom        288751    x  2.92247613628561  y  1.0182845245345  z  -33.5489999681584
Setting atom values ...
  1 settings made for x
  1 settings made for y
  1 settings made for z
variable           vector_x          equal     ${x_1}-${x_0}
variable           vector_x          equal     2.92247613628561-${x_0}
variable           vector_x          equal     2.92247613628561-2.91402219970877
variable           vector_y          equal     ${y_1}-${y_0}
variable           vector_y          equal     1.0182845245345-${y_0}
variable           vector_y          equal     1.0182845245345-1.02288014516667
variable           vector_z          equal     ${z_1}-${z_0}
variable           vector_z          equal     -33.5489999681584-${z_0}
variable           vector_z          equal     -33.5489999681584--33.5543721157185

#dump               1     all   custom   1000   dump_minimize.atom.* id type x y z
#dump_modify        1     element  Fe C
thermo_style       custom   step  pe ke etotal v_fx v_fy v_fz
thermo             1000

fix                hold    carbon   planeforce   ${vector_x}  ${vector_y}  ${vector_z}
fix                hold    carbon   planeforce   0.0084539365768399  ${vector_y}  ${vector_z}
fix                hold    carbon   planeforce   0.0084539365768399  -0.00459562063217001  ${vector_z}
fix                hold    carbon   planeforce   0.0084539365768399  -0.00459562063217001  0.00537214756010229
min_style          cg
minimize           1.0e-30 1.0e-30 10000 10000
Per MPI rank memory allocation (min/avg/max) = 5.441 | 5.816 | 6.074 Mbytes
Step PotEng KinEng TotEng v_fx v_fy v_fz 
     182   -1152449.4            0   -1152449.4 0.0074173398 -0.015070069 -0.024564113 
     333   -1152449.5            0   -1152449.5 -2.1333222e-05 5.9076425e-06 3.8624961e-05 
Loop time of 1.80013 on 104 procs for 151 steps with 288751 atoms

99.9% CPU use with 104 MPI tasks x 1 OpenMP threads

Minimization stats:
  Stopping criterion = energy tolerance
  Energy initial, next-to-last, final = 
     -1152449.44965281  -1152449.45007933  -1152449.45007933
  Force two-norm initial, final = 0.094099522 0.00022211153
  Force max component initial, final = 0.043960014 5.6994180e-05
  Final line search alpha, max atom move = 1.0000000 5.6994180e-05
  Iterations, force evaluations = 151 302

MPI task timing breakdown:
Section |  min time  |  avg time  |  max time  |%varavg| %total
---------------------------------------------------------------
Pair    | 0.45353    | 1.2776     | 1.6739     |  30.8 | 70.97
Neigh   | 0          | 0          | 0          |   0.0 |  0.00
Comm    | 0.033168   | 0.29234    | 0.86652    |  44.2 | 16.24
Output  | 0          | 0          | 0          |   0.0 |  0.00
Modify  | 1.9927e-05 | 0.0025026  | 0.0053162  |   2.3 |  0.14
Other   |            | 0.2276     |            |       | 12.65

Nlocal:        2776.45 ave        3956 max           0 min
Histogram: 8 4 4 0 4 12 8 0 30 34
Nghost:        3879.03 ave        5424 max         232 min
Histogram: 8 0 8 0 16 0 8 8 16 40
Neighs:        79213.4 ave      115324 max           0 min
Histogram: 8 4 4 0 10 6 8 8 24 32

Total # of neighbors = 8238197
Ave neighs/atom = 28.530454
Neighbor list builds = 0
Dangerous builds = 0
unfix              hold

variable           new_x         equal     ${x0}-${x_0}
variable           new_x         equal     2.92272203396954-${x_0}
variable           new_x         equal     2.92272203396954-2.91402219970877
variable           new_y         equal     ${y0}-${y_0}
variable           new_y         equal     1.01743842177721-${y_0}
variable           new_y         equal     1.01743842177721-1.02288014516667
variable           new_z         equal     ${z0}-${z_0}
variable           new_z         equal     -33.5501107289195-${z_0}
variable           new_z         equal     -33.5501107289195--33.5543721157185

label iteration
variable           norm          equal     sqrt(${new_x}^2+${new_y}^2+${new_z}^2)
variable           norm          equal     sqrt(0.00869983426076981^2+${new_y}^2+${new_z}^2)
variable           norm          equal     sqrt(0.00869983426076981^2+-0.00544172338946014^2+${new_z}^2)
variable           norm          equal     sqrt(0.00869983426076981^2+-0.00544172338946014^2+0.00426138679900134^2)
variable           unit_x        equal     ${new_x}/${norm}
variable           unit_x        equal     0.00869983426076981/${norm}
variable           unit_x        equal     0.00869983426076981/0.0111112054729883
variable           unit_y        equal     ${new_y}/${norm}
variable           unit_y        equal     -0.00544172338946014/${norm}
variable           unit_y        equal     -0.00544172338946014/0.0111112054729883
variable           unit_z        equal     ${new_z}/${norm}
variable           unit_z        equal     0.00426138679900134/${norm}
variable           unit_z        equal     0.00426138679900134/0.0111112054729883
variable           x_new         equal     ${x0}+${delta}*${unit_x}
variable           x_new         equal     2.92272203396954+${delta}*${unit_x}
variable           x_new         equal     2.92272203396954+0.02*${unit_x}
variable           x_new         equal     2.92272203396954+0.02*0.782978433970948
variable           y_new         equal     ${y0}+${delta}*${unit_y}
variable           y_new         equal     1.01743842177721+${delta}*${unit_y}
variable           y_new         equal     1.01743842177721+0.02*${unit_y}
variable           y_new         equal     1.01743842177721+0.02*-0.489750945807738
variable           z_new         equal     ${z0}+${delta}*${unit_z}
variable           z_new         equal     -33.5501107289195+${delta}*${unit_z}
variable           z_new         equal     -33.5501107289195+0.02*${unit_z}
variable           z_new         equal     -33.5501107289195+0.02*0.383521554826874

set                atom          $i    x  ${x_new}  y  ${y_new}  z   ${z_new}
set                atom          288751    x  ${x_new}  y  ${y_new}  z   ${z_new}
set                atom          288751    x  2.93838160264896  y  ${y_new}  z   ${z_new}
set                atom          288751    x  2.93838160264896  y  1.00764340286106  z   ${z_new}
set                atom          288751    x  2.93838160264896  y  1.00764340286106  z   -33.542440297823
Setting atom values ...
  1 settings made for x
  1 settings made for y
  1 settings made for z

fix                hold    carbon   planeforce   ${new_x}  ${new_y}  ${new_z}
fix                hold    carbon   planeforce   0.00869983426076981  ${new_y}  ${new_z}
fix                hold    carbon   planeforce   0.00869983426076981  -0.00544172338946014  ${new_z}
fix                hold    carbon   planeforce   0.00869983426076981  -0.00544172338946014  0.00426138679900134
min_style          cg
minimize           1.0e-30 1.0e-30 10000 10000
Per MPI rank memory allocation (min/avg/max) = 5.441 | 5.816 | 6.074 Mbytes
Step PotEng KinEng TotEng v_fx v_fy v_fz 
     333   -1152449.4            0   -1152449.4 0.0083965269 -0.016962571 -0.038802863 
     552   -1152449.4            0   -1152449.4 7.4747601e-07 -2.4261243e-06 -4.6241319e-06 
Loop time of 2.61284 on 104 procs for 219 steps with 288751 atoms

99.9% CPU use with 104 MPI tasks x 1 OpenMP threads

Minimization stats:
  Stopping criterion = energy tolerance
  Energy initial, next-to-last, final = 
     -1152449.44696402  -1152449.44825599  -1152449.44825599
  Force two-norm initial, final = 0.16098874 3.4441790e-05
  Force max component initial, final = 0.087278553 4.6241319e-06
  Final line search alpha, max atom move = 1.0000000 4.6241319e-06
  Iterations, force evaluations = 219 438

MPI task timing breakdown:
Section |  min time  |  avg time  |  max time  |%varavg| %total
---------------------------------------------------------------
Pair    | 0.66105    | 1.8444     | 2.4167     |  36.8 | 70.59
Neigh   | 0          | 0          | 0          |   0.0 |  0.00
Comm    | 0.042678   | 0.42378    | 1.2485     |  52.8 | 16.22
Output  | 0          | 0          | 0          |   0.0 |  0.00
Modify  | 2.7389e-05 | 0.0036262  | 0.0076926  |   2.8 |  0.14
Other   |            | 0.3411     |            |       | 13.05

Nlocal:        2776.45 ave        3956 max           0 min
Histogram: 8 4 4 0 4 12 8 0 30 34
Nghost:        3879.03 ave        5424 max         232 min
Histogram: 8 0 8 0 16 0 8 8 16 40
Neighs:        79213.4 ave      115324 max           0 min
Histogram: 8 4 4 0 10 6 8 8 24 32

Total # of neighbors = 8238196
Ave neighs/atom = 28.530450
Neighbor list builds = 0
Dangerous builds = 0
unfix              hold

variable           new_x         delete
variable           new_y         delete
variable           new_z         delete
variable           dot           delete
variable           new_x         equal     ${x0}-${x_0}
variable           new_x         equal     2.93875700836412-${x_0}
variable           new_x         equal     2.93875700836412-2.91402219970877
variable           new_y         equal     ${y0}-${y_0}
variable           new_y         equal     1.00647359507583-${y_0}
variable           new_y         equal     1.00647359507583-1.02288014516667
variable           new_z         equal     ${z0}-${z_0}
variable           new_z         equal     -33.544700533362-${z_0}
variable           new_z         equal     -33.544700533362--33.5543721157185

variable           dot      equal     ${fx}*${new_x}+${fy}*${new_y}+${fz}*${new_z}
variable           dot      equal     7.47476009505214e-07*${new_x}+${fy}*${new_y}+${fz}*${new_z}
variable           dot      equal     7.47476009505214e-07*0.0247348086553498+${fy}*${new_y}+${fz}*${new_z}
variable           dot      equal     7.47476009505214e-07*0.0247348086553498+-2.42612426398353e-06*${new_y}+${fz}*${new_z}
variable           dot      equal     7.47476009505214e-07*0.0247348086553498+-2.42612426398353e-06*-0.0164065500908401+${fz}*${new_z}
variable           dot      equal     7.47476009505214e-07*0.0247348086553498+-2.42612426398353e-06*-0.0164065500908401+-4.62413187987825e-06*${new_z}
variable           dot      equal     7.47476009505214e-07*0.0247348086553498+-2.42612426398353e-06*-0.0164065500908401+-4.62413187987825e-06*0.00967158235650345
print              "The dot product: ${dot}"
The dot product: 1.35703330296486e-08

if "(${dot} >= 0.0) && (${dot} < 1.0e-10)" then "jump TaR.in relaxation" elif "(${dot} < 0.0) && (${dot} > -1.0e-10)" "jump TaR.in relaxation" elif "(${iteration} == ${iter_tot}) && (${seed} < 319)" "print 'The iteration number is maximum!'" "next seed" "variable iteration delete" "jump TaR.in loop" elif "(${iteration} == ${iter_tot}) && (${seed} == 319)" "quit" else    "next iteration"    "jump TaR.in iteration"
next iteration
jump TaR.in iteration
variable           norm          equal     sqrt(${new_x}^2+${new_y}^2+${new_z}^2)
variable           norm          equal     sqrt(0.0247348086553498^2+${new_y}^2+${new_z}^2)
variable           norm          equal     sqrt(0.0247348086553498^2+-0.0164065500908401^2+${new_z}^2)
variable           norm          equal     sqrt(0.0247348086553498^2+-0.0164065500908401^2+0.00967158235650345^2)
variable           unit_x        equal     ${new_x}/${norm}
variable           unit_x        equal     0.0247348086553498/${norm}
variable           unit_x        equal     0.0247348086553498/0.0312173853866502
variable           unit_y        equal     ${new_y}/${norm}
variable           unit_y        equal     -0.0164065500908401/${norm}
variable           unit_y        equal     -0.0164065500908401/0.0312173853866502
variable           unit_z        equal     ${new_z}/${norm}
variable           unit_z        equal     0.00967158235650345/${norm}
variable           unit_z        equal     0.00967158235650345/0.0312173853866502
variable           x_new         equal     ${x0}+${delta}*${unit_x}
variable           x_new         equal     2.93875700836412+${delta}*${unit_x}
variable           x_new         equal     2.93875700836412+0.02*${unit_x}
variable           x_new         equal     2.93875700836412+0.02*0.792340817432051
variable           y_new         equal     ${y0}+${delta}*${unit_y}
variable           y_new         equal     1.00647359507583+${delta}*${unit_y}
variable           y_new         equal     1.00647359507583+0.02*${unit_y}
variable           y_new         equal     1.00647359507583+0.02*-0.525558110893432
variable           z_new         equal     ${z0}+${delta}*${unit_z}
variable           z_new         equal     -33.544700533362+${delta}*${unit_z}
variable           z_new         equal     -33.544700533362+0.02*${unit_z}
variable           z_new         equal     -33.544700533362+0.02*0.309813978227639

set                atom          $i    x  ${x_new}  y  ${y_new}  z   ${z_new}
set                atom          288751    x  ${x_new}  y  ${y_new}  z   ${z_new}
set                atom          288751    x  2.95460382471276  y  ${y_new}  z   ${z_new}
set                atom          288751    x  2.95460382471276  y  0.995962432857961  z   ${z_new}
set                atom          288751    x  2.95460382471276  y  0.995962432857961  z   -33.5385042537974
Setting atom values ...
  1 settings made for x
  1 settings made for y
  1 settings made for z

fix                hold    carbon   planeforce   ${new_x}  ${new_y}  ${new_z}
fix                hold    carbon   planeforce   0.0247348086553498  ${new_y}  ${new_z}
fix                hold    carbon   planeforce   0.0247348086553498  -0.0164065500908401  ${new_z}
fix                hold    carbon   planeforce   0.0247348086553498  -0.0164065500908401  0.00967158235650345
min_style          cg
minimize           1.0e-30 1.0e-30 10000 10000
Per MPI rank memory allocation (min/avg/max) = 5.441 | 5.816 | 6.074 Mbytes
Step PotEng KinEng TotEng v_fx v_fy v_fz 
     552   -1152449.4            0   -1152449.4 0.0058505074 -0.009609529 -0.031263798 
     696   -1152449.4            0   -1152449.4 -1.7724753e-06 -1.2347479e-05 -1.6412795e-05 
Loop time of 1.71509 on 104 procs for 144 steps with 288751 atoms

99.9% CPU use with 104 MPI tasks x 1 OpenMP threads

Minimization stats:
  Stopping criterion = energy tolerance
  Energy initial, next-to-last, final = 
     -1152449.44358872  -1152449.44482297  -1152449.44482297
  Force two-norm initial, final = 0.15520514 0.00014969738
  Force max component initial, final = 0.092344917 1.6412795e-05
  Final line search alpha, max atom move = 1.0000000 1.6412795e-05
  Iterations, force evaluations = 144 288

MPI task timing breakdown:
Section |  min time  |  avg time  |  max time  |%varavg| %total
---------------------------------------------------------------
Pair    | 0.43376    | 1.2164     | 1.6023     |  29.9 | 70.92
Neigh   | 0          | 0          | 0          |   0.0 |  0.00
Comm    | 0.025656   | 0.2815     | 0.82648    |  43.2 | 16.41
Output  | 0          | 0          | 0          |   0.0 |  0.00
Modify  | 1.7933e-05 | 0.0023861  | 0.0050914  |   2.3 |  0.14
Other   |            | 0.2148     |            |       | 12.52

Nlocal:        2776.45 ave        3956 max           0 min
Histogram: 8 4 4 0 4 12 8 0 30 34
Nghost:        3879.03 ave        5424 max         232 min
Histogram: 8 0 8 0 16 0 8 8 16 40
Neighs:        79213.4 ave      115324 max           0 min
Histogram: 8 4 4 0 10 6 8 8 24 32

Total # of neighbors = 8238193
Ave neighs/atom = 28.530440
Neighbor list builds = 0
Dangerous builds = 0
unfix              hold

variable           new_x         delete
variable           new_y         delete
variable           new_z         delete
variable           dot           delete
variable           new_x         equal     ${x0}-${x_0}
variable           new_x         equal     2.95501862382761-${x_0}
variable           new_x         equal     2.95501862382761-2.91402219970877
variable           new_y         equal     ${y0}-${y_0}
variable           new_y         equal     0.995330353206912-${y_0}
variable           new_y         equal     0.995330353206912-1.02288014516667
variable           new_z         equal     ${z0}-${z_0}
variable           new_z         equal     -33.5406373301061-${z_0}
variable           new_z         equal     -33.5406373301061--33.5543721157185

variable           dot      equal     ${fx}*${new_x}+${fy}*${new_y}+${fz}*${new_z}
variable           dot      equal     -1.77247530272038e-06*${new_x}+${fy}*${new_y}+${fz}*${new_z}
variable           dot      equal     -1.77247530272038e-06*0.0409964241188399+${fy}*${new_y}+${fz}*${new_z}
variable           dot      equal     -1.77247530272038e-06*0.0409964241188399+-1.23474790823873e-05*${new_y}+${fz}*${new_z}
variable           dot      equal     -1.77247530272038e-06*0.0409964241188399+-1.23474790823873e-05*-0.027549791959758+${fz}*${new_z}
variable           dot      equal     -1.77247530272038e-06*0.0409964241188399+-1.23474790823873e-05*-0.027549791959758+-1.64127947991985e-05*${new_z}
variable           dot      equal     -1.77247530272038e-06*0.0409964241188399+-1.23474790823873e-05*-0.027549791959758+-1.64127947991985e-05*0.0137347856123995
print              "The dot product: ${dot}"
The dot product: 4.2079112829443e-08

if "(${dot} >= 0.0) && (${dot} < 1.0e-10)" then "jump TaR.in relaxation" elif "(${dot} < 0.0) && (${dot} > -1.0e-10)" "jump TaR.in relaxation" elif "(${iteration} == ${iter_tot}) && (${seed} < 319)" "print 'The iteration number is maximum!'" "next seed" "variable iteration delete" "jump TaR.in loop" elif "(${iteration} == ${iter_tot}) && (${seed} == 319)" "quit" else    "next iteration"    "jump TaR.in iteration"
next iteration
jump TaR.in iteration
variable           norm          equal     sqrt(${new_x}^2+${new_y}^2+${new_z}^2)
variable           norm          equal     sqrt(0.0409964241188399^2+${new_y}^2+${new_z}^2)
variable           norm          equal     sqrt(0.0409964241188399^2+-0.027549791959758^2+${new_z}^2)
variable           norm          equal     sqrt(0.0409964241188399^2+-0.027549791959758^2+0.0137347856123995^2)
variable           unit_x        equal     ${new_x}/${norm}
variable           unit_x        equal     0.0409964241188399/${norm}
variable           unit_x        equal     0.0409964241188399/0.0512673596294594
variable           unit_y        equal     ${new_y}/${norm}
variable           unit_y        equal     -0.027549791959758/${norm}
variable           unit_y        equal     -0.027549791959758/0.0512673596294594
variable           unit_z        equal     ${new_z}/${norm}
variable           unit_z        equal     0.0137347856123995/${norm}
variable           unit_z        equal     0.0137347856123995/0.0512673596294594
variable           x_new         equal     ${x0}+${delta}*${unit_x}
variable           x_new         equal     2.95501862382761+${delta}*${unit_x}
variable           x_new         equal     2.95501862382761+0.02*${unit_x}
variable           x_new         equal     2.95501862382761+0.02*0.799659362509522
variable           y_new         equal     ${y0}+${delta}*${unit_y}
variable           y_new         equal     0.995330353206912+${delta}*${unit_y}
variable           y_new         equal     0.995330353206912+0.02*${unit_y}
variable           y_new         equal     0.995330353206912+0.02*-0.537374894257813
variable           z_new         equal     ${z0}+${delta}*${unit_z}
variable           z_new         equal     -33.5406373301061+${delta}*${unit_z}
variable           z_new         equal     -33.5406373301061+0.02*${unit_z}
variable           z_new         equal     -33.5406373301061+0.02*0.267905070822239

set                atom          $i    x  ${x_new}  y  ${y_new}  z   ${z_new}
set                atom          288751    x  ${x_new}  y  ${y_new}  z   ${z_new}
set                atom          288751    x  2.9710118110778  y  ${y_new}  z   ${z_new}
set                atom          288751    x  2.9710118110778  y  0.984582855321756  z   ${z_new}
set                atom          288751    x  2.9710118110778  y  0.984582855321756  z   -33.5352792286897
Setting atom values ...
  1 settings made for x
  1 settings made for y
  1 settings made for z

fix                hold    carbon   planeforce   ${new_x}  ${new_y}  ${new_z}
fix                hold    carbon   planeforce   0.0409964241188399  ${new_y}  ${new_z}
fix                hold    carbon   planeforce   0.0409964241188399  -0.027549791959758  ${new_z}
fix                hold    carbon   planeforce   0.0409964241188399  -0.027549791959758  0.0137347856123995
min_style          cg
minimize           1.0e-30 1.0e-30 10000 10000
Per MPI rank memory allocation (min/avg/max) = 5.441 | 5.816 | 6.074 Mbytes
Step PotEng KinEng TotEng v_fx v_fy v_fz 
     696   -1152449.4            0   -1152449.4 0.0023031308 -0.0090039895 -0.024935094 
     835   -1152449.4            0   -1152449.4 4.244023e-06 1.5459338e-05 1.834115e-05 
Loop time of 1.64815 on 104 procs for 139 steps with 288751 atoms

99.9% CPU use with 104 MPI tasks x 1 OpenMP threads

Minimization stats:
  Stopping criterion = energy tolerance
  Energy initial, next-to-last, final = 
     -1152449.43869538  -1152449.43988093  -1152449.43988093
  Force two-norm initial, final = 0.15169536 0.00016200573
  Force max component initial, final = 0.096019534 3.5543213e-05
  Final line search alpha, max atom move = 1.0000000 3.5543213e-05
  Iterations, force evaluations = 139 278

MPI task timing breakdown:
Section |  min time  |  avg time  |  max time  |%varavg| %total
---------------------------------------------------------------
Pair    | 0.41675    | 1.1677     | 1.5276     |  29.3 | 70.85
Neigh   | 0          | 0          | 0          |   0.0 |  0.00
Comm    | 0.025372   | 0.26553    | 0.78414    |  42.3 | 16.11
Output  | 0          | 0          | 0          |   0.0 |  0.00
Modify  | 1.7023e-05 | 0.0022956  | 0.0048923  |   2.3 |  0.14
Other   |            | 0.2126     |            |       | 12.90

Nlocal:        2776.45 ave        3954 max           0 min
Histogram: 8 4 4 0 4 12 8 0 30 34
Nghost:        3879.03 ave        5424 max         232 min
Histogram: 8 0 8 0 16 0 8 8 16 40
Neighs:        79213.4 ave      115263 max           0 min
Histogram: 8 4 4 0 10 6 8 8 24 32

Total # of neighbors = 8238194
Ave neighs/atom = 28.530443
Neighbor list builds = 0
Dangerous builds = 0
unfix              hold

variable           new_x         delete
variable           new_y         delete
variable           new_z         delete
variable           dot           delete
variable           new_x         equal     ${x0}-${x_0}
variable           new_x         equal     2.97102430148398-${x_0}
variable           new_x         equal     2.97102430148398-2.91402219970877
variable           new_y         equal     ${y0}-${y_0}
variable           new_y         equal     0.983726816284982-${y_0}
variable           new_y         equal     0.983726816284982-1.02288014516667
variable           new_z         equal     ${z0}-${z_0}
variable           new_z         equal     -33.5370335887534-${z_0}
variable           new_z         equal     -33.5370335887534--33.5543721157185

variable           dot      equal     ${fx}*${new_x}+${fy}*${new_y}+${fz}*${new_z}
variable           dot      equal     4.24402296885995e-06*${new_x}+${fy}*${new_y}+${fz}*${new_z}
variable           dot      equal     4.24402296885995e-06*0.0570021017752098+${fy}*${new_y}+${fz}*${new_z}
variable           dot      equal     4.24402296885995e-06*0.0570021017752098+1.54593376292238e-05*${new_y}+${fz}*${new_z}
variable           dot      equal     4.24402296885995e-06*0.0570021017752098+1.54593376292238e-05*-0.039153328881688+${fz}*${new_z}
variable           dot      equal     4.24402296885995e-06*0.0570021017752098+1.54593376292238e-05*-0.039153328881688+1.83411504940302e-05*${new_z}
variable           dot      equal     4.24402296885995e-06*0.0570021017752098+1.54593376292238e-05*-0.039153328881688+1.83411504940302e-05*0.0173385269650979
print              "The dot product: ${dot}"
The dot product: -4.535776887111e-08

if "(${dot} >= 0.0) && (${dot} < 1.0e-10)" then "jump TaR.in relaxation" elif "(${dot} < 0.0) && (${dot} > -1.0e-10)" "jump TaR.in relaxation" elif "(${iteration} == ${iter_tot}) && (${seed} < 319)" "print 'The iteration number is maximum!'" "next seed" "variable iteration delete" "jump TaR.in loop" elif "(${iteration} == ${iter_tot}) && (${seed} == 319)" "quit" else    "next iteration"    "jump TaR.in iteration"
next iteration
jump TaR.in iteration
variable           norm          equal     sqrt(${new_x}^2+${new_y}^2+${new_z}^2)
variable           norm          equal     sqrt(0.0570021017752098^2+${new_y}^2+${new_z}^2)
variable           norm          equal     sqrt(0.0570021017752098^2+-0.039153328881688^2+${new_z}^2)
variable           norm          equal     sqrt(0.0570021017752098^2+-0.039153328881688^2+0.0173385269650979^2)
variable           unit_x        equal     ${new_x}/${norm}
variable           unit_x        equal     0.0570021017752098/${norm}
variable           unit_x        equal     0.0570021017752098/0.071294090124136
variable           unit_y        equal     ${new_y}/${norm}
variable           unit_y        equal     -0.039153328881688/${norm}
variable           unit_y        equal     -0.039153328881688/0.071294090124136
variable           unit_z        equal     ${new_z}/${norm}
variable           unit_z        equal     0.0173385269650979/${norm}
variable           unit_z        equal     0.0173385269650979/0.071294090124136
variable           x_new         equal     ${x0}+${delta}*${unit_x}
variable           x_new         equal     2.97102430148398+${delta}*${unit_x}
variable           x_new         equal     2.97102430148398+0.02*${unit_x}
variable           x_new         equal     2.97102430148398+0.02*0.799534739498867
variable           y_new         equal     ${y0}+${delta}*${unit_y}
variable           y_new         equal     0.983726816284982+${delta}*${unit_y}
variable           y_new         equal     0.983726816284982+0.02*${unit_y}
variable           y_new         equal     0.983726816284982+0.02*-0.549180567611073
variable           z_new         equal     ${z0}+${delta}*${unit_z}
variable           z_new         equal     -33.5370335887534+${delta}*${unit_z}
variable           z_new         equal     -33.5370335887534+0.02*${unit_z}
variable           z_new         equal     -33.5370335887534+0.02*0.243197254287254

set                atom          $i    x  ${x_new}  y  ${y_new}  z   ${z_new}
set                atom          288751    x  ${x_new}  y  ${y_new}  z   ${z_new}
set                atom          288751    x  2.98701499627396  y  ${y_new}  z   ${z_new}
set                atom          288751    x  2.98701499627396  y  0.972743204932761  z   ${z_new}
set                atom          288751    x  2.98701499627396  y  0.972743204932761  z   -33.5321696436677
Setting atom values ...
  1 settings made for x
  1 settings made for y
  1 settings made for z

fix                hold    carbon   planeforce   ${new_x}  ${new_y}  ${new_z}
fix                hold    carbon   planeforce   0.0570021017752098  ${new_y}  ${new_z}
fix                hold    carbon   planeforce   0.0570021017752098  -0.039153328881688  ${new_z}
fix                hold    carbon   planeforce   0.0570021017752098  -0.039153328881688  0.0173385269650979
min_style          cg
minimize           1.0e-30 1.0e-30 10000 10000
Per MPI rank memory allocation (min/avg/max) = 5.441 | 5.816 | 6.074 Mbytes
Step PotEng KinEng TotEng v_fx v_fy v_fz 
     835   -1152449.4            0   -1152449.4 -0.0028853889 -0.012799914 -0.019418376 
    1000   -1152449.4            0   -1152449.4 -2.1365022e-05 -2.1216665e-05 2.2328777e-05 
    1027   -1152449.4            0   -1152449.4 -6.8333799e-06 -1.1110092e-05 -2.6230646e-06 
Loop time of 2.29047 on 104 procs for 192 steps with 288751 atoms

99.9% CPU use with 104 MPI tasks x 1 OpenMP threads

Minimization stats:
  Stopping criterion = energy tolerance
  Energy initial, next-to-last, final = 
     -1152449.43236604  -1152449.43353243  -1152449.43353243
  Force two-norm initial, final = 0.15009001 4.9715737e-05
  Force max component initial, final = 0.099036699 1.1110092e-05
  Final line search alpha, max atom move = 1.0000000 1.1110092e-05
  Iterations, force evaluations = 192 384

MPI task timing breakdown:
Section |  min time  |  avg time  |  max time  |%varavg| %total
---------------------------------------------------------------
Pair    | 0.5741     | 1.6209     | 2.1349     |  34.6 | 70.77
Neigh   | 0          | 0          | 0          |   0.0 |  0.00
Comm    | 0.040139   | 0.37187    | 1.0946     |  49.8 | 16.24
Output  | 0.00047805 | 0.00048074 | 0.00061769 |   0.0 |  0.02
Modify  | 2.5264e-05 | 0.0031785  | 0.0067184  |   2.6 |  0.14
Other   |            | 0.2941     |            |       | 12.84

Nlocal:        2776.45 ave        3954 max           0 min
Histogram: 8 4 4 0 4 12 8 0 30 34
Nghost:        3879.03 ave        5424 max         232 min
Histogram: 8 0 8 0 16 0 8 8 16 40
Neighs:        79213.4 ave      115262 max           0 min
Histogram: 8 4 4 0 10 6 8 8 24 32

Total # of neighbors = 8238194
Ave neighs/atom = 28.530443
Neighbor list builds = 0
Dangerous builds = 0
unfix              hold

variable           new_x         delete
variable           new_y         delete
variable           new_z         delete
variable           dot           delete
variable           new_x         equal     ${x0}-${x_0}
variable           new_x         equal     2.985790903807-${x_0}
variable           new_x         equal     2.985790903807-2.91402219970877
variable           new_y         equal     ${y0}-${y_0}
variable           new_y         equal     0.970348081538019-${y_0}
variable           new_y         equal     0.970348081538019-1.02288014516667
variable           new_z         equal     ${z0}-${z_0}
variable           new_z         equal     -33.5335539141224-${z_0}
variable           new_z         equal     -33.5335539141224--33.5543721157185

variable           dot      equal     ${fx}*${new_x}+${fy}*${new_y}+${fz}*${new_z}
variable           dot      equal     -6.83337992519356e-06*${new_x}+${fy}*${new_y}+${fz}*${new_z}
variable           dot      equal     -6.83337992519356e-06*0.07176870409823+${fy}*${new_y}+${fz}*${new_z}
variable           dot      equal     -6.83337992519356e-06*0.07176870409823+-1.11100921906184e-05*${new_y}+${fz}*${new_z}
variable           dot      equal     -6.83337992519356e-06*0.07176870409823+-1.11100921906184e-05*-0.052532063628651+${fz}*${new_z}
variable           dot      equal     -6.83337992519356e-06*0.07176870409823+-1.11100921906184e-05*-0.052532063628651+-2.62306455308441e-06*${new_z}
variable           dot      equal     -6.83337992519356e-06*0.07176870409823+-1.11100921906184e-05*-0.052532063628651+-2.62306455308441e-06*0.0208182015961
print              "The dot product: ${dot}"
The dot product: 3.86057613700476e-08

if "(${dot} >= 0.0) && (${dot} < 1.0e-10)" then "jump TaR.in relaxation" elif "(${dot} < 0.0) && (${dot} > -1.0e-10)" "jump TaR.in relaxation" elif "(${iteration} == ${iter_tot}) && (${seed} < 319)" "print 'The iteration number is maximum!'" "next seed" "variable iteration delete" "jump TaR.in loop" elif "(${iteration} == ${iter_tot}) && (${seed} == 319)" "quit" else    "next iteration"    "jump TaR.in iteration"
next iteration
jump TaR.in iteration
variable           norm          equal     sqrt(${new_x}^2+${new_y}^2+${new_z}^2)
variable           norm          equal     sqrt(0.07176870409823^2+${new_y}^2+${new_z}^2)
variable           norm          equal     sqrt(0.07176870409823^2+-0.052532063628651^2+${new_z}^2)
variable           norm          equal     sqrt(0.07176870409823^2+-0.052532063628651^2+0.0208182015961^2)
variable           unit_x        equal     ${new_x}/${norm}
variable           unit_x        equal     0.07176870409823/${norm}
variable           unit_x        equal     0.07176870409823/0.0913441958458215
variable           unit_y        equal     ${new_y}/${norm}
variable           unit_y        equal     -0.052532063628651/${norm}
variable           unit_y        equal     -0.052532063628651/0.0913441958458215
variable           unit_z        equal     ${new_z}/${norm}
variable           unit_z        equal     0.0208182015961/${norm}
variable           unit_z        equal     0.0208182015961/0.0913441958458215
variable           x_new         equal     ${x0}+${delta}*${unit_x}
variable           x_new         equal     2.985790903807+${delta}*${unit_x}
variable           x_new         equal     2.985790903807+0.02*${unit_x}
variable           x_new         equal     2.985790903807+0.02*0.7856952862048
variable           y_new         equal     ${y0}+${delta}*${unit_y}
variable           y_new         equal     0.970348081538019+${delta}*${unit_y}
variable           y_new         equal     0.970348081538019+0.02*${unit_y}
variable           y_new         equal     0.970348081538019+0.02*-0.57510018170524
variable           z_new         equal     ${z0}+${delta}*${unit_z}
variable           z_new         equal     -33.5335539141224+${delta}*${unit_z}
variable           z_new         equal     -33.5335539141224+0.02*${unit_z}
variable           z_new         equal     -33.5335539141224+0.02*0.227909407963246

set                atom          $i    x  ${x_new}  y  ${y_new}  z   ${z_new}
set                atom          288751    x  ${x_new}  y  ${y_new}  z   ${z_new}
set                atom          288751    x  3.0015048095311  y  ${y_new}  z   ${z_new}
set                atom          288751    x  3.0015048095311  y  0.958846077903914  z   ${z_new}
set                atom          288751    x  3.0015048095311  y  0.958846077903914  z   -33.5289957259631
Setting atom values ...
  1 settings made for x
  1 settings made for y
  1 settings made for z

fix                hold    carbon   planeforce   ${new_x}  ${new_y}  ${new_z}
fix                hold    carbon   planeforce   0.07176870409823  ${new_y}  ${new_z}
fix                hold    carbon   planeforce   0.07176870409823  -0.052532063628651  ${new_z}
fix                hold    carbon   planeforce   0.07176870409823  -0.052532063628651  0.0208182015961
min_style          cg
minimize           1.0e-30 1.0e-30 10000 10000
Per MPI rank memory allocation (min/avg/max) = 5.441 | 5.816 | 6.074 Mbytes
Step PotEng KinEng TotEng v_fx v_fy v_fz 
    1027   -1152449.4            0   -1152449.4 -0.0078866568 -0.016488913 -0.014419185 
    1134   -1152449.4            0   -1152449.4 -5.0394181e-06 5.4690091e-07 1.8752933e-05 
Loop time of 1.25174 on 104 procs for 107 steps with 288751 atoms

99.9% CPU use with 104 MPI tasks x 1 OpenMP threads

Minimization stats:
  Stopping criterion = energy tolerance
  Energy initial, next-to-last, final = 
     -1152449.42472378  -1152449.42589745  -1152449.42589745
  Force two-norm initial, final = 0.14950343 0.00022213935
  Force max component initial, final = 0.10165516 3.0186690e-05
  Final line search alpha, max atom move = 1.0000000 3.0186690e-05
  Iterations, force evaluations = 107 214

MPI task timing breakdown:
Section |  min time  |  avg time  |  max time  |%varavg| %total
---------------------------------------------------------------
Pair    | 0.3232     | 0.89856    | 1.1739     |  25.6 | 71.78
Neigh   | 0          | 0          | 0          |   0.0 |  0.00
Comm    | 0.019541   | 0.20432    | 0.60702    |  37.5 | 16.32
Output  | 0          | 0          | 0          |   0.0 |  0.00
Modify  | 1.345e-05  | 0.0017701  | 0.0037705  |   2.0 |  0.14
Other   |            | 0.1471     |            |       | 11.75

Nlocal:        2776.45 ave        3953 max           0 min
Histogram: 8 4 4 0 4 12 8 0 30 34
Nghost:        3879.03 ave        5424 max         232 min
Histogram: 8 0 8 0 16 0 8 8 16 40
Neighs:        79213.4 ave      115238 max           0 min
Histogram: 8 4 4 0 10 6 8 8 24 32

Total # of neighbors = 8238194
Ave neighs/atom = 28.530443
Neighbor list builds = 0
Dangerous builds = 0
unfix              hold

variable           new_x         delete
variable           new_y         delete
variable           new_z         delete
variable           dot           delete
variable           new_x         equal     ${x0}-${x_0}
variable           new_x         equal     2.99899839584133-${x_0}
variable           new_x         equal     2.99899839584133-2.91402219970877
variable           new_y         equal     ${y0}-${y_0}
variable           new_y         equal     0.95497825568535-${y_0}
variable           new_y         equal     0.95497825568535-1.02288014516667
variable           new_z         equal     ${z0}-${z_0}
variable           new_z         equal     -33.5301150647462-${z_0}
variable           new_z         equal     -33.5301150647462--33.5543721157185

variable           dot      equal     ${fx}*${new_x}+${fy}*${new_y}+${fz}*${new_z}
variable           dot      equal     -5.03941807826636e-06*${new_x}+${fy}*${new_y}+${fz}*${new_z}
variable           dot      equal     -5.03941807826636e-06*0.0849761961325601+${fy}*${new_y}+${fz}*${new_z}
variable           dot      equal     -5.03941807826636e-06*0.0849761961325601+5.46900910387764e-07*${new_y}+${fz}*${new_z}
variable           dot      equal     -5.03941807826636e-06*0.0849761961325601+5.46900910387764e-07*-0.06790188948132+${fz}*${new_z}
variable           dot      equal     -5.03941807826636e-06*0.0849761961325601+5.46900910387764e-07*-0.06790188948132+1.8752932932669e-05*${new_z}
variable           dot      equal     -5.03941807826636e-06*0.0849761961325601+5.46900910387764e-07*-0.06790188948132+1.8752932932669e-05*0.0242570509723024
print              "The dot product: ${dot}"
The dot product: -1.04753341591943e-08

if "(${dot} >= 0.0) && (${dot} < 1.0e-10)" then "jump TaR.in relaxation" elif "(${dot} < 0.0) && (${dot} > -1.0e-10)" "jump TaR.in relaxation" elif "(${iteration} == ${iter_tot}) && (${seed} < 319)" "print 'The iteration number is maximum!'" "next seed" "variable iteration delete" "jump TaR.in loop" elif "(${iteration} == ${iter_tot}) && (${seed} == 319)" "quit" else    "next iteration"    "jump TaR.in iteration"
next iteration
jump TaR.in iteration
variable           norm          equal     sqrt(${new_x}^2+${new_y}^2+${new_z}^2)
variable           norm          equal     sqrt(0.0849761961325601^2+${new_y}^2+${new_z}^2)
variable           norm          equal     sqrt(0.0849761961325601^2+-0.06790188948132^2+${new_z}^2)
variable           norm          equal     sqrt(0.0849761961325601^2+-0.06790188948132^2+0.0242570509723024^2)
variable           unit_x        equal     ${new_x}/${norm}
variable           unit_x        equal     0.0849761961325601/${norm}
variable           unit_x        equal     0.0849761961325601/0.111445166006272
variable           unit_y        equal     ${new_y}/${norm}
variable           unit_y        equal     -0.06790188948132/${norm}
variable           unit_y        equal     -0.06790188948132/0.111445166006272
variable           unit_z        equal     ${new_z}/${norm}
variable           unit_z        equal     0.0242570509723024/${norm}
variable           unit_z        equal     0.0242570509723024/0.111445166006272
variable           x_new         equal     ${x0}+${delta}*${unit_x}
variable           x_new         equal     2.99899839584133+${delta}*${unit_x}
variable           x_new         equal     2.99899839584133+0.02*${unit_x}
variable           x_new         equal     2.99899839584133+0.02*0.762493333517739
variable           y_new         equal     ${y0}+${delta}*${unit_y}
variable           y_new         equal     0.95497825568535+${delta}*${unit_y}
variable           y_new         equal     0.95497825568535+0.02*${unit_y}
variable           y_new         equal     0.95497825568535+0.02*-0.609285193020383
variable           z_new         equal     ${z0}+${delta}*${unit_z}
variable           z_new         equal     -33.5301150647462+${delta}*${unit_z}
variable           z_new         equal     -33.5301150647462+0.02*${unit_z}
variable           z_new         equal     -33.5301150647462+0.02*0.217659068056278

set                atom          $i    x  ${x_new}  y  ${y_new}  z   ${z_new}
set                atom          288751    x  ${x_new}  y  ${y_new}  z   ${z_new}
set                atom          288751    x  3.01424826251169  y  ${y_new}  z   ${z_new}
set                atom          288751    x  3.01424826251169  y  0.942792551824942  z   ${z_new}
set                atom          288751    x  3.01424826251169  y  0.942792551824942  z   -33.5257618833851
Setting atom values ...
  1 settings made for x
  1 settings made for y
  1 settings made for z

fix                hold    carbon   planeforce   ${new_x}  ${new_y}  ${new_z}
fix                hold    carbon   planeforce   0.0849761961325601  ${new_y}  ${new_z}
fix                hold    carbon   planeforce   0.0849761961325601  -0.06790188948132  ${new_z}
fix                hold    carbon   planeforce   0.0849761961325601  -0.06790188948132  0.0242570509723024
min_style          cg
minimize           1.0e-30 1.0e-30 10000 10000
Per MPI rank memory allocation (min/avg/max) = 5.441 | 5.816 | 6.074 Mbytes
Step PotEng KinEng TotEng v_fx v_fy v_fz 
    1134   -1152449.4            0   -1152449.4 -0.010867985 -0.017282778  -0.01030683 
    1272   -1152449.4            0   -1152449.4 1.3255226e-05 1.0243304e-05 -1.7761394e-05 
Loop time of 1.61487 on 104 procs for 138 steps with 288751 atoms

99.9% CPU use with 104 MPI tasks x 1 OpenMP threads

Minimization stats:
  Stopping criterion = energy tolerance
  Energy initial, next-to-last, final = 
     -1152449.41580229  -1152449.41698641  -1152449.41698641
  Force two-norm initial, final = 0.14932088 0.00015859711
  Force max component initial, final = 0.10381278 3.6393415e-05
  Final line search alpha, max atom move = 1.0000000 3.6393415e-05
  Iterations, force evaluations = 138 276

MPI task timing breakdown:
Section |  min time  |  avg time  |  max time  |%varavg| %total
---------------------------------------------------------------
Pair    | 0.41344    | 1.1634     | 1.519      |  29.3 | 72.04
Neigh   | 0          | 0          | 0          |   0.0 |  0.00
Comm    | 0.0281     | 0.26281    | 0.7817     |  42.7 | 16.27
Output  | 0          | 0          | 0          |   0.0 |  0.00
Modify  | 1.7137e-05 | 0.002284   | 0.0048542  |   2.3 |  0.14
Other   |            | 0.1864     |            |       | 11.54

Nlocal:        2776.45 ave        3953 max           0 min
Histogram: 8 4 4 0 4 12 8 0 30 34
Nghost:        3879.01 ave        5424 max         232 min
Histogram: 8 0 8 0 16 0 8 8 16 40
Neighs:        79213.4 ave      115238 max           0 min
Histogram: 8 4 4 0 10 6 8 8 24 32

Total # of neighbors = 8238193
Ave neighs/atom = 28.530440
Neighbor list builds = 0
Dangerous builds = 0
unfix              hold

variable           new_x         delete
variable           new_y         delete
variable           new_z         delete
variable           dot           delete
variable           new_x         equal     ${x0}-${x_0}
variable           new_x         equal     3.01084949578381-${x_0}
variable           new_x         equal     3.01084949578381-2.91402219970877
variable           new_y         equal     ${y0}-${y_0}
variable           new_y         equal     0.938210759708635-${y_0}
variable           new_y         equal     0.938210759708635-1.02288014516667
variable           new_z         equal     ${z0}-${z_0}
variable           new_z         equal     -33.5266811243043-${z_0}
variable           new_z         equal     -33.5266811243043--33.5543721157185

variable           dot      equal     ${fx}*${new_x}+${fy}*${new_y}+${fz}*${new_z}
variable           dot      equal     1.32552262407403e-05*${new_x}+${fy}*${new_y}+${fz}*${new_z}
variable           dot      equal     1.32552262407403e-05*0.0968272960750398+${fy}*${new_y}+${fz}*${new_z}
variable           dot      equal     1.32552262407403e-05*0.0968272960750398+1.02433035679692e-05*${new_y}+${fz}*${new_z}
variable           dot      equal     1.32552262407403e-05*0.0968272960750398+1.02433035679692e-05*-0.084669385458035+${fz}*${new_z}
variable           dot      equal     1.32552262407403e-05*0.0968272960750398+1.02433035679692e-05*-0.084669385458035+-1.77613939351562e-05*${new_z}
variable           dot      equal     1.32552262407403e-05*0.0968272960750398+1.02433035679692e-05*-0.084669385458035+-1.77613939351562e-05*0.0276909914142038
print              "The dot product: ${dot}"
The dot product: -7.56571093689533e-08

if "(${dot} >= 0.0) && (${dot} < 1.0e-10)" then "jump TaR.in relaxation" elif "(${dot} < 0.0) && (${dot} > -1.0e-10)" "jump TaR.in relaxation" elif "(${iteration} == ${iter_tot}) && (${seed} < 319)" "print 'The iteration number is maximum!'" "next seed" "variable iteration delete" "jump TaR.in loop" elif "(${iteration} == ${iter_tot}) && (${seed} == 319)" "quit" else    "next iteration"    "jump TaR.in iteration"
next iteration
jump TaR.in iteration
variable           norm          equal     sqrt(${new_x}^2+${new_y}^2+${new_z}^2)
variable           norm          equal     sqrt(0.0968272960750398^2+${new_y}^2+${new_z}^2)
variable           norm          equal     sqrt(0.0968272960750398^2+-0.084669385458035^2+${new_z}^2)
variable           norm          equal     sqrt(0.0968272960750398^2+-0.084669385458035^2+0.0276909914142038^2)
variable           unit_x        equal     ${new_x}/${norm}
variable           unit_x        equal     0.0968272960750398/${norm}
variable           unit_x        equal     0.0968272960750398/0.13157211370403
variable           unit_y        equal     ${new_y}/${norm}
variable           unit_y        equal     -0.084669385458035/${norm}
variable           unit_y        equal     -0.084669385458035/0.13157211370403
variable           unit_z        equal     ${new_z}/${norm}
variable           unit_z        equal     0.0276909914142038/${norm}
variable           unit_z        equal     0.0276909914142038/0.13157211370403
variable           x_new         equal     ${x0}+${delta}*${unit_x}
variable           x_new         equal     3.01084949578381+${delta}*${unit_x}
variable           x_new         equal     3.01084949578381+0.02*${unit_x}
variable           x_new         equal     3.01084949578381+0.02*0.735925671095106
variable           y_new         equal     ${y0}+${delta}*${unit_y}
variable           y_new         equal     0.938210759708635+${delta}*${unit_y}
variable           y_new         equal     0.938210759708635+0.02*${unit_y}
variable           y_new         equal     0.938210759708635+0.02*-0.643520751277872
variable           z_new         equal     ${z0}+${delta}*${unit_z}
variable           z_new         equal     -33.5266811243043+${delta}*${unit_z}
variable           z_new         equal     -33.5266811243043+0.02*${unit_z}
variable           z_new         equal     -33.5266811243043+0.02*0.210462465294845

set                atom          $i    x  ${x_new}  y  ${y_new}  z   ${z_new}
set                atom          288751    x  ${x_new}  y  ${y_new}  z   ${z_new}
set                atom          288751    x  3.02556800920571  y  ${y_new}  z   ${z_new}
set                atom          288751    x  3.02556800920571  y  0.925340344683078  z   ${z_new}
set                atom          288751    x  3.02556800920571  y  0.925340344683078  z   -33.5224718749984
Setting atom values ...
  1 settings made for x
  1 settings made for y
  1 settings made for z

fix                hold    carbon   planeforce   ${new_x}  ${new_y}  ${new_z}
fix                hold    carbon   planeforce   0.0968272960750398  ${new_y}  ${new_z}
fix                hold    carbon   planeforce   0.0968272960750398  -0.084669385458035  ${new_z}
fix                hold    carbon   planeforce   0.0968272960750398  -0.084669385458035  0.0276909914142038
min_style          cg
minimize           1.0e-30 1.0e-30 10000 10000
Per MPI rank memory allocation (min/avg/max) = 5.441 | 5.816 | 6.074 Mbytes
Step PotEng KinEng TotEng v_fx v_fy v_fz 
    1272   -1152449.4            0   -1152449.4 -0.011630809 -0.015606705 -0.0070503206 
    1425   -1152449.4            0   -1152449.4 -3.9534291e-06 2.1904642e-06 2.052166e-05 
Loop time of 1.79859 on 104 procs for 153 steps with 288751 atoms

99.9% CPU use with 104 MPI tasks x 1 OpenMP threads

Minimization stats:
  Stopping criterion = energy tolerance
  Energy initial, next-to-last, final = 
     -1152449.40558895  -1152449.40677472  -1152449.40677472
  Force two-norm initial, final = 0.1494382 0.00017046613
  Force max component initial, final = 0.10560958 2.0521660e-05
  Final line search alpha, max atom move = 1.0000000 2.0521660e-05
  Iterations, force evaluations = 153 306

MPI task timing breakdown:
Section |  min time  |  avg time  |  max time  |%varavg| %total
---------------------------------------------------------------
Pair    | 0.45837    | 1.2846     | 1.679      |  30.7 | 71.42
Neigh   | 0          | 0          | 0          |   0.0 |  0.00
Comm    | 0.028085   | 0.2922     | 0.87084    |  44.9 | 16.25
Output  | 0          | 0          | 0          |   0.0 |  0.00
Modify  | 1.9087e-05 | 0.0025298  | 0.0053736  |   2.4 |  0.14
Other   |            | 0.2193     |            |       | 12.19

Nlocal:        2776.45 ave        3951 max           0 min
Histogram: 8 4 4 0 4 12 8 0 30 34
Nghost:        3879.01 ave        5424 max         232 min
Histogram: 8 0 8 0 16 0 8 8 16 40
Neighs:        79213.4 ave      115191 max           0 min
Histogram: 8 4 4 0 10 6 8 8 24 32

Total # of neighbors = 8238195
Ave neighs/atom = 28.530447
Neighbor list builds = 0
Dangerous builds = 0
unfix              hold

variable           new_x         delete
variable           new_y         delete
variable           new_z         delete
variable           dot           delete
variable           new_x         equal     ${x0}-${x_0}
variable           new_x         equal     3.02174881370264-${x_0}
variable           new_x         equal     3.02174881370264-2.91402219970877
variable           new_y         equal     ${y0}-${y_0}
variable           new_y         equal     0.920713623643857-${y_0}
variable           new_y         equal     0.920713623643857-1.02288014516667
variable           new_z         equal     ${z0}-${z_0}
variable           new_z         equal     -33.5232641634723-${z_0}
variable           new_z         equal     -33.5232641634723--33.5543721157185

variable           dot      equal     ${fx}*${new_x}+${fy}*${new_y}+${fz}*${new_z}
variable           dot      equal     -3.95342910040469e-06*${new_x}+${fy}*${new_y}+${fz}*${new_z}
variable           dot      equal     -3.95342910040469e-06*0.10772661399387+${fy}*${new_y}+${fz}*${new_z}
variable           dot      equal     -3.95342910040469e-06*0.10772661399387+2.19046422572299e-06*${new_y}+${fz}*${new_z}
variable           dot      equal     -3.95342910040469e-06*0.10772661399387+2.19046422572299e-06*-0.102166521522813+${fz}*${new_z}
variable           dot      equal     -3.95342910040469e-06*0.10772661399387+2.19046422572299e-06*-0.102166521522813+2.05216599645004e-05*${new_z}
variable           dot      equal     -3.95342910040469e-06*0.10772661399387+2.19046422572299e-06*-0.102166521522813+2.05216599645004e-05*0.0311079522462023
print              "The dot product: ${dot}"
The dot product: -1.12948229252284e-08

if "(${dot} >= 0.0) && (${dot} < 1.0e-10)" then "jump TaR.in relaxation" elif "(${dot} < 0.0) && (${dot} > -1.0e-10)" "jump TaR.in relaxation" elif "(${iteration} == ${iter_tot}) && (${seed} < 319)" "print 'The iteration number is maximum!'" "next seed" "variable iteration delete" "jump TaR.in loop" elif "(${iteration} == ${iter_tot}) && (${seed} == 319)" "quit" else    "next iteration"    "jump TaR.in iteration"
next iteration
jump TaR.in iteration
variable           norm          equal     sqrt(${new_x}^2+${new_y}^2+${new_z}^2)
variable           norm          equal     sqrt(0.10772661399387^2+${new_y}^2+${new_z}^2)
variable           norm          equal     sqrt(0.10772661399387^2+-0.102166521522813^2+${new_z}^2)
variable           norm          equal     sqrt(0.10772661399387^2+-0.102166521522813^2+0.0311079522462023^2)
variable           unit_x        equal     ${new_x}/${norm}
variable           unit_x        equal     0.10772661399387/${norm}
variable           unit_x        equal     0.10772661399387/0.151692867912792
variable           unit_y        equal     ${new_y}/${norm}
variable           unit_y        equal     -0.102166521522813/${norm}
variable           unit_y        equal     -0.102166521522813/0.151692867912792
variable           unit_z        equal     ${new_z}/${norm}
variable           unit_z        equal     0.0311079522462023/${norm}
variable           unit_z        equal     0.0311079522462023/0.151692867912792
variable           x_new         equal     ${x0}+${delta}*${unit_x}
variable           x_new         equal     3.02174881370264+${delta}*${unit_x}
variable           x_new         equal     3.02174881370264+0.02*${unit_x}
variable           x_new         equal     3.02174881370264+0.02*0.710162682505297
variable           y_new         equal     ${y0}+${delta}*${unit_y}
variable           y_new         equal     0.920713623643857+${delta}*${unit_y}
variable           y_new         equal     0.920713623643857+0.02*${unit_y}
variable           y_new         equal     0.920713623643857+0.02*-0.673509064259688
variable           z_new         equal     ${z0}+${delta}*${unit_z}
variable           z_new         equal     -33.5232641634723+${delta}*${unit_z}
variable           z_new         equal     -33.5232641634723+0.02*${unit_z}
variable           z_new         equal     -33.5232641634723+0.02*0.20507195014657

set                atom          $i    x  ${x_new}  y  ${y_new}  z   ${z_new}
set                atom          288751    x  ${x_new}  y  ${y_new}  z   ${z_new}
set                atom          288751    x  3.03595206735275  y  ${y_new}  z   ${z_new}
set                atom          288751    x  3.03595206735275  y  0.907243442358663  z   ${z_new}
set                atom          288751    x  3.03595206735275  y  0.907243442358663  z   -33.5191627244694
Setting atom values ...
  1 settings made for x
  1 settings made for y
  1 settings made for z

fix                hold    carbon   planeforce   ${new_x}  ${new_y}  ${new_z}
fix                hold    carbon   planeforce   0.10772661399387  ${new_y}  ${new_z}
fix                hold    carbon   planeforce   0.10772661399387  -0.102166521522813  ${new_z}
fix                hold    carbon   planeforce   0.10772661399387  -0.102166521522813  0.0311079522462023
min_style          cg
minimize           1.0e-30 1.0e-30 10000 10000
Per MPI rank memory allocation (min/avg/max) = 5.441 | 5.816 | 6.074 Mbytes
Step PotEng KinEng TotEng v_fx v_fy v_fz 
    1425   -1152449.4            0   -1152449.4 -0.010498912 -0.012438971 -0.0044951234 
    1625   -1152449.4            0   -1152449.4 -1.8547442e-06 -2.8524889e-06 -2.9453419e-06 
Loop time of 2.36289 on 104 procs for 200 steps with 288751 atoms

99.9% CPU use with 104 MPI tasks x 1 OpenMP threads

Minimization stats:
  Stopping criterion = energy tolerance
  Energy initial, next-to-last, final = 
     -1152449.39404942  -1152449.39522745  -1152449.39522745
  Force two-norm initial, final = 0.14971271 4.3051036e-05
  Force max component initial, final = 0.10707518 4.5190093e-06
  Final line search alpha, max atom move = 1.0000000 4.5190093e-06
  Iterations, force evaluations = 200 400

MPI task timing breakdown:
Section |  min time  |  avg time  |  max time  |%varavg| %total
---------------------------------------------------------------
Pair    | 0.60338    | 1.6899     | 2.2019     |  35.1 | 71.52
Neigh   | 0          | 0          | 0          |   0.0 |  0.00
Comm    | 0.043427   | 0.38832    | 1.1427     |  50.8 | 16.43
Output  | 0          | 0          | 0          |   0.0 |  0.00
Modify  | 2.5027e-05 | 0.0033031  | 0.007041   |   2.7 |  0.14
Other   |            | 0.2814     |            |       | 11.91

Nlocal:        2776.45 ave        3950 max           0 min
Histogram: 8 4 4 0 4 12 8 0 28 36
Nghost:        3879.01 ave        5424 max         232 min
Histogram: 8 0 8 0 16 0 8 8 16 40
Neighs:        79213.4 ave      115149 max           0 min
Histogram: 8 4 4 0 10 6 8 8 24 32

Total # of neighbors = 8238196
Ave neighs/atom = 28.530450
Neighbor list builds = 0
Dangerous builds = 0
unfix              hold

variable           new_x         delete
variable           new_y         delete
variable           new_z         delete
variable           dot           delete
variable           new_x         equal     ${x0}-${x_0}
variable           new_x         equal     3.0321686470455-${x_0}
variable           new_x         equal     3.0321686470455-2.91402219970877
variable           new_y         equal     ${y0}-${y_0}
variable           new_y         equal     0.90303271147672-${y_0}
variable           new_y         equal     0.90303271147672-1.02288014516667
variable           new_z         equal     ${z0}-${z_0}
variable           new_z         equal     -33.5198898912102-${z_0}
variable           new_z         equal     -33.5198898912102--33.5543721157185

variable           dot      equal     ${fx}*${new_x}+${fy}*${new_y}+${fz}*${new_z}
variable           dot      equal     -1.85474416258001e-06*${new_x}+${fy}*${new_y}+${fz}*${new_z}
variable           dot      equal     -1.85474416258001e-06*0.11814644733673+${fy}*${new_y}+${fz}*${new_z}
variable           dot      equal     -1.85474416258001e-06*0.11814644733673+-2.85248886048481e-06*${new_y}+${fz}*${new_z}
variable           dot      equal     -1.85474416258001e-06*0.11814644733673+-2.85248886048481e-06*-0.11984743368995+${fz}*${new_z}
variable           dot      equal     -1.85474416258001e-06*0.11814644733673+-2.85248886048481e-06*-0.11984743368995+-2.94534192907734e-06*${new_z}
variable           dot      equal     -1.85474416258001e-06*0.11814644733673+-2.85248886048481e-06*-0.11984743368995+-2.94534192907734e-06*0.0344822245083023
print              "The dot product: ${dot}"
The dot product: 2.11700943787467e-08

if "(${dot} >= 0.0) && (${dot} < 1.0e-10)" then "jump TaR.in relaxation" elif "(${dot} < 0.0) && (${dot} > -1.0e-10)" "jump TaR.in relaxation" elif "(${iteration} == ${iter_tot}) && (${seed} < 319)" "print 'The iteration number is maximum!'" "next seed" "variable iteration delete" "jump TaR.in loop" elif "(${iteration} == ${iter_tot}) && (${seed} == 319)" "quit" else    "next iteration"    "jump TaR.in iteration"
next iteration
jump TaR.in iteration
variable           norm          equal     sqrt(${new_x}^2+${new_y}^2+${new_z}^2)
variable           norm          equal     sqrt(0.11814644733673^2+${new_y}^2+${new_z}^2)
variable           norm          equal     sqrt(0.11814644733673^2+-0.11984743368995^2+${new_z}^2)
variable           norm          equal     sqrt(0.11814644733673^2+-0.11984743368995^2+0.0344822245083023^2)
variable           unit_x        equal     ${new_x}/${norm}
variable           unit_x        equal     0.11814644733673/${norm}
variable           unit_x        equal     0.11814644733673/0.171787700920056
variable           unit_y        equal     ${new_y}/${norm}
variable           unit_y        equal     -0.11984743368995/${norm}
variable           unit_y        equal     -0.11984743368995/0.171787700920056
variable           unit_z        equal     ${new_z}/${norm}
variable           unit_z        equal     0.0344822245083023/${norm}
variable           unit_z        equal     0.0344822245083023/0.171787700920056
variable           x_new         equal     ${x0}+${delta}*${unit_x}
variable           x_new         equal     3.0321686470455+${delta}*${unit_x}
variable           x_new         equal     3.0321686470455+0.02*${unit_x}
variable           x_new         equal     3.0321686470455+0.02*0.687746833469244
variable           y_new         equal     ${y0}+${delta}*${unit_y}
variable           y_new         equal     0.90303271147672+${delta}*${unit_y}
variable           y_new         equal     0.90303271147672+0.02*${unit_y}
variable           y_new         equal     0.90303271147672+0.02*-0.697648510621391
variable           z_new         equal     ${z0}+${delta}*${unit_z}
variable           z_new         equal     -33.5198898912102+${delta}*${unit_z}
variable           z_new         equal     -33.5198898912102+0.02*${unit_z}
variable           z_new         equal     -33.5198898912102+0.02*0.20072580472073

set                atom          $i    x  ${x_new}  y  ${y_new}  z   ${z_new}
set                atom          288751    x  ${x_new}  y  ${y_new}  z   ${z_new}
set                atom          288751    x  3.04592358371488  y  ${y_new}  z   ${z_new}
set                atom          288751    x  3.04592358371488  y  0.889079741264292  z   ${z_new}
set                atom          288751    x  3.04592358371488  y  0.889079741264292  z   -33.5158753751158
Setting atom values ...
  1 settings made for x
  1 settings made for y
  1 settings made for z

fix                hold    carbon   planeforce   ${new_x}  ${new_y}  ${new_z}
fix                hold    carbon   planeforce   0.11814644733673  ${new_y}  ${new_z}
fix                hold    carbon   planeforce   0.11814644733673  -0.11984743368995  ${new_z}
fix                hold    carbon   planeforce   0.11814644733673  -0.11984743368995  0.0344822245083023
min_style          cg
minimize           1.0e-30 1.0e-30 10000 10000
Per MPI rank memory allocation (min/avg/max) = 5.441 | 5.816 | 6.074 Mbytes
Step PotEng KinEng TotEng v_fx v_fy v_fz 
    1625   -1152449.4            0   -1152449.4 -0.0079570385 -0.0086076217 -0.0026537017 
    1805   -1152449.4            0   -1152449.4 -6.3938814e-06 -8.1648575e-06 -6.4706628e-06 
Loop time of 2.09586 on 104 procs for 180 steps with 288751 atoms

99.9% CPU use with 104 MPI tasks x 1 OpenMP threads

Minimization stats:
  Stopping criterion = energy tolerance
  Energy initial, next-to-last, final = 
     -1152449.38114671  -1152449.38231349  -1152449.38231349
  Force two-norm initial, final = 0.15020035 7.8329741e-05
  Force max component initial, final = 0.10843055 8.1648575e-06
  Final line search alpha, max atom move = 1.0000000 8.1648575e-06
  Iterations, force evaluations = 180 360

MPI task timing breakdown:
Section |  min time  |  avg time  |  max time  |%varavg| %total
---------------------------------------------------------------
Pair    | 0.5413     | 1.5134     | 1.9729     |  33.3 | 72.21
Neigh   | 0          | 0          | 0          |   0.0 |  0.00
Comm    | 0.035907   | 0.34275    | 1.0289     |  48.9 | 16.35
Output  | 0          | 0          | 0          |   0.0 |  0.00
Modify  | 2.2107e-05 | 0.0029748  | 0.0062964  |   2.6 |  0.14
Other   |            | 0.2368     |            |       | 11.30

Nlocal:        2776.45 ave        3945 max           0 min
Histogram: 8 4 4 0 4 12 8 0 28 36
Nghost:        3879.01 ave        5424 max         232 min
Histogram: 8 0 8 0 16 0 8 8 16 40
Neighs:        79213.4 ave      114959 max           0 min
Histogram: 8 4 4 0 10 6 8 8 24 32

Total # of neighbors = 8238193
Ave neighs/atom = 28.530440
Neighbor list builds = 0
Dangerous builds = 0
unfix              hold

variable           new_x         delete
variable           new_y         delete
variable           new_z         delete
variable           dot           delete
variable           new_x         equal     ${x0}-${x_0}
variable           new_x         equal     3.04257195424986-${x_0}
variable           new_x         equal     3.04257195424986-2.91402219970877
variable           new_y         equal     ${y0}-${y_0}
variable           new_y         equal     0.885554892771822-${y_0}
variable           new_y         equal     0.885554892771822-1.02288014516667
variable           new_z         equal     ${z0}-${z_0}
variable           new_z         equal     -33.5166427540266-${z_0}
variable           new_z         equal     -33.5166427540266--33.5543721157185

variable           dot      equal     ${fx}*${new_x}+${fy}*${new_y}+${fz}*${new_z}
variable           dot      equal     -6.39388135735291e-06*${new_x}+${fy}*${new_y}+${fz}*${new_z}
variable           dot      equal     -6.39388135735291e-06*0.12854975454109+${fy}*${new_y}+${fz}*${new_z}
variable           dot      equal     -6.39388135735291e-06*0.12854975454109+-8.16485745994483e-06*${new_y}+${fz}*${new_z}
variable           dot      equal     -6.39388135735291e-06*0.12854975454109+-8.16485745994483e-06*-0.137325252394848+${fz}*${new_z}
variable           dot      equal     -6.39388135735291e-06*0.12854975454109+-8.16485745994483e-06*-0.137325252394848+-6.47066275850708e-06*${new_z}
variable           dot      equal     -6.39388135735291e-06*0.12854975454109+-8.16485745994483e-06*-0.137325252394848+-6.47066275850708e-06*0.0377293616919019
print              "The dot product: ${dot}"
The dot product: 5.51752568002799e-08

if "(${dot} >= 0.0) && (${dot} < 1.0e-10)" then "jump TaR.in relaxation" elif "(${dot} < 0.0) && (${dot} > -1.0e-10)" "jump TaR.in relaxation" elif "(${iteration} == ${iter_tot}) && (${seed} < 319)" "print 'The iteration number is maximum!'" "next seed" "variable iteration delete" "jump TaR.in loop" elif "(${iteration} == ${iter_tot}) && (${seed} == 319)" "quit" else    "next iteration"    "jump TaR.in iteration"
next iteration
jump TaR.in iteration
variable           norm          equal     sqrt(${new_x}^2+${new_y}^2+${new_z}^2)
variable           norm          equal     sqrt(0.12854975454109^2+${new_y}^2+${new_z}^2)
variable           norm          equal     sqrt(0.12854975454109^2+-0.137325252394848^2+${new_z}^2)
variable           norm          equal     sqrt(0.12854975454109^2+-0.137325252394848^2+0.0377293616919019^2)
variable           unit_x        equal     ${new_x}/${norm}
variable           unit_x        equal     0.12854975454109/${norm}
variable           unit_x        equal     0.12854975454109/0.191850903233635
variable           unit_y        equal     ${new_y}/${norm}
variable           unit_y        equal     -0.137325252394848/${norm}
variable           unit_y        equal     -0.137325252394848/0.191850903233635
variable           unit_z        equal     ${new_z}/${norm}
variable           unit_z        equal     0.0377293616919019/${norm}
variable           unit_z        equal     0.0377293616919019/0.191850903233635
variable           x_new         equal     ${x0}+${delta}*${unit_x}
variable           x_new         equal     3.04257195424986+${delta}*${unit_x}
variable           x_new         equal     3.04257195424986+0.02*${unit_x}
variable           x_new         equal     3.04257195424986+0.02*0.670050296216447
variable           y_new         equal     ${y0}+${delta}*${unit_y}
variable           y_new         equal     0.885554892771822+${delta}*${unit_y}
variable           y_new         equal     0.885554892771822+0.02*${unit_y}
variable           y_new         equal     0.885554892771822+0.02*-0.715791534364652
variable           z_new         equal     ${z0}+${delta}*${unit_z}
variable           z_new         equal     -33.5166427540266+${delta}*${unit_z}
variable           z_new         equal     -33.5166427540266+0.02*${unit_z}
variable           z_new         equal     -33.5166427540266+0.02*0.196659807464942

set                atom          $i    x  ${x_new}  y  ${y_new}  z   ${z_new}
set                atom          288751    x  ${x_new}  y  ${y_new}  z   ${z_new}
set                atom          288751    x  3.05597296017419  y  ${y_new}  z   ${z_new}
set                atom          288751    x  3.05597296017419  y  0.871239062084529  z   ${z_new}
set                atom          288751    x  3.05597296017419  y  0.871239062084529  z   -33.5127095578773
Setting atom values ...
  1 settings made for x
  1 settings made for y
  1 settings made for z

fix                hold    carbon   planeforce   ${new_x}  ${new_y}  ${new_z}
fix                hold    carbon   planeforce   0.12854975454109  ${new_y}  ${new_z}
fix                hold    carbon   planeforce   0.12854975454109  -0.137325252394848  ${new_z}
fix                hold    carbon   planeforce   0.12854975454109  -0.137325252394848  0.0377293616919019
min_style          cg
minimize           1.0e-30 1.0e-30 10000 10000
Per MPI rank memory allocation (min/avg/max) = 5.441 | 5.816 | 6.074 Mbytes
Step PotEng KinEng TotEng v_fx v_fy v_fz 
    1805   -1152449.4            0   -1152449.4 -0.0045203382 -0.0046367656 -0.0014751548 
    1950   -1152449.4            0   -1152449.4 -7.8847026e-06 8.738866e-07 3.0045122e-05 
Loop time of 1.73436 on 104 procs for 145 steps with 288751 atoms

99.9% CPU use with 104 MPI tasks x 1 OpenMP threads

Minimization stats:
  Stopping criterion = energy tolerance
  Energy initial, next-to-last, final = 
     -1152449.36685646  -1152449.36801324  -1152449.36801324
  Force two-norm initial, final = 0.15091089 0.00012440266
  Force max component initial, final = 0.10981613 3.0045122e-05
  Final line search alpha, max atom move = 1.0000000 3.0045122e-05
  Iterations, force evaluations = 145 290

MPI task timing breakdown:
Section |  min time  |  avg time  |  max time  |%varavg| %total
---------------------------------------------------------------
Pair    | 0.4342     | 1.2306     | 1.6147     |  30.3 | 70.95
Neigh   | 0          | 0          | 0          |   0.0 |  0.00
Comm    | 0.025868   | 0.28335    | 0.84494    |  43.2 | 16.34
Output  | 0          | 0          | 0          |   0.0 |  0.00
Modify  | 1.8167e-05 | 0.0024003  | 0.0051088  |   2.3 |  0.14
Other   |            | 0.218      |            |       | 12.57

Nlocal:        2776.45 ave        3943 max           0 min
Histogram: 8 4 4 0 4 12 8 0 28 36
Nghost:        3879.03 ave        5424 max         232 min
Histogram: 8 0 8 0 16 0 8 8 16 40
Neighs:        79213.4 ave      114887 max           0 min
Histogram: 8 4 4 0 10 6 8 8 22 34

Total # of neighbors = 8238192
Ave neighs/atom = 28.530436
Neighbor list builds = 0
Dangerous builds = 0
unfix              hold

variable           new_x         delete
variable           new_y         delete
variable           new_z         delete
variable           dot           delete
variable           new_x         equal     ${x0}-${x_0}
variable           new_x         equal     3.05332550237615-${x_0}
variable           new_x         equal     3.05332550237615-2.91402219970877
variable           new_y         equal     ${y0}-${y_0}
variable           new_y         equal     0.8685242646392-${y_0}
variable           new_y         equal     0.8685242646392-1.02288014516667
variable           new_z         equal     ${z0}-${z_0}
variable           new_z         equal     -33.5135704310229-${z_0}
variable           new_z         equal     -33.5135704310229--33.5543721157185

variable           dot      equal     ${fx}*${new_x}+${fy}*${new_y}+${fz}*${new_z}
variable           dot      equal     -7.88470255087024e-06*${new_x}+${fy}*${new_y}+${fz}*${new_z}
variable           dot      equal     -7.88470255087024e-06*0.13930330266738+${fy}*${new_y}+${fz}*${new_z}
variable           dot      equal     -7.88470255087024e-06*0.13930330266738+8.73886596784596e-07*${new_y}+${fz}*${new_z}
variable           dot      equal     -7.88470255087024e-06*0.13930330266738+8.73886596784596e-07*-0.15435588052747+${fz}*${new_z}
variable           dot      equal     -7.88470255087024e-06*0.13930330266738+8.73886596784596e-07*-0.15435588052747+3.00451220000438e-05*${new_z}
variable           dot      equal     -7.88470255087024e-06*0.13930330266738+8.73886596784596e-07*-0.15435588052747+3.00451220000438e-05*0.0408016846956016
print              "The dot product: ${dot}"
The dot product: -7.36304652731053e-09

if "(${dot} >= 0.0) && (${dot} < 1.0e-10)" then "jump TaR.in relaxation" elif "(${dot} < 0.0) && (${dot} > -1.0e-10)" "jump TaR.in relaxation" elif "(${iteration} == ${iter_tot}) && (${seed} < 319)" "print 'The iteration number is maximum!'" "next seed" "variable iteration delete" "jump TaR.in loop" elif "(${iteration} == ${iter_tot}) && (${seed} == 319)" "quit" else    "next iteration"    "jump TaR.in iteration"
next iteration
jump TaR.in iteration
variable           norm          equal     sqrt(${new_x}^2+${new_y}^2+${new_z}^2)
variable           norm          equal     sqrt(0.13930330266738^2+${new_y}^2+${new_z}^2)
variable           norm          equal     sqrt(0.13930330266738^2+-0.15435588052747^2+${new_z}^2)
variable           norm          equal     sqrt(0.13930330266738^2+-0.15435588052747^2+0.0408016846956016^2)
variable           unit_x        equal     ${new_x}/${norm}
variable           unit_x        equal     0.13930330266738/${norm}
variable           unit_x        equal     0.13930330266738/0.211886586317892
variable           unit_y        equal     ${new_y}/${norm}
variable           unit_y        equal     -0.15435588052747/${norm}
variable           unit_y        equal     -0.15435588052747/0.211886586317892
variable           unit_z        equal     ${new_z}/${norm}
variable           unit_z        equal     0.0408016846956016/${norm}
variable           unit_z        equal     0.0408016846956016/0.211886586317892
[...]
fix                hold    carbon   planeforce   2.06204992405163  ${new_y}  ${new_z}
fix                hold    carbon   planeforce   2.06204992405163  0.0105751328350099  ${new_z}
fix                hold    carbon   planeforce   2.06204992405163  0.0105751328350099  -1.513722263233
min_style          cg
minimize           1.0e-30 1.0e-30 10000 10000
Per MPI rank memory allocation (min/avg/max) = 5.441 | 5.816 | 6.074 Mbytes
Step PotEng KinEng TotEng v_fx v_fy v_fz 
   21483   -1152449.1            0   -1152449.1  0.014308215 0.0052628607  0.019527961 
   21661   -1152449.1            0   -1152449.1 -9.65551e-06 -1.5900607e-05 -1.3264187e-05 
Loop time of 2.07707 on 104 procs for 178 steps with 288751 atoms

99.9% CPU use with 104 MPI tasks x 1 OpenMP threads

Minimization stats:
  Stopping criterion = energy tolerance
  Energy initial, next-to-last, final = 
     -1152449.10999856  -1152449.11136186  -1152449.11136186
  Force two-norm initial, final = 0.16784784 0.00017483347
  Force max component initial, final = 0.077380394 2.6778040e-05
  Final line search alpha, max atom move = 1.0000000 2.6778040e-05
  Iterations, force evaluations = 178 356

MPI task timing breakdown:
Section |  min time  |  avg time  |  max time  |%varavg| %total
---------------------------------------------------------------
Pair    | 0.53209    | 1.4965     | 1.96       |  33.2 | 72.05
Neigh   | 0          | 0          | 0          |   0.0 |  0.00
Comm    | 0.03203    | 0.34051    | 1.0044     |  48.1 | 16.39
Output  | 0          | 0          | 0          |   0.0 |  0.00
Modify  | 2.1871e-05 | 0.002941   | 0.0062591  |   2.6 |  0.14
Other   |            | 0.2371     |            |       | 11.41

Nlocal:        2776.45 ave        3957 max           0 min
Histogram: 8 4 4 0 4 12 8 2 28 34
Nghost:        3879.18 ave        5426 max         232 min
Histogram: 8 0 8 0 16 0 8 8 16 40
Neighs:        79213.4 ave      115334 max           0 min
Histogram: 8 4 4 0 10 6 8 8 24 32

Total # of neighbors = 8238191
Ave neighs/atom = 28.530433
Neighbor list builds = 0
Dangerous builds = 0
unfix              hold

variable           new_x         delete
variable           new_y         delete
variable           new_z         delete
variable           dot           delete
variable           new_x         equal     ${x0}-${x_0}
variable           new_x         equal     4.99307444300752-${x_0}
variable           new_x         equal     4.99307444300752-2.91402219970877
variable           new_y         equal     ${y0}-${y_0}
variable           new_y         equal     1.03364674845975-${y_0}
variable           new_y         equal     1.03364674845975-1.02288014516667
variable           new_z         equal     ${z0}-${z_0}
variable           new_z         equal     -35.0787297126861-${z_0}
variable           new_z         equal     -35.0787297126861--33.5543721157185

variable           dot      equal     ${fx}*${new_x}+${fy}*${new_y}+${fz}*${new_z}
variable           dot      equal     -9.6555100387374e-06*${new_x}+${fy}*${new_y}+${fz}*${new_z}
variable           dot      equal     -9.6555100387374e-06*2.07905224329875+${fy}*${new_y}+${fz}*${new_z}
variable           dot      equal     -9.6555100387374e-06*2.07905224329875+-1.59006069351634e-05*${new_y}+${fz}*${new_z}
variable           dot      equal     -9.6555100387374e-06*2.07905224329875+-1.59006069351634e-05*0.01076660329308+${fz}*${new_z}
variable           dot      equal     -9.6555100387374e-06*2.07905224329875+-1.59006069351634e-05*0.01076660329308+-1.32641867403267e-05*${new_z}
variable           dot      equal     -9.6555100387374e-06*2.07905224329875+-1.59006069351634e-05*0.01076660329308+-1.32641867403267e-05*-1.5243575969676
print              "The dot product: ${dot}"
The dot product: -2.6141508006782e-08

if "(${dot} >= 0.0) && (${dot} < 1.0e-10)" then "jump TaR.in relaxation" elif "(${dot} < 0.0) && (${dot} > -1.0e-10)" "jump TaR.in relaxation" elif "(${iteration} == ${iter_tot}) && (${seed} < 319)" "print 'The iteration number is maximum!'" "next seed" "variable iteration delete" "jump TaR.in loop" elif "(${iteration} == ${iter_tot}) && (${seed} == 319)" "quit" else    "next iteration"    "jump TaR.in iteration"
next iteration
jump TaR.in iteration
variable           norm          equal     sqrt(${new_x}^2+${new_y}^2+${new_z}^2)
variable           norm          equal     sqrt(2.07905224329875^2+${new_y}^2+${new_z}^2)
variable           norm          equal     sqrt(2.07905224329875^2+0.01076660329308^2+${new_z}^2)
variable           norm          equal     sqrt(2.07905224329875^2+0.01076660329308^2+-1.5243575969676^2)
variable           unit_x        equal     ${new_x}/${norm}
variable           unit_x        equal     2.07905224329875/${norm}
variable           unit_x        equal     2.07905224329875/2.57803030113008
variable           unit_y        equal     ${new_y}/${norm}
variable           unit_y        equal     0.01076660329308/${norm}
variable           unit_y        equal     0.01076660329308/2.57803030113008
variable           unit_z        equal     ${new_z}/${norm}
variable           unit_z        equal     -1.5243575969676/${norm}
variable           unit_z        equal     -1.5243575969676/2.57803030113008
variable           x_new         equal     ${x0}+${delta}*${unit_x}
variable           x_new         equal     4.99307444300752+${delta}*${unit_x}
variable           x_new         equal     4.99307444300752+0.02*${unit_x}
variable           x_new         equal     4.99307444300752+0.02*0.806449886328876
variable           y_new         equal     ${y0}+${delta}*${unit_y}
variable           y_new         equal     1.03364674845975+${delta}*${unit_y}
variable           y_new         equal     1.03364674845975+0.02*${unit_y}
variable           y_new         equal     1.03364674845975+0.02*0.00417629043706758
variable           z_new         equal     ${z0}+${delta}*${unit_z}
variable           z_new         equal     -35.0787297126861+${delta}*${unit_z}
variable           z_new         equal     -35.0787297126861+0.02*${unit_z}
variable           z_new         equal     -35.0787297126861+0.02*-0.591287695997754

set                atom          $i    x  ${x_new}  y  ${y_new}  z   ${z_new}
set                atom          288751    x  ${x_new}  y  ${y_new}  z   ${z_new}
set                atom          288751    x  5.0092034407341  y  ${y_new}  z   ${z_new}
set                atom          288751    x  5.0092034407341  y  1.03373027426849  z   ${z_new}
set                atom          288751    x  5.0092034407341  y  1.03373027426849  z   -35.0905554666061
Setting atom values ...
  1 settings made for x
  1 settings made for y
  1 settings made for z

fix                hold    carbon   planeforce   ${new_x}  ${new_y}  ${new_z}
fix                hold    carbon   planeforce   2.07905224329875  ${new_y}  ${new_z}
fix                hold    carbon   planeforce   2.07905224329875  0.01076660329308  ${new_z}
fix                hold    carbon   planeforce   2.07905224329875  0.01076660329308  -1.5243575969676
min_style          cg
minimize           1.0e-30 1.0e-30 10000 10000
Per MPI rank memory allocation (min/avg/max) = 5.441 | 5.816 | 6.074 Mbytes
Step PotEng KinEng TotEng v_fx v_fy v_fz 
   21661   -1152449.1            0   -1152449.1  0.014938897 0.0055702901  0.020414317 
   21868   -1152449.1            0   -1152449.1 -5.87024e-06 -1.545795e-05 -8.115527e-06 
Loop time of 2.45682 on 104 procs for 207 steps with 288751 atoms

99.9% CPU use with 104 MPI tasks x 1 OpenMP threads

Minimization stats:
  Stopping criterion = energy tolerance
  Energy initial, next-to-last, final = 
     -1152449.13059262  -1152449.13196303  -1152449.13196303
  Force two-norm initial, final = 0.16775806 7.4110452e-05
  Force max component initial, final = 0.076940581 1.5457950e-05
  Final line search alpha, max atom move = 1.0000000 1.5457950e-05
  Iterations, force evaluations = 207 414

MPI task timing breakdown:
Section |  min time  |  avg time  |  max time  |%varavg| %total
---------------------------------------------------------------
Pair    | 0.61998    | 1.7422     | 2.2861     |  35.9 | 70.91
Neigh   | 0          | 0          | 0          |   0.0 |  0.00
Comm    | 0.038761   | 0.40259    | 1.1674     |  51.0 | 16.39
Output  | 0          | 0          | 0          |   0.0 |  0.00
Modify  | 2.672e-05  | 0.0034211  | 0.0072807  |   2.7 |  0.14
Other   |            | 0.3086     |            |       | 12.56

Nlocal:        2776.45 ave        3957 max           0 min
Histogram: 8 4 4 0 4 12 8 2 28 34
Nghost:        3879.20 ave        5426 max         232 min
Histogram: 8 0 8 0 16 0 8 8 16 40
Neighs:        79213.4 ave      115333 max           0 min
Histogram: 8 4 4 0 10 6 8 8 24 32

Total # of neighbors = 8238191
Ave neighs/atom = 28.530433
Neighbor list builds = 0
Dangerous builds = 0
unfix              hold

variable           new_x         delete
variable           new_y         delete
variable           new_z         delete
variable           dot           delete
variable           new_x         equal     ${x0}-${x_0}
variable           new_x         equal     5.01016031501658-${x_0}
variable           new_x         equal     5.01016031501658-2.91402219970877
variable           new_y         equal     ${y0}-${y_0}
variable           new_y         equal     1.03391483108282-${y_0}
variable           new_y         equal     1.03391483108282-1.02288014516667
variable           new_z         equal     ${z0}-${z_0}
variable           new_z         equal     -35.0892490942186-${z_0}
variable           new_z         equal     -35.0892490942186--33.5543721157185

variable           dot      equal     ${fx}*${new_x}+${fy}*${new_y}+${fz}*${new_z}
variable           dot      equal     -5.87023999868673e-06*${new_x}+${fy}*${new_y}+${fz}*${new_z}
variable           dot      equal     -5.87023999868673e-06*2.09613811530781+${fy}*${new_y}+${fz}*${new_z}
variable           dot      equal     -5.87023999868673e-06*2.09613811530781+-1.54579498628744e-05*${new_y}+${fz}*${new_z}
variable           dot      equal     -5.87023999868673e-06*2.09613811530781+-1.54579498628744e-05*0.0110346859161499+${fz}*${new_z}
variable           dot      equal     -5.87023999868673e-06*2.09613811530781+-1.54579498628744e-05*0.0110346859161499+-8.11552701073164e-06*${new_z}
variable           dot      equal     -5.87023999868673e-06*2.09613811530781+-1.54579498628744e-05*0.0110346859161499+-8.11552701073164e-06*-1.5348769785001
print              "The dot product: ${dot}"
The dot product: -1.90718517284052e-08

if "(${dot} >= 0.0) && (${dot} < 1.0e-10)" then "jump TaR.in relaxation" elif "(${dot} < 0.0) && (${dot} > -1.0e-10)" "jump TaR.in relaxation" elif "(${iteration} == ${iter_tot}) && (${seed} < 319)" "print 'The iteration number is maximum!'" "next seed" "variable iteration delete" "jump TaR.in loop" elif "(${iteration} == ${iter_tot}) && (${seed} == 319)" "quit" else    "next iteration"    "jump TaR.in iteration"
next iteration
jump TaR.in iteration
variable           norm          equal     sqrt(${new_x}^2+${new_y}^2+${new_z}^2)
variable           norm          equal     sqrt(2.09613811530781^2+${new_y}^2+${new_z}^2)
variable           norm          equal     sqrt(2.09613811530781^2+0.0110346859161499^2+${new_z}^2)
variable           norm          equal     sqrt(2.09613811530781^2+0.0110346859161499^2+-1.5348769785001^2)
variable           unit_x        equal     ${new_x}/${norm}
variable           unit_x        equal     2.09613811530781/${norm}
variable           unit_x        equal     2.09613811530781/2.59803081234019
variable           unit_y        equal     ${new_y}/${norm}
variable           unit_y        equal     0.0110346859161499/${norm}
variable           unit_y        equal     0.0110346859161499/2.59803081234019
variable           unit_z        equal     ${new_z}/${norm}
variable           unit_z        equal     -1.5348769785001/${norm}
variable           unit_z        equal     -1.5348769785001/2.59803081234019
variable           x_new         equal     ${x0}+${delta}*${unit_x}
variable           x_new         equal     5.01016031501658+${delta}*${unit_x}
variable           x_new         equal     5.01016031501658+0.02*${unit_x}
variable           x_new         equal     5.01016031501658+0.02*0.806818035163987
variable           y_new         equal     ${y0}+${delta}*${unit_y}
variable           y_new         equal     1.03391483108282+${delta}*${unit_y}
variable           y_new         equal     1.03391483108282+0.02*${unit_y}
variable           y_new         equal     1.03391483108282+0.02*0.00424732680757175
variable           z_new         equal     ${z0}+${delta}*${unit_z}
variable           z_new         equal     -35.0892490942186+${delta}*${unit_z}
variable           z_new         equal     -35.0892490942186+0.02*${unit_z}
variable           z_new         equal     -35.0892490942186+0.02*-0.590784747898179

set                atom          $i    x  ${x_new}  y  ${y_new}  z   ${z_new}
set                atom          288751    x  ${x_new}  y  ${y_new}  z   ${z_new}
set                atom          288751    x  5.02629667571986  y  ${y_new}  z   ${z_new}
set                atom          288751    x  5.02629667571986  y  1.03399977761897  z   ${z_new}
set                atom          288751    x  5.02629667571986  y  1.03399977761897  z   -35.1010647891766
Setting atom values ...
  1 settings made for x
  1 settings made for y
  1 settings made for z

fix                hold    carbon   planeforce   ${new_x}  ${new_y}  ${new_z}
fix                hold    carbon   planeforce   2.09613811530781  ${new_y}  ${new_z}
fix                hold    carbon   planeforce   2.09613811530781  0.0110346859161499  ${new_z}
fix                hold    carbon   planeforce   2.09613811530781  0.0110346859161499  -1.5348769785001
min_style          cg
minimize           1.0e-30 1.0e-30 10000 10000
Per MPI rank memory allocation (min/avg/max) = 5.441 | 5.816 | 6.074 Mbytes
Step PotEng KinEng TotEng v_fx v_fy v_fz 
   21868   -1152449.1            0   -1152449.1  0.015513803 0.0057938002  0.021228416 
   22000   -1152449.2            0   -1152449.2 -4.8949169e-05 -6.8331998e-05 -6.7339756e-05 
   22075   -1152449.2            0   -1152449.2 -1.7316535e-07 1.5687498e-06 -2.2520882e-07 
Loop time of 2.41811 on 104 procs for 207 steps with 288751 atoms

99.9% CPU use with 104 MPI tasks x 1 OpenMP threads

Minimization stats:
  Stopping criterion = energy tolerance
  Energy initial, next-to-last, final = 
     -1152449.14966006  -1152449.15103343  -1152449.15103343
  Force two-norm initial, final = 0.16773064 7.5035729e-05
  Force max component initial, final = 0.076496349 1.5179090e-05
  Final line search alpha, max atom move = 1.0000000 1.5179090e-05
  Iterations, force evaluations = 207 414

MPI task timing breakdown:
Section |  min time  |  avg time  |  max time  |%varavg| %total
---------------------------------------------------------------
Pair    | 0.61999    | 1.7404     | 2.2806     |  35.8 | 71.97
Neigh   | 0          | 0          | 0          |   0.0 |  0.00
Comm    | 0.036657   | 0.39611    | 1.1719     |  51.9 | 16.38
Output  | 0.00016232 | 0.00017118 | 0.00030879 |   0.0 |  0.01
Modify  | 2.5455e-05 | 0.0034234  | 0.0072891  |   2.7 |  0.14
Other   |            | 0.278      |            |       | 11.50

Nlocal:        2776.45 ave        3957 max           0 min
Histogram: 8 4 4 0 4 12 8 2 28 34
Nghost:        3879.22 ave        5426 max         232 min
Histogram: 8 0 8 0 16 0 8 8 16 40
Neighs:        79213.4 ave      115333 max           0 min
Histogram: 8 4 4 0 10 6 8 8 24 32

Total # of neighbors = 8238193
Ave neighs/atom = 28.530440
Neighbor list builds = 0
Dangerous builds = 0
unfix              hold

variable           new_x         delete
variable           new_y         delete
variable           new_z         delete
variable           dot           delete
variable           new_x         equal     ${x0}-${x_0}
variable           new_x         equal     5.02734653457378-${x_0}
variable           new_x         equal     5.02734653457378-2.91402219970877
variable           new_y         equal     ${y0}-${y_0}
variable           new_y         equal     1.03426349896589-${y_0}
variable           new_y         equal     1.03426349896589-1.02288014516667
variable           new_z         equal     ${z0}-${z_0}
variable           new_z         equal     -35.0996291306365-${z_0}
variable           new_z         equal     -35.0996291306365--33.5543721157185

variable           dot      equal     ${fx}*${new_x}+${fy}*${new_y}+${fz}*${new_z}
variable           dot      equal     -1.73165348912905e-07*${new_x}+${fy}*${new_y}+${fz}*${new_z}
variable           dot      equal     -1.73165348912905e-07*2.11332433486501+${fy}*${new_y}+${fz}*${new_z}
variable           dot      equal     -1.73165348912905e-07*2.11332433486501+1.5687497680574e-06*${new_y}+${fz}*${new_z}
variable           dot      equal     -1.73165348912905e-07*2.11332433486501+1.5687497680574e-06*0.0113833537992201+${fz}*${new_z}
variable           dot      equal     -1.73165348912905e-07*2.11332433486501+1.5687497680574e-06*0.0113833537992201+-2.25208815663847e-07*${new_z}
variable           dot      equal     -1.73165348912905e-07*2.11332433486501+1.5687497680574e-06*0.0113833537992201+-2.25208815663847e-07*-1.545257014918
print              "The dot product: ${dot}"
The dot product: -9.14099548561373e-11

if "(${dot} >= 0.0) && (${dot} < 1.0e-10)" then "jump TaR.in relaxation" elif "(${dot} < 0.0) && (${dot} > -1.0e-10)" "jump TaR.in relaxation" elif "(${iteration} == ${iter_tot}) && (${seed} < 319)" "print 'The iteration number is maximum!'" "next seed" "variable iteration delete" "jump TaR.in loop" elif "(${iteration} == ${iter_tot}) && (${seed} == 319)" "quit" else    "next iteration"    "jump TaR.in iteration"
jump TaR.in relaxation
#full relaxation
min_style          cg
minimize           1.0e-30 1.0e-30 10000 10000
Per MPI rank memory allocation (min/avg/max) = 5.441 | 5.816 | 6.074 Mbytes
Step PotEng KinEng TotEng v_fx v_fy v_fz 
   22075   -1152449.2            0   -1152449.2   0.73861554 0.0038898585  -0.54084448 
   22319   -1152449.3            0   -1152449.3 -2.2521988e-05 -5.041156e-05 -4.6076428e-05 
Loop time of 2.87541 on 104 procs for 244 steps with 288751 atoms

99.9% CPU use with 104 MPI tasks x 1 OpenMP threads

Minimization stats:
  Stopping criterion = energy tolerance
  Energy initial, next-to-last, final = 
     -1152449.15103343  -1152449.26566366  -1152449.26566366
  Force two-norm initial, final = 0.91546753 0.00017855966
  Force max component initial, final = 0.73861554 5.0411560e-05
  Final line search alpha, max atom move = 1.0000000 5.0411560e-05
  Iterations, force evaluations = 244 488

MPI task timing breakdown:
Section |  min time  |  avg time  |  max time  |%varavg| %total
---------------------------------------------------------------
Pair    | 0.7368     | 2.0511     | 2.6888     |  38.8 | 71.33
Neigh   | 1.0071e-05 | 0.002951   | 0.004438   |   2.2 |  0.10
Comm    | 0.048311   | 0.4699     | 1.3761     |  55.7 | 16.34
Output  | 0          | 0          | 0          |   0.0 |  0.00
Modify  | 2.7859e-05 | 0.0026277  | 0.0067123  |   3.2 |  0.09
Other   |            | 0.3489     |            |       | 12.13

Nlocal:        2776.45 ave        3957 max           0 min
Histogram: 8 4 4 0 4 12 8 2 28 34
Nghost:        3879.18 ave        5426 max         232 min
Histogram: 8 0 8 0 16 0 8 8 16 40
Neighs:        79213.4 ave      115332 max           0 min
Histogram: 8 4 4 0 10 6 8 8 24 32

Total # of neighbors = 8238190
Ave neighs/atom = 28.530429
Neighbor list builds = 1
Dangerous builds = 0
print              "${x0} ${y0} ${z0}" append info.dat screen no

if "${seed} < 319" then "next seed" "variable iteration delete" "jump TaR.in loop" else "quit"
quit
