LAMMPS (29 Oct 2020)
OMP_NUM_THREADS environment is not set. Defaulting to 1 thread. (../comm.cpp:94)
  using 1 OpenMP thread(s) per MPI task
OMP_NUM_THREADS environment is not set. Defaulting to 1 thread. (../comm.cpp:94)
  using 1 OpenMP thread(s) per MPI task
Reading data file ...
  orthogonal box = (-122.39241 -121.13707 -37.090501) to (122.39241 121.13707 37.090501)
  13 by 4 by 1 MPI processor grid
  reading atoms ...
  288751 atoms
  read_data CPU = 0.443 seconds
199981 atoms in group inner
88770 atoms in group outer
1 atoms in group carbon
Neighbor list info ...
  update every 1 steps, delay 0 steps, check yes
  max neighbors/atom: 2000, page size: 100000
  master list distance cutoff = 5.6
  ghost atom cutoff = 5.6
  binsize = 2.8, bins = 88 87 27
  1 neighbor lists, perpetual/occasional/extra = 1 0 0
  (1) pair eam/alloy, perpetual
      attributes: half, newton on
      pair build: half/bin/atomonly/newton
      stencil: half/bin/3d/newton
      bin: standard
Setting up cg style minimization ...
  Unit style    : metal
  Current step  : 0
Per MPI rank memory allocation (min/avg/max) = 5.465 | 6.344 | 6.728 Mbytes
Step v_fx v_fy v_fz PotEng KinEng TotEng 
       0  0.034431653   0.12480538 0.0072259398   -1152444.6            0   -1152444.6 
     220 1.4608347e-05 3.0535971e-07 -1.8717033e-05     -1152449            0     -1152449 
Loop time of 4.8464 on 52 procs for 220 steps with 288751 atoms

99.9% CPU use with 52 MPI tasks x 1 OpenMP threads

Minimization stats:
  Stopping criterion = energy tolerance
  Energy initial, next-to-last, final = 
     -1152444.63021101   -1152448.9721889   -1152448.9721889
  Force two-norm initial, final = 23.793803 0.00025468283
  Force max component initial, final = 13.979076 6.3915286e-05
  Final line search alpha, max atom move = 1.0000000 6.3915286e-05
  Iterations, force evaluations = 220 437

MPI task timing breakdown:
Section |  min time  |  avg time  |  max time  |%varavg| %total
---------------------------------------------------------------
Pair    | 1.317      | 3.4973     | 4.5507     |  50.3 | 72.16
Neigh   | 0.00018497 | 0.053856   | 0.081406   |   9.8 |  1.11
Comm    | 0.074451   | 0.77422    | 2.4328     |  78.1 | 15.98
Output  | 0          | 0          | 0          |   0.0 |  0.00
Modify  | 8.4787e-05 | 0.0048187  | 0.012125   |   4.3 |  0.10
Other   |            | 0.5162     |            |       | 10.65

Nlocal:        5552.90 ave        7900 max           0 min
Histogram: 4 2 2 0 2 6 4 0 14 18
Nghost:        6213.73 ave        8769 max         412 min
Histogram: 4 0 4 0 8 0 4 5 7 20
Neighs:       158427.0 ave      230206 max           0 min
Histogram: 4 2 2 0 5 3 4 4 12 16

Total # of neighbors = 8238205
Ave neighs/atom = 28.530481
Neighbor list builds = 9
Dangerous builds = 0
Setting atom values ...
  1 settings made for x
  1 settings made for y
  1 settings made for z
Setting up cg style minimization ...
  Unit style    : metal
  Current step  : 220
Per MPI rank memory allocation (min/avg/max) = 5.465 | 6.344 | 6.728 Mbytes
Step PotEng KinEng TotEng v_fx v_fy v_fz 
     220     -1152449            0     -1152449 -0.0092132139 -0.0083424112 0.00031624914 
     517     -1152449            0     -1152449 -5.4195426e-05 -1.6126441e-05 6.4411226e-05 
Loop time of 6.45902 on 52 procs for 297 steps with 288751 atoms

99.9% CPU use with 52 MPI tasks x 1 OpenMP threads

Minimization stats:
  Stopping criterion = energy tolerance
  Energy initial, next-to-last, final = 
     -1152448.96783103   -1152448.9709106   -1152448.9709106
  Force two-norm initial, final = 0.22568129 0.00028645978
  Force max component initial, final = 0.10760146 6.6546537e-05
  Final line search alpha, max atom move = 1.0000000 6.6546537e-05
  Iterations, force evaluations = 297 594

MPI task timing breakdown:
Section |  min time  |  avg time  |  max time  |%varavg| %total
---------------------------------------------------------------
Pair    | 1.6774     | 4.7271     | 6.1898     |  60.3 | 73.19
Neigh   | 0          | 0          | 0          |   0.0 |  0.00
Comm    | 0.078925   | 1.0472     | 3.3064     |  91.9 | 16.21
Output  | 0          | 0          | 0          |   0.0 |  0.00
Modify  | 0.00012162 | 0.0099136  | 0.020949   |   4.6 |  0.15
Other   |            | 0.6748     |            |       | 10.45

Nlocal:        5552.90 ave        7900 max           0 min
Histogram: 4 2 2 0 2 6 4 0 14 18
Nghost:        6213.77 ave        8769 max         412 min
Histogram: 4 0 4 0 8 0 4 5 7 20
Neighs:       158427.0 ave      230237 max           0 min
Histogram: 4 2 2 0 5 3 4 4 12 16

Total # of neighbors = 8238205
Ave neighs/atom = 28.530481
Neighbor list builds = 0
Dangerous builds = 0
Setting atom values ...
  1 settings made for x
  1 settings made for y
  1 settings made for z
Setting up cg style minimization ...
  Unit style    : metal
  Current step  : 517
Per MPI rank memory allocation (min/avg/max) = 5.465 | 6.344 | 6.728 Mbytes
Step PotEng KinEng TotEng v_fx v_fy v_fz 
     517     -1152449            0     -1152449 0.0069971887  0.021981769  0.011391862 
     669     -1152449            0     -1152449 2.7820542e-05 7.3711971e-06 -1.7684642e-05 
Loop time of 3.30419 on 52 procs for 152 steps with 288751 atoms

99.9% CPU use with 52 MPI tasks x 1 OpenMP threads

Minimization stats:
  Stopping criterion = energy tolerance
  Energy initial, next-to-last, final = 
     -1152448.96716332  -1152448.96905912  -1152448.96905912
  Force two-norm initial, final = 0.15828427 0.00042213169
  Force max component initial, final = 0.080441446 8.3389821e-05
  Final line search alpha, max atom move = 1.0000000 8.3389821e-05
  Iterations, force evaluations = 152 304

MPI task timing breakdown:
Section |  min time  |  avg time  |  max time  |%varavg| %total
---------------------------------------------------------------
Pair    | 0.85987    | 2.4134     | 3.1618     |  43.1 | 73.04
Neigh   | 0          | 0          | 0          |   0.0 |  0.00
Comm    | 0.038992   | 0.53145    | 1.6891     |  65.7 | 16.08
Output  | 0          | 0          | 0          |   0.0 |  0.00
Modify  | 6.7395e-05 | 0.0050943  | 0.010729   |   3.3 |  0.15
Other   |            | 0.3543     |            |       | 10.72

Nlocal:        5552.90 ave        7900 max           0 min
Histogram: 4 2 2 0 2 6 4 0 14 18
Nghost:        6213.77 ave        8769 max         412 min
Histogram: 4 0 4 0 8 0 4 5 7 20
Neighs:       158427.0 ave      230216 max           0 min
Histogram: 4 2 2 0 5 3 4 4 12 16

Total # of neighbors = 8238200
Ave neighs/atom = 28.530464
Neighbor list builds = 0
Dangerous builds = 0
The dot product: -2.91265744728943e-07
Setting atom values ...
  1 settings made for x
  1 settings made for y
  1 settings made for z
Setting up cg style minimization ...
  Unit style    : metal
  Current step  : 669
Per MPI rank memory allocation (min/avg/max) = 5.465 | 6.344 | 6.728 Mbytes
Step PotEng KinEng TotEng v_fx v_fy v_fz 
     669     -1152449            0     -1152449  0.018739648  0.043284888 0.0059822554 
     851     -1152449            0     -1152449 -2.0652675e-05 -4.1984203e-07 1.0169471e-05 
Loop time of 3.94678 on 52 procs for 182 steps with 288751 atoms

99.9% CPU use with 52 MPI tasks x 1 OpenMP threads

Minimization stats:
  Stopping criterion = linesearch alpha is zero
  Energy initial, next-to-last, final = 
     -1152448.96445355  -1152448.96700019  -1152448.96700019
  Force two-norm initial, final = 0.16837642 9.7033061e-05
  Force max component initial, final = 0.09273471 2.0652675e-05
  Final line search alpha, max atom move = 0.5 1.0326337e-05
  Iterations, force evaluations = 182 365

MPI task timing breakdown:
Section |  min time  |  avg time  |  max time  |%varavg| %total
---------------------------------------------------------------
Pair    | 1.0314     | 2.907      | 3.789      |  47.3 | 73.66
Neigh   | 0          | 0          | 0          |   0.0 |  0.00
Comm    | 0.045159   | 0.63758    | 2.0316     |  72.5 | 16.15
Output  | 0          | 0          | 0          |   0.0 |  0.00
Modify  | 7.2803e-05 | 0.0060857  | 0.012822   |   3.6 |  0.15
Other   |            | 0.3961     |            |       | 10.04

Nlocal:        5552.90 ave        7900 max           0 min
Histogram: 4 2 2 0 2 6 4 0 14 18
Nghost:        6213.65 ave        8769 max         412 min
Histogram: 4 0 4 0 8 0 4 5 7 20
Neighs:       158427.0 ave      230214 max           0 min
Histogram: 4 2 2 0 5 3 4 4 12 16

Total # of neighbors = 8238204
Ave neighs/atom = 28.530478
Neighbor list builds = 0
Dangerous builds = 0
The dot product: 6.81055544352686e-07
Setting atom values ...
  1 settings made for x
  1 settings made for y
  1 settings made for z
Setting up cg style minimization ...
  Unit style    : metal
  Current step  : 851
Per MPI rank memory allocation (min/avg/max) = 5.465 | 6.344 | 6.728 Mbytes
Step PotEng KinEng TotEng v_fx v_fy v_fz 
     851     -1152449            0     -1152449  0.022669145  0.047770887 0.0025152487 
    1000     -1152449            0     -1152449 3.9605912e-05 -1.4455979e-06 -3.4107757e-06 
    1001     -1152449            0     -1152449 3.9605912e-05 -1.4455979e-06 -3.4107757e-06 
Loop time of 3.25644 on 52 procs for 150 steps with 288751 atoms

99.9% CPU use with 52 MPI tasks x 1 OpenMP threads

Minimization stats:
  Stopping criterion = linesearch alpha is zero
  Energy initial, next-to-last, final = 
     -1152448.96250426  -1152448.96547529  -1152448.96547529
  Force two-norm initial, final = 0.18930083 0.00014692722
  Force max component initial, final = 0.086089056 4.1546520e-05
  Final line search alpha, max atom move = 0.5 2.0773260e-05
  Iterations, force evaluations = 150 301

MPI task timing breakdown:
Section |  min time  |  avg time  |  max time  |%varavg| %total
---------------------------------------------------------------
Pair    | 0.84856    | 2.3859     | 3.1178     |  42.8 | 73.27
Neigh   | 0          | 0          | 0          |   0.0 |  0.00
Comm    | 0.038184   | 0.52379    | 1.6712     |  65.9 | 16.08
Output  | 0.00021147 | 0.00021654 | 0.00039217 |   0.0 |  0.01
Modify  | 6.1776e-05 | 0.0050417  | 0.010604   |   3.3 |  0.15
Other   |            | 0.3415     |            |       | 10.49

Nlocal:        5552.90 ave        7902 max           0 min
Histogram: 4 2 2 0 2 6 4 0 15 17
Nghost:        6213.73 ave        8769 max         412 min
Histogram: 4 0 4 0 8 0 4 5 7 20
Neighs:       158427.0 ave      230269 max           0 min
Histogram: 4 2 2 0 5 3 4 4 12 16

Total # of neighbors = 8238211
Ave neighs/atom = 28.530502
Neighbor list builds = 0
Dangerous builds = 0
The dot product: -8.86823361021469e-07
Setting atom values ...
  1 settings made for x
  1 settings made for y
  1 settings made for z
Setting up cg style minimization ...
  Unit style    : metal
  Current step  : 1001
Per MPI rank memory allocation (min/avg/max) = 5.465 | 6.344 | 6.728 Mbytes
Step PotEng KinEng TotEng v_fx v_fy v_fz 
    1001     -1152449            0     -1152449  0.042345035  0.037756683 0.0056365114 
    1189     -1152449            0     -1152449 7.5454093e-05 2.4864887e-06 9.9707876e-06 
Loop time of 4.08196 on 52 procs for 188 steps with 288751 atoms

99.9% CPU use with 52 MPI tasks x 1 OpenMP threads

Minimization stats:
  Stopping criterion = energy tolerance
  Energy initial, next-to-last, final = 
     -1152448.96089329  -1152448.96415496  -1152448.96415496
  Force two-norm initial, final = 0.20454504 0.00029743683
  Force max component initial, final = 0.097726602 7.5454093e-05
  Final line search alpha, max atom move = 1.0000000 7.5454093e-05
  Iterations, force evaluations = 188 376

MPI task timing breakdown:
Section |  min time  |  avg time  |  max time  |%varavg| %total
---------------------------------------------------------------
Pair    | 1.0609     | 2.9942     | 3.9127     |  48.1 | 73.35
Neigh   | 0          | 0          | 0          |   0.0 |  0.00
Comm    | 0.048791   | 0.66289    | 2.0992     |  73.3 | 16.24
Output  | 0          | 0          | 0          |   0.0 |  0.00
Modify  | 7.7234e-05 | 0.0062736  | 0.013254   |   3.7 |  0.15
Other   |            | 0.4186     |            |       | 10.25

Nlocal:        5552.90 ave        7902 max           0 min
Histogram: 4 2 2 0 2 6 4 0 15 17
Nghost:        6213.65 ave        8769 max         412 min
Histogram: 4 0 4 0 8 0 4 5 7 20
Neighs:       158427.0 ave      230276 max           0 min
Histogram: 4 2 2 0 5 3 4 4 12 16

Total # of neighbors = 8238213
Ave neighs/atom = 28.530509
Neighbor list builds = 0
Dangerous builds = 0
The dot product: -1.04345526209844e-06
Setting atom values ...
  1 settings made for x
  1 settings made for y
  1 settings made for z
Setting up cg style minimization ...
  Unit style    : metal
  Current step  : 1189
Per MPI rank memory allocation (min/avg/max) = 5.465 | 6.344 | 6.728 Mbytes
Step PotEng KinEng TotEng v_fx v_fy v_fz 
    1189     -1152449            0     -1152449  0.052867605  0.031855118  0.012420167 
    1333     -1152449            0     -1152449 4.315574e-05 3.3356287e-06 1.0609581e-05 
Loop time of 3.10968 on 52 procs for 144 steps with 288751 atoms

99.9% CPU use with 52 MPI tasks x 1 OpenMP threads

Minimization stats:
  Stopping criterion = energy tolerance
  Energy initial, next-to-last, final = 
      -1152448.9599901  -1152448.96251939  -1152448.96251939
  Force two-norm initial, final = 0.21469692 0.00021790124
  Force max component initial, final = 0.109367 5.7244515e-05
  Final line search alpha, max atom move = 1.0000000 5.7244515e-05
  Iterations, force evaluations = 144 288

MPI task timing breakdown:
Section |  min time  |  avg time  |  max time  |%varavg| %total
---------------------------------------------------------------
Pair    | 0.81267    | 2.2836     | 2.9847     |  41.9 | 73.44
Neigh   | 0          | 0          | 0          |   0.0 |  0.00
Comm    | 0.035805   | 0.49919    | 1.5909     |  64.3 | 16.05
Output  | 0          | 0          | 0          |   0.0 |  0.00
Modify  | 5.9216e-05 | 0.0048433  | 0.010255   |   3.2 |  0.16
Other   |            | 0.322      |            |       | 10.36

Nlocal:        5552.90 ave        7904 max           0 min
Histogram: 4 2 2 0 2 6 4 0 15 17
Nghost:        6213.54 ave        8769 max         412 min
Histogram: 4 0 4 0 8 0 4 5 7 20
Neighs:       158427.0 ave      230326 max           0 min
Histogram: 4 2 2 0 5 3 4 4 12 16

Total # of neighbors = 8238213
Ave neighs/atom = 28.530509
Neighbor list builds = 0
Dangerous builds = 0
The dot product: 6.12121470074182e-08
Setting atom values ...
  1 settings made for x
  1 settings made for y
  1 settings made for z
Setting up cg style minimization ...
  Unit style    : metal
  Current step  : 1333
Per MPI rank memory allocation (min/avg/max) = 5.465 | 6.344 | 6.728 Mbytes
Step PotEng KinEng TotEng v_fx v_fy v_fz 
    1333     -1152449            0     -1152449  0.063544897  0.033436844  0.013992496 
    1515     -1152449            0     -1152449 -3.1404666e-06 5.3096383e-07 -7.6709809e-07 
Loop time of 3.95681 on 52 procs for 182 steps with 288751 atoms

99.9% CPU use with 52 MPI tasks x 1 OpenMP threads

Minimization stats:
  Stopping criterion = energy tolerance
  Energy initial, next-to-last, final = 
     -1152448.95774484   -1152448.9602188   -1152448.9602188
  Force two-norm initial, final = 0.21711939 0.00022151486
  Force max component initial, final = 0.10940504 3.9978620e-05
  Final line search alpha, max atom move = 1.0000000 3.9978620e-05
  Iterations, force evaluations = 182 364

MPI task timing breakdown:
Section |  min time  |  avg time  |  max time  |%varavg| %total
---------------------------------------------------------------
Pair    | 1.0274     | 2.8973     | 3.793      |  47.3 | 73.22
Neigh   | 0          | 0          | 0          |   0.0 |  0.00
Comm    | 0.044528   | 0.64353    | 2.0352     |  72.3 | 16.26
Output  | 0          | 0          | 0          |   0.0 |  0.00
Modify  | 6.6928e-05 | 0.006075   | 0.013051   |   3.7 |  0.15
Other   |            | 0.4099     |            |       | 10.36

Nlocal:        5552.90 ave        7905 max           0 min
Histogram: 4 2 2 0 2 6 4 0 15 17
Nghost:        6213.54 ave        8769 max         412 min
Histogram: 4 0 4 0 8 0 4 5 7 20
Neighs:       158427.0 ave      230369 max           0 min
Histogram: 4 2 2 0 5 3 4 4 12 16

Total # of neighbors = 8238210
Ave neighs/atom = 28.530499
Neighbor list builds = 0
Dangerous builds = 0
The dot product: -1.44937320044121e-08
Setting atom values ...
  1 settings made for x
  1 settings made for y
  1 settings made for z
Setting up cg style minimization ...
  Unit style    : metal
  Current step  : 1515
Per MPI rank memory allocation (min/avg/max) = 5.465 | 6.344 | 6.728 Mbytes
Step PotEng KinEng TotEng v_fx v_fy v_fz 
    1515     -1152449            0     -1152449  0.070218313  0.035515576  0.012863303 
    1682     -1152449            0     -1152449 -1.7032022e-05 -2.3265568e-06 -3.421739e-06 
Loop time of 3.61449 on 52 procs for 167 steps with 288751 atoms

99.9% CPU use with 52 MPI tasks x 1 OpenMP threads

Minimization stats:
  Stopping criterion = energy tolerance
  Energy initial, next-to-last, final = 
     -1152448.95490969  -1152448.95751065  -1152448.95751065
  Force two-norm initial, final = 0.21694122 0.00018046164
  Force max component initial, final = 0.10703086 3.8383427e-05
  Final line search alpha, max atom move = 1.0000000 3.8383427e-05
  Iterations, force evaluations = 167 334

MPI task timing breakdown:
Section |  min time  |  avg time  |  max time  |%varavg| %total
---------------------------------------------------------------
Pair    | 0.94485    | 2.6506     | 3.4676     |  45.1 | 73.33
Neigh   | 0          | 0          | 0          |   0.0 |  0.00
Comm    | 0.041451   | 0.58039    | 1.852      |  69.3 | 16.06
Output  | 0          | 0          | 0          |   0.0 |  0.00
Modify  | 6.7631e-05 | 0.0055753  | 0.011816   |   3.5 |  0.15
Other   |            | 0.378      |            |       | 10.46

Nlocal:        5552.90 ave        7906 max           0 min
Histogram: 4 2 2 0 2 6 4 0 15 17
Nghost:        6213.62 ave        8769 max         412 min
Histogram: 4 0 4 0 8 0 4 5 7 20
Neighs:       158427.0 ave      230400 max           0 min
Histogram: 4 2 2 0 5 3 4 4 12 16

Total # of neighbors = 8238206
Ave neighs/atom = 28.530485
Neighbor list builds = 0
Dangerous builds = 0
The dot product: -8.19383643737578e-08
Setting atom values ...
  1 settings made for x
  1 settings made for y
  1 settings made for z
Setting up cg style minimization ...
  Unit style    : metal
  Current step  : 1682
Per MPI rank memory allocation (min/avg/max) = 5.465 | 6.344 | 6.728 Mbytes
Step PotEng KinEng TotEng v_fx v_fy v_fz 
    1682     -1152449            0     -1152449  0.073330289  0.037268644   0.01112126 
    1867     -1152449            0     -1152449 -2.0304626e-05 -2.3260997e-06 -3.5673041e-06 
Loop time of 4.05487 on 52 procs for 185 steps with 288751 atoms

99.9% CPU use with 52 MPI tasks x 1 OpenMP threads

Minimization stats:
  Stopping criterion = energy tolerance
  Energy initial, next-to-last, final = 
     -1152448.95184806  -1152448.95413218  -1152448.95413218
  Force two-norm initial, final = 0.21604067 0.00013480993
  Force max component initial, final = 0.10494308 3.5393322e-05
  Final line search alpha, max atom move = 1.0000000 3.5393322e-05
  Iterations, force evaluations = 185 372

MPI task timing breakdown:
Section |  min time  |  avg time  |  max time  |%varavg| %total
---------------------------------------------------------------
Pair    | 1.0525     | 2.9701     | 3.8813     |  47.8 | 73.25
Neigh   | 0          | 0          | 0          |   0.0 |  0.00
Comm    | 0.048203   | 0.6588     | 2.0755     |  72.9 | 16.25
Output  | 0          | 0          | 0          |   0.0 |  0.00
Modify  | 7.0397e-05 | 0.0062223  | 0.013151   |   3.7 |  0.15
Other   |            | 0.4198     |            |       | 10.35

Nlocal:        5552.90 ave        7906 max           0 min
Histogram: 4 2 2 0 2 6 4 0 15 17
Nghost:        6213.62 ave        8769 max         412 min
Histogram: 4 0 4 0 8 0 4 5 7 20
Neighs:       158427.0 ave      230416 max           0 min
Histogram: 4 2 2 0 5 3 4 4 12 16

Total # of neighbors = 8238204
Ave neighs/atom = 28.530478
Neighbor list builds = 0
Dangerous builds = 0
The dot product: -1.39830970838056e-07
Setting atom values ...
  1 settings made for x
  1 settings made for y
  1 settings made for z
Setting up cg style minimization ...
  Unit style    : metal
  Current step  : 1867
Per MPI rank memory allocation (min/avg/max) = 5.465 | 6.344 | 6.728 Mbytes
Step PotEng KinEng TotEng v_fx v_fy v_fz 
    1867   -1152448.9            0   -1152448.9  0.078367145  0.039147138 0.0088366611 
    2000   -1152448.9            0   -1152448.9 6.2155011e-05 3.7157315e-06 9.0534551e-06 
    2035   -1152448.9            0   -1152448.9 6.743179e-06 3.6913931e-07 9.8474882e-07 
Loop time of 3.72028 on 52 procs for 168 steps with 288751 atoms

99.9% CPU use with 52 MPI tasks x 1 OpenMP threads

Minimization stats:
  Stopping criterion = linesearch alpha is zero
  Energy initial, next-to-last, final = 
     -1152448.94773389  -1152448.94996472  -1152448.94996472
  Force two-norm initial, final = 0.21504083 0.00017826246
  Force max component initial, final = 0.10171098 1.9717878e-05
  Final line search alpha, max atom move = 0.25 4.9294695e-06
  Iterations, force evaluations = 168 339

MPI task timing breakdown:
Section |  min time  |  avg time  |  max time  |%varavg| %total
---------------------------------------------------------------
Pair    | 0.95337    | 2.7066     | 3.5634     |  46.0 | 72.75
Neigh   | 0          | 0          | 0          |   0.0 |  0.00
Comm    | 0.041863   | 0.59724    | 1.8915     |  69.2 | 16.05
Output  | 0.00012122 | 0.00012552 | 0.0002743  |   0.0 |  0.00
Modify  | 6.758e-05  | 0.0056608  | 0.011976   |   3.5 |  0.15
Other   |            | 0.4106     |            |       | 11.04

Nlocal:        5552.90 ave        7906 max           0 min
Histogram: 4 2 2 0 2 6 4 0 15 17
Nghost:        6213.62 ave        8769 max         412 min
Histogram: 4 0 4 0 8 0 4 5 7 20
Neighs:       158427.0 ave      230427 max           0 min
Histogram: 4 2 2 0 5 3 4 4 12 16

Total # of neighbors = 8238201
Ave neighs/atom = 28.530467
Neighbor list builds = 0
Dangerous builds = 0
The dot product: 5.43547544237221e-08
Setting atom values ...
  1 settings made for x
  1 settings made for y
  1 settings made for z
Setting up cg style minimization ...
  Unit style    : metal
  Current step  : 2035
Per MPI rank memory allocation (min/avg/max) = 5.465 | 6.344 | 6.728 Mbytes
Step PotEng KinEng TotEng v_fx v_fy v_fz 
    2035   -1152448.9            0   -1152448.9  0.082419185  0.040211285 0.0059236067 
    2196   -1152448.9            0   -1152448.9 -3.7788791e-05 -6.8739014e-06 -3.7284922e-06 
Loop time of 3.49762 on 52 procs for 161 steps with 288751 atoms

99.9% CPU use with 52 MPI tasks x 1 OpenMP threads

Minimization stats:
  Stopping criterion = energy tolerance
  Energy initial, next-to-last, final = 
     -1152448.94287142  -1152448.94506056  -1152448.94506056
  Force two-norm initial, final = 0.21334493 0.00020143419
  Force max component initial, final = 0.097642206 5.0733190e-05
  Final line search alpha, max atom move = 1.0000000 5.0733190e-05
  Iterations, force evaluations = 161 322

MPI task timing breakdown:
Section |  min time  |  avg time  |  max time  |%varavg| %total
---------------------------------------------------------------
Pair    | 0.90789    | 2.5615     | 3.3586     |  44.4 | 73.24
Neigh   | 0          | 0          | 0          |   0.0 |  0.00
Comm    | 0.040499   | 0.56498    | 1.789      |  67.8 | 16.15
Output  | 0          | 0          | 0          |   0.0 |  0.00
Modify  | 6.6018e-05 | 0.0053597  | 0.011366   |   3.4 |  0.15
Other   |            | 0.3658     |            |       | 10.46

Nlocal:        5552.90 ave        7907 max           0 min
Histogram: 4 2 2 0 2 6 4 0 15 17
Nghost:        6213.62 ave        8769 max         412 min
Histogram: 4 0 4 0 8 0 4 5 7 20
Neighs:       158427.0 ave      230479 max           0 min
Histogram: 4 2 2 0 5 3 4 4 12 16

Total # of neighbors = 8238208
Ave neighs/atom = 28.530492
Neighbor list builds = 0
Dangerous builds = 0
The dot product: -3.28423902886307e-07
Setting atom values ...
  1 settings made for x
  1 settings made for y
  1 settings made for z
Setting up cg style minimization ...
  Unit style    : metal
  Current step  : 2196
Per MPI rank memory allocation (min/avg/max) = 5.465 | 6.344 | 6.728 Mbytes
Step PotEng KinEng TotEng v_fx v_fy v_fz 
    2196   -1152448.9            0   -1152448.9  0.084481893  0.041008622 0.0027459273 
    2368   -1152448.9            0   -1152448.9 4.4564568e-05 6.4000689e-06 2.9733777e-06 
Loop time of 3.72191 on 52 procs for 172 steps with 288751 atoms

99.9% CPU use with 52 MPI tasks x 1 OpenMP threads

Minimization stats:
  Stopping criterion = energy tolerance
  Energy initial, next-to-last, final = 
      -1152448.9372894  -1152448.93936012  -1152448.93936012
  Force two-norm initial, final = 0.21104667 0.00014114005
  Force max component initial, final = 0.093267355 4.4564568e-05
  Final line search alpha, max atom move = 1.0000000 4.4564568e-05
  Iterations, force evaluations = 172 344

MPI task timing breakdown:
Section |  min time  |  avg time  |  max time  |%varavg| %total
---------------------------------------------------------------
Pair    | 0.97025    | 2.729      | 3.5714     |  45.8 | 73.32
Neigh   | 0          | 0          | 0          |   0.0 |  0.00
Comm    | 0.042928   | 0.60006    | 1.9092     |  70.3 | 16.12
Output  | 0          | 0          | 0          |   0.0 |  0.00
Modify  | 7.2224e-05 | 0.0057463  | 0.012107   |   3.5 |  0.15
Other   |            | 0.3871     |            |       | 10.40

Nlocal:        5552.90 ave        7908 max           0 min
Histogram: 4 2 2 0 2 6 4 0 15 17
Nghost:        6213.65 ave        8769 max         412 min
Histogram: 4 0 4 0 8 0 4 5 7 20
Neighs:       158427.0 ave      230506 max           0 min
Histogram: 4 2 2 0 5 3 4 4 12 16

Total # of neighbors = 8238202
Ave neighs/atom = 28.530471
Neighbor list builds = 0
Dangerous builds = 0
The dot product: 3.33419716705825e-07
Setting atom values ...
  1 settings made for x
  1 settings made for y
  1 settings made for z
Setting up cg style minimization ...
  Unit style    : metal
  Current step  : 2368
Per MPI rank memory allocation (min/avg/max) = 5.465 | 6.344 | 6.728 Mbytes
Step PotEng KinEng TotEng v_fx v_fy v_fz 
    2368   -1152448.9            0   -1152448.9  0.084279062  0.041995985 -0.00018621342 
    2557   -1152448.9            0   -1152448.9 1.6076446e-05 2.2641395e-06 6.2027923e-07 
Loop time of 4.10521 on 52 procs for 189 steps with 288751 atoms

99.9% CPU use with 52 MPI tasks x 1 OpenMP threads

Minimization stats:
  Stopping criterion = linesearch alpha is zero
  Energy initial, next-to-last, final = 
     -1152448.93083338  -1152448.93281498  -1152448.93281498
  Force two-norm initial, final = 0.20881522 7.6289218e-05
  Force max component initial, final = 0.089583872 2.1373270e-05
  Final line search alpha, max atom move = 0.5 1.0686635e-05
  Iterations, force evaluations = 189 379

MPI task timing breakdown:
Section |  min time  |  avg time  |  max time  |%varavg| %total
---------------------------------------------------------------
Pair    | 1.0715     | 3.0153     | 3.9423     |  48.2 | 73.45
Neigh   | 0          | 0          | 0          |   0.0 |  0.00
Comm    | 0.046448   | 0.66707    | 2.1191     |  73.8 | 16.25
Output  | 0          | 0          | 0          |   0.0 |  0.00
Modify  | 7.1392e-05 | 0.0063316  | 0.013378   |   3.7 |  0.15
Other   |            | 0.4166     |            |       | 10.15

Nlocal:        5552.90 ave        7909 max           0 min
Histogram: 4 2 2 0 2 6 4 0 15 17
Nghost:        6213.65 ave        8769 max         412 min
Histogram: 4 0 4 0 8 0 4 5 7 20
Neighs:       158427.0 ave      230540 max           0 min
Histogram: 4 2 2 0 5 3 4 4 12 16

Total # of neighbors = 8238200
Ave neighs/atom = 28.530464
Neighbor list builds = 0
Dangerous builds = 0
The dot product: 1.08218870623898e-07
Setting atom values ...
  1 settings made for x
  1 settings made for y
  1 settings made for z
Setting up cg style minimization ...
  Unit style    : metal
  Current step  : 2557
Per MPI rank memory allocation (min/avg/max) = 5.465 | 6.344 | 6.728 Mbytes
Step PotEng KinEng TotEng v_fx v_fy v_fz 
    2557   -1152448.9            0   -1152448.9  0.083445228  0.036181382 -0.0019200776 
    2729   -1152448.9            0   -1152448.9 3.9767506e-05 6.2175505e-06 5.0761288e-07 
Loop time of 3.73003 on 52 procs for 172 steps with 288751 atoms

99.9% CPU use with 52 MPI tasks x 1 OpenMP threads

Minimization stats:
  Stopping criterion = linesearch alpha is zero
  Energy initial, next-to-last, final = 
     -1152448.92337958  -1152448.92527178  -1152448.92527178
  Force two-norm initial, final = 0.20507612 0.00012692138
  Force max component initial, final = 0.086190047 3.9767506e-05
  Final line search alpha, max atom move = 0.5 1.9883753e-05
  Iterations, force evaluations = 172 345

MPI task timing breakdown:
Section |  min time  |  avg time  |  max time  |%varavg| %total
---------------------------------------------------------------
Pair    | 0.97387    | 2.7333     | 3.5798     |  45.8 | 73.28
Neigh   | 0          | 0          | 0          |   0.0 |  0.00
Comm    | 0.043158   | 0.59831    | 1.9039     |  70.3 | 16.04
Output  | 0          | 0          | 0          |   0.0 |  0.00
Modify  | 6.8637e-05 | 0.0057613  | 0.012133   |   3.5 |  0.15
Other   |            | 0.3927     |            |       | 10.53

Nlocal:        5552.90 ave        7909 max           0 min
Histogram: 4 2 2 0 2 6 4 0 15 17
Nghost:        6213.65 ave        8769 max         412 min
Histogram: 4 0 4 0 8 0 4 5 7 20
Neighs:       158427.0 ave      230542 max           0 min
Histogram: 4 2 2 0 5 3 4 4 12 16

Total # of neighbors = 8238199
Ave neighs/atom = 28.530461
Neighbor list builds = 0
Dangerous builds = 0
The dot product: 2.32944589285313e-07
Setting atom values ...
  1 settings made for x
  1 settings made for y
  1 settings made for z
Setting up cg style minimization ...
  Unit style    : metal
  Current step  : 2729
Per MPI rank memory allocation (min/avg/max) = 5.465 | 6.344 | 6.728 Mbytes
Step PotEng KinEng TotEng v_fx v_fy v_fz 
    2729   -1152448.9            0   -1152448.9  0.082795337  0.026234101 -0.0023852059 
    2911   -1152448.9            0   -1152448.9 -5.7353282e-06 -8.5397926e-07 3.2023836e-08 
Loop time of 3.94211 on 52 procs for 182 steps with 288751 atoms

99.9% CPU use with 52 MPI tasks x 1 OpenMP threads

Minimization stats:
  Stopping criterion = energy tolerance
  Energy initial, next-to-last, final = 
     -1152448.91461292    -1152448.916484    -1152448.916484
  Force two-norm initial, final = 0.20209695 9.4220233e-05
  Force max component initial, final = 0.083897691 2.7241088e-05
  Final line search alpha, max atom move = 1.0000000 2.7241088e-05
  Iterations, force evaluations = 182 364

MPI task timing breakdown:
Section |  min time  |  avg time  |  max time  |%varavg| %total
---------------------------------------------------------------
Pair    | 1.0247     | 2.8914     | 3.7834     |  47.2 | 73.35
Neigh   | 0          | 0          | 0          |   0.0 |  0.00
Comm    | 0.044755   | 0.64086    | 2.0261     |  72.0 | 16.26
Output  | 0          | 0          | 0          |   0.0 |  0.00
Modify  | 7.6534e-05 | 0.0060674  | 0.012789   |   3.6 |  0.15
Other   |            | 0.4038     |            |       | 10.24

Nlocal:        5552.90 ave        7909 max           0 min
Histogram: 4 2 2 0 2 6 4 0 15 17
Nghost:        6213.65 ave        8769 max         412 min
Histogram: 4 0 4 0 8 0 4 5 7 20
Neighs:       158427.0 ave      230543 max           0 min
Histogram: 4 2 2 0 5 3 4 4 12 16

Total # of neighbors = 8238198
Ave neighs/atom = 28.530457
Neighbor list builds = 0
Dangerous builds = 0
The dot product: -2.81982355689683e-08
Setting atom values ...
  1 settings made for x
  1 settings made for y
  1 settings made for z
Setting up cg style minimization ...
  Unit style    : metal
  Current step  : 2911
Per MPI rank memory allocation (min/avg/max) = 5.465 | 6.344 | 6.728 Mbytes
Step PotEng KinEng TotEng v_fx v_fy v_fz 
    2911   -1152448.9            0   -1152448.9  0.082393469  0.020514138 -0.0028827572 
    3000   -1152448.9            0   -1152448.9 -9.2734447e-05 -2.3295285e-05 3.2737293e-06 
    3066   -1152448.9            0   -1152448.9 -1.7873117e-05 -3.8285574e-06 5.3755696e-07 
Loop time of 3.37513 on 52 procs for 155 steps with 288751 atoms

99.9% CPU use with 52 MPI tasks x 1 OpenMP threads

Minimization stats:
  Stopping criterion = energy tolerance
  Energy initial, next-to-last, final = 
     -1152448.90447864  -1152448.90634222  -1152448.90634222
  Force two-norm initial, final = 0.20048583 0.00019563212
  Force max component initial, final = 0.082543222 2.8162394e-05
  Final line search alpha, max atom move = 1.0000000 2.8162394e-05
  Iterations, force evaluations = 155 310

MPI task timing breakdown:
Section |  min time  |  avg time  |  max time  |%varavg| %total
---------------------------------------------------------------
Pair    | 0.87652    | 2.4598     | 3.2281     |  43.5 | 72.88
Neigh   | 0          | 0          | 0          |   0.0 |  0.00
Comm    | 0.04084    | 0.54298    | 1.7127     |  66.1 | 16.09
Output  | 0.00019987 | 0.00020456 | 0.00035833 |   0.0 |  0.01
Modify  | 6.6239e-05 | 0.005195   | 0.010999   |   3.4 |  0.15
Other   |            | 0.3669     |            |       | 10.87

Nlocal:        5552.90 ave        7909 max           0 min
Histogram: 4 2 2 0 2 6 4 0 15 17
Nghost:        6213.65 ave        8769 max         412 min
Histogram: 4 0 4 0 8 0 4 5 7 20
Neighs:       158427.0 ave      230544 max           0 min
Histogram: 4 2 2 0 5 3 4 4 12 16

Total # of neighbors = 8238198
Ave neighs/atom = 28.530457
Neighbor list builds = 0
Dangerous builds = 0
The dot product: -7.47463435635314e-08
Setting atom values ...
  1 settings made for x
  1 settings made for y
  1 settings made for z
Setting up cg style minimization ...
  Unit style    : metal
  Current step  : 3066
Per MPI rank memory allocation (min/avg/max) = 5.465 | 6.344 | 6.728 Mbytes
Step PotEng KinEng TotEng v_fx v_fy v_fz 
    3066   -1152448.9            0   -1152448.9  0.081925391  0.017068579 -0.0033983998 
    3240   -1152448.9            0   -1152448.9 3.8315317e-05 6.8932689e-06 -1.4353892e-06 
Loop time of 3.80611 on 52 procs for 174 steps with 288751 atoms

99.9% CPU use with 52 MPI tasks x 1 OpenMP threads

Minimization stats:
  Stopping criterion = linesearch alpha is zero
  Energy initial, next-to-last, final = 
     -1152448.89298161  -1152448.89485275  -1152448.89485275
  Force two-norm initial, final = 0.19947624 0.00012951641
  Force max component initial, final = 0.084160202 3.8315317e-05
  Final line search alpha, max atom move = 0.5 1.9157658e-05
  Iterations, force evaluations = 174 349

MPI task timing breakdown:
Section |  min time  |  avg time  |  max time  |%varavg| %total
---------------------------------------------------------------
Pair    | 0.98904    | 2.7824     | 3.6405     |  46.2 | 73.10
Neigh   | 0          | 0          | 0          |   0.0 |  0.00
Comm    | 0.043462   | 0.61703    | 1.943      |  70.4 | 16.21
Output  | 0          | 0          | 0          |   0.0 |  0.00
Modify  | 6.6042e-05 | 0.0058502  | 0.012534   |   3.6 |  0.15
Other   |            | 0.4009     |            |       | 10.53

Nlocal:        5552.90 ave        7910 max           0 min
Histogram: 4 2 2 0 2 6 4 0 15 17
Nghost:        6213.60 ave        8769 max         412 min
Histogram: 4 0 4 0 8 0 4 5 7 20
Neighs:       158427.0 ave      230598 max           0 min
Histogram: 4 2 2 0 5 3 4 4 12 16

Total # of neighbors = 8238200
Ave neighs/atom = 28.530464
Neighbor list builds = 0
Dangerous builds = 0
The dot product: 1.15188044639239e-07
Setting atom values ...
  1 settings made for x
  1 settings made for y
  1 settings made for z
Setting up cg style minimization ...
  Unit style    : metal
  Current step  : 3240
Per MPI rank memory allocation (min/avg/max) = 5.465 | 6.344 | 6.728 Mbytes
Step PotEng KinEng TotEng v_fx v_fy v_fz 
    3240   -1152448.9            0   -1152448.9  0.080536778  0.014542872 -0.0036941257 
    3391   -1152448.9            0   -1152448.9 5.5365264e-05 8.2438421e-06 -2.2934128e-06 
Loop time of 3.35134 on 52 procs for 151 steps with 288751 atoms

99.9% CPU use with 52 MPI tasks x 1 OpenMP threads

Minimization stats:
  Stopping criterion = linesearch alpha is zero
  Energy initial, next-to-last, final = 
     -1152448.88017224  -1152448.88214039  -1152448.88214039
  Force two-norm initial, final = 0.19865828 0.00032631719
  Force max component initial, final = 0.085570732 5.5365264e-05
  Final line search alpha, max atom move = 0.0625 3.4603290e-06
  Iterations, force evaluations = 151 309

MPI task timing breakdown:
Section |  min time  |  avg time  |  max time  |%varavg| %total
---------------------------------------------------------------
Pair    | 0.87224    | 2.4524     | 3.2178     |  43.4 | 73.18
Neigh   | 0          | 0          | 0          |   0.0 |  0.00
Comm    | 0.038287   | 0.53816    | 1.7129     |  66.4 | 16.06
Output  | 0          | 0          | 0          |   0.0 |  0.00
Modify  | 6.2184e-05 | 0.0051637  | 0.010876   |   3.3 |  0.15
Other   |            | 0.3556     |            |       | 10.61

Nlocal:        5552.90 ave        7910 max           0 min
Histogram: 4 2 2 0 2 6 4 0 15 17
Nghost:        6213.67 ave        8770 max         412 min
Histogram: 4 0 4 0 8 0 4 5 7 20
Neighs:       158427.0 ave      230587 max           0 min
Histogram: 4 2 2 0 5 3 4 4 12 16

Total # of neighbors = 8238198
Ave neighs/atom = 28.530457
Neighbor list builds = 0
Dangerous builds = 0
The dot product: -1.62236920894506e-07
Setting atom values ...
  1 settings made for x
  1 settings made for y
  1 settings made for z
Setting up cg style minimization ...
  Unit style    : metal
  Current step  : 3391
Per MPI rank memory allocation (min/avg/max) = 5.465 | 6.344 | 6.728 Mbytes
Step PotEng KinEng TotEng v_fx v_fy v_fz 
    3391   -1152448.9            0   -1152448.9  0.071470891  0.013416378 -0.0027973302 
    3567   -1152448.9            0   -1152448.9 2.310057e-05 4.869066e-06 -9.7818132e-07 
Loop time of 3.82397 on 52 procs for 176 steps with 288751 atoms

99.9% CPU use with 52 MPI tasks x 1 OpenMP threads

Minimization stats:
  Stopping criterion = energy tolerance
  Energy initial, next-to-last, final = 
     -1152448.86650801  -1152448.86919537  -1152448.86919537
  Force two-norm initial, final = 0.1962323 0.00011389511
  Force max component initial, final = 0.085404458 3.2184432e-05
  Final line search alpha, max atom move = 1.0000000 3.2184432e-05
  Iterations, force evaluations = 176 352

MPI task timing breakdown:
Section |  min time  |  avg time  |  max time  |%varavg| %total
---------------------------------------------------------------
Pair    | 0.99322    | 2.8049     | 3.6712     |  46.5 | 73.35
Neigh   | 0          | 0          | 0          |   0.0 |  0.00
Comm    | 0.043271   | 0.61869    | 1.9522     |  71.0 | 16.18
Output  | 0          | 0          | 0          |   0.0 |  0.00
Modify  | 6.7148e-05 | 0.0058647  | 0.012497   |   3.6 |  0.15
Other   |            | 0.3945     |            |       | 10.32

Nlocal:        5552.90 ave        7912 max           0 min
Histogram: 4 2 2 0 2 6 4 0 15 17
Nghost:        6213.67 ave        8770 max         412 min
Histogram: 4 0 4 0 8 0 4 5 7 20
Neighs:       158427.0 ave      230659 max           0 min
Histogram: 4 2 2 0 5 3 4 4 12 16

Total # of neighbors = 8238193
Ave neighs/atom = 28.530440
Neighbor list builds = 0
Dangerous builds = 0
The dot product: -4.34281315559073e-07
Setting atom values ...
  1 settings made for x
  1 settings made for y
  1 settings made for z
Setting up cg style minimization ...
  Unit style    : metal
  Current step  : 3567
Per MPI rank memory allocation (min/avg/max) = 5.465 | 6.344 | 6.728 Mbytes
Step PotEng KinEng TotEng v_fx v_fy v_fz 
    3567   -1152448.9            0   -1152448.9  0.048417229  0.013259405 -0.00020079068 
    3738   -1152448.9            0   -1152448.9 4.5240215e-05 5.2203339e-06 7.8912198e-07 
Loop time of 3.71338 on 52 procs for 171 steps with 288751 atoms

99.9% CPU use with 52 MPI tasks x 1 OpenMP threads

Minimization stats:
  Stopping criterion = energy tolerance
  Energy initial, next-to-last, final = 
      -1152448.8532877  -1152448.85546942  -1152448.85546942
  Force two-norm initial, final = 0.19320442 0.00025326903
  Force max component initial, final = 0.08633826 7.6241212e-05
  Final line search alpha, max atom move = 1.0000000 7.6241212e-05
  Iterations, force evaluations = 171 342

MPI task timing breakdown:
Section |  min time  |  avg time  |  max time  |%varavg| %total
---------------------------------------------------------------
Pair    | 0.9629     | 2.7185     | 3.5589     |  45.8 | 73.21
Neigh   | 0          | 0          | 0          |   0.0 |  0.00
Comm    | 0.043042   | 0.59812    | 1.9077     |  70.1 | 16.11
Output  | 0          | 0          | 0          |   0.0 |  0.00
Modify  | 7.1134e-05 | 0.0056945  | 0.012019   |   3.5 |  0.15
Other   |            | 0.391      |            |       | 10.53

Nlocal:        5552.90 ave        7912 max           0 min
Histogram: 4 2 2 0 2 6 4 0 15 17
Nghost:        6213.69 ave        8770 max         412 min
Histogram: 4 0 4 0 8 0 4 5 7 20
Neighs:       158427.0 ave      230653 max           0 min
Histogram: 4 2 2 0 5 3 4 4 12 16

Total # of neighbors = 8238194
Ave neighs/atom = 28.530443
Neighbor list builds = 0
Dangerous builds = 0
The dot product: -5.83558736907839e-07
Setting atom values ...
  1 settings made for x
  1 settings made for y
  1 settings made for z
Setting up cg style minimization ...
  Unit style    : metal
  Current step  : 3738
Per MPI rank memory allocation (min/avg/max) = 5.465 | 6.344 | 6.728 Mbytes
Step PotEng KinEng TotEng v_fx v_fy v_fz 
    3738   -1152448.8            0   -1152448.8  0.057673762  0.011494937  0.002131254 
    3902   -1152448.8            0   -1152448.8 -3.8387574e-05 -3.5119481e-06 -1.9660557e-06 
Loop time of 3.61885 on 52 procs for 164 steps with 288751 atoms

99.9% CPU use with 52 MPI tasks x 1 OpenMP threads

Minimization stats:
  Stopping criterion = linesearch alpha is zero
  Energy initial, next-to-last, final = 
     -1152448.83824213  -1152448.84032361  -1152448.84032361
  Force two-norm initial, final = 0.19818559 0.00026268964
  Force max component initial, final = 0.090923721 3.8387574e-05
  Final line search alpha, max atom move = 0.125 4.7984467e-06
  Iterations, force evaluations = 164 333

MPI task timing breakdown:
Section |  min time  |  avg time  |  max time  |%varavg| %total
---------------------------------------------------------------
Pair    | 0.94147    | 2.6464     | 3.4751     |  45.1 | 73.13
Neigh   | 0          | 0          | 0          |   0.0 |  0.00
Comm    | 0.042342   | 0.58913    | 1.8554     |  68.7 | 16.28
Output  | 0          | 0          | 0          |   0.0 |  0.00
Modify  | 6.6894e-05 | 0.0055829  | 0.011661   |   3.5 |  0.15
Other   |            | 0.3778     |            |       | 10.44

Nlocal:        5552.90 ave        7913 max           0 min
Histogram: 4 2 2 0 2 6 4 1 14 17
Nghost:        6213.73 ave        8770 max         412 min
Histogram: 4 0 4 0 8 0 4 5 7 20
Neighs:       158427.0 ave      230689 max           0 min
Histogram: 4 2 2 0 5 3 4 4 12 16

Total # of neighbors = 8238191
Ave neighs/atom = 28.530433
Neighbor list builds = 0
Dangerous builds = 0
The dot product: 4.37128156017209e-07
Setting atom values ...
  1 settings made for x
  1 settings made for y
  1 settings made for z
Setting up cg style minimization ...
  Unit style    : metal
  Current step  : 3902
Per MPI rank memory allocation (min/avg/max) = 5.465 | 6.344 | 6.728 Mbytes
Step PotEng KinEng TotEng v_fx v_fy v_fz 
    3902   -1152448.8            0   -1152448.8  0.059954763 0.0084793605  0.004241882 
    4000   -1152448.8            0   -1152448.8 0.00036855816 6.3740278e-05  2.46119e-05 
    4091   -1152448.8            0   -1152448.8 -1.9096334e-05 -4.7670558e-06 -1.0906412e-06 
Loop time of 4.10676 on 52 procs for 189 steps with 288751 atoms

99.9% CPU use with 52 MPI tasks x 1 OpenMP threads

Minimization stats:
  Stopping criterion = energy tolerance
  Energy initial, next-to-last, final = 
     -1152448.82180134  -1152448.82391249  -1152448.82391249
  Force two-norm initial, final = 0.20077867 0.00010651284
  Force max component initial, final = 0.095465691 1.9096334e-05
  Final line search alpha, max atom move = 1.0000000 1.9096334e-05
  Iterations, force evaluations = 189 378

MPI task timing breakdown:
Section |  min time  |  avg time  |  max time  |%varavg| %total
---------------------------------------------------------------
Pair    | 1.0655     | 2.9963     | 3.9287     |  48.0 | 72.96
Neigh   | 0          | 0          | 0          |   0.0 |  0.00
Comm    | 0.04734    | 0.65909    | 2.0844     |  73.1 | 16.05
Output  | 0.00012193 | 0.00012553 | 0.00027151 |   0.0 |  0.00
Modify  | 7.725e-05  | 0.0063122  | 0.013408   |   3.7 |  0.15
Other   |            | 0.4449     |            |       | 10.83

Nlocal:        5552.90 ave        7915 max           0 min
Histogram: 4 2 2 0 2 6 4 1 14 17
Nghost:        6213.73 ave        8770 max         412 min
Histogram: 4 0 4 0 8 0 4 5 7 20
Neighs:       158427.0 ave      230749 max           0 min
Histogram: 4 2 2 0 5 3 4 4 12 16

Total # of neighbors = 8238191
Ave neighs/atom = 28.530433
Neighbor list builds = 0
Dangerous builds = 0
The dot product: 1.61489529673568e-07
Setting atom values ...
  1 settings made for x
  1 settings made for y
  1 settings made for z
Setting up cg style minimization ...
  Unit style    : metal
  Current step  : 4091
Per MPI rank memory allocation (min/avg/max) = 5.465 | 6.344 | 6.728 Mbytes
Step PotEng KinEng TotEng v_fx v_fy v_fz 
    4091   -1152448.8            0   -1152448.8    0.0662495 0.0081855821 0.0060088595 
    4317   -1152448.8            0   -1152448.8 -1.0922757e-05 -1.9657626e-06 -9.1634487e-07 
Loop time of 4.92575 on 52 procs for 226 steps with 288751 atoms

99.9% CPU use with 52 MPI tasks x 1 OpenMP threads

Minimization stats:
  Stopping criterion = linesearch alpha is zero
  Energy initial, next-to-last, final = 
      -1152448.8040557  -1152448.80606224  -1152448.80606224
  Force two-norm initial, final = 0.20416188 3.4182259e-05
  Force max component initial, final = 0.098678781 1.2341880e-05
  Final line search alpha, max atom move = 0.5 6.1709401e-06
  Iterations, force evaluations = 226 453

MPI task timing breakdown:
Section |  min time  |  avg time  |  max time  |%varavg| %total
---------------------------------------------------------------
Pair    | 1.2811     | 3.6086     | 4.7231     |  52.8 | 73.26
Neigh   | 0          | 0          | 0          |   0.0 |  0.00
Comm    | 0.058999   | 0.8012     | 2.5454     |  80.6 | 16.27
Output  | 0          | 0          | 0          |   0.0 |  0.00
Modify  | 8.4003e-05 | 0.0075915  | 0.016132   |   4.1 |  0.15
Other   |            | 0.5084     |            |       | 10.32

Nlocal:        5552.90 ave        7917 max           0 min
Histogram: 4 2 2 0 2 6 4 1 14 17
Nghost:        6213.73 ave        8770 max         412 min
Histogram: 4 0 4 0 8 0 4 5 7 20
Neighs:       158427.0 ave      230796 max           0 min
Histogram: 4 2 2 0 5 3 4 4 12 16

Total # of neighbors = 8238191
Ave neighs/atom = 28.530433
Neighbor list builds = 0
Dangerous builds = 0
The dot product: 4.76987880773634e-08
Setting atom values ...
  1 settings made for x
  1 settings made for y
  1 settings made for z
Setting up cg style minimization ...
  Unit style    : metal
  Current step  : 4317
Per MPI rank memory allocation (min/avg/max) = 5.465 | 6.344 | 6.728 Mbytes
Step PotEng KinEng TotEng v_fx v_fy v_fz 
    4317   -1152448.8            0   -1152448.8  0.073727837 0.0086024574   0.00740071 
    4494   -1152448.8            0   -1152448.8 -3.0073451e-05 -7.2787358e-06 -2.5789238e-06 
Loop time of 3.84606 on 52 procs for 177 steps with 288751 atoms

99.9% CPU use with 52 MPI tasks x 1 OpenMP threads

Minimization stats:
  Stopping criterion = energy tolerance
  Energy initial, next-to-last, final = 
     -1152448.78482258  -1152448.78676988  -1152448.78676988
  Force two-norm initial, final = 0.2073145 0.00011591406
  Force max component initial, final = 0.10027669 3.0073451e-05
  Final line search alpha, max atom move = 1.0000000 3.0073451e-05
  Iterations, force evaluations = 177 354

MPI task timing breakdown:
Section |  min time  |  avg time  |  max time  |%varavg| %total
---------------------------------------------------------------
Pair    | 0.99802    | 2.8078     | 3.6919     |  46.5 | 73.01
Neigh   | 0          | 0          | 0          |   0.0 |  0.00
Comm    | 0.043779   | 0.61685    | 1.9501     |  70.9 | 16.04
Output  | 0          | 0          | 0          |   0.0 |  0.00
Modify  | 7.2014e-05 | 0.0059008  | 0.0124     |   3.6 |  0.15
Other   |            | 0.4155     |            |       | 10.80

Nlocal:        5552.90 ave        7917 max           0 min
Histogram: 4 2 2 0 2 6 4 1 14 17
Nghost:        6213.67 ave        8768 max         412 min
Histogram: 4 0 4 0 8 0 4 5 7 20
Neighs:       158427.0 ave      230796 max           0 min
Histogram: 4 2 2 0 5 3 4 4 12 16

Total # of neighbors = 8238191
Ave neighs/atom = 28.530433
Neighbor list builds = 0
Dangerous builds = 0
The dot product: 2.5973484437696e-08
Setting atom values ...
  1 settings made for x
  1 settings made for y
  1 settings made for z
Setting up cg style minimization ...
  Unit style    : metal
  Current step  : 4494
Per MPI rank memory allocation (min/avg/max) = 5.465 | 6.344 | 6.728 Mbytes
Step PotEng KinEng TotEng v_fx v_fy v_fz 
    4494   -1152448.8            0   -1152448.8   0.08065623 0.0085851594 0.0082936706 
    4669   -1152448.8            0   -1152448.8 2.0483078e-05 4.3776039e-06 1.8575465e-06 
Loop time of 3.81576 on 52 procs for 175 steps with 288751 atoms

99.9% CPU use with 52 MPI tasks x 1 OpenMP threads

Minimization stats:
  Stopping criterion = linesearch alpha is zero
  Energy initial, next-to-last, final = 
     -1152448.76407657  -1152448.76595621  -1152448.76595621
  Force two-norm initial, final = 0.20966119 7.9833732e-05
  Force max component initial, final = 0.10047149 2.0483078e-05
  Final line search alpha, max atom move = 0.5 1.0241539e-05
  Iterations, force evaluations = 175 351

MPI task timing breakdown:
Section |  min time  |  avg time  |  max time  |%varavg| %total
---------------------------------------------------------------
Pair    | 0.98911    | 2.7995     | 3.6615     |  46.5 | 73.37
Neigh   | 0          | 0          | 0          |   0.0 |  0.00
Comm    | 0.046867   | 0.61749    | 1.9554     |  70.8 | 16.18
Output  | 0          | 0          | 0          |   0.0 |  0.00
Modify  | 6.5866e-05 | 0.0058704  | 0.012467   |   3.6 |  0.15
Other   |            | 0.3929     |            |       | 10.30

Nlocal:        5552.90 ave        7917 max           0 min
Histogram: 4 2 2 0 2 6 4 1 14 17
Nghost:        6213.58 ave        8768 max         412 min
Histogram: 4 0 4 0 8 0 4 5 7 20
Neighs:       158427.0 ave      230788 max           0 min
Histogram: 4 2 2 0 5 3 4 4 12 16

Total # of neighbors = 8238188
Ave neighs/atom = 28.530422
Neighbor list builds = 0
Dangerous builds = 0
The dot product: 4.653122708155e-08
Setting atom values ...
  1 settings made for x
  1 settings made for y
  1 settings made for z
Setting up cg style minimization ...
  Unit style    : metal
  Current step  : 4669
Per MPI rank memory allocation (min/avg/max) = 5.465 | 6.344 | 6.728 Mbytes
Step PotEng KinEng TotEng v_fx v_fy v_fz 
    4669   -1152448.7            0   -1152448.7  0.086542436 0.0082533923 0.0085920233 
    4839   -1152448.7            0   -1152448.7 -2.148533e-05 -3.0468334e-06 -2.0237912e-06 
Loop time of 3.74605 on 52 procs for 170 steps with 288751 atoms

99.9% CPU use with 52 MPI tasks x 1 OpenMP threads

Minimization stats:
  Stopping criterion = linesearch alpha is zero
  Energy initial, next-to-last, final = 
     -1152448.74176029  -1152448.74361596  -1152448.74361596
  Force two-norm initial, final = 0.21115893 8.9488058e-05
  Force max component initial, final = 0.099520371 2.1485330e-05
  Final line search alpha, max atom move = 0.5 1.0742665e-05
  Iterations, force evaluations = 170 341

MPI task timing breakdown:
Section |  min time  |  avg time  |  max time  |%varavg| %total
---------------------------------------------------------------
Pair    | 0.96475    | 2.7111     | 3.5622     |  45.7 | 72.37
Neigh   | 0          | 0          | 0          |   0.0 |  0.00
Comm    | 0.045364   | 0.60229    | 1.8952     |  68.9 | 16.08
Output  | 0          | 0          | 0          |   0.0 |  0.00
Modify  | 7.2943e-05 | 0.0056796  | 0.011989   |   3.5 |  0.15
Other   |            | 0.427      |            |       | 11.40

Nlocal:        5552.90 ave        7917 max           0 min
Histogram: 4 2 2 0 2 6 4 1 14 17
Nghost:        6213.62 ave        8768 max         412 min
Histogram: 4 0 4 0 8 0 4 5 7 20
Neighs:       158427.0 ave      230787 max           0 min
Histogram: 4 2 2 0 5 3 4 4 12 16

Total # of neighbors = 8238186
Ave neighs/atom = 28.530415
Neighbor list builds = 0
Dangerous builds = 0
The dot product: -9.35600427156659e-08
Setting atom values ...
  1 settings made for x
  1 settings made for y
  1 settings made for z
Setting up cg style minimization ...
  Unit style    : metal
  Current step  : 4839
Per MPI rank memory allocation (min/avg/max) = 5.465 | 6.344 | 6.728 Mbytes
Step PotEng KinEng TotEng v_fx v_fy v_fz 
    4839   -1152448.7            0   -1152448.7  0.089928594 0.0083698518 0.0082098481 
    4992   -1152448.7            0   -1152448.7 4.1493314e-05 8.963036e-06 3.2483105e-06 
Loop time of 3.32867 on 52 procs for 153 steps with 288751 atoms

99.9% CPU use with 52 MPI tasks x 1 OpenMP threads

Minimization stats:
  Stopping criterion = energy tolerance
  Energy initial, next-to-last, final = 
     -1152448.71792829   -1152448.7197599   -1152448.7197599
  Force two-norm initial, final = 0.21130314 0.00016909182
  Force max component initial, final = 0.097731777 4.1493314e-05
  Final line search alpha, max atom move = 1.0000000 4.1493314e-05
  Iterations, force evaluations = 153 306

MPI task timing breakdown:
Section |  min time  |  avg time  |  max time  |%varavg| %total
---------------------------------------------------------------
Pair    | 0.86502    | 2.439      | 3.1941     |  43.3 | 73.27
Neigh   | 0          | 0          | 0          |   0.0 |  0.00
Comm    | 0.038485   | 0.5392     | 1.6939     |  65.9 | 16.20
Output  | 0          | 0          | 0          |   0.0 |  0.00
Modify  | 5.6077e-05 | 0.0051078  | 0.010814   |   3.3 |  0.15
Other   |            | 0.3454     |            |       | 10.38

Nlocal:        5552.90 ave        7917 max           0 min
Histogram: 4 2 2 0 2 6 4 1 14 17
Nghost:        6213.58 ave        8768 max         412 min
Histogram: 4 0 4 0 8 0 4 5 7 20
Neighs:       158427.0 ave      230789 max           0 min
Histogram: 4 2 2 0 5 3 4 4 12 16

Total # of neighbors = 8238186
Ave neighs/atom = 28.530415
Neighbor list builds = 0
Dangerous builds = 0
The dot product: 2.24995473216246e-07
Setting atom values ...
  1 settings made for x
  1 settings made for y
  1 settings made for z
Setting up cg style minimization ...
  Unit style    : metal
  Current step  : 4992
Per MPI rank memory allocation (min/avg/max) = 5.465 | 6.344 | 6.728 Mbytes
Step PotEng KinEng TotEng v_fx v_fy v_fz 
    4992   -1152448.7            0   -1152448.7  0.091668664 0.0092581476 0.0073671809 
    5000   -1152448.7            0   -1152448.7 -0.0025895888 0.00045843342 -0.00028165899 
    5196   -1152448.7            0   -1152448.7 -1.733227e-05 -2.5129935e-06 -1.3150661e-06 
Loop time of 4.4341 on 52 procs for 204 steps with 288751 atoms

99.9% CPU use with 52 MPI tasks x 1 OpenMP threads

Minimization stats:
  Stopping criterion = energy tolerance
  Energy initial, next-to-last, final = 
     -1152448.69260419  -1152448.69440542  -1152448.69440542
  Force two-norm initial, final = 0.21066562 4.2247805e-05
  Force max component initial, final = 0.095527283 1.7332270e-05
  Final line search alpha, max atom move = 1.0000000 1.7332270e-05
  Iterations, force evaluations = 204 408

MPI task timing breakdown:
Section |  min time  |  avg time  |  max time  |%varavg| %total
---------------------------------------------------------------
Pair    | 1.1521     | 3.2474     | 4.2572     |  50.1 | 73.24
Neigh   | 0          | 0          | 0          |   0.0 |  0.00
Comm    | 0.050887   | 0.71628    | 2.2757     |  76.3 | 16.15
Output  | 0.00011775 | 0.00012114 | 0.00025135 |   0.0 |  0.00
Modify  | 8.306e-05  | 0.0067864  | 0.014286   |   3.8 |  0.15
Other   |            | 0.4635     |            |       | 10.45

Nlocal:        5552.90 ave        7917 max           0 min
Histogram: 4 2 2 0 2 6 4 1 14 17
Nghost:        6213.58 ave        8768 max         412 min
Histogram: 4 0 4 0 8 0 4 5 7 20
Neighs:       158427.0 ave      230775 max           0 min
Histogram: 4 2 2 0 5 3 4 4 12 16

Total # of neighbors = 8238188
Ave neighs/atom = 28.530422
Neighbor list builds = 0
Dangerous builds = 0
The dot product: -1.10707563050205e-07
Setting atom values ...
  1 settings made for x
  1 settings made for y
  1 settings made for z
Setting up cg style minimization ...
  Unit style    : metal
  Current step  : 5196
Per MPI rank memory allocation (min/avg/max) = 5.465 | 6.344 | 6.728 Mbytes
Step PotEng KinEng TotEng v_fx v_fy v_fz 
    5196   -1152448.7            0   -1152448.7  0.091971186  0.011062205 0.0061925812 
    5350   -1152448.7            0   -1152448.7 4.5458735e-07 4.5138466e-07 -8.5681936e-09 
Loop time of 3.38346 on 52 procs for 154 steps with 288751 atoms

99.9% CPU use with 52 MPI tasks x 1 OpenMP threads

Minimization stats:
  Stopping criterion = linesearch alpha is zero
  Energy initial, next-to-last, final = 
      -1152448.6658132  -1152448.66757619  -1152448.66757619
  Force two-norm initial, final = 0.20931258 0.00017152685
  Force max component initial, final = 0.092843117 7.6351649e-06
  Final line search alpha, max atom move = 0.25 1.9087912e-06
  Iterations, force evaluations = 154 311

MPI task timing breakdown:
Section |  min time  |  avg time  |  max time  |%varavg| %total
---------------------------------------------------------------
Pair    | 0.87773    | 2.4754     | 3.2491     |  43.8 | 73.16
Neigh   | 0          | 0          | 0          |   0.0 |  0.00
Comm    | 0.037783   | 0.55215    | 1.7409     |  66.6 | 16.32
Output  | 0          | 0          | 0          |   0.0 |  0.00
Modify  | 6.3293e-05 | 0.0051751  | 0.01096    |   3.3 |  0.15
Other   |            | 0.3508     |            |       | 10.37

Nlocal:        5552.90 ave        7917 max           0 min
Histogram: 4 2 2 0 2 6 4 1 14 17
Nghost:        6213.60 ave        8768 max         412 min
Histogram: 4 0 4 0 8 0 4 5 7 20
Neighs:       158427.0 ave      230770 max           0 min
Histogram: 4 2 2 0 5 3 4 4 12 16

Total # of neighbors = 8238186
Ave neighs/atom = 28.530415
Neighbor list builds = 0
Dangerous builds = 0
The dot product: 2.50557966487036e-09
Setting atom values ...
  1 settings made for x
  1 settings made for y
  1 settings made for z
Setting up cg style minimization ...
  Unit style    : metal
  Current step  : 5350
Per MPI rank memory allocation (min/avg/max) = 5.465 | 6.344 | 6.728 Mbytes
Step PotEng KinEng TotEng v_fx v_fy v_fz 
    5350   -1152448.6            0   -1152448.6  0.091176977  0.014012425 0.0047856563 
    5505   -1152448.6            0   -1152448.6 4.7523535e-06 -6.7763371e-07 3.8447077e-07 
Loop time of 3.38747 on 52 procs for 155 steps with 288751 atoms

99.9% CPU use with 52 MPI tasks x 1 OpenMP threads

Minimization stats:
  Stopping criterion = energy tolerance
  Energy initial, next-to-last, final = 
     -1152448.63758171  -1152448.63930226  -1152448.63930226
  Force two-norm initial, final = 0.20765094 0.00016407132
  Force max component initial, final = 0.091176977 1.7425117e-05
  Final line search alpha, max atom move = 1.0000000 1.7425117e-05
  Iterations, force evaluations = 155 312

MPI task timing breakdown:
Section |  min time  |  avg time  |  max time  |%varavg| %total
---------------------------------------------------------------
Pair    | 0.87932    | 2.4759     | 3.2485     |  43.6 | 73.09
Neigh   | 0          | 0          | 0          |   0.0 |  0.00
Comm    | 0.038802   | 0.54418    | 1.7272     |  66.6 | 16.06
Output  | 0          | 0          | 0          |   0.0 |  0.00
Modify  | 6.3853e-05 | 0.0051942  | 0.010965   |   3.3 |  0.15
Other   |            | 0.3622     |            |       | 10.69

Nlocal:        5552.90 ave        7917 max           0 min
Histogram: 4 2 2 0 2 6 4 1 14 17
Nghost:        6213.60 ave        8768 max         412 min
Histogram: 4 0 4 0 8 0 4 5 7 20
Neighs:       158427.0 ave      230754 max           0 min
Histogram: 4 2 2 0 5 3 4 4 12 16

Total # of neighbors = 8238188
Ave neighs/atom = 28.530422
Neighbor list builds = 0
Dangerous builds = 0
The dot product: 3.68968608538676e-08
Setting atom values ...
  1 settings made for x
  1 settings made for y
  1 settings made for z
Setting up cg style minimization ...
  Unit style    : metal
  Current step  : 5505
Per MPI rank memory allocation (min/avg/max) = 5.465 | 6.344 | 6.728 Mbytes
Step PotEng KinEng TotEng v_fx v_fy v_fz 
    5505   -1152448.6            0   -1152448.6  0.089215725  0.018393186 0.0031810911 
    5645   -1152448.6            0   -1152448.6 4.5288346e-05 5.9181212e-06 1.9361044e-06 
Loop time of 3.05378 on 52 procs for 140 steps with 288751 atoms

99.9% CPU use with 52 MPI tasks x 1 OpenMP threads

Minimization stats:
  Stopping criterion = energy tolerance
  Energy initial, next-to-last, final = 
     -1152448.60794639  -1152448.60962273  -1152448.60962273
  Force two-norm initial, final = 0.20576548 0.00035043901
  Force max component initial, final = 0.089215725 6.8198271e-05
  Final line search alpha, max atom move = 1.0000000 6.8198271e-05
  Iterations, force evaluations = 140 280

MPI task timing breakdown:
Section |  min time  |  avg time  |  max time  |%varavg| %total
---------------------------------------------------------------
Pair    | 0.78973    | 2.2296     | 2.9327     |  41.6 | 73.01
Neigh   | 0          | 0          | 0          |   0.0 |  0.00
Comm    | 0.035561   | 0.4973     | 1.5662     |  63.1 | 16.28
Output  | 0          | 0          | 0          |   0.0 |  0.00
Modify  | 5.7352e-05 | 0.0046787  | 0.0099737  |   3.2 |  0.15
Other   |            | 0.3222     |            |       | 10.55

Nlocal:        5552.90 ave        7917 max           0 min
Histogram: 4 2 2 0 2 6 4 1 14 17
Nghost:        6213.60 ave        8768 max         412 min
Histogram: 4 0 4 0 8 0 4 5 7 20
Neighs:       158427.0 ave      230758 max           0 min
Histogram: 4 2 2 0 5 3 4 4 12 16

Total # of neighbors = 8238188
Ave neighs/atom = 28.530422
Neighbor list builds = 0
Dangerous builds = 0
The dot product: 3.55148944765091e-07
Setting atom values ...
  1 settings made for x
  1 settings made for y
  1 settings made for z
Setting up cg style minimization ...
  Unit style    : metal
  Current step  : 5645
Per MPI rank memory allocation (min/avg/max) = 5.465 | 6.344 | 6.728 Mbytes
Step PotEng KinEng TotEng v_fx v_fy v_fz 
    5645   -1152448.6            0   -1152448.6  0.086244537  0.023543513 0.0014862673 
    5806   -1152448.6            0   -1152448.6 -5.349352e-06 -2.2958648e-06 -1.396994e-08 
Loop time of 3.49114 on 52 procs for 161 steps with 288751 atoms

99.9% CPU use with 52 MPI tasks x 1 OpenMP threads

Minimization stats:
  Stopping criterion = energy tolerance
  Energy initial, next-to-last, final = 
      -1152448.5769624  -1152448.57859693  -1152448.57859693
  Force two-norm initial, final = 0.20379222 0.00013509941
  Force max component initial, final = 0.086505477 3.9559764e-05
  Final line search alpha, max atom move = 1.0000000 3.9559764e-05
  Iterations, force evaluations = 161 322

MPI task timing breakdown:
Section |  min time  |  avg time  |  max time  |%varavg| %total
---------------------------------------------------------------
Pair    | 0.90791    | 2.5522     | 3.3517     |  44.4 | 73.10
Neigh   | 0          | 0          | 0          |   0.0 |  0.00
Comm    | 0.039934   | 0.56137    | 1.7771     |  67.6 | 16.08
Output  | 0          | 0          | 0          |   0.0 |  0.00
Modify  | 6.5939e-05 | 0.0053653  | 0.011371   |   3.4 |  0.15
Other   |            | 0.3722     |            |       | 10.66

Nlocal:        5552.90 ave        7917 max           0 min
Histogram: 4 2 2 0 2 6 4 1 14 17
Nghost:        6213.71 ave        8769 max         412 min
Histogram: 4 0 4 0 8 0 4 5 7 20
Neighs:       158427.0 ave      230760 max           0 min
Histogram: 4 2 2 0 5 3 4 4 12 16

Total # of neighbors = 8238187
Ave neighs/atom = 28.530419
Neighbor list builds = 0
Dangerous builds = 0
The dot product: -4.69467093859844e-08
Setting atom values ...
  1 settings made for x
  1 settings made for y
  1 settings made for z
Setting up cg style minimization ...
  Unit style    : metal
  Current step  : 5806
Per MPI rank memory allocation (min/avg/max) = 5.465 | 6.344 | 6.728 Mbytes
Step PotEng KinEng TotEng v_fx v_fy v_fz 
    5806   -1152448.5            0   -1152448.5  0.082124906  0.031707258 -0.00053328514 
    6000   -1152448.6            0   -1152448.6 -0.00070725214 -0.00012342423 -9.7463648e-06 
    6118   -1152448.6            0   -1152448.6 1.047992e-05 1.9184504e-06 1.3583608e-07 
Loop time of 6.81318 on 52 procs for 312 steps with 288751 atoms

99.9% CPU use with 52 MPI tasks x 1 OpenMP threads

Minimization stats:
  Stopping criterion = linesearch alpha is zero
  Energy initial, next-to-last, final = 
     -1152448.54477679  -1152448.61731433  -1152448.61731433
  Force two-norm initial, final = 0.20197853 3.6899143e-05
  Force max component initial, final = 0.088322004 1.0479920e-05
  Final line search alpha, max atom move = 0.5 5.2399602e-06
  Iterations, force evaluations = 312 625

MPI task timing breakdown:
Section |  min time  |  avg time  |  max time  |%varavg| %total
---------------------------------------------------------------
Pair    | 1.7812     | 4.9843     | 6.5069     |  61.8 | 73.16
Neigh   | 3.7602e-05 | 0.011469   | 0.017131   |   4.5 |  0.17
Comm    | 0.077939   | 1.1009     | 3.5049     |  94.6 | 16.16
Output  | 0.00013358 | 0.00013836 | 0.00031004 |   0.0 |  0.00
Modify  | 0.00013562 | 0.010438   | 0.022047   |   4.8 |  0.15
Other   |            | 0.7059     |            |       | 10.36

Nlocal:        5552.90 ave        7907 max           0 min
Histogram: 4 2 2 0 2 6 4 0 15 17
Nghost:        6213.63 ave        8768 max         412 min
Histogram: 4 0 4 0 8 0 4 5 7 20
Neighs:       158427.0 ave      230463 max           0 min
Histogram: 4 2 2 0 5 3 4 4 12 16

Total # of neighbors = 8238196
Ave neighs/atom = 28.530450
Neighbor list builds = 2
Dangerous builds = 0
The dot product: 1.02451074863955e-06
Setting atom values ...
  1 settings made for x
  1 settings made for y
  1 settings made for z
Setting up cg style minimization ...
  Unit style    : metal
  Current step  : 6118
Per MPI rank memory allocation (min/avg/max) = 5.465 | 6.344 | 6.728 Mbytes
Step PotEng KinEng TotEng v_fx v_fy v_fz 
    6118   -1152448.6            0   -1152448.6  0.076826723   0.14612299 -0.087975438 
    6338   -1152448.6            0   -1152448.6 -1.475164e-05 -9.4352521e-06 5.9662733e-06 
Loop time of 4.76534 on 52 procs for 220 steps with 288751 atoms

99.9% CPU use with 52 MPI tasks x 1 OpenMP threads

Minimization stats:
  Stopping criterion = energy tolerance
  Energy initial, next-to-last, final = 
     -1152448.61058178  -1152448.61362921  -1152448.61362921
  Force two-norm initial, final = 0.23165717 9.2997086e-05
  Force max component initial, final = 0.14612299 2.3762328e-05
  Final line search alpha, max atom move = 1.0000000 2.3762328e-05
  Iterations, force evaluations = 220 440

MPI task timing breakdown:
Section |  min time  |  avg time  |  max time  |%varavg| %total
---------------------------------------------------------------
Pair    | 1.241      | 3.4861     | 4.574      |  51.8 | 73.16
Neigh   | 0          | 0          | 0          |   0.0 |  0.00
Comm    | 0.054145   | 0.76496    | 2.4338     |  79.2 | 16.05
Output  | 0          | 0          | 0          |   0.0 |  0.00
Modify  | 8.8177e-05 | 0.0073364  | 0.015509   |   4.0 |  0.15
Other   |            | 0.5069     |            |       | 10.64

Nlocal:        5552.90 ave        7907 max           0 min
Histogram: 4 2 2 0 2 6 4 0 15 17
Nghost:        6213.69 ave        8769 max         412 min
Histogram: 4 0 4 0 8 0 4 5 7 20
Neighs:       158427.0 ave      230501 max           0 min
Histogram: 4 2 2 0 5 3 4 4 12 16

Total # of neighbors = 8238185
Ave neighs/atom = 28.530412
Neighbor list builds = 0
Dangerous builds = 0
The dot product: -3.76562410327951e-07
Setting atom values ...
  1 settings made for x
  1 settings made for y
  1 settings made for z
Setting up cg style minimization ...
  Unit style    : metal
  Current step  : 6338
Per MPI rank memory allocation (min/avg/max) = 5.465 | 6.344 | 6.728 Mbytes
Step PotEng KinEng TotEng v_fx v_fy v_fz 
    6338   -1152448.6            0   -1152448.6  0.065594274  0.035105244 -0.024701666 
    6650     -1152449            0     -1152449  8.88229e-07 -5.8402326e-06 3.7053335e-06 
Loop time of 6.83093 on 52 procs for 312 steps with 288751 atoms

99.9% CPU use with 52 MPI tasks x 1 OpenMP threads

Minimization stats:
  Stopping criterion = energy tolerance
  Energy initial, next-to-last, final = 
     -1152448.60682505  -1152448.99151882  -1152448.99151882
  Force two-norm initial, final = 0.1577421 8.8709091e-05
  Force max component initial, final = 0.074456256 2.1195032e-05
  Final line search alpha, max atom move = 1.0000000 2.1195032e-05
  Iterations, force evaluations = 312 625

MPI task timing breakdown:
Section |  min time  |  avg time  |  max time  |%varavg| %total
---------------------------------------------------------------
Pair    | 1.8056     | 4.9816     | 6.5017     |  61.2 | 72.93
Neigh   | 0.00011545 | 0.034409   | 0.050926   |   7.8 |  0.50
Comm    | 0.080003   | 1.0957     | 3.4689     |  94.3 | 16.04
Output  | 0          | 0          | 0          |   0.0 |  0.00
Modify  | 0.00013079 | 0.01041    | 0.022078   |   4.7 |  0.15
Other   |            | 0.7088     |            |       | 10.38

Nlocal:        5552.90 ave        7900 max           0 min
Histogram: 4 2 2 0 2 6 4 0 14 18
Nghost:        6213.69 ave        8769 max         412 min
Histogram: 4 0 4 0 8 0 4 5 7 20
Neighs:       158427.0 ave      230236 max           0 min
Histogram: 4 2 2 0 5 3 4 4 12 16

Total # of neighbors = 8238217
Ave neighs/atom = 28.530523
Neighbor list builds = 6
Dangerous builds = 0
The dot product: -1.96193293760629e-06
Setting atom values ...
  1 settings made for x
  1 settings made for y
  1 settings made for z
Setting up cg style minimization ...
  Unit style    : metal
  Current step  : 6650
Per MPI rank memory allocation (min/avg/max) = 5.465 | 6.344 | 6.728 Mbytes
Step PotEng KinEng TotEng v_fx v_fy v_fz 
    6650     -1152449            0     -1152449  -0.61707109 -0.058560493   0.76345349 
    6888   -1152449.2            0   -1152449.2 -5.4360881e-05 -2.7031702e-05 0.00010029236 
Loop time of 5.15247 on 52 procs for 238 steps with 288751 atoms

99.9% CPU use with 52 MPI tasks x 1 OpenMP threads

Minimization stats:
  Stopping criterion = energy tolerance
  Energy initial, next-to-last, final = 
     -1152449.01577602  -1152449.17338305  -1152449.17338305
  Force two-norm initial, final = 0.99535638 0.00034489313
  Force max component initial, final = 0.76345349 0.00010029236
  Final line search alpha, max atom move = 1.0000000 0.00010029236
  Iterations, force evaluations = 238 476

MPI task timing breakdown:
Section |  min time  |  avg time  |  max time  |%varavg| %total
---------------------------------------------------------------
Pair    | 1.3538     | 3.7714     | 4.9234     |  53.7 | 73.20
Neigh   | 3.7546e-05 | 0.011472   | 0.016882   |   4.5 |  0.22
Comm    | 0.061127   | 0.82794    | 2.6338     |  82.5 | 16.07
Output  | 0          | 0          | 0          |   0.0 |  0.00
Modify  | 0.0001001  | 0.0079406  | 0.016735   |   4.1 |  0.15
Other   |            | 0.5337     |            |       | 10.36

Nlocal:        5552.90 ave        7869 max           0 min
Histogram: 4 2 2 0 2 6 4 0 14 18
Nghost:        6213.73 ave        8770 max         412 min
Histogram: 4 0 4 0 8 0 4 5 7 20
Neighs:       158427.0 ave      229175 max           0 min
Histogram: 4 2 2 0 4 4 4 4 10 18

Total # of neighbors = 8238204
Ave neighs/atom = 28.530478
Neighbor list builds = 2
Dangerous builds = 0
The dot product: 3.48726082616413e-05
Setting atom values ...
  1 settings made for x
  1 settings made for y
  1 settings made for z
Setting up cg style minimization ...
  Unit style    : metal
  Current step  : 6888
Per MPI rank memory allocation (min/avg/max) = 5.465 | 6.344 | 6.728 Mbytes
Step PotEng KinEng TotEng v_fx v_fy v_fz 
    6888   -1152449.2            0   -1152449.2   0.38106006  0.076077699  -0.23928956 
    7000   -1152449.2            0   -1152449.2 -0.00024927316 0.0002723007 -0.00018237689 
    7121   -1152449.2            0   -1152449.2 9.0593894e-06 -1.9666934e-05 1.6909766e-05 
Loop time of 5.04662 on 52 procs for 233 steps with 288751 atoms

99.9% CPU use with 52 MPI tasks x 1 OpenMP threads

Minimization stats:
  Stopping criterion = energy tolerance
  Energy initial, next-to-last, final = 
     -1152449.19773425  -1152449.22534456  -1152449.22534456
  Force two-norm initial, final = 0.48654661 0.00011733773
  Force max component initial, final = 0.38106006 2.9604467e-05
  Final line search alpha, max atom move = 1.0000000 2.9604467e-05
  Iterations, force evaluations = 233 466

MPI task timing breakdown:
Section |  min time  |  avg time  |  max time  |%varavg| %total
---------------------------------------------------------------
Pair    | 1.3214     | 3.7059     | 4.831      |  53.2 | 73.43
Neigh   | 1.9058e-05 | 0.0057239  | 0.0083497  |   3.2 |  0.11
Comm    | 0.057307   | 0.82126    | 2.5952     |  81.8 | 16.27
Output  | 0.00012356 | 0.0001279  | 0.00028009 |   0.0 |  0.00
Modify  | 8.5419e-05 | 0.0077794  | 0.016377   |   4.1 |  0.15
Other   |            | 0.5059     |            |       | 10.02

Nlocal:        5552.90 ave        7864 max           0 min
Histogram: 4 2 2 0 2 6 4 0 13 19
Nghost:        6213.71 ave        8770 max         412 min
Histogram: 4 0 4 0 8 0 4 5 7 20
Neighs:       158427.0 ave      229039 max           0 min
Histogram: 4 2 2 0 4 4 4 4 10 18

Total # of neighbors = 8238197
Ave neighs/atom = 28.530454
Neighbor list builds = 1
Dangerous builds = 0
The dot product: -2.37469913924622e-07
Setting atom values ...
  1 settings made for x
  1 settings made for y
  1 settings made for z
Setting up cg style minimization ...
  Unit style    : metal
  Current step  : 7121
Per MPI rank memory allocation (min/avg/max) = 5.465 | 6.344 | 6.728 Mbytes
Step PotEng KinEng TotEng v_fx v_fy v_fz 
    7121   -1152449.2            0   -1152449.2 -0.090925479 0.0012682367  0.054848771 
    7331   -1152449.3            0   -1152449.3 1.7694984e-05 3.625822e-06 -1.5179233e-05 
Loop time of 4.5516 on 52 procs for 210 steps with 288751 atoms

99.9% CPU use with 52 MPI tasks x 1 OpenMP threads

Minimization stats:
  Stopping criterion = linesearch alpha is zero
  Energy initial, next-to-last, final = 
      -1152449.2470996  -1152449.25191862  -1152449.25191862
  Force two-norm initial, final = 0.19085603 0.00014304798
  Force max component initial, final = 0.090925479 2.4952958e-05
  Final line search alpha, max atom move = 0.5 1.2476479e-05
  Iterations, force evaluations = 210 421

MPI task timing breakdown:
Section |  min time  |  avg time  |  max time  |%varavg| %total
---------------------------------------------------------------
Pair    | 1.1865     | 3.3357     | 4.3557     |  50.7 | 73.29
Neigh   | 0          | 0          | 0          |   0.0 |  0.00
Comm    | 0.052864   | 0.73066    | 2.3296     |  77.8 | 16.05
Output  | 0          | 0          | 0          |   0.0 |  0.00
Modify  | 8.5711e-05 | 0.0070762  | 0.014856   |   4.0 |  0.16
Other   |            | 0.4781     |            |       | 10.50

Nlocal:        5552.90 ave        7866 max           0 min
Histogram: 4 2 2 0 2 6 4 0 13 19
Nghost:        6213.73 ave        8771 max         412 min
Histogram: 4 0 4 0 8 0 4 5 7 20
Neighs:       158427.0 ave      229106 max           0 min
Histogram: 4 2 2 0 4 4 4 4 10 18

Total # of neighbors = 8238205
Ave neighs/atom = 28.530481
Neighbor list builds = 0
Dangerous builds = 0
The dot product: -1.04073658060318e-06
Setting atom values ...
  1 settings made for x
  1 settings made for y
  1 settings made for z
Setting up cg style minimization ...
  Unit style    : metal
  Current step  : 7331
Per MPI rank memory allocation (min/avg/max) = 5.465 | 6.344 | 6.728 Mbytes
Step PotEng KinEng TotEng v_fx v_fy v_fz 
    7331   -1152449.3            0   -1152449.3  0.067784072 0.0062612768 -0.043857904 
    7475   -1152449.3            0   -1152449.3 5.0797133e-06 1.1669889e-05 -1.5901551e-05 
Loop time of 3.14059 on 52 procs for 144 steps with 288751 atoms

99.9% CPU use with 52 MPI tasks x 1 OpenMP threads

Minimization stats:
  Stopping criterion = energy tolerance
  Energy initial, next-to-last, final = 
     -1152449.27278501   -1152449.2744316   -1152449.2744316
  Force two-norm initial, final = 0.18042363 0.00027640462
  Force max component initial, final = 0.089180794 6.5734278e-05
  Final line search alpha, max atom move = 1.0000000 6.5734278e-05
  Iterations, force evaluations = 144 288

MPI task timing breakdown:
Section |  min time  |  avg time  |  max time  |%varavg| %total
---------------------------------------------------------------
Pair    | 0.81388    | 2.2956     | 2.9972     |  42.1 | 73.09
Neigh   | 0          | 0          | 0          |   0.0 |  0.00
Comm    | 0.036409   | 0.51175    | 1.6152     |  64.3 | 16.29
Output  | 0          | 0          | 0          |   0.0 |  0.00
Modify  | 5.5643e-05 | 0.0048304  | 0.010185   |   3.2 |  0.15
Other   |            | 0.3284     |            |       | 10.46

Nlocal:        5552.90 ave        7865 max           0 min
Histogram: 4 2 2 0 2 6 4 0 13 19
Nghost:        6213.71 ave        8770 max         412 min
Histogram: 4 0 4 0 8 0 4 5 7 20
Neighs:       158427.0 ave      229079 max           0 min
Histogram: 4 2 2 0 4 4 4 4 10 18

Total # of neighbors = 8238203
Ave neighs/atom = 28.530474
Neighbor list builds = 0
Dangerous builds = 0
The dot product: 1.25177219314766e-07
Setting atom values ...
  1 settings made for x
  1 settings made for y
  1 settings made for z
Setting up cg style minimization ...
  Unit style    : metal
  Current step  : 7475
Per MPI rank memory allocation (min/avg/max) = 5.465 | 6.344 | 6.728 Mbytes
Step PotEng KinEng TotEng v_fx v_fy v_fz 
    7475   -1152449.3            0   -1152449.3  0.017163362 0.0072846831 -0.017890345 
    7654   -1152449.3            0   -1152449.3 1.6581842e-05 -5.4700174e-06 -3.1069277e-06 
Loop time of 3.89143 on 52 procs for 179 steps with 288751 atoms

99.8% CPU use with 52 MPI tasks x 1 OpenMP threads

Minimization stats:
  Stopping criterion = linesearch alpha is zero
[...]
Nghost:        6213.65 ave        8769 max         412 min
Histogram: 4 0 4 0 8 0 4 5 7 20
Neighs:       158427.0 ave      229993 max           0 min
Histogram: 4 2 2 0 5 3 4 4 12 16

Total # of neighbors = 8238190
Ave neighs/atom = 28.530429
Neighbor list builds = 0
Dangerous builds = 0
The dot product: -5.02199376802553e-09
Setting atom values ...
  1 settings made for x
  1 settings made for y
  1 settings made for z
Setting up cg style minimization ...
  Unit style    : metal
  Current step  : 16755
Per MPI rank memory allocation (min/avg/max) = 5.465 | 6.344 | 6.728 Mbytes
Step PotEng KinEng TotEng v_fx v_fy v_fz 
   16755   -1152449.3            0   -1152449.3 -0.042431893  0.025231217 0.0019488476 
   16923   -1152449.3            0   -1152449.3 1.8594568e-05 1.3073825e-05 -3.5406596e-05 
Loop time of 3.69209 on 52 procs for 168 steps with 288751 atoms

99.8% CPU use with 52 MPI tasks x 1 OpenMP threads

Minimization stats:
  Stopping criterion = energy tolerance
  Energy initial, next-to-last, final = 
     -1152449.33224557  -1152449.33327443  -1152449.33327443
  Force two-norm initial, final = 0.14053979 0.00020908294
  Force max component initial, final = 0.05846824 3.5406596e-05
  Final line search alpha, max atom move = 1.0000000 3.5406596e-05
  Iterations, force evaluations = 168 340

MPI task timing breakdown:
Section |  min time  |  avg time  |  max time  |%varavg| %total
---------------------------------------------------------------
Pair    | 0.9598     | 2.6778     | 3.5268     |  45.1 | 72.53
Neigh   | 0          | 0          | 0          |   0.0 |  0.00
Comm    | 0.044566   | 0.5884     | 1.8593     |  69.2 | 15.94
Output  | 0          | 0          | 0          |   0.0 |  0.00
Modify  | 6.705e-05  | 0.0056699  | 0.011953   |   3.5 |  0.15
Other   |            | 0.4202     |            |       | 11.38

Nlocal:        5552.90 ave        7900 max           0 min
Histogram: 4 2 2 0 2 6 4 0 14 18
Nghost:        6213.62 ave        8769 max         412 min
Histogram: 4 0 4 0 8 0 4 5 7 20
Neighs:       158427.0 ave      230251 max           0 min
Histogram: 4 2 2 0 5 3 4 4 12 16

Total # of neighbors = 8238191
Ave neighs/atom = 28.530433
Neighbor list builds = 0
Dangerous builds = 0
The dot product: -3.69781091271845e-08
Setting atom values ...
  1 settings made for x
  1 settings made for y
  1 settings made for z
Setting up cg style minimization ...
  Unit style    : metal
  Current step  : 16923
Per MPI rank memory allocation (min/avg/max) = 5.465 | 6.344 | 6.728 Mbytes
Step PotEng KinEng TotEng v_fx v_fy v_fz 
   16923   -1152449.3            0   -1152449.3 -0.043123215   0.02598272 0.0013650919 
   17000   -1152449.3            0   -1152449.3 1.5684389e-07 -6.0626508e-05 8.6726456e-05 
   17084   -1152449.3            0   -1152449.3 2.8250766e-05 -2.3410078e-05 8.2590522e-06 
Loop time of 3.47966 on 52 procs for 161 steps with 288751 atoms

99.9% CPU use with 52 MPI tasks x 1 OpenMP threads

Minimization stats:
  Stopping criterion = energy tolerance
  Energy initial, next-to-last, final = 
     -1152449.33884218  -1152449.33988581  -1152449.33988581
  Force two-norm initial, final = 0.14145561 0.00025243776
  Force max component initial, final = 0.060174797 2.8822527e-05
  Final line search alpha, max atom move = 1.0000000 2.8822527e-05
  Iterations, force evaluations = 161 322

MPI task timing breakdown:
Section |  min time  |  avg time  |  max time  |%varavg| %total
---------------------------------------------------------------
Pair    | 0.91134    | 2.5374     | 3.3393     |  43.9 | 72.92
Neigh   | 0          | 0          | 0          |   0.0 |  0.00
Comm    | 0.042072   | 0.55517    | 1.7607     |  67.7 | 15.95
Output  | 0.0001978  | 0.00020308 | 0.00042275 |   0.0 |  0.01
Modify  | 6.1056e-05 | 0.0053799  | 0.011487   |   3.4 |  0.15
Other   |            | 0.3815     |            |       | 10.96

Nlocal:        5552.90 ave        7904 max           0 min
Histogram: 4 2 2 0 2 6 4 0 15 17
Nghost:        6213.62 ave        8769 max         412 min
Histogram: 4 0 4 0 8 0 4 5 7 20
Neighs:       158427.0 ave      230397 max           0 min
Histogram: 4 2 2 0 5 3 4 4 12 16

Total # of neighbors = 8238192
Ave neighs/atom = 28.530436
Neighbor list builds = 0
Dangerous builds = 0
The dot product: -1.06318107870867e-07
Setting atom values ...
  1 settings made for x
  1 settings made for y
  1 settings made for z
Setting up cg style minimization ...
  Unit style    : metal
  Current step  : 17084
Per MPI rank memory allocation (min/avg/max) = 5.465 | 6.344 | 6.728 Mbytes
Step PotEng KinEng TotEng v_fx v_fy v_fz 
   17084   -1152449.3            0   -1152449.3  -0.04295173  0.026481581 0.0003635597 
   17261   -1152449.3            0   -1152449.3 1.3549109e-05 -1.9544426e-06 -9.2895148e-06 
Loop time of 3.83832 on 52 procs for 177 steps with 288751 atoms

99.9% CPU use with 52 MPI tasks x 1 OpenMP threads

Minimization stats:
  Stopping criterion = linesearch alpha is zero
  Energy initial, next-to-last, final = 
     -1152449.34395944  -1152449.34501526  -1152449.34501526
  Force two-norm initial, final = 0.14196738 0.00014355522
  Force max component initial, final = 0.061803795 1.5458441e-05
  Final line search alpha, max atom move = 0.5 7.7292205e-06
  Iterations, force evaluations = 177 355

MPI task timing breakdown:
Section |  min time  |  avg time  |  max time  |%varavg| %total
---------------------------------------------------------------
Pair    | 1.002      | 2.795      | 3.6835     |  46.1 | 72.82
Neigh   | 0          | 0          | 0          |   0.0 |  0.00
Comm    | 0.045407   | 0.61223    | 1.9421     |  71.0 | 15.95
Output  | 0          | 0          | 0          |   0.0 |  0.00
Modify  | 6.5523e-05 | 0.005909   | 0.012549   |   3.6 |  0.15
Other   |            | 0.4252     |            |       | 11.08

Nlocal:        5552.90 ave        7908 max           0 min
Histogram: 4 2 2 0 2 6 4 0 15 17
Nghost:        6213.58 ave        8769 max         412 min
Histogram: 4 0 4 0 8 0 4 5 7 20
Neighs:       158427.0 ave      230526 max           0 min
Histogram: 4 2 2 0 5 3 4 4 12 16

Total # of neighbors = 8238191
Ave neighs/atom = 28.530433
Neighbor list builds = 0
Dangerous builds = 0
The dot product: -4.21258243348165e-08
Setting atom values ...
  1 settings made for x
  1 settings made for y
  1 settings made for z
Setting up cg style minimization ...
  Unit style    : metal
  Current step  : 17261
Per MPI rank memory allocation (min/avg/max) = 5.465 | 6.344 | 6.728 Mbytes
Step PotEng KinEng TotEng v_fx v_fy v_fz 
   17261   -1152449.3            0   -1152449.3 -0.042067666  0.026862101 -0.0011042125 
   17435   -1152449.3            0   -1152449.3 1.8644385e-05 2.1298739e-05 -4.714822e-05 
Loop time of 3.81904 on 52 procs for 174 steps with 288751 atoms

99.9% CPU use with 52 MPI tasks x 1 OpenMP threads

Minimization stats:
  Stopping criterion = linesearch alpha is zero
  Energy initial, next-to-last, final = 
     -1152449.34760204  -1152449.34866878  -1152449.34866878
  Force two-norm initial, final = 0.14226531 0.00017085161
  Force max component initial, final = 0.063413332 4.7148220e-05
  Final line search alpha, max atom move = 0.25 1.1787055e-05
  Iterations, force evaluations = 174 351

MPI task timing breakdown:
Section |  min time  |  avg time  |  max time  |%varavg| %total
---------------------------------------------------------------
Pair    | 0.99336    | 2.7716     | 3.6552     |  46.0 | 72.57
Neigh   | 0          | 0          | 0          |   0.0 |  0.00
Comm    | 0.044691   | 0.6091     | 1.932      |  70.4 | 15.95
Output  | 0          | 0          | 0          |   0.0 |  0.00
Modify  | 6.9121e-05 | 0.0058444  | 0.012367   |   3.6 |  0.15
Other   |            | 0.4325     |            |       | 11.33

Nlocal:        5552.90 ave        7910 max           0 min
Histogram: 4 2 2 0 2 6 4 0 15 17
Nghost:        6213.58 ave        8769 max         412 min
Histogram: 4 0 4 0 8 0 4 5 7 20
Neighs:       158427.0 ave      230576 max           0 min
Histogram: 4 2 2 0 5 3 4 4 12 16

Total # of neighbors = 8238188
Ave neighs/atom = 28.530422
Neighbor list builds = 0
Dangerous builds = 0
The dot product: -2.95151144162327e-08
Setting atom values ...
  1 settings made for x
  1 settings made for y
  1 settings made for z
Setting up cg style minimization ...
  Unit style    : metal
  Current step  : 17435
Per MPI rank memory allocation (min/avg/max) = 5.465 | 6.344 | 6.728 Mbytes
Step PotEng KinEng TotEng v_fx v_fy v_fz 
   17435   -1152449.3            0   -1152449.3 -0.040697708  0.027125237 -0.0028300932 
   17616   -1152449.4            0   -1152449.4 1.4267517e-05 8.8051889e-06 -2.5301995e-05 
Loop time of 3.92718 on 52 procs for 181 steps with 288751 atoms

99.9% CPU use with 52 MPI tasks x 1 OpenMP threads

Minimization stats:
  Stopping criterion = linesearch alpha is zero
  Energy initial, next-to-last, final = 
     -1152449.34977537  -1152449.35085158  -1152449.35085158
  Force two-norm initial, final = 0.14241775 0.00012204613
  Force max component initial, final = 0.064991278 2.5301995e-05
  Final line search alpha, max atom move = 0.5 1.2650997e-05
  Iterations, force evaluations = 181 363

MPI task timing breakdown:
Section |  min time  |  avg time  |  max time  |%varavg| %total
---------------------------------------------------------------
Pair    | 1.0251     | 2.8594     | 3.7722     |  46.6 | 72.81
Neigh   | 0          | 0          | 0          |   0.0 |  0.00
Comm    | 0.046652   | 0.62669    | 1.9846     |  71.7 | 15.96
Output  | 0          | 0          | 0          |   0.0 |  0.00
Modify  | 6.7387e-05 | 0.0060359  | 0.012746   |   3.6 |  0.15
Other   |            | 0.435      |            |       | 11.08

Nlocal:        5552.90 ave        7913 max           0 min
Histogram: 4 2 2 0 2 6 4 1 14 17
Nghost:        6213.58 ave        8769 max         412 min
Histogram: 4 0 4 0 8 0 4 5 7 20
Neighs:       158427.0 ave      230646 max           0 min
Histogram: 4 2 2 0 5 3 4 4 12 16

Total # of neighbors = 8238188
Ave neighs/atom = 28.530422
Neighbor list builds = 0
Dangerous builds = 0
The dot product: -2.8997405354008e-08
Setting atom values ...
  1 settings made for x
  1 settings made for y
  1 settings made for z
Setting up cg style minimization ...
  Unit style    : metal
  Current step  : 17616
Per MPI rank memory allocation (min/avg/max) = 5.465 | 6.344 | 6.728 Mbytes
Step PotEng KinEng TotEng v_fx v_fy v_fz 
   17616   -1152449.4            0   -1152449.4  -0.03931349  0.027304304 -0.0044383412 
   17799   -1152449.4            0   -1152449.4 7.0368226e-06 -8.6143651e-06 6.149359e-06 
Loop time of 3.975 on 52 procs for 183 steps with 288751 atoms

99.9% CPU use with 52 MPI tasks x 1 OpenMP threads

Minimization stats:
  Stopping criterion = linesearch alpha is zero
  Energy initial, next-to-last, final = 
       -1152449.350491  -1152449.35157344  -1152449.35157344
  Force two-norm initial, final = 0.14246052 0.00011420838
  Force max component initial, final = 0.066473217 1.9451363e-05
  Final line search alpha, max atom move = 0.5 9.7256817e-06
  Iterations, force evaluations = 183 367

MPI task timing breakdown:
Section |  min time  |  avg time  |  max time  |%varavg| %total
---------------------------------------------------------------
Pair    | 1.0358     | 2.8906     | 3.8146     |  46.9 | 72.72
Neigh   | 0          | 0          | 0          |   0.0 |  0.00
Comm    | 0.046333   | 0.63395    | 2.004      |  72.1 | 15.95
Output  | 0          | 0          | 0          |   0.0 |  0.00
Modify  | 6.9349e-05 | 0.0061118  | 0.012985   |   3.6 |  0.15
Other   |            | 0.4443     |            |       | 11.18

Nlocal:        5552.90 ave        7916 max           0 min
Histogram: 4 2 2 0 2 6 4 1 14 17
Nghost:        6213.58 ave        8769 max         412 min
Histogram: 4 0 4 0 8 0 4 5 7 20
Neighs:       158427.0 ave      230755 max           0 min
Histogram: 4 2 2 0 5 3 4 4 12 16

Total # of neighbors = 8238190
Ave neighs/atom = 28.530429
Neighbor list builds = 0
Dangerous builds = 0
The dot product: -3.03007696248241e-08
Setting atom values ...
  1 settings made for x
  1 settings made for y
  1 settings made for z
Setting up cg style minimization ...
  Unit style    : metal
  Current step  : 17799
Per MPI rank memory allocation (min/avg/max) = 5.465 | 6.344 | 6.728 Mbytes
Step PotEng KinEng TotEng v_fx v_fy v_fz 
   17799   -1152449.3            0   -1152449.3 -0.038563378  0.027564651 -0.0055944486 
   17969   -1152449.4            0   -1152449.4 3.538899e-05 -4.0895345e-06 -2.535815e-05 
Loop time of 3.69222 on 52 procs for 170 steps with 288751 atoms

99.9% CPU use with 52 MPI tasks x 1 OpenMP threads

Minimization stats:
  Stopping criterion = energy tolerance
  Energy initial, next-to-last, final = 
     -1152449.34977859  -1152449.35086483  -1152449.35086483
  Force two-norm initial, final = 0.14250791 0.00019470277
  Force max component initial, final = 0.067925713 4.9912265e-05
  Final line search alpha, max atom move = 1.0000000 4.9912265e-05
  Iterations, force evaluations = 170 340

MPI task timing breakdown:
Section |  min time  |  avg time  |  max time  |%varavg| %total
---------------------------------------------------------------
Pair    | 0.96272    | 2.6796     | 3.5346     |  45.1 | 72.57
Neigh   | 0          | 0          | 0          |   0.0 |  0.00
Comm    | 0.042836   | 0.58952    | 1.8615     |  69.1 | 15.97
Output  | 0          | 0          | 0          |   0.0 |  0.00
Modify  | 6.3766e-05 | 0.0056686  | 0.012017   |   3.5 |  0.15
Other   |            | 0.4174     |            |       | 11.31

Nlocal:        5552.90 ave        7917 max           0 min
Histogram: 4 2 2 0 2 6 4 1 14 17
Nghost:        6213.58 ave        8769 max         412 min
Histogram: 4 0 4 0 8 0 4 5 7 20
Neighs:       158427.0 ave      230793 max           0 min
Histogram: 4 2 2 0 5 3 4 4 12 16

Total # of neighbors = 8238196
Ave neighs/atom = 28.530450
Neighbor list builds = 0
Dangerous builds = 0
The dot product: -9.91188445164053e-08
Setting atom values ...
  1 settings made for x
  1 settings made for y
  1 settings made for z
Setting up cg style minimization ...
  Unit style    : metal
  Current step  : 17969
Per MPI rank memory allocation (min/avg/max) = 5.465 | 6.344 | 6.728 Mbytes
Step PotEng KinEng TotEng v_fx v_fy v_fz 
   17969   -1152449.3            0   -1152449.3 -0.039204152  0.028065653 -0.0058699696 
   18000   -1152449.3            0   -1152449.3 -0.0002335437 -0.0001369643 0.00040274336 
   18166   -1152449.3            0   -1152449.3 -9.9376248e-06 4.3445869e-06 2.4978201e-06 
Loop time of 4.26467 on 52 procs for 197 steps with 288751 atoms

99.9% CPU use with 52 MPI tasks x 1 OpenMP threads

Minimization stats:
  Stopping criterion = energy tolerance
  Energy initial, next-to-last, final = 
     -1152449.34771625  -1152449.34880823  -1152449.34880823
  Force two-norm initial, final = 0.14272508 7.4380064e-05
  Force max component initial, final = 0.069300092 9.9376248e-06
  Final line search alpha, max atom move = 1.0000000 9.9376248e-06
  Iterations, force evaluations = 197 394

MPI task timing breakdown:
Section |  min time  |  avg time  |  max time  |%varavg| %total
---------------------------------------------------------------
Pair    | 1.1112     | 3.1028     | 4.0958     |  48.6 | 72.76
Neigh   | 0          | 0          | 0          |   0.0 |  0.00
Comm    | 0.050175   | 0.68025    | 2.1523     |  74.7 | 15.95
Output  | 0.0001198  | 0.00012759 | 0.00029943 |   0.0 |  0.00
Modify  | 7.6443e-05 | 0.0065696  | 0.01401    |   3.8 |  0.15
Other   |            | 0.4749     |            |       | 11.14

Nlocal:        5552.90 ave        7917 max           0 min
Histogram: 4 2 2 0 2 6 4 1 14 17
Nghost:        6213.58 ave        8769 max         412 min
Histogram: 4 0 4 0 8 0 4 5 7 20
Neighs:       158427.0 ave      230800 max           0 min
Histogram: 4 2 2 0 5 3 4 4 12 16

Total # of neighbors = 8238193
Ave neighs/atom = 28.530440
Neighbor list builds = 0
Dangerous builds = 0
The dot product: 3.57932738463128e-08
Setting atom values ...
  1 settings made for x
  1 settings made for y
  1 settings made for z
Setting up cg style minimization ...
  Unit style    : metal
  Current step  : 18166
Per MPI rank memory allocation (min/avg/max) = 5.465 | 6.344 | 6.728 Mbytes
Step PotEng KinEng TotEng v_fx v_fy v_fz 
   18166   -1152449.3            0   -1152449.3  -0.04235272  0.028952459 -0.0045137272 
   18329   -1152449.3            0   -1152449.3 -1.0845527e-05 2.1928167e-05 -2.2061312e-05 
Loop time of 3.57144 on 52 procs for 163 steps with 288751 atoms

99.9% CPU use with 52 MPI tasks x 1 OpenMP threads

Minimization stats:
  Stopping criterion = linesearch alpha is zero
  Energy initial, next-to-last, final = 
     -1152449.34448285  -1152449.34561288  -1152449.34561288
  Force two-norm initial, final = 0.14407011 0.00017154663
  Force max component initial, final = 0.070661614 2.9448977e-05
  Final line search alpha, max atom move = 0.25 7.3622443e-06
  Iterations, force evaluations = 163 329

MPI task timing breakdown:
Section |  min time  |  avg time  |  max time  |%varavg| %total
---------------------------------------------------------------
Pair    | 0.93004    | 2.5938     | 3.4317     |  44.4 | 72.63
Neigh   | 0          | 0          | 0          |   0.0 |  0.00
Comm    | 0.041548   | 0.5702     | 1.7987     |  68.0 | 15.97
Output  | 0          | 0          | 0          |   0.0 |  0.00
Modify  | 6.1329e-05 | 0.0055061  | 0.011589   |   3.5 |  0.15
Other   |            | 0.4019     |            |       | 11.25

Nlocal:        5552.90 ave        7918 max           0 min
Histogram: 4 2 2 0 2 6 4 1 14 17
Nghost:        6213.58 ave        8769 max         412 min
Histogram: 4 0 4 0 8 0 4 5 7 20
Neighs:       158427.0 ave      230850 max           0 min
Histogram: 4 2 2 0 5 3 4 4 12 16

Total # of neighbors = 8238193
Ave neighs/atom = 28.530440
Neighbor list builds = 0
Dangerous builds = 0
The dot product: 7.78764879231605e-08
Setting atom values ...
  1 settings made for x
  1 settings made for y
  1 settings made for z
Setting up cg style minimization ...
  Unit style    : metal
  Current step  : 18329
Per MPI rank memory allocation (min/avg/max) = 5.465 | 6.344 | 6.728 Mbytes
Step PotEng KinEng TotEng v_fx v_fy v_fz 
   18329   -1152449.3            0   -1152449.3 -0.049577153  0.030489183 -0.00059431376 
   18561   -1152449.3            0   -1152449.3 -1.7353727e-06 6.1830947e-05 -8.7614201e-05 
Loop time of 5.01653 on 52 procs for 232 steps with 288751 atoms

99.9% CPU use with 52 MPI tasks x 1 OpenMP threads

Minimization stats:
  Stopping criterion = energy tolerance
  Energy initial, next-to-last, final = 
     -1152449.34053371  -1152449.34898442  -1152449.34898442
  Force two-norm initial, final = 0.14952142 0.00039828886
  Force max component initial, final = 0.071927366 8.7614201e-05
  Final line search alpha, max atom move = 1.0000000 8.7614201e-05
  Iterations, force evaluations = 232 464

MPI task timing breakdown:
Section |  min time  |  avg time  |  max time  |%varavg| %total
---------------------------------------------------------------
Pair    | 1.3192     | 3.6536     | 4.8085     |  52.5 | 72.83
Neigh   | 1.8358e-05 | 0.0057567  | 0.008457   |   3.2 |  0.11
Comm    | 0.060268   | 0.79949    | 2.5341     |  81.2 | 15.94
Output  | 0          | 0          | 0          |   0.0 |  0.00
Modify  | 8.9197e-05 | 0.0077308  | 0.01642    |   4.1 |  0.15
Other   |            | 0.55       |            |       | 10.96

Nlocal:        5552.90 ave        7908 max           0 min
Histogram: 4 2 2 0 2 6 4 0 15 17
Nghost:        6213.58 ave        8769 max         412 min
Histogram: 4 0 4 0 8 0 4 5 7 20
Neighs:       158427.0 ave      230509 max           0 min
Histogram: 4 2 2 0 5 3 4 4 12 16

Total # of neighbors = 8238201
Ave neighs/atom = 28.530467
Neighbor list builds = 1
Dangerous builds = 0
The dot product: -3.96084729035651e-07
