LAMMPS (29 Oct 2020)
OMP_NUM_THREADS environment is not set. Defaulting to 1 thread. (../comm.cpp:94)
  using 1 OpenMP thread(s) per MPI task
OMP_NUM_THREADS environment is not set. Defaulting to 1 thread. (../comm.cpp:94)
  using 1 OpenMP thread(s) per MPI task
Reading data file ...
  orthogonal box = (-122.39241 -121.13707 -37.090501) to (122.39241 121.13707 37.090501)
  13 by 4 by 2 MPI processor grid
  reading atoms ...
  288751 atoms
  read_data CPU = 0.396 seconds
199981 atoms in group inner
88770 atoms in group outer
1 atoms in group carbon
Neighbor list info ...
  update every 1 steps, delay 0 steps, check yes
  max neighbors/atom: 2000, page size: 100000
  master list distance cutoff = 5.6
  ghost atom cutoff = 5.6
  binsize = 2.8, bins = 88 87 27
  1 neighbor lists, perpetual/occasional/extra = 1 0 0
  (1) pair eam/alloy, perpetual
      attributes: half, newton on
      pair build: half/bin/atomonly/newton
      stencil: half/bin/3d/newton
      bin: standard
Setting up cg style minimization ...
  Unit style    : metal
  Current step  : 0
Per MPI rank memory allocation (min/avg/max) = 5.441 | 5.816 | 6.074 Mbytes
Step v_fx v_fy v_fz PotEng KinEng TotEng 
       0    -25.63412  -0.42523636    13.012273   -1152441.9            0   -1152441.9 
     245 -1.8259988e-05 -3.8833536e-06 1.7036256e-05     -1152449            0     -1152449 
Loop time of 2.90702 on 104 procs for 245 steps with 288751 atoms

99.8% CPU use with 104 MPI tasks x 1 OpenMP threads

Minimization stats:
  Stopping criterion = energy tolerance
  Energy initial, next-to-last, final = 
      -1152441.8612108  -1152448.97218898  -1152448.97218898
  Force two-norm initial, final = 46.965343 0.00010965707
  Force max component initial, final = 32.679208 2.5730406e-05
  Final line search alpha, max atom move = 1.0000000 2.5730406e-05
  Iterations, force evaluations = 245 486

MPI task timing breakdown:
Section |  min time  |  avg time  |  max time  |%varavg| %total
---------------------------------------------------------------
Pair    | 0.78267    | 2.0564     | 2.6612     |  37.7 | 70.74
Neigh   | 8.3063e-05 | 0.023594   | 0.033971   |   6.3 |  0.81
Comm    | 0.048779   | 0.46826    | 1.3805     |  56.0 | 16.11
Output  | 0          | 0          | 0          |   0.0 |  0.00
Modify  | 2.5984e-05 | 0.0026177  | 0.0067414  |   3.2 |  0.09
Other   |            | 0.3561     |            |       | 12.25

Nlocal:        2776.45 ave        3956 max           0 min
Histogram: 8 4 4 0 4 12 8 0 30 34
Nghost:        3879.11 ave        5424 max         232 min
Histogram: 8 0 8 0 16 0 8 8 16 40
Neighs:        79213.6 ave      115275 max           0 min
Histogram: 8 4 4 0 10 6 8 8 24 32

Total # of neighbors = 8238213
Ave neighs/atom = 28.530509
Neighbor list builds = 8
Dangerous builds = 0
Setting atom values ...
  1 settings made for x
  1 settings made for y
  1 settings made for z
Setting up cg style minimization ...
  Unit style    : metal
  Current step  : 245
Per MPI rank memory allocation (min/avg/max) = 5.441 | 5.816 | 6.074 Mbytes
Step PotEng KinEng TotEng v_fx v_fy v_fz 
     245     -1152449            0     -1152449  0.011366341 -0.00052499204   0.01233511 
     447     -1152449            0     -1152449 3.6713752e-07 1.0183375e-06 5.4479528e-07 
Loop time of 2.38333 on 104 procs for 202 steps with 288751 atoms

99.9% CPU use with 104 MPI tasks x 1 OpenMP threads

Minimization stats:
  Stopping criterion = energy tolerance
  Energy initial, next-to-last, final = 
     -1152448.96697611  -1152448.97108837  -1152448.97108837
  Force two-norm initial, final = 0.2819735 0.00012351224
  Force max component initial, final = 0.15457591 1.3400981e-05
  Final line search alpha, max atom move = 1.0000000 1.3400981e-05
  Iterations, force evaluations = 202 404

MPI task timing breakdown:
Section |  min time  |  avg time  |  max time  |%varavg| %total
---------------------------------------------------------------
Pair    | 0.62088    | 1.7103     | 2.2259     |  35.2 | 71.76
Neigh   | 0          | 0          | 0          |   0.0 |  0.00
Comm    | 0.040235   | 0.38922    | 1.153      |  51.6 | 16.33
Output  | 0          | 0          | 0          |   0.0 |  0.00
Modify  | 2.7572e-05 | 0.0033333  | 0.0071183  |   2.7 |  0.14
Other   |            | 0.2805     |            |       | 11.77

Nlocal:        2776.45 ave        3955 max           0 min
Histogram: 8 4 4 0 4 12 8 0 30 34
Nghost:        3879.16 ave        5424 max         232 min
Histogram: 8 0 8 0 16 0 8 8 16 40
Neighs:        79213.5 ave      115247 max           0 min
Histogram: 8 4 4 0 10 6 8 8 24 32

Total # of neighbors = 8238206
Ave neighs/atom = 28.530485
Neighbor list builds = 0
Dangerous builds = 0
Setting atom values ...
  1 settings made for x
  1 settings made for y
  1 settings made for z
Setting up cg style minimization ...
  Unit style    : metal
  Current step  : 447
Per MPI rank memory allocation (min/avg/max) = 5.441 | 5.816 | 6.074 Mbytes
Step PotEng KinEng TotEng v_fx v_fy v_fz 
     447     -1152449            0     -1152449 -0.030456572 0.0017002491 -0.019976645 
     668     -1152449            0     -1152449 -4.9324148e-06 -3.0862726e-06 -3.600691e-06 
Loop time of 2.58215 on 104 procs for 221 steps with 288751 atoms

99.9% CPU use with 104 MPI tasks x 1 OpenMP threads

Minimization stats:
  Stopping criterion = energy tolerance
  Energy initial, next-to-last, final = 
      -1152448.9615338   -1152448.9690255   -1152448.9690255
  Force two-norm initial, final = 0.32321708 0.00023747887
  Force max component initial, final = 0.17267716 4.6480897e-05
  Final line search alpha, max atom move = 1.0000000 4.6480897e-05
  Iterations, force evaluations = 221 442

MPI task timing breakdown:
Section |  min time  |  avg time  |  max time  |%varavg| %total
---------------------------------------------------------------
Pair    | 0.67638    | 1.8569     | 2.4145     |  36.7 | 71.91
Neigh   | 0          | 0          | 0          |   0.0 |  0.00
Comm    | 0.040995   | 0.42018    | 1.2577     |  54.1 | 16.27
Output  | 0          | 0          | 0          |   0.0 |  0.00
Modify  | 2.8451e-05 | 0.0036446  | 0.0077544  |   2.8 |  0.14
Other   |            | 0.3015     |            |       | 11.68

Nlocal:        2776.45 ave        3955 max           0 min
Histogram: 8 4 4 0 4 12 8 0 30 34
Nghost:        3879.20 ave        5424 max         232 min
Histogram: 8 0 8 0 16 0 8 8 16 40
Neighs:        79213.5 ave      115239 max           0 min
Histogram: 8 4 4 0 10 6 8 8 24 32

Total # of neighbors = 8238199
Ave neighs/atom = 28.530461
Neighbor list builds = 0
Dangerous builds = 0
The dot product: 3.31838993065939e-06
The cos of the angle between the force vector and the displacement vector: 0.484972840688808
The angle: 60.9893069796964
Setting atom values ...
  1 settings made for x
  1 settings made for y
  1 settings made for z
Setting up cg style minimization ...
  Unit style    : metal
  Current step  : 668
Per MPI rank memory allocation (min/avg/max) = 5.441 | 5.816 | 6.074 Mbytes
Step PotEng KinEng TotEng v_fx v_fy v_fz 
     668     -1152449            0     -1152449  -0.12240842 0.0021694807 0.0031947943 
     973   -1152449.2            0   -1152449.2 -2.0777982e-06 2.4108663e-06 3.4273045e-07 
Loop time of 3.62628 on 104 procs for 305 steps with 288751 atoms

99.9% CPU use with 104 MPI tasks x 1 OpenMP threads

Minimization stats:
  Stopping criterion = energy tolerance
  Energy initial, next-to-last, final = 
      -1152448.9606002  -1152449.19745506  -1152449.19745506
  Force two-norm initial, final = 0.31098514 0.00011035163
  Force max component initial, final = 0.12240842 2.3388695e-05
  Final line search alpha, max atom move = 1.0000000 2.3388695e-05
  Iterations, force evaluations = 305 610

MPI task timing breakdown:
Section |  min time  |  avg time  |  max time  |%varavg| %total
---------------------------------------------------------------
Pair    | 0.95137    | 2.5852     | 3.3762     |  42.8 | 71.29
Neigh   | 4.0777e-05 | 0.011776   | 0.017012   |   4.5 |  0.32
Comm    | 0.066044   | 0.59249    | 1.7679     |  63.4 | 16.34
Output  | 0          | 0          | 0          |   0.0 |  0.00
Modify  | 3.6383e-05 | 0.0050196  | 0.010767   |   3.4 |  0.14
Other   |            | 0.4318     |            |       | 11.91

Nlocal:        2776.45 ave        3945 max           0 min
Histogram: 8 4 4 0 4 12 8 0 27 37
Nghost:        3879.17 ave        5423 max         232 min
Histogram: 8 0 8 0 16 0 8 8 16 40
Neighs:        79214.1 ave      114884 max           0 min
Histogram: 8 4 4 0 10 6 8 8 22 34

Total # of neighbors = 8238270
Ave neighs/atom = 28.530706
Neighbor list builds = 4
Dangerous builds = 0
The dot product: 2.20768672298091e-07
The cos of the angle between the force vector and the displacement vector: 0.0689666891399145
The angle: 86.0453605728158
Setting atom values ...
  1 settings made for x
  1 settings made for y
  1 settings made for z
Setting up cg style minimization ...
  Unit style    : metal
  Current step  : 973
Per MPI rank memory allocation (min/avg/max) = 5.441 | 5.816 | 6.074 Mbytes
Step PotEng KinEng TotEng v_fx v_fy v_fz 
     973   -1152449.2            0   -1152449.2 -0.056751848 -0.0095648153 0.0070314213 
    1000   -1152449.2            0   -1152449.2 -0.0022515834 0.00095404024 0.00042853075 
    1175   -1152449.2            0   -1152449.2 -5.2459306e-05 1.1518088e-06 7.6204014e-06 
Loop time of 2.35159 on 104 procs for 202 steps with 288751 atoms

99.9% CPU use with 104 MPI tasks x 1 OpenMP threads

Minimization stats:
  Stopping criterion = energy tolerance
  Energy initial, next-to-last, final = 
      -1152449.1943709  -1152449.19977286  -1152449.19977286
  Force two-norm initial, final = 0.28876432 0.00018498469
  Force max component initial, final = 0.12806923 5.2459306e-05
  Final line search alpha, max atom move = 1.0000000 5.2459306e-05
  Iterations, force evaluations = 202 404

MPI task timing breakdown:
Section |  min time  |  avg time  |  max time  |%varavg| %total
---------------------------------------------------------------
Pair    | 0.61652    | 1.6957     | 2.2089     |  35.0 | 72.11
Neigh   | 0          | 0          | 0          |   0.0 |  0.00
Comm    | 0.039354   | 0.38377    | 1.1527     |  51.7 | 16.32
Output  | 0.00013038 | 0.00014069 | 0.00023232 |   0.0 |  0.01
Modify  | 2.6454e-05 | 0.0033233  | 0.0070982  |   2.7 |  0.14
Other   |            | 0.2686     |            |       | 11.42

Nlocal:        2776.45 ave        3944 max           0 min
Histogram: 8 4 4 0 4 12 8 0 28 36
Nghost:        3879.43 ave        5423 max         232 min
Histogram: 8 0 8 0 16 0 8 8 16 40
Neighs:        79214.7 ave      114881 max           0 min
Histogram: 8 4 4 0 10 6 8 8 22 34

Total # of neighbors = 8238331
Ave neighs/atom = 28.530918
Neighbor list builds = 0
Dangerous builds = 0
The dot product: -2.49795698676149e-06
The cos of the angle between the force vector and the displacement vector: -0.0471113440227026
The angle: 92.7002806778063
Setting atom values ...
  1 settings made for x
  1 settings made for y
  1 settings made for z
Setting up cg style minimization ...
  Unit style    : metal
  Current step  : 1175
Per MPI rank memory allocation (min/avg/max) = 5.441 | 5.816 | 6.074 Mbytes
Step PotEng KinEng TotEng v_fx v_fy v_fz 
    1175   -1152449.2            0   -1152449.2 -0.067992439 -0.0014914809 0.0064516359 
    1615   -1152449.4            0   -1152449.4 -1.4524781e-05 1.9646822e-06 1.5064203e-06 
Loop time of 5.21534 on 104 procs for 440 steps with 288751 atoms

99.9% CPU use with 104 MPI tasks x 1 OpenMP threads

Minimization stats:
  Stopping criterion = energy tolerance
  Energy initial, next-to-last, final = 
     -1152449.19456111   -1152449.4033617   -1152449.4033617
  Force two-norm initial, final = 0.2958937 9.4609522e-05
  Force max component initial, final = 0.12618792 2.2296783e-05
  Final line search alpha, max atom move = 1.0000000 2.2296783e-05
  Iterations, force evaluations = 440 880

MPI task timing breakdown:
Section |  min time  |  avg time  |  max time  |%varavg| %total
---------------------------------------------------------------
Pair    | 1.3878     | 3.7193     | 4.8033     |  51.1 | 71.31
Neigh   | 9.1994e-05 | 0.026389   | 0.038318   |   6.7 |  0.51
Comm    | 0.086382   | 0.84247    | 2.4962     |  76.2 | 16.15
Output  | 0          | 0          | 0          |   0.0 |  0.00
Modify  | 5.1825e-05 | 0.0072414  | 0.015498   |   4.0 |  0.14
Other   |            | 0.6199     |            |       | 11.89

Nlocal:        2776.45 ave        3946 max           0 min
Histogram: 8 4 4 0 4 12 8 0 27 37
Nghost:        3879.24 ave        5423 max         232 min
Histogram: 8 0 8 0 16 0 8 8 16 40
Neighs:        79213.2 ave      114853 max           0 min
Histogram: 8 4 4 0 10 6 8 8 22 34

Total # of neighbors = 8238176
Ave neighs/atom = 28.530381
Neighbor list builds = 9
Dangerous builds = 0
The dot product: 6.15080271360742e-06
The cos of the angle between the force vector and the displacement vector: 0.41744891562801
The angle: 65.3263686826722
Setting atom values ...
  1 settings made for x
  1 settings made for y
  1 settings made for z
Setting up cg style minimization ...
  Unit style    : metal
  Current step  : 1615
Per MPI rank memory allocation (min/avg/max) = 5.441 | 5.816 | 6.074 Mbytes
Step PotEng KinEng TotEng v_fx v_fy v_fz 
    1615   -1152449.4            0   -1152449.4   0.19176098  0.011656673  -0.11385981 
    1830   -1152449.4            0   -1152449.4 5.4296965e-06 3.6490323e-06 -3.1789317e-06 
Loop time of 2.51534 on 104 procs for 215 steps with 288751 atoms

99.9% CPU use with 104 MPI tasks x 1 OpenMP threads

Minimization stats:
  Stopping criterion = energy tolerance
  Energy initial, next-to-last, final = 
     -1152449.41343225  -1152449.42457363  -1152449.42457363
  Force two-norm initial, final = 0.3662818 0.00012224142
  Force max component initial, final = 0.19176098 2.3056633e-05
  Final line search alpha, max atom move = 1.0000000 2.3056633e-05
  Iterations, force evaluations = 215 430

MPI task timing breakdown:
Section |  min time  |  avg time  |  max time  |%varavg| %total
---------------------------------------------------------------
Pair    | 0.65748    | 1.8053     | 2.3424     |  36.0 | 71.77
Neigh   | 0          | 0          | 0          |   0.0 |  0.00
Comm    | 0.039295   | 0.40971    | 1.2317     |  53.5 | 16.29
Output  | 0          | 0          | 0          |   0.0 |  0.00
Modify  | 2.5874e-05 | 0.0035401  | 0.0076249  |   2.8 |  0.14
Other   |            | 0.2968     |            |       | 11.80

Nlocal:        2776.45 ave        3945 max           0 min
Histogram: 8 4 4 0 4 12 8 0 26 38
Nghost:        3879.45 ave        5422 max         232 min
Histogram: 8 0 8 0 16 0 8 8 16 40
Neighs:        79213.4 ave      114825 max           0 min
Histogram: 8 4 4 0 10 6 8 8 22 34

Total # of neighbors = 8238194
Ave neighs/atom = 28.530443
Neighbor list builds = 0
Dangerous builds = 0
The dot product: 1.71254689360207e-06
The cos of the angle between the force vector and the displacement vector: 0.235452750474415
The angle: 76.3816876409851
Setting atom values ...
  1 settings made for x
  1 settings made for y
  1 settings made for z
Setting up cg style minimization ...
  Unit style    : metal
  Current step  : 1830
Per MPI rank memory allocation (min/avg/max) = 5.441 | 5.816 | 6.074 Mbytes
Step PotEng KinEng TotEng v_fx v_fy v_fz 
    1830   -1152449.4            0   -1152449.4  -0.14341987 -0.013452467  0.038572664 
    2000   -1152449.4            0   -1152449.4 -0.00017136856 -1.9469863e-06 4.6340458e-05 
    2065   -1152449.4            0   -1152449.4 -4.8426883e-06 4.3076819e-07 1.3181625e-06 
Loop time of 2.73737 on 104 procs for 235 steps with 288751 atoms

99.9% CPU use with 104 MPI tasks x 1 OpenMP threads

Minimization stats:
  Stopping criterion = energy tolerance
  Energy initial, next-to-last, final = 
        -1152449.42935  -1152449.43542541  -1152449.43542541
  Force two-norm initial, final = 0.33769637 3.4048468e-05
  Force max component initial, final = 0.15146908 5.5690011e-06
  Final line search alpha, max atom move = 1.0000000 5.5690011e-06
  Iterations, force evaluations = 235 470

MPI task timing breakdown:
Section |  min time  |  avg time  |  max time  |%varavg| %total
---------------------------------------------------------------
Pair    | 0.71598    | 1.9789     | 2.5644     |  37.9 | 72.29
Neigh   | 0          | 0          | 0          |   0.0 |  0.00
Comm    | 0.046013   | 0.44456    | 1.3355     |  56.3 | 16.24
Output  | 0.00016239 | 0.00017181 | 0.00034298 |   0.0 |  0.01
Modify  | 3.1294e-05 | 0.0038743  | 0.0083046  |   2.9 |  0.14
Other   |            | 0.3099     |            |       | 11.32

Nlocal:        2776.45 ave        3945 max           0 min
Histogram: 8 4 4 0 4 12 8 0 26 38
Nghost:        3879.34 ave        5422 max         232 min
Histogram: 8 0 8 0 16 0 8 8 16 40
Neighs:        79213.4 ave      114834 max           0 min
Histogram: 8 4 4 0 10 6 8 8 22 34

Total # of neighbors = 8238198
Ave neighs/atom = 28.530457
Neighbor list builds = 0
Dangerous builds = 0
The dot product: 5.54301526753235e-07
The cos of the angle between the force vector and the displacement vector: 0.110038646972637
The angle: 83.6824565980468
Setting atom values ...
  1 settings made for x
  1 settings made for y
  1 settings made for z
Setting up cg style minimization ...
  Unit style    : metal
  Current step  : 2065
Per MPI rank memory allocation (min/avg/max) = 5.441 | 5.816 | 6.074 Mbytes
Step PotEng KinEng TotEng v_fx v_fy v_fz 
    2065   -1152449.4            0   -1152449.4 -0.015778232 -0.006225104 0.0061209172 
    2279   -1152449.4            0   -1152449.4 -4.4819842e-06 -5.6227014e-07 1.7569123e-06 
Loop time of 2.48032 on 104 procs for 214 steps with 288751 atoms

99.9% CPU use with 104 MPI tasks x 1 OpenMP threads

Minimization stats:
  Stopping criterion = energy tolerance
  Energy initial, next-to-last, final = 
      -1152449.4362938   -1152449.4406679   -1152449.4406679
  Force two-norm initial, final = 0.2989082 4.7524135e-05
  Force max component initial, final = 0.15093166 7.3273645e-06
  Final line search alpha, max atom move = 1.0000000 7.3273645e-06
  Iterations, force evaluations = 214 428

MPI task timing breakdown:
Section |  min time  |  avg time  |  max time  |%varavg| %total
---------------------------------------------------------------
Pair    | 0.65302    | 1.7958     | 2.3211     |  36.1 | 72.40
Neigh   | 0          | 0          | 0          |   0.0 |  0.00
Comm    | 0.038108   | 0.404      | 1.2176     |  53.7 | 16.29
Output  | 0          | 0          | 0          |   0.0 |  0.00
Modify  | 2.48e-05   | 0.0035277  | 0.0076068  |   2.8 |  0.14
Other   |            | 0.277      |            |       | 11.17

Nlocal:        2776.45 ave        3945 max           0 min
Histogram: 8 4 4 0 4 12 8 0 26 38
Nghost:        3879.34 ave        5422 max         232 min
Histogram: 8 0 8 0 16 0 8 8 16 40
Neighs:        79213.4 ave      114842 max           0 min
Histogram: 8 4 4 0 10 6 8 8 22 34

Total # of neighbors = 8238195
Ave neighs/atom = 28.530447
Neighbor list builds = 0
Dangerous builds = 0
The dot product: -7.62020675141816e-08
The cos of the angle between the force vector and the displacement vector: -0.0157222736022888
The angle: 90.9008570381524
Setting atom values ...
  1 settings made for x
  1 settings made for y
  1 settings made for z
Setting up cg style minimization ...
  Unit style    : metal
  Current step  : 2279
Per MPI rank memory allocation (min/avg/max) = 5.441 | 5.816 | 6.074 Mbytes
Step PotEng KinEng TotEng v_fx v_fy v_fz 
    2279   -1152449.4            0   -1152449.4 -0.049750771 0.0026042161  0.018709794 
    2488   -1152449.4            0   -1152449.4 1.3569283e-06 2.6946031e-07 -5.0601503e-07 
Loop time of 2.45705 on 104 procs for 209 steps with 288751 atoms

99.9% CPU use with 104 MPI tasks x 1 OpenMP threads

Minimization stats:
  Stopping criterion = energy tolerance
  Energy initial, next-to-last, final = 
     -1152449.43697828  -1152449.44139816  -1152449.44139816
  Force two-norm initial, final = 0.30417345 7.1110359e-05
  Force max component initial, final = 0.14669796 1.0737716e-05
  Final line search alpha, max atom move = 1.0000000 1.0737716e-05
  Iterations, force evaluations = 209 418

MPI task timing breakdown:
Section |  min time  |  avg time  |  max time  |%varavg| %total
---------------------------------------------------------------
Pair    | 0.63766    | 1.7639     | 2.2997     |  35.7 | 71.79
Neigh   | 0          | 0          | 0          |   0.0 |  0.00
Comm    | 0.036255   | 0.40319    | 1.2065     |  52.8 | 16.41
Output  | 0          | 0          | 0          |   0.0 |  0.00
Modify  | 2.5636e-05 | 0.0034512  | 0.0074998  |   2.8 |  0.14
Other   |            | 0.2865     |            |       | 11.66

Nlocal:        2776.45 ave        3946 max           0 min
Histogram: 8 4 4 0 4 12 8 0 26 38
Nghost:        3879.47 ave        5423 max         232 min
Histogram: 8 0 8 0 16 0 8 8 16 40
Neighs:        79213.5 ave      114847 max           0 min
Histogram: 8 4 4 0 10 6 8 8 22 34

Total # of neighbors = 8238199
Ave neighs/atom = 28.530461
Neighbor list builds = 0
Dangerous builds = 0
The dot product: -1.46029712046783e-08
The cos of the angle between the force vector and the displacement vector: -0.00991333824805217
The angle: 90.5680017460846
Setting atom values ...
  1 settings made for x
  1 settings made for y
  1 settings made for z
Setting up cg style minimization ...
  Unit style    : metal
  Current step  : 2488
Per MPI rank memory allocation (min/avg/max) = 5.441 | 5.816 | 6.074 Mbytes
Step PotEng KinEng TotEng v_fx v_fy v_fz 
    2488   -1152449.4            0   -1152449.4  -0.05208122 0.0004814814    0.0201744 
    2693   -1152449.4            0   -1152449.4 -2.1758315e-05 2.4251678e-06 8.4595392e-06 
Loop time of 2.41292 on 104 procs for 205 steps with 288751 atoms

99.9% CPU use with 104 MPI tasks x 1 OpenMP threads

Minimization stats:
  Stopping criterion = energy tolerance
  Energy initial, next-to-last, final = 
     -1152449.43318265  -1152449.43758916  -1152449.43758916
  Force two-norm initial, final = 0.30426484 9.2187726e-05
  Force max component initial, final = 0.14535275 2.6533136e-05
  Final line search alpha, max atom move = 1.0000000 2.6533136e-05
  Iterations, force evaluations = 205 410

MPI task timing breakdown:
Section |  min time  |  avg time  |  max time  |%varavg| %total
---------------------------------------------------------------
Pair    | 0.6324     | 1.7286     | 2.2344     |  35.3 | 71.64
Neigh   | 0          | 0          | 0          |   0.0 |  0.00
Comm    | 0.038285   | 0.39208    | 1.173      |  52.1 | 16.25
Output  | 0          | 0          | 0          |   0.0 |  0.00
Modify  | 2.5299e-05 | 0.0033815  | 0.0073321  |   2.8 |  0.14
Other   |            | 0.2888     |            |       | 11.97

Nlocal:        2776.45 ave        3947 max           0 min
Histogram: 8 4 4 0 4 12 8 0 27 37
Nghost:        3879.41 ave        5423 max         232 min
Histogram: 8 0 8 0 16 0 8 8 16 40
Neighs:        79213.5 ave      114883 max           0 min
Histogram: 8 4 4 0 10 6 8 8 22 34

Total # of neighbors = 8238199
Ave neighs/atom = 28.530461
Neighbor list builds = 0
Dangerous builds = 0
The dot product: 2.63060165182793e-07
The cos of the angle between the force vector and the displacement vector: 0.0112080669458538
The angle: 89.3578116216583
Setting atom values ...
  1 settings made for x
  1 settings made for y
  1 settings made for z
Setting up cg style minimization ...
  Unit style    : metal
  Current step  : 2693
Per MPI rank memory allocation (min/avg/max) = 5.441 | 5.816 | 6.074 Mbytes
Step PotEng KinEng TotEng v_fx v_fy v_fz 
    2693   -1152449.4            0   -1152449.4 -0.052560593 -0.002009856  0.021013855 
    2881   -1152449.4            0   -1152449.4 -1.6123566e-05 -8.3625483e-07 6.4432813e-06 
Loop time of 2.19862 on 104 procs for 188 steps with 288751 atoms

99.9% CPU use with 104 MPI tasks x 1 OpenMP threads

Minimization stats:
  Stopping criterion = energy tolerance
  Energy initial, next-to-last, final = 
      -1152449.4248777  -1152449.42925116  -1152449.42925116
  Force two-norm initial, final = 0.30358602 0.00017794284
  Force max component initial, final = 0.15077667 2.6841860e-05
  Final line search alpha, max atom move = 1.0000000 2.6841860e-05
  Iterations, force evaluations = 188 376

MPI task timing breakdown:
Section |  min time  |  avg time  |  max time  |%varavg| %total
---------------------------------------------------------------
Pair    | 0.57582    | 1.5858     | 2.0588     |  33.9 | 72.13
Neigh   | 0          | 0          | 0          |   0.0 |  0.00
Comm    | 0.033288   | 0.3599     | 1.0727     |  50.0 | 16.37
Output  | 0          | 0          | 0          |   0.0 |  0.00
Modify  | 2.2873e-05 | 0.0031047  | 0.00674    |   2.6 |  0.14
Other   |            | 0.2498     |            |       | 11.36

Nlocal:        2776.45 ave        3945 max           0 min
Histogram: 8 4 4 0 4 12 8 0 28 36
Nghost:        3879.39 ave        5423 max         232 min
Histogram: 8 0 8 0 16 0 8 8 16 40
Neighs:        79213.5 ave      114798 max           0 min
Histogram: 8 4 4 0 10 6 8 8 22 34

Total # of neighbors = 8238199
Ave neighs/atom = 28.530461
Neighbor list builds = 0
Dangerous builds = 0
The dot product: 1.95409289812895e-07
The cos of the angle between the force vector and the displacement vector: 0.0112411063742561
The angle: 89.3559184825899
Setting atom values ...
  1 settings made for x
  1 settings made for y
  1 settings made for z
Setting up cg style minimization ...
  Unit style    : metal
  Current step  : 2881
Per MPI rank memory allocation (min/avg/max) = 5.441 | 5.816 | 6.074 Mbytes
Step PotEng KinEng TotEng v_fx v_fy v_fz 
    2881   -1152449.4            0   -1152449.4 -0.051783042 -0.0053610028  0.021338968 
    3000   -1152449.4            0   -1152449.4 -0.00024026448 9.6513735e-06 9.944346e-05 
    3073   -1152449.4            0   -1152449.4 -1.6916529e-05 -6.8447576e-07 6.9844525e-06 
Loop time of 2.25909 on 104 procs for 192 steps with 288751 atoms

99.9% CPU use with 104 MPI tasks x 1 OpenMP threads

Minimization stats:
  Stopping criterion = energy tolerance
  Energy initial, next-to-last, final = 
     -1152449.41206342  -1152449.41640093  -1152449.41640093
  Force two-norm initial, final = 0.3026125 0.00016580657
  Force max component initial, final = 0.15617431 4.3000071e-05
  Final line search alpha, max atom move = 1.0000000 4.3000071e-05
  Iterations, force evaluations = 192 384

MPI task timing breakdown:
Section |  min time  |  avg time  |  max time  |%varavg| %total
---------------------------------------------------------------
Pair    | 0.58942    | 1.6143     | 2.1003     |  34.0 | 71.46
Neigh   | 0          | 0          | 0          |   0.0 |  0.00
Comm    | 0.047472   | 0.36663    | 1.1027     |  50.2 | 16.23
Output  | 0.00015533 | 0.00016355 | 0.00032027 |   0.0 |  0.01
Modify  | 2.3157e-05 | 0.0031661  | 0.0067924  |   2.7 |  0.14
Other   |            | 0.2748     |            |       | 12.16

Nlocal:        2776.45 ave        3945 max           0 min
Histogram: 8 4 4 0 4 12 8 0 28 36
Nghost:        3879.43 ave        5423 max         232 min
Histogram: 8 0 8 0 16 0 8 8 16 40
Neighs:        79213.5 ave      114809 max           0 min
Histogram: 8 4 4 0 10 6 8 8 22 34

Total # of neighbors = 8238206
Ave neighs/atom = 28.530485
Neighbor list builds = 0
Dangerous builds = 0
The dot product: 1.94792008261755e-07
The cos of the angle between the force vector and the displacement vector: 0.0106359585206424
The angle: 89.390592975602
Setting atom values ...
  1 settings made for x
  1 settings made for y
  1 settings made for z
Setting up cg style minimization ...
  Unit style    : metal
  Current step  : 3073
Per MPI rank memory allocation (min/avg/max) = 5.441 | 5.816 | 6.074 Mbytes
Step PotEng KinEng TotEng v_fx v_fy v_fz 
    3073   -1152449.4            0   -1152449.4 -0.050072242 -0.009863997  0.021210329 
    3240   -1152449.4            0   -1152449.4 0.00010042177 -4.0837743e-06 -4.2812422e-05 
Loop time of 1.94752 on 104 procs for 167 steps with 288751 atoms

99.9% CPU use with 104 MPI tasks x 1 OpenMP threads

Minimization stats:
  Stopping criterion = energy tolerance
  Energy initial, next-to-last, final = 
     -1152449.39478298  -1152449.39907992  -1152449.39907992
  Force two-norm initial, final = 0.30162502 0.00031676141
  Force max component initial, final = 0.16149816 0.00010042177
  Final line search alpha, max atom move = 1.0000000 0.00010042177
  Iterations, force evaluations = 167 334

MPI task timing breakdown:
Section |  min time  |  avg time  |  max time  |%varavg| %total
---------------------------------------------------------------
Pair    | 0.50749    | 1.4072     | 1.8247     |  31.9 | 72.25
Neigh   | 0          | 0          | 0          |   0.0 |  0.00
Comm    | 0.033215   | 0.31661    | 0.94925    |  47.4 | 16.26
Output  | 0          | 0          | 0          |   0.0 |  0.00
Modify  | 2.173e-05  | 0.0027536  | 0.0059136  |   2.5 |  0.14
Other   |            | 0.221      |            |       | 11.35

Nlocal:        2776.45 ave        3945 max           0 min
Histogram: 8 4 4 0 4 12 8 0 28 36
Nghost:        3879.49 ave        5423 max         232 min
Histogram: 8 0 8 0 16 0 8 8 16 40
Neighs:        79213.6 ave      114803 max           0 min
Histogram: 8 4 4 0 10 6 8 8 22 34

Total # of neighbors = 8238212
Ave neighs/atom = 28.530506
Neighbor list builds = 0
Dangerous builds = 0
The dot product: -1.07295227278735e-06
The cos of the angle between the force vector and the displacement vector: -0.00982166972505626
The angle: 90.562749270884
Setting atom values ...
  1 settings made for x
  1 settings made for y
  1 settings made for z
Setting up cg style minimization ...
  Unit style    : metal
  Current step  : 3240
Per MPI rank memory allocation (min/avg/max) = 5.441 | 5.816 | 6.074 Mbytes
Step PotEng KinEng TotEng v_fx v_fy v_fz 
    3240   -1152449.4            0   -1152449.4 -0.047373315 -0.015582411  0.020574386 
    3457   -1152449.4            0   -1152449.4 2.9219602e-07 3.7204106e-07 -1.2414987e-07 
Loop time of 2.5272 on 104 procs for 217 steps with 288751 atoms

99.9% CPU use with 104 MPI tasks x 1 OpenMP threads

Minimization stats:
  Stopping criterion = energy tolerance
  Energy initial, next-to-last, final = 
     -1152449.37309972  -1152449.37735768  -1152449.37735768
  Force two-norm initial, final = 0.30078346 4.4501646e-05
  Force max component initial, final = 0.16675364 7.7604882e-06
  Final line search alpha, max atom move = 1.0000000 7.7604882e-06
  Iterations, force evaluations = 217 434

MPI task timing breakdown:
Section |  min time  |  avg time  |  max time  |%varavg| %total
---------------------------------------------------------------
Pair    | 0.66219    | 1.8186     | 2.3589     |  36.3 | 71.96
Neigh   | 0          | 0          | 0          |   0.0 |  0.00
Comm    | 0.040192   | 0.41025    | 1.2325     |  53.9 | 16.23
Output  | 0          | 0          | 0          |   0.0 |  0.00
Modify  | 2.5904e-05 | 0.0035716  | 0.00769    |   2.8 |  0.14
Other   |            | 0.2948     |            |       | 11.67

Nlocal:        2776.45 ave        3945 max           0 min
Histogram: 8 4 4 0 4 12 8 0 28 36
Nghost:        3879.47 ave        5423 max         232 min
Histogram: 8 0 8 0 16 0 8 8 16 40
Neighs:        79213.6 ave      114819 max           0 min
Histogram: 8 4 4 0 10 6 8 8 22 34

Total # of neighbors = 8238211
Ave neighs/atom = 28.530502
Neighbor list builds = 0
Dangerous builds = 0
The dot product: -3.65814866535889e-09
The cos of the angle between the force vector and the displacement vector: -0.00747954336541583
The angle: 90.4285502633584
Setting atom values ...
  1 settings made for x
  1 settings made for y
  1 settings made for z
Setting up cg style minimization ...
  Unit style    : metal
  Current step  : 3457
Per MPI rank memory allocation (min/avg/max) = 5.441 | 5.816 | 6.074 Mbytes
Step PotEng KinEng TotEng v_fx v_fy v_fz 
    3457   -1152449.3            0   -1152449.3 -0.044791102 -0.021833959  0.019909259 
    3677   -1152449.4            0   -1152449.4 6.7264985e-06 4.4146209e-07 -3.0111257e-06 
Loop time of 2.60754 on 104 procs for 220 steps with 288751 atoms

99.9% CPU use with 104 MPI tasks x 1 OpenMP threads

Minimization stats:
  Stopping criterion = energy tolerance
  Energy initial, next-to-last, final = 
     -1152449.34712031  -1152449.35132585  -1152449.35132585
  Force two-norm initial, final = 0.30038082 3.7313264e-05
  Force max component initial, final = 0.17172599 1.0000081e-05
  Final line search alpha, max atom move = 1.0000000 1.0000081e-05
  Iterations, force evaluations = 220 440

MPI task timing breakdown:
Section |  min time  |  avg time  |  max time  |%varavg| %total
---------------------------------------------------------------
Pair    | 0.67117    | 1.863      | 2.4277     |  36.8 | 71.45
Neigh   | 0          | 0          | 0          |   0.0 |  0.00
Comm    | 0.040537   | 0.42022    | 1.2738     |  54.3 | 16.12
Output  | 0          | 0          | 0          |   0.0 |  0.00
Modify  | 2.6634e-05 | 0.0036253  | 0.0077727  |   2.8 |  0.14
Other   |            | 0.3207     |            |       | 12.30

Nlocal:        2776.45 ave        3945 max           0 min
Histogram: 8 4 4 0 4 12 8 0 28 36
Nghost:        3879.51 ave        5423 max         232 min
Histogram: 8 0 8 0 16 0 8 8 16 40
Neighs:        79213.6 ave      114820 max           0 min
Histogram: 8 4 4 0 10 6 8 8 22 34

Total # of neighbors = 8238212
Ave neighs/atom = 28.530506
Neighbor list builds = 0
Dangerous builds = 0
The dot product: -6.05501361788271e-08
The cos of the angle between the force vector and the displacement vector: -0.00820137746673263
The angle: 90.4699095830275
Setting atom values ...
  1 settings made for x
  1 settings made for y
  1 settings made for z
Setting up cg style minimization ...
  Unit style    : metal
  Current step  : 3677
Per MPI rank memory allocation (min/avg/max) = 5.441 | 5.816 | 6.074 Mbytes
Step PotEng KinEng TotEng v_fx v_fy v_fz 
    3677   -1152449.3            0   -1152449.3 -0.043111731 -0.029278004  0.019626999 
    3901   -1152449.3            0   -1152449.3 1.0589726e-06 1.3991055e-07 -4.8427141e-07 
Loop time of 2.60118 on 104 procs for 224 steps with 288751 atoms

99.9% CPU use with 104 MPI tasks x 1 OpenMP threads

Minimization stats:
  Stopping criterion = energy tolerance
  Energy initial, next-to-last, final = 
      -1152449.3170283  -1152449.32115576  -1152449.32115576
  Force two-norm initial, final = 0.30082784 2.8835072e-05
  Force max component initial, final = 0.17660262 1.0589726e-06
  Final line search alpha, max atom move = 1.0000000 1.0589726e-06
  Iterations, force evaluations = 224 448

MPI task timing breakdown:
Section |  min time  |  avg time  |  max time  |%varavg| %total
---------------------------------------------------------------
Pair    | 0.68705    | 1.8779     | 2.4281     |  36.8 | 72.19
Neigh   | 0          | 0          | 0          |   0.0 |  0.00
Comm    | 0.038663   | 0.42385    | 1.2776     |  54.7 | 16.29
Output  | 0          | 0          | 0          |   0.0 |  0.00
Modify  | 2.664e-05  | 0.0036898  | 0.0079368  |   2.9 |  0.14
Other   |            | 0.2957     |            |       | 11.37

Nlocal:        2776.45 ave        3945 max           0 min
Histogram: 8 4 4 0 4 12 8 0 28 36
Nghost:        3879.41 ave        5423 max         232 min
Histogram: 8 0 8 0 16 0 8 8 16 40
Neighs:        79213.6 ave      114820 max           0 min
Histogram: 8 4 4 0 10 6 8 8 22 34

Total # of neighbors = 8238216
Ave neighs/atom = 28.530519
Neighbor list builds = 0
Dangerous builds = 0
The dot product: -1.01343630615867e-08
The cos of the angle between the force vector and the displacement vector: -0.00864099021584786
The angle: 90.4950984315412
Setting atom values ...
  1 settings made for x
  1 settings made for y
  1 settings made for z
Setting up cg style minimization ...
  Unit style    : metal
  Current step  : 3901
Per MPI rank memory allocation (min/avg/max) = 5.441 | 5.816 | 6.074 Mbytes
Step PotEng KinEng TotEng v_fx v_fy v_fz 
    3901   -1152449.3            0   -1152449.3  -0.03966411 -0.044095043  0.018709643 
    4000   -1152449.3            0   -1152449.3 -0.00017060336 1.5363047e-06 7.9725355e-05 
    4106   -1152449.3            0   -1152449.3 -2.4385606e-05 -5.2269874e-07 1.1398644e-05 
Loop time of 2.43998 on 104 procs for 205 steps with 288751 atoms

99.9% CPU use with 104 MPI tasks x 1 OpenMP threads

Minimization stats:
  Stopping criterion = energy tolerance
  Energy initial, next-to-last, final = 
     -1152449.28311693   -1152449.2914418   -1152449.2914418
  Force two-norm initial, final = 0.30367845 0.00010534791
  Force max component initial, final = 0.18156703 2.9825200e-05
  Final line search alpha, max atom move = 1.0000000 2.9825200e-05
  Iterations, force evaluations = 205 410

MPI task timing breakdown:
Section |  min time  |  avg time  |  max time  |%varavg| %total
---------------------------------------------------------------
Pair    | 0.627      | 1.7321     | 2.2564     |  35.3 | 70.99
Neigh   | 1.0298e-05 | 0.0029512  | 0.0042798  |   2.2 |  0.12
Comm    | 0.040338   | 0.39718    | 1.1832     |  52.1 | 16.28
Output  | 0.00014678 | 0.00014965 | 0.00029964 |   0.0 |  0.01
Modify  | 2.465e-05  | 0.0033767  | 0.0072906  |   2.8 |  0.14
Other   |            | 0.3042     |            |       | 12.47

Nlocal:        2776.45 ave        3946 max           0 min
Histogram: 8 4 4 0 4 12 8 1 27 36
Nghost:        3879.39 ave        5423 max         232 min
Histogram: 8 0 8 0 16 0 8 8 16 40
Neighs:        79213.7 ave      114888 max           0 min
Histogram: 8 4 4 0 10 6 8 8 22 34

Total # of neighbors = 8238225
Ave neighs/atom = 28.530551
Neighbor list builds = 1
Dangerous builds = 0
The dot product: -6.07790087190614e-07
The cos of the angle between the force vector and the displacement vector: -0.0225749358002424
The angle: 91.293558432209
Setting atom values ...
  1 settings made for x
  1 settings made for y
  1 settings made for z
Setting up cg style minimization ...
  Unit style    : metal
  Current step  : 4106
Per MPI rank memory allocation (min/avg/max) = 5.441 | 5.816 | 6.074 Mbytes
Step PotEng KinEng TotEng v_fx v_fy v_fz 
    4106   -1152449.3            0   -1152449.3  0.033011053  -0.26132975  0.036399917 
    4331   -1152449.3            0   -1152449.3 3.1075062e-05 8.8521994e-06 -1.5258106e-05 
Loop time of 2.63703 on 104 procs for 225 steps with 288751 atoms

99.9% CPU use with 104 MPI tasks x 1 OpenMP threads

Minimization stats:
  Stopping criterion = energy tolerance
  Energy initial, next-to-last, final = 
     -1152449.25633856  -1152449.33483312  -1152449.33483312
  Force two-norm initial, final = 0.39142241 0.00021572647
  Force max component initial, final = 0.26132975 3.1075062e-05
  Final line search alpha, max atom move = 1.0000000 3.1075062e-05
  Iterations, force evaluations = 225 449

MPI task timing breakdown:
Section |  min time  |  avg time  |  max time  |%varavg| %total
---------------------------------------------------------------
Pair    | 0.69589    | 1.891      | 2.4491     |  36.7 | 71.71
Neigh   | 3.0143e-05 | 0.0088606  | 0.012808   |   3.9 |  0.34
Comm    | 0.042178   | 0.43081    | 1.2888     |  54.7 | 16.34
Output  | 0          | 0          | 0          |   0.0 |  0.00
Modify  | 2.7207e-05 | 0.0037004  | 0.007982   |   2.9 |  0.14
Other   |            | 0.3027     |            |       | 11.48

Nlocal:        2776.45 ave        3945 max           0 min
Histogram: 8 4 4 0 4 12 8 1 27 36
Nghost:        3879.41 ave        5423 max         232 min
Histogram: 8 0 8 0 16 0 8 8 16 40
Neighs:        79213.6 ave      114827 max           0 min
Histogram: 8 4 4 0 10 6 8 8 22 34

Total # of neighbors = 8238214
Ave neighs/atom = 28.530512
Neighbor list builds = 3
Dangerous builds = 0
The dot product: 5.84190955177728e-07
The cos of the angle between the force vector and the displacement vector: 0.0163488862729206
The angle: 89.0632360830019
Setting atom values ...
  1 settings made for x
  1 settings made for y
  1 settings made for z
Setting up cg style minimization ...
  Unit style    : metal
  Current step  : 4331
Per MPI rank memory allocation (min/avg/max) = 5.441 | 5.816 | 6.074 Mbytes
Step PotEng KinEng TotEng v_fx v_fy v_fz 
    4331   -1152449.3            0   -1152449.3  0.060916493   -0.1627302  0.090780247 
    4567   -1152449.3            0   -1152449.3 1.913253e-07 2.9849122e-06 -2.0305075e-06 
Loop time of 2.7725 on 104 procs for 236 steps with 288751 atoms

99.9% CPU use with 104 MPI tasks x 1 OpenMP threads

Minimization stats:
  Stopping criterion = energy tolerance
  Energy initial, next-to-last, final = 
     -1152449.32320522  -1152449.32762946  -1152449.32762946
  Force two-norm initial, final = 0.29067534 2.5168131e-05
  Force max component initial, final = 0.1627302 3.8495595e-06
  Final line search alpha, max atom move = 1.0000000 3.8495595e-06
  Iterations, force evaluations = 236 472

MPI task timing breakdown:
Section |  min time  |  avg time  |  max time  |%varavg| %total
---------------------------------------------------------------
Pair    | 0.71591    | 1.991      | 2.5974     |  38.1 | 71.81
Neigh   | 0          | 0          | 0          |   0.0 |  0.00
Comm    | 0.041225   | 0.45794    | 1.3652     |  55.6 | 16.52
Output  | 0          | 0          | 0          |   0.0 |  0.00
Modify  | 2.8539e-05 | 0.0038914  | 0.0084415  |   3.0 |  0.14
Other   |            | 0.3197     |            |       | 11.53

Nlocal:        2776.45 ave        3947 max           0 min
Histogram: 8 4 4 0 4 12 8 0 28 36
Nghost:        3879.38 ave        5422 max         232 min
Histogram: 8 0 8 0 16 0 8 8 16 40
Neighs:        79213.3 ave      114883 max           0 min
Histogram: 8 4 4 0 10 6 8 8 22 34

Total # of neighbors = 8238188
Ave neighs/atom = 28.530422
Neighbor list builds = 0
Dangerous builds = 0
The dot product: -1.30170165340318e-07
The cos of the angle between the force vector and the displacement vector: -0.0360069091777832
The angle: 92.0634899780349
Setting atom values ...
  1 settings made for x
  1 settings made for y
  1 settings made for z
Setting up cg style minimization ...
  Unit style    : metal
  Current step  : 4567
Per MPI rank memory allocation (min/avg/max) = 5.441 | 5.816 | 6.074 Mbytes
Step PotEng KinEng TotEng v_fx v_fy v_fz 
    4567   -1152449.3            0   -1152449.3   0.01720205 -0.082633778  0.054874169 
    4754   -1152449.3            0   -1152449.3 3.9365689e-05 1.9899094e-05 -2.4573152e-05 
Loop time of 2.19854 on 104 procs for 187 steps with 288751 atoms

99.9% CPU use with 104 MPI tasks x 1 OpenMP threads

Minimization stats:
  Stopping criterion = energy tolerance
  Energy initial, next-to-last, final = 
     -1152449.31333743  -1152449.31590818  -1152449.31590818
  Force two-norm initial, final = 0.23089088 0.00017776924
  Force max component initial, final = 0.086254431 5.0217692e-05
  Final line search alpha, max atom move = 1.0000000 5.0217692e-05
  Iterations, force evaluations = 187 374

MPI task timing breakdown:
Section |  min time  |  avg time  |  max time  |%varavg| %total
---------------------------------------------------------------
Pair    | 0.57145    | 1.5773     | 2.0516     |  33.9 | 71.74
Neigh   | 0          | 0          | 0          |   0.0 |  0.00
Comm    | 0.035746   | 0.35931    | 1.0742     |  49.7 | 16.34
Output  | 0          | 0          | 0          |   0.0 |  0.00
Modify  | 2.2278e-05 | 0.0030806  | 0.0066216  |   2.6 |  0.14
Other   |            | 0.2588     |            |       | 11.77

Nlocal:        2776.45 ave        3947 max           0 min
Histogram: 8 4 4 0 4 12 8 2 26 36
Nghost:        3879.41 ave        5422 max         232 min
Histogram: 8 0 8 0 16 0 8 8 16 40
Neighs:        79213.3 ave      114874 max           0 min
Histogram: 8 4 4 0 10 6 8 8 22 34

Total # of neighbors = 8238188
Ave neighs/atom = 28.530422
Neighbor list builds = 0
Dangerous builds = 0
The dot product: -1.52846404120536e-07
The cos of the angle between the force vector and the displacement vector: -0.003027123722489
The angle: 90.1734416782515
Setting atom values ...
  1 settings made for x
  1 settings made for y
  1 settings made for z
Setting up cg style minimization ...
  Unit style    : metal
  Current step  : 4754
Per MPI rank memory allocation (min/avg/max) = 5.441 | 5.816 | 6.074 Mbytes
Step PotEng KinEng TotEng v_fx v_fy v_fz 
    4754   -1152449.3            0   -1152449.3  0.010579095 -0.072066492  0.050202105 
    4989   -1152449.3            0   -1152449.3 -3.3025947e-06 -3.3402762e-06 3.3049908e-06 
Loop time of 2.73325 on 104 procs for 235 steps with 288751 atoms

99.9% CPU use with 104 MPI tasks x 1 OpenMP threads

Minimization stats:
  Stopping criterion = energy tolerance
  Energy initial, next-to-last, final = 
     -1152449.29830366  -1152449.30074985  -1152449.30074985
  Force two-norm initial, final = 0.22355253 2.4157541e-05
  Force max component initial, final = 0.081952189 4.3514326e-06
  Final line search alpha, max atom move = 1.0000000 4.3514326e-06
  Iterations, force evaluations = 235 470

MPI task timing breakdown:
Section |  min time  |  avg time  |  max time  |%varavg| %total
---------------------------------------------------------------
Pair    | 0.71592    | 1.9743     | 2.5587     |  37.8 | 72.23
Neigh   | 0          | 0          | 0          |   0.0 |  0.00
Comm    | 0.041825   | 0.44441    | 1.3341     |  56.1 | 16.26
Output  | 0          | 0          | 0          |   0.0 |  0.00
Modify  | 2.8185e-05 | 0.0038669  | 0.0083199  |   2.9 |  0.14
Other   |            | 0.3107     |            |       | 11.37

Nlocal:        2776.45 ave        3947 max           0 min
Histogram: 8 4 4 0 4 12 8 2 26 36
Nghost:        3879.43 ave        5422 max         232 min
Histogram: 8 0 8 0 16 0 8 8 16 40
Neighs:        79213.4 ave      114877 max           0 min
Histogram: 8 4 4 0 10 6 8 8 22 34

Total # of neighbors = 8238189
Ave neighs/atom = 28.530426
Neighbor list builds = 0
Dangerous builds = 0
The dot product: 2.63809116074088e-08
The cos of the angle between the force vector and the displacement vector: 0.00459319443447536
The angle: 89.736828419042
Setting atom values ...
  1 settings made for x
  1 settings made for y
  1 settings made for z
Setting up cg style minimization ...
  Unit style    : metal
  Current step  : 4989
Per MPI rank memory allocation (min/avg/max) = 5.441 | 5.816 | 6.074 Mbytes
Step PotEng KinEng TotEng v_fx v_fy v_fz 
    4989   -1152449.3            0   -1152449.3 0.0068321034 -0.068490377  0.049321824 
    5000   -1152449.3            0   -1152449.3 0.00032354457 -0.0014985621 0.0010344823 
    5202   -1152449.3            0   -1152449.3 -5.6693493e-06 -1.2648106e-05 1.0887171e-05 
Loop time of 2.48919 on 104 procs for 213 steps with 288751 atoms

99.9% CPU use with 104 MPI tasks x 1 OpenMP threads

Minimization stats:
  Stopping criterion = energy tolerance
  Energy initial, next-to-last, final = 
     -1152449.27968801  -1152449.28208608  -1152449.28208608
  Force two-norm initial, final = 0.22082653 7.1637600e-05
  Force max component initial, final = 0.077541727 1.3782172e-05
  Final line search alpha, max atom move = 1.0000000 1.3782172e-05
  Iterations, force evaluations = 213 426

MPI task timing breakdown:
Section |  min time  |  avg time  |  max time  |%varavg| %total
---------------------------------------------------------------
Pair    | 0.64784    | 1.7878     | 2.3171     |  35.9 | 71.82
Neigh   | 0          | 0          | 0          |   0.0 |  0.00
Comm    | 0.041241   | 0.40519    | 1.2196     |  53.2 | 16.28
Output  | 9.9104e-05 | 0.0001054  | 0.00017438 |   0.0 |  0.00
Modify  | 2.6454e-05 | 0.0035035  | 0.0075407  |   2.8 |  0.14
Other   |            | 0.2926     |            |       | 11.75

Nlocal:        2776.45 ave        3946 max           0 min
Histogram: 8 4 4 0 4 12 8 2 26 36
Nghost:        3879.49 ave        5423 max         232 min
Histogram: 8 0 8 0 16 0 8 8 16 40
Neighs:        79213.4 ave      114855 max           0 min
Histogram: 8 4 4 0 10 6 8 8 22 34

Total # of neighbors = 8238189
Ave neighs/atom = 28.530426
Neighbor list builds = 0
Dangerous builds = 0
The dot product: 9.73778989403059e-08
The cos of the angle between the force vector and the displacement vector: 0.00552493397562047
The angle: 89.6834429906161
Setting atom values ...
  1 settings made for x
  1 settings made for y
  1 settings made for z
Setting up cg style minimization ...
  Unit style    : metal
  Current step  : 5202
Per MPI rank memory allocation (min/avg/max) = 5.441 | 5.816 | 6.074 Mbytes
Step PotEng KinEng TotEng v_fx v_fy v_fz 
    5202   -1152449.3            0   -1152449.3 0.0024725795   -0.0663027  0.049477206 
    5397   -1152449.3            0   -1152449.3 3.2891443e-05 -1.6494445e-05 4.0394839e-06 
Loop time of 2.28021 on 104 procs for 195 steps with 288751 atoms

99.9% CPU use with 104 MPI tasks x 1 OpenMP threads

Minimization stats:
  Stopping criterion = energy tolerance
  Energy initial, next-to-last, final = 
     -1152449.25748913  -1152449.25985054  -1152449.25985054
  Force two-norm initial, final = 0.21935441 0.00016767288
  Force max component initial, final = 0.073081758 3.2891443e-05
  Final line search alpha, max atom move = 1.0000000 3.2891443e-05
  Iterations, force evaluations = 195 390

MPI task timing breakdown:
Section |  min time  |  avg time  |  max time  |%varavg| %total
---------------------------------------------------------------
Pair    | 0.59325    | 1.6457     | 2.1316     |  34.6 | 72.17
Neigh   | 0          | 0          | 0          |   0.0 |  0.00
Comm    | 0.039426   | 0.37078    | 1.1058     |  51.2 | 16.26
Output  | 0          | 0          | 0          |   0.0 |  0.00
Modify  | 2.3205e-05 | 0.0032172  | 0.0068805  |   2.7 |  0.14
Other   |            | 0.2605     |            |       | 11.43

Nlocal:        2776.45 ave        3945 max           0 min
Histogram: 8 4 4 0 4 12 8 2 26 36
Nghost:        3879.51 ave        5423 max         232 min
Histogram: 8 0 8 0 16 0 8 8 16 40
Neighs:        79213.4 ave      114829 max           0 min
Histogram: 8 4 4 0 10 6 8 8 22 34

Total # of neighbors = 8238189
Ave neighs/atom = 28.530426
Neighbor list builds = 0
Dangerous builds = 0
The dot product: 1.16053439393867e-07
The cos of the angle between the force vector and the displacement vector: 0.0031351700276201
The angle: 89.8203676950842
Setting atom values ...
  1 settings made for x
  1 settings made for y
  1 settings made for z
Setting up cg style minimization ...
  Unit style    : metal
  Current step  : 5397
Per MPI rank memory allocation (min/avg/max) = 5.441 | 5.816 | 6.074 Mbytes
Step PotEng KinEng TotEng v_fx v_fy v_fz 
    5397   -1152449.2            0   -1152449.2 -0.0025700734  -0.06553753  0.050812283 
    5609   -1152449.2            0   -1152449.2 4.0913163e-06 9.0291574e-06 -7.9587392e-06 
Loop time of 2.46863 on 104 procs for 212 steps with 288751 atoms

99.9% CPU use with 104 MPI tasks x 1 OpenMP threads

Minimization stats:
  Stopping criterion = energy tolerance
  Energy initial, next-to-last, final = 
     -1152449.23168364   -1152449.2340005   -1152449.2340005
  Force two-norm initial, final = 0.21893187 9.7440896e-05
  Force max component initial, final = 0.071446538 2.0534871e-05
  Final line search alpha, max atom move = 1.0000000 2.0534871e-05
  Iterations, force evaluations = 212 424

MPI task timing breakdown:
Section |  min time  |  avg time  |  max time  |%varavg| %total
---------------------------------------------------------------
Pair    | 0.65004    | 1.7787     | 2.3035     |  35.8 | 72.05
Neigh   | 0          | 0          | 0          |   0.0 |  0.00
Comm    | 0.037795   | 0.3993     | 1.2055     |  53.4 | 16.18
Output  | 0          | 0          | 0          |   0.0 |  0.00
Modify  | 2.5376e-05 | 0.0035006  | 0.0077666  |   2.8 |  0.14
Other   |            | 0.2871     |            |       | 11.63

Nlocal:        2776.45 ave        3945 max           0 min
Histogram: 8 4 4 0 4 12 8 2 26 36
Nghost:        3879.55 ave        5423 max         232 min
Histogram: 8 0 8 0 16 0 8 8 16 40
Neighs:        79213.3 ave      114817 max           0 min
Histogram: 8 4 4 0 10 6 8 8 22 34

Total # of neighbors = 8238188
Ave neighs/atom = 28.530422
Neighbor list builds = 0
Dangerous builds = 0
The dot product: -6.77842516036314e-08
The cos of the angle between the force vector and the displacement vector: -0.00533212048799986
The angle: 90.3055094475114
Setting atom values ...
  1 settings made for x
  1 settings made for y
  1 settings made for z
Setting up cg style minimization ...
  Unit style    : metal
  Current step  : 5609
Per MPI rank memory allocation (min/avg/max) = 5.441 | 5.816 | 6.074 Mbytes
Step PotEng KinEng TotEng v_fx v_fy v_fz 
    5609   -1152449.2            0   -1152449.2 -0.0084574083  -0.06746376   0.05443278 
    5818   -1152449.2            0   -1152449.2 4.8828002e-06 1.4641706e-05 -1.2597292e-05 
Loop time of 2.45781 on 104 procs for 209 steps with 288751 atoms

99.9% CPU use with 104 MPI tasks x 1 OpenMP threads

Minimization stats:
  Stopping criterion = energy tolerance
  Energy initial, next-to-last, final = 
     -1152449.20228499  -1152449.20455138  -1152449.20455138
  Force two-norm initial, final = 0.22012147 0.00012003193
  Force max component initial, final = 0.077500684 1.4641706e-05
  Final line search alpha, max atom move = 1.0000000 1.4641706e-05
  Iterations, force evaluations = 209 418

MPI task timing breakdown:
Section |  min time  |  avg time  |  max time  |%varavg| %total
---------------------------------------------------------------
Pair    | 0.63922    | 1.7696     | 2.303      |  35.7 | 72.00
Neigh   | 0          | 0          | 0          |   0.0 |  0.00
Comm    | 0.038094   | 0.40148    | 1.2045     |  53.0 | 16.34
Output  | 0          | 0          | 0          |   0.0 |  0.00
Modify  | 2.5594e-05 | 0.0034516  | 0.0074825  |   2.8 |  0.14
Other   |            | 0.2832     |            |       | 11.52

Nlocal:        2776.45 ave        3945 max           0 min
Histogram: 8 4 4 0 4 12 8 2 26 36
Nghost:        3879.51 ave        5423 max         232 min
Histogram: 8 0 8 0 16 0 8 8 16 40
Neighs:        79213.4 ave      114817 max           0 min
Histogram: 8 4 4 0 10 6 8 8 22 34

Total # of neighbors = 8238189
Ave neighs/atom = 28.530426
Neighbor list builds = 0
Dangerous builds = 0
The dot product: -1.22172228739557e-07
The cos of the angle between the force vector and the displacement vector: -0.00613231999479214
The angle: 90.351358256507
Setting atom values ...
  1 settings made for x
  1 settings made for y
  1 settings made for z
Setting up cg style minimization ...
  Unit style    : metal
  Current step  : 5818
Per MPI rank memory allocation (min/avg/max) = 5.441 | 5.816 | 6.074 Mbytes
Step PotEng KinEng TotEng v_fx v_fy v_fz 
    5818   -1152449.2            0   -1152449.2 -0.015003427  -0.07421749  0.062135455 
    6000   -1152449.2            0   -1152449.2 -4.1576279e-05 -1.9664547e-05 2.6194257e-05 
    6005   -1152449.2            0   -1152449.2 -9.8832625e-06 -3.0060294e-05 2.6151794e-05 
Loop time of 2.17708 on 104 procs for 187 steps with 288751 atoms

99.9% CPU use with 104 MPI tasks x 1 OpenMP threads

Minimization stats:
  Stopping criterion = energy tolerance
  Energy initial, next-to-last, final = 
     -1152449.16944598  -1152449.17169506  -1152449.17169506
  Force two-norm initial, final = 0.2245946 0.00020839949
  Force max component initial, final = 0.084755716 5.6070412e-05
  Final line search alpha, max atom move = 1.0000000 5.6070412e-05
  Iterations, force evaluations = 187 374

MPI task timing breakdown:
Section |  min time  |  avg time  |  max time  |%varavg| %total
---------------------------------------------------------------
Pair    | 0.56917    | 1.5686     | 2.0299     |  33.8 | 72.05
Neigh   | 0          | 0          | 0          |   0.0 |  0.00
Comm    | 0.034362   | 0.35566    | 1.0662     |  49.9 | 16.34
Output  | 0.0001592  | 0.00016216 | 0.00032193 |   0.0 |  0.01
Modify  | 2.2965e-05 | 0.0030778  | 0.0066206  |   2.6 |  0.14
Other   |            | 0.2496     |            |       | 11.47

Nlocal:        2776.45 ave        3945 max           0 min
Histogram: 8 4 4 0 4 12 8 2 26 36
Nghost:        3879.39 ave        5423 max         232 min
Histogram: 8 0 8 0 16 0 8 8 16 40
Neighs:        79213.4 ave      114816 max           0 min
Histogram: 8 4 4 0 10 6 8 8 22 34

Total # of neighbors = 8238194
Ave neighs/atom = 28.530443
Neighbor list builds = 0
Dangerous builds = 0
The dot product: 3.6031831916254e-07
The cos of the angle between the force vector and the displacement vector: 0.00877725045909786
The angle: 89.4970941355015
Setting atom values ...
  1 settings made for x
  1 settings made for y
  1 settings made for z
Setting up cg style minimization ...
  Unit style    : metal
  Current step  : 6005
Per MPI rank memory allocation (min/avg/max) = 5.441 | 5.816 | 6.074 Mbytes
Step PotEng KinEng TotEng v_fx v_fy v_fz 
    6005   -1152449.1            0   -1152449.1 -0.024967147 -0.092002186  0.080096987 
    6259   -1152449.3            0   -1152449.3 -6.461425e-06 4.4905578e-05 -3.4207908e-05 
Loop time of 3.00562 on 104 procs for 254 steps with 288751 atoms

99.9% CPU use with 104 MPI tasks x 1 OpenMP threads

Minimization stats:
  Stopping criterion = energy tolerance
  Energy initial, next-to-last, final = 
     -1152449.13376622  -1152449.32315038  -1152449.32315038
  Force two-norm initial, final = 0.23951984 0.00021355398
  Force max component initial, final = 0.092144411 4.9172887e-05
  Final line search alpha, max atom move = 1.0000000 4.9172887e-05
  Iterations, force evaluations = 254 507

MPI task timing breakdown:
Section |  min time  |  avg time  |  max time  |%varavg| %total
---------------------------------------------------------------
Pair    | 0.77989    | 2.1364     | 2.8029     |  39.1 | 71.08
Neigh   | 3.0457e-05 | 0.0088561  | 0.012788   |   3.9 |  0.29
Comm    | 0.04503    | 0.49172    | 1.4648     |  57.7 | 16.36
Output  | 0          | 0          | 0          |   0.0 |  0.00
Modify  | 3.0976e-05 | 0.0041755  | 0.0090391  |   3.1 |  0.14
Other   |            | 0.3645     |            |       | 12.13

Nlocal:        2776.45 ave        3947 max           0 min
Histogram: 8 4 4 0 4 12 8 2 26 36
Nghost:        3879.39 ave        5423 max         232 min
Histogram: 8 0 8 0 16 0 8 8 16 40
Neighs:        79213.3 ave      114895 max           0 min
Histogram: 8 4 4 0 10 6 8 8 22 34

Total # of neighbors = 8238185
Ave neighs/atom = 28.530412
Neighbor list builds = 3
Dangerous builds = 0
The dot product: -1.47795477000769e-05
The cos of the angle between the force vector and the displacement vector: -0.260114554822663
The angle: 105.076859529047
Setting atom values ...
  1 settings made for x
  1 settings made for y
  1 settings made for z
Setting up cg style minimization ...
  Unit style    : metal
  Current step  : 6259
Per MPI rank memory allocation (min/avg/max) = 5.441 | 5.816 | 6.074 Mbytes
Step PotEng KinEng TotEng v_fx v_fy v_fz 
    6259   -1152449.3            0   -1152449.3 -0.011191161  0.081271454   -0.1146996 
    6444   -1152449.3            0   -1152449.3 -3.2691265e-05 3.5625633e-05 -2.9679418e-05 
Loop time of 2.16748 on 104 procs for 185 steps with 288751 atoms

99.9% CPU use with 104 MPI tasks x 1 OpenMP threads

Minimization stats:
  Stopping criterion = energy tolerance
  Energy initial, next-to-last, final = 
     -1152449.33005775  -1152449.33399104  -1152449.33399104
  Force two-norm initial, final = 0.24464871 0.00022399538
  Force max component initial, final = 0.1146996 4.3792023e-05
  Final line search alpha, max atom move = 1.0000000 4.3792023e-05
  Iterations, force evaluations = 185 370

MPI task timing breakdown:
Section |  min time  |  avg time  |  max time  |%varavg| %total
---------------------------------------------------------------
Pair    | 0.55904    | 1.5544     | 2.0267     |  33.8 | 71.72
Neigh   | 0          | 0          | 0          |   0.0 |  0.00
Comm    | 0.032703   | 0.35501    | 1.0619     |  49.6 | 16.38
Output  | 0          | 0          | 0          |   0.0 |  0.00
Modify  | 2.2487e-05 | 0.0030458  | 0.0065561  |   2.6 |  0.14
Other   |            | 0.255      |            |       | 11.76

Nlocal:        2776.45 ave        3948 max           0 min
Histogram: 8 4 4 0 4 12 8 0 26 38
Nghost:        3879.36 ave        5422 max         232 min
Histogram: 8 0 8 0 16 0 8 8 16 40
Neighs:        79213.3 ave      114934 max           0 min
Histogram: 8 4 4 0 10 6 8 8 22 34

Total # of neighbors = 8238187
Ave neighs/atom = 28.530419
Neighbor list builds = 0
Dangerous builds = 0
The dot product: 6.65896730449207e-07
The cos of the angle between the force vector and the displacement vector: 0.0117371256444952
The angle: 89.3274967956662
Setting atom values ...
  1 settings made for x
  1 settings made for y
  1 settings made for z
Setting up cg style minimization ...
  Unit style    : metal
  Current step  : 6444
Per MPI rank memory allocation (min/avg/max) = 5.441 | 5.816 | 6.074 Mbytes
Step PotEng KinEng TotEng v_fx v_fy v_fz 
    6444   -1152449.3            0   -1152449.3 -0.072524256  0.029596135 0.0080431371 
    6661   -1152449.3            0   -1152449.3 3.6542368e-06 -7.0578732e-07 -1.5348865e-06 
Loop time of 2.5255 on 104 procs for 217 steps with 288751 atoms

99.9% CPU use with 104 MPI tasks x 1 OpenMP threads

Minimization stats:
  Stopping criterion = energy tolerance
  Energy initial, next-to-last, final = 
     -1152449.33738498  -1152449.33985114  -1152449.33985114
  Force two-norm initial, final = 0.21756467 4.8845262e-05
  Force max component initial, final = 0.098475472 8.3831618e-06
  Final line search alpha, max atom move = 1.0000000 8.3831618e-06
  Iterations, force evaluations = 217 434

MPI task timing breakdown:
Section |  min time  |  avg time  |  max time  |%varavg| %total
---------------------------------------------------------------
Pair    | 0.66211    | 1.8281     | 2.3669     |  36.5 | 72.38
Neigh   | 0          | 0          | 0          |   0.0 |  0.00
Comm    | 0.040718   | 0.4124     | 1.2265     |  53.9 | 16.33
Output  | 0          | 0          | 0          |   0.0 |  0.00
Modify  | 2.5969e-05 | 0.0035695  | 0.0076599  |   2.8 |  0.14
Other   |            | 0.2815     |            |       | 11.15

Nlocal:        2776.45 ave        3949 max           0 min
Histogram: 8 4 4 0 4 12 8 0 26 38
Nghost:        3879.36 ave        5422 max         232 min
Histogram: 8 0 8 0 16 0 8 8 16 40
Neighs:        79213.4 ave      114945 max           0 min
Histogram: 8 4 4 0 10 6 8 8 24 32

Total # of neighbors = 8238189
Ave neighs/atom = 28.530426
Neighbor list builds = 0
Dangerous builds = 0
The dot product: -1.9381467060153e-08
The cos of the angle between the force vector and the displacement vector: -0.00481425603049144
The angle: 90.2758376175671
Setting atom values ...
  1 settings made for x
  1 settings made for y
  1 settings made for z
Setting up cg style minimization ...
  Unit style    : metal
  Current step  : 6661
Per MPI rank memory allocation (min/avg/max) = 5.441 | 5.816 | 6.074 Mbytes
Step PotEng KinEng TotEng v_fx v_fy v_fz 
    6661   -1152449.3            0   -1152449.3 -0.068108499  0.028806954 0.0068082129 
    6863   -1152449.3            0   -1152449.3 1.0991115e-05 -2.3534739e-05 2.6027014e-05 
Loop time of 2.39466 on 104 procs for 202 steps with 288751 atoms

99.9% CPU use with 104 MPI tasks x 1 OpenMP threads

Minimization stats:
  Stopping criterion = energy tolerance
  Energy initial, next-to-last, final = 
     -1152449.33988404  -1152449.34236547  -1152449.34236547
  Force two-norm initial, final = 0.21686296 0.00011222021
  Force max component initial, final = 0.10197872 2.6027014e-05
  Final line search alpha, max atom move = 1.0000000 2.6027014e-05
  Iterations, force evaluations = 202 404

MPI task timing breakdown:
Section |  min time  |  avg time  |  max time  |%varavg| %total
---------------------------------------------------------------
Pair    | 0.61899    | 1.6988     | 2.2018     |  35.0 | 70.94
Neigh   | 0          | 0          | 0          |   0.0 |  0.00
Comm    | 0.036968   | 0.38581    | 1.162      |  52.1 | 16.11
Output  | 0          | 0          | 0          |   0.0 |  0.00
Modify  | 2.4667e-05 | 0.0033229  | 0.0071301  |   2.7 |  0.14
Other   |            | 0.3067     |            |       | 12.81

Nlocal:        2776.45 ave        3949 max           0 min
Histogram: 8 4 4 0 4 12 8 0 26 38
Nghost:        3879.43 ave        5422 max         232 min
Histogram: 8 0 8 0 16 0 8 8 16 40
Neighs:        79213.4 ave      114938 max           0 min
Histogram: 8 4 4 0 10 6 8 8 22 34

Total # of neighbors = 8238189
Ave neighs/atom = 28.530426
Neighbor list builds = 0
Dangerous builds = 0
The dot product: -9.26916457352492e-08
The cos of the angle between the force vector and the displacement vector: -0.00252079276248043
The angle: 90.1444309392794
Setting atom values ...
  1 settings made for x
  1 settings made for y
  1 settings made for z
Setting up cg style minimization ...
  Unit style    : metal
  Current step  : 6863
Per MPI rank memory allocation (min/avg/max) = 5.441 | 5.816 | 6.074 Mbytes
Step PotEng KinEng TotEng v_fx v_fy v_fz 
    6863   -1152449.3            0   -1152449.3 -0.067620258  0.026640195  0.010168047 
    7000   -1152449.3            0   -1152449.3 4.0164118e-05 -7.0780917e-06 -1.8564445e-05 
    7054   -1152449.3            0   -1152449.3 1.2032959e-05 9.8457041e-06 -2.2699886e-05 
Loop time of 2.22782 on 104 procs for 191 steps with 288751 atoms

99.9% CPU use with 104 MPI tasks x 1 OpenMP threads

Minimization stats:
  Stopping criterion = energy tolerance
  Energy initial, next-to-last, final = 
     -1152449.33910637  -1152449.34160225  -1152449.34160225
  Force two-norm initial, final = 0.21711685 0.00014671764
  Force max component initial, final = 0.10544296 2.9392391e-05
  Final line search alpha, max atom move = 1.0000000 2.9392391e-05
  Iterations, force evaluations = 191 382

MPI task timing breakdown:
Section |  min time  |  avg time  |  max time  |%varavg| %total
---------------------------------------------------------------
Pair    | 0.58199    | 1.6093     | 2.0851     |  34.1 | 72.24
Neigh   | 0          | 0          | 0          |   0.0 |  0.00
Comm    | 0.034889   | 0.36291    | 1.0886     |  50.7 | 16.29
Output  | 0.00013298 | 0.00013614 | 0.00028826 |   0.0 |  0.01
Modify  | 2.3199e-05 | 0.0031459  | 0.006746   |   2.6 |  0.14
Other   |            | 0.2523     |            |       | 11.33

Nlocal:        2776.45 ave        3947 max           0 min
Histogram: 8 4 4 0 4 12 8 0 28 36
Nghost:        3879.47 ave        5423 max         232 min
Histogram: 8 0 8 0 16 0 8 8 16 40
Neighs:        79213.4 ave      114938 max           0 min
Histogram: 8 4 4 0 10 6 8 8 22 34

Total # of neighbors = 8238195
Ave neighs/atom = 28.530447
Neighbor list builds = 0
Dangerous builds = 0
The dot product: -2.86841414404396e-08
The cos of the angle between the force vector and the displacement vector: -0.00104253266797588
The angle: 90.0597327326997
Setting atom values ...
  1 settings made for x
  1 settings made for y
  1 settings made for z
Setting up cg style minimization ...
  Unit style    : metal
  Current step  : 7054
Per MPI rank memory allocation (min/avg/max) = 5.441 | 5.816 | 6.074 Mbytes
Step PotEng KinEng TotEng v_fx v_fy v_fz 
    7054   -1152449.3            0   -1152449.3 -0.070084354  0.027984082  0.010615377 
    7306   -1152449.3            0   -1152449.3 1.0534119e-06 -2.1484027e-06 2.3089856e-06 
Loop time of 2.91933 on 104 procs for 252 steps with 288751 atoms

99.9% CPU use with 104 MPI tasks x 1 OpenMP threads

Minimization stats:
  Stopping criterion = energy tolerance
  Energy initial, next-to-last, final = 
     -1152449.33531377  -1152449.33783859  -1152449.33783859
  Force two-norm initial, final = 0.21812135 1.0002697e-05
  Force max component initial, final = 0.10871129 2.3089856e-06
  Final line search alpha, max atom move = 1.0000000 2.3089856e-06
  Iterations, force evaluations = 252 504

MPI task timing breakdown:
Section |  min time  |  avg time  |  max time  |%varavg| %total
---------------------------------------------------------------
Pair    | 0.76423    | 2.1085     | 2.738      |  39.1 | 72.23
Neigh   | 0          | 0          | 0          |   0.0 |  0.00
Comm    | 0.04783    | 0.47445    | 1.42       |  57.9 | 16.25
Output  | 0          | 0          | 0          |   0.0 |  0.00
Modify  | 2.9998e-05 | 0.0041523  | 0.0089168  |   3.0 |  0.14
Other   |            | 0.3322     |            |       | 11.38

Nlocal:        2776.45 ave        3947 max           0 min
Histogram: 8 4 4 0 4 12 8 0 28 36
Nghost:        3879.42 ave        5423 max         232 min
Histogram: 8 0 8 0 16 0 8 8 16 40
Neighs:        79213.4 ave      114927 max           0 min
Histogram: 8 4 4 0 10 6 8 8 22 34

Total # of neighbors = 8238192
Ave neighs/atom = 28.530436
Neighbor list builds = 0
Dangerous builds = 0
The dot product: -9.95256786889476e-09
The cos of the angle between the force vector and the displacement vector: -0.00299310454000689
The angle: 90.1714925138419
Setting atom values ...
  1 settings made for x
  1 settings made for y
  1 settings made for z
Setting up cg style minimization ...
  Unit style    : metal
  Current step  : 7306
Per MPI rank memory allocation (min/avg/max) = 5.441 | 5.816 | 6.074 Mbytes
Step PotEng KinEng TotEng v_fx v_fy v_fz 
    7306   -1152449.3            0   -1152449.3 -0.078729741  0.036365371 0.0057127655 
    7552   -1152449.3            0   -1152449.3 3.7075868e-06 1.3263483e-05 -2.1596632e-05 
Loop time of 2.94163 on 104 procs for 246 steps with 288751 atoms

99.9% CPU use with 104 MPI tasks x 1 OpenMP threads

Minimization stats:
  Stopping criterion = energy tolerance
  Energy initial, next-to-last, final = 
     -1152449.32932177  -1152449.34171144  -1152449.34171144
  Force two-norm initial, final = 0.2253574 0.0001854802
  Force max component initial, final = 0.11171032 3.7086478e-05
  Final line search alpha, max atom move = 1.0000000 3.7086478e-05
  Iterations, force evaluations = 246 492

MPI task timing breakdown:
Section |  min time  |  avg time  |  max time  |%varavg| %total
---------------------------------------------------------------
Pair    | 0.75704    | 2.088      | 2.7335     |  38.9 | 70.98
Neigh   | 1.0254e-05 | 0.0029584  | 0.0043108  |   2.3 |  0.10
Comm    | 0.044894   | 0.4769     | 1.4328     |  57.2 | 16.21
Output  | 0          | 0          | 0          |   0.0 |  0.00
Modify  | 3.0519e-05 | 0.0040507  | 0.0087162  |   3.0 |  0.14
Other   |            | 0.3698     |            |       | 12.57

Nlocal:        2776.45 ave        3948 max           0 min
Histogram: 8 4 4 0 4 12 8 0 28 36
Nghost:        3879.45 ave        5423 max         232 min
Histogram: 8 0 8 0 16 0 8 8 16 40
Neighs:        79213.5 ave      114909 max           0 min
Histogram: 8 4 4 0 10 6 8 8 22 34

Total # of neighbors = 8238202
Ave neighs/atom = 28.530471
Neighbor list builds = 1
Dangerous builds = 0
The dot product: 7.9846040331408e-07
The cos of the angle between the force vector and the displacement vector: 0.0311727236613447
The angle: 88.2136451068857
Setting atom values ...
  1 settings made for x
  1 settings made for y
  1 settings made for z
Setting up cg style minimization ...
  Unit style    : metal
  Current step  : 7552
Per MPI rank memory allocation (min/avg/max) = 5.441 | 5.816 | 6.074 Mbytes
Step PotEng KinEng TotEng v_fx v_fy v_fz 
    7552   -1152449.4            0   -1152449.4  -0.03679784 -0.0041233172   0.03525509 
    7669   -1152449.4            0   -1152449.4 2.1775076e-05 1.4882543e-05 -3.6926436e-05 
Loop time of 1.37151 on 104 procs for 117 steps with 288751 atoms

99.9% CPU use with 104 MPI tasks x 1 OpenMP threads

Minimization stats:
  Stopping criterion = energy tolerance
  Energy initial, next-to-last, final = 
      -1152449.3544941  -1152449.35737145  -1152449.35737145
  Force two-norm initial, final = 0.22867993 0.00022552927
  Force max component initial, final = 0.10564291 3.6926436e-05
  Final line search alpha, max atom move = 1.0000000 3.6926436e-05
  Iterations, force evaluations = 117 234

MPI task timing breakdown:
Section |  min time  |  avg time  |  max time  |%varavg| %total
---------------------------------------------------------------
Pair    | 0.35957    | 0.984      | 1.2794     |  26.7 | 71.75
Neigh   | 0          | 0          | 0          |   0.0 |  0.00
Comm    | 0.021069   | 0.2239     | 0.66758    |  39.2 | 16.33
Output  | 0          | 0          | 0          |   0.0 |  0.00
Modify  | 1.4267e-05 | 0.0019335  | 0.0041344  |   2.1 |  0.14
Other   |            | 0.1617     |            |       | 11.79

Nlocal:        2776.45 ave        3951 max           0 min
Histogram: 8 4 4 0 4 12 8 0 30 34
Nghost:        3879.39 ave        5422 max         232 min
Histogram: 8 0 8 0 16 0 8 8 16 40
Neighs:        79213.5 ave      115026 max           0 min
Histogram: 8 4 4 0 10 6 8 8 24 32

Total # of neighbors = 8238204
Ave neighs/atom = 28.530478
Neighbor list builds = 0
Dangerous builds = 0
The dot product: -8.67681875984615e-08
The cos of the angle between the force vector and the displacement vector: -0.00191210025695379
The angle: 90.1095553414875
Setting atom values ...
  1 settings made for x
  1 settings made for y
  1 settings made for z
Setting up cg style minimization ...
  Unit style    : metal
  Current step  : 7669
Per MPI rank memory allocation (min/avg/max) = 5.441 | 5.816 | 6.074 Mbytes
Step PotEng KinEng TotEng v_fx v_fy v_fz 
    7669   -1152449.4            0   -1152449.4 -0.065774334  0.019049806  0.029010385 
    7805   -1152449.4            0   -1152449.4 3.107558e-05 -2.5964754e-05 8.2958871e-06 
Loop time of 1.60764 on 104 procs for 136 steps with 288751 atoms

99.9% CPU use with 104 MPI tasks x 1 OpenMP threads

Minimization stats:
  Stopping criterion = energy tolerance
  Energy initial, next-to-last, final = 
     -1152449.36881094  -1152449.37186219  -1152449.37186219
  Force two-norm initial, final = 0.23777376 0.00019823183
  Force max component initial, final = 0.10795492 3.1075580e-05
  Final line search alpha, max atom move = 1.0000000 3.1075580e-05
  Iterations, force evaluations = 136 272

MPI task timing breakdown:
Section |  min time  |  avg time  |  max time  |%varavg| %total
---------------------------------------------------------------
Pair    | 0.41821    | 1.1529     | 1.4977     |  28.7 | 71.71
Neigh   | 0          | 0          | 0          |   0.0 |  0.00
Comm    | 0.025081   | 0.26232    | 0.78573    |  42.5 | 16.32
Output  | 0          | 0          | 0          |   0.0 |  0.00
Modify  | 1.6375e-05 | 0.0022458  | 0.0048635  |   2.2 |  0.14
Other   |            | 0.1902     |            |       | 11.83

Nlocal:        2776.45 ave        3952 max           0 min
Histogram: 8 4 4 0 4 12 8 0 30 34
Nghost:        3879.39 ave        5422 max         232 min
Histogram: 8 0 8 0 16 0 8 8 16 40
Neighs:        79213.5 ave      115058 max           0 min
Histogram: 8 4 4 0 10 6 8 8 24 32

Total # of neighbors = 8238206
Ave neighs/atom = 28.530485
Neighbor list builds = 0
Dangerous builds = 0
The dot product: -3.69627489682616e-07
The cos of the angle between the force vector and the displacement vector: -0.00894197924821033
The angle: 90.512344499329
Setting atom values ...
  1 settings made for x
  1 settings made for y
  1 settings made for z
Setting up cg style minimization ...
  Unit style    : metal
  Current step  : 7805
Per MPI rank memory allocation (min/avg/max) = 5.441 | 5.816 | 6.074 Mbytes
Step PotEng KinEng TotEng v_fx v_fy v_fz 
    7805   -1152449.4            0   -1152449.4 -0.063357994  0.016998352  0.030786613 
    7894   -1152449.4            0   -1152449.4 1.2056568e-05 -3.1431214e-05 3.0482658e-05 
Loop time of 1.04739 on 104 procs for 89 steps with 288751 atoms

99.9% CPU use with 104 MPI tasks x 1 OpenMP threads

Minimization stats:
  Stopping criterion = energy tolerance
  Energy initial, next-to-last, final = 
     -1152449.38258465   -1152449.3859309   -1152449.3859309
  Force two-norm initial, final = 0.24230783 0.00016926984
  Force max component initial, final = 0.10811812 4.6330320e-05
  Final line search alpha, max atom move = 1.0000000 4.6330320e-05
  Iterations, force evaluations = 89 178

MPI task timing breakdown:
Section |  min time  |  avg time  |  max time  |%varavg| %total
---------------------------------------------------------------
Pair    | 0.27487    | 0.75023    | 0.97512    |  23.3 | 71.63
Neigh   | 0          | 0          | 0          |   0.0 |  0.00
Comm    | 0.015021   | 0.17011    | 0.50697    |  34.3 | 16.24
Output  | 0          | 0          | 0          |   0.0 |  0.00
Modify  | 1.0842e-05 | 0.0014707  | 0.0031702  |   1.8 |  0.14
Other   |            | 0.1256     |            |       | 11.99

Nlocal:        2776.45 ave        3952 max           0 min
Histogram: 8 4 4 0 4 12 8 0 30 34
Nghost:        3879.39 ave        5422 max         232 min
Histogram: 8 0 8 0 16 0 8 8 16 40
Neighs:        79213.5 ave      115059 max           0 min
Histogram: 8 4 4 0 10 6 8 8 24 32

Total # of neighbors = 8238207
Ave neighs/atom = 28.530488
Neighbor list builds = 0
Dangerous builds = 0
The dot product: -3.14408025142293e-07
The cos of the angle between the force vector and the displacement vector: -0.00692307964632974
The angle: 90.3966664136502
Setting atom values ...
  1 settings made for x
  1 settings made for y
  1 settings made for z
Setting up cg style minimization ...
  Unit style    : metal
  Current step  : 7894
Per MPI rank memory allocation (min/avg/max) = 5.441 | 5.816 | 6.074 Mbytes
Step PotEng KinEng TotEng v_fx v_fy v_fz 
    7894   -1152449.4            0   -1152449.4 -0.064138151  0.018104973  0.031352234 
    8000   -1152449.4            0   -1152449.4 4.4486631e-05 -4.9880404e-05 2.5926771e-05 
    8080   -1152449.4            0   -1152449.4 3.4093041e-06 -9.628958e-06 9.4034151e-06 
Loop time of 2.17646 on 104 procs for 186 steps with 288751 atoms

99.9% CPU use with 104 MPI tasks x 1 OpenMP threads

Minimization stats:
  Stopping criterion = energy tolerance
  Energy initial, next-to-last, final = 
     -1152449.39715217  -1152449.40110574  -1152449.40110574
  Force two-norm initial, final = 0.24964081 0.00010033999
  Force max component initial, final = 0.10745653 2.1409840e-05
  Final line search alpha, max atom move = 1.0000000 2.1409840e-05
  Iterations, force evaluations = 186 372

MPI task timing breakdown:
Section |  min time  |  avg time  |  max time  |%varavg| %total
---------------------------------------------------------------
Pair    | 0.56362    | 1.5651     | 2.0391     |  33.7 | 71.91
Neigh   | 0          | 0          | 0          |   0.0 |  0.00
Comm    | 0.033309   | 0.35521    | 1.0704     |  49.9 | 16.32
Output  | 0.00015106 | 0.00015771 | 0.00032628 |   0.0 |  0.01
Modify  | 2.2239e-05 | 0.0030638  | 0.0065806  |   2.6 |  0.14
Other   |            | 0.253      |            |       | 11.62

Nlocal:        2776.45 ave        3952 max           0 min
Histogram: 8 4 4 0 4 12 8 0 30 34
Nghost:        3879.39 ave        5422 max         232 min
Histogram: 8 0 8 0 16 0 8 8 16 40
Neighs:        79213.5 ave      115047 max           0 min
Histogram: 8 4 4 0 10 6 8 8 24 32

Total # of neighbors = 8238206
Ave neighs/atom = 28.530485
Neighbor list builds = 0
Dangerous builds = 0
The dot product: -1.1537713032825e-07
[...]
Histogram: 8 4 4 0 4 12 8 2 28 34
Nghost:        3879.05 ave        5424 max         232 min
Histogram: 8 0 8 0 16 0 8 8 16 40
Neighs:        79213.5 ave      115434 max           0 min
Histogram: 8 4 4 0 10 6 8 8 24 32

Total # of neighbors = 8238206
Ave neighs/atom = 28.530485
Neighbor list builds = 0
Dangerous builds = 0
The dot product: 3.5856874364884e-08
The cos of the angle between the force vector and the displacement vector: 0.00190500617566474
The angle: 89.89085112017
Setting atom values ...
  1 settings made for x
  1 settings made for y
  1 settings made for z
Setting up cg style minimization ...
  Unit style    : metal
  Current step  : 8607
Per MPI rank memory allocation (min/avg/max) = 5.441 | 5.816 | 6.074 Mbytes
Step PotEng KinEng TotEng v_fx v_fy v_fz 
    8607   -1152449.4            0   -1152449.4  0.055062327  0.017859009 -0.051888932 
    8855   -1152449.4            0   -1152449.4 -1.4188821e-06 6.8148411e-07 -1.8196224e-08 
Loop time of 2.94391 on 104 procs for 248 steps with 288751 atoms

99.9% CPU use with 104 MPI tasks x 1 OpenMP threads

Minimization stats:
  Stopping criterion = energy tolerance
  Energy initial, next-to-last, final = 
     -1152449.41348722  -1152449.41648752  -1152449.41648752
  Force two-norm initial, final = 0.25522228 1.5815418e-05
  Force max component initial, final = 0.11903606 3.2376599e-06
  Final line search alpha, max atom move = 1.0000000 3.2376599e-06
  Iterations, force evaluations = 248 496

MPI task timing breakdown:
Section |  min time  |  avg time  |  max time  |%varavg| %total
---------------------------------------------------------------
Pair    | 0.75083    | 2.0976     | 2.7846     |  39.3 | 71.25
Neigh   | 0          | 0          | 0          |   0.0 |  0.00
Comm    | 0.049298   | 0.48748    | 1.4372     |  56.6 | 16.56
Output  | 0          | 0          | 0          |   0.0 |  0.00
Modify  | 2.9876e-05 | 0.0040924  | 0.008703   |   3.0 |  0.14
Other   |            | 0.3548     |            |       | 12.05

Nlocal:        2776.45 ave        3960 max           0 min
Histogram: 8 4 4 0 4 12 8 3 27 34
Nghost:        3879.07 ave        5424 max         232 min
Histogram: 8 0 8 0 16 0 8 8 16 40
Neighs:        79213.5 ave      115434 max           0 min
Histogram: 8 4 4 0 10 6 8 8 24 32

Total # of neighbors = 8238207
Ave neighs/atom = 28.530488
Neighbor list builds = 0
Dangerous builds = 0
The dot product: -1.95316491156554e-09
The cos of the angle between the force vector and the displacement vector: -0.00124076686153124
The angle: 90.0710907227662
Setting atom values ...
  1 settings made for x
  1 settings made for y
  1 settings made for z
Setting up cg style minimization ...
  Unit style    : metal
  Current step  : 8855
Per MPI rank memory allocation (min/avg/max) = 5.441 | 5.816 | 6.074 Mbytes
Step PotEng KinEng TotEng v_fx v_fy v_fz 
    8855   -1152449.4            0   -1152449.4  0.071975004 0.0024907112 -0.043459764 
    9000   -1152449.4            0   -1152449.4 -2.2513625e-05 -6.816617e-06 2.0797892e-05 
    9008   -1152449.4            0   -1152449.4 -2.1775973e-05 1.1105857e-06 1.0924475e-05 
Loop time of 1.80679 on 104 procs for 153 steps with 288751 atoms

99.9% CPU use with 104 MPI tasks x 1 OpenMP threads

Minimization stats:
  Stopping criterion = energy tolerance
  Energy initial, next-to-last, final = 
     -1152449.39694443  -1152449.40014232  -1152449.40014232
  Force two-norm initial, final = 0.25674649 0.00017791012
  Force max component initial, final = 0.11956593 3.5343459e-05
  Final line search alpha, max atom move = 1.0000000 3.5343459e-05
  Iterations, force evaluations = 153 306

MPI task timing breakdown:
Section |  min time  |  avg time  |  max time  |%varavg| %total
---------------------------------------------------------------
Pair    | 0.46267    | 1.2895     | 1.7001     |  30.7 | 71.37
Neigh   | 0          | 0          | 0          |   0.0 |  0.00
Comm    | 0.030984   | 0.2955     | 0.86773    |  44.2 | 16.36
Output  | 0.00014538 | 0.0001513  | 0.00032464 |   0.0 |  0.01
Modify  | 1.994e-05  | 0.0025264  | 0.005379   |   2.4 |  0.14
Other   |            | 0.2191     |            |       | 12.13

Nlocal:        2776.45 ave        3960 max           0 min
Histogram: 8 4 4 0 4 12 8 4 26 34
Nghost:        3879.07 ave        5424 max         232 min
Histogram: 8 0 8 0 16 0 8 8 16 40
Neighs:        79213.5 ave      115438 max           0 min
Histogram: 8 4 4 0 10 6 8 8 24 32

Total # of neighbors = 8238209
Ave neighs/atom = 28.530495
Neighbor list builds = 0
Dangerous builds = 0
The dot product: -1.6895241454763e-07
The cos of the angle between the force vector and the displacement vector: -0.00692770952607287
The angle: 90.3969316925805
Setting atom values ...
  1 settings made for x
  1 settings made for y
  1 settings made for z
Setting up cg style minimization ...
  Unit style    : metal
  Current step  : 9008
Per MPI rank memory allocation (min/avg/max) = 5.441 | 5.816 | 6.074 Mbytes
Step PotEng KinEng TotEng v_fx v_fy v_fz 
    9008   -1152449.4            0   -1152449.4  0.089807208 -0.013821888 -0.035191531 
    9210   -1152449.4            0   -1152449.4 6.5220794e-06 7.7054882e-06 -1.2939531e-05 
Loop time of 2.39872 on 104 procs for 202 steps with 288751 atoms

99.9% CPU use with 104 MPI tasks x 1 OpenMP threads

Minimization stats:
  Stopping criterion = energy tolerance
  Energy initial, next-to-last, final = 
     -1152449.38009976  -1152449.38471882  -1152449.38471882
  Force two-norm initial, final = 0.26457146 8.1385551e-05
  Force max component initial, final = 0.11738855 1.2939531e-05
  Final line search alpha, max atom move = 1.0000000 1.2939531e-05
  Iterations, force evaluations = 202 404

MPI task timing breakdown:
Section |  min time  |  avg time  |  max time  |%varavg| %total
---------------------------------------------------------------
Pair    | 0.60934    | 1.7051     | 2.2572     |  35.4 | 71.09
Neigh   | 0          | 0          | 0          |   0.0 |  0.00
Comm    | 0.038983   | 0.39327    | 1.1566     |  51.0 | 16.39
Output  | 0          | 0          | 0          |   0.0 |  0.00
Modify  | 2.4486e-05 | 0.0033264  | 0.0070919  |   2.7 |  0.14
Other   |            | 0.297      |            |       | 12.38

Nlocal:        2776.45 ave        3960 max           0 min
Histogram: 8 4 4 0 4 12 8 4 26 34
Nghost:        3879.11 ave        5424 max         232 min
Histogram: 8 0 8 0 16 0 8 8 16 40
Neighs:        79213.6 ave      115438 max           0 min
Histogram: 8 4 4 0 10 6 8 8 24 32

Total # of neighbors = 8238210
Ave neighs/atom = 28.530499
Neighbor list builds = 0
Dangerous builds = 0
The dot product: 4.94611077957982e-08
The cos of the angle between the force vector and the displacement vector: 0.00301377313098066
The angle: 89.8273232577852
Setting atom values ...
  1 settings made for x
  1 settings made for y
  1 settings made for z
Setting up cg style minimization ...
  Unit style    : metal
  Current step  : 9210
Per MPI rank memory allocation (min/avg/max) = 5.441 | 5.816 | 6.074 Mbytes
Step PotEng KinEng TotEng v_fx v_fy v_fz 
    9210   -1152449.4            0   -1152449.4  0.089490935 -0.015613888 -0.035391301 
    9321   -1152449.4            0   -1152449.4 9.3159531e-06 -2.1561707e-05 1.9856623e-05 
Loop time of 1.3152 on 104 procs for 111 steps with 288751 atoms

99.9% CPU use with 104 MPI tasks x 1 OpenMP threads

Minimization stats:
  Stopping criterion = energy tolerance
  Energy initial, next-to-last, final = 
     -1152449.36627799  -1152449.36989275  -1152449.36989275
  Force two-norm initial, final = 0.25545791 0.00013337433
  Force max component initial, final = 0.11046321 3.0794363e-05
  Final line search alpha, max atom move = 1.0000000 3.0794363e-05
  Iterations, force evaluations = 111 222

MPI task timing breakdown:
Section |  min time  |  avg time  |  max time  |%varavg| %total
---------------------------------------------------------------
Pair    | 0.33514    | 0.93778    | 1.2433     |  26.3 | 71.30
Neigh   | 0          | 0          | 0          |   0.0 |  0.00
Comm    | 0.021277   | 0.21527    | 0.63472    |  37.8 | 16.37
Output  | 0          | 0          | 0          |   0.0 |  0.00
Modify  | 1.3569e-05 | 0.0018354  | 0.0039509  |   2.0 |  0.14
Other   |            | 0.1603     |            |       | 12.19

Nlocal:        2776.45 ave        3960 max           0 min
Histogram: 8 4 4 0 4 12 8 4 26 34
Nghost:        3879.07 ave        5424 max         232 min
Histogram: 8 0 8 0 16 0 8 8 16 40
Neighs:        79213.5 ave      115434 max           0 min
Histogram: 8 4 4 0 10 6 8 8 24 32

Total # of neighbors = 8238206
Ave neighs/atom = 28.530485
Neighbor list builds = 0
Dangerous builds = 0
The dot product: 1.73574387799244e-07
The cos of the angle between the force vector and the displacement vector: 0.0056434508308753
The angle: 89.6766523691276
Setting atom values ...
  1 settings made for x
  1 settings made for y
  1 settings made for z
Setting up cg style minimization ...
  Unit style    : metal
  Current step  : 9321
Per MPI rank memory allocation (min/avg/max) = 5.441 | 5.816 | 6.074 Mbytes
Step PotEng KinEng TotEng v_fx v_fy v_fz 
    9321   -1152449.4            0   -1152449.4  0.083922148 -0.014969716 -0.034356192 
    9468   -1152449.4            0   -1152449.4 -1.8012199e-06 -9.7401883e-06 1.2559322e-05 
Loop time of 1.74098 on 104 procs for 147 steps with 288751 atoms

99.9% CPU use with 104 MPI tasks x 1 OpenMP threads

Minimization stats:
  Stopping criterion = energy tolerance
  Energy initial, next-to-last, final = 
     -1152449.35094066  -1152449.35422431  -1152449.35422431
  Force two-norm initial, final = 0.24740451 0.00017072398
  Force max component initial, final = 0.10553891 1.2559322e-05
  Final line search alpha, max atom move = 1.0000000 1.2559322e-05
  Iterations, force evaluations = 147 294

MPI task timing breakdown:
Section |  min time  |  avg time  |  max time  |%varavg| %total
---------------------------------------------------------------
Pair    | 0.44423    | 1.2436     | 1.6451     |  30.3 | 71.43
Neigh   | 0          | 0          | 0          |   0.0 |  0.00
Comm    | 0.02695    | 0.28688    | 0.84325    |  43.4 | 16.48
Output  | 0          | 0          | 0          |   0.0 |  0.00
Modify  | 1.7857e-05 | 0.0024217  | 0.0051633  |   2.3 |  0.14
Other   |            | 0.2081     |            |       | 11.95

Nlocal:        2776.45 ave        3960 max           0 min
Histogram: 8 4 4 0 4 12 8 4 26 34
Nghost:        3879.07 ave        5424 max         232 min
Histogram: 8 0 8 0 16 0 8 8 16 40
Neighs:        79213.5 ave      115434 max           0 min
Histogram: 8 4 4 0 10 6 8 8 24 32

Total # of neighbors = 8238206
Ave neighs/atom = 28.530485
Neighbor list builds = 0
Dangerous builds = 0
The dot product: 8.2287374891748e-09
The cos of the angle between the force vector and the displacement vector: 0.000514444591934772
The angle: 89.9705244947887
Setting atom values ...
  1 settings made for x
  1 settings made for y
  1 settings made for z
Setting up cg style minimization ...
  Unit style    : metal
  Current step  : 9468
Per MPI rank memory allocation (min/avg/max) = 5.441 | 5.816 | 6.074 Mbytes
Step PotEng KinEng TotEng v_fx v_fy v_fz 
    9468   -1152449.3            0   -1152449.3  0.089048704 -0.024570702 -0.027578612 
    9709   -1152449.3            0   -1152449.3 -4.2557913e-06 -5.765759e-05 7.0210329e-05 
Loop time of 2.84341 on 104 procs for 241 steps with 288751 atoms

99.9% CPU use with 104 MPI tasks x 1 OpenMP threads

Minimization stats:
  Stopping criterion = energy tolerance
  Energy initial, next-to-last, final = 
      -1152449.3346019  -1152449.34532327  -1152449.34532327
  Force two-norm initial, final = 0.24802916 0.00025263916
  Force max component initial, final = 0.10353798 7.0210329e-05
  Final line search alpha, max atom move = 1.0000000 7.0210329e-05
  Iterations, force evaluations = 241 482

MPI task timing breakdown:
Section |  min time  |  avg time  |  max time  |%varavg| %total
---------------------------------------------------------------
Pair    | 0.73188    | 2.0342     | 2.6741     |  38.5 | 71.54
Neigh   | 1.0302e-05 | 0.0029486  | 0.0042991  |   2.2 |  0.10
Comm    | 0.046523   | 0.46388    | 1.3666     |  55.7 | 16.31
Output  | 0          | 0          | 0          |   0.0 |  0.00
Modify  | 2.9022e-05 | 0.0039748  | 0.0084213  |   3.0 |  0.14
Other   |            | 0.3384     |            |       | 11.90

Nlocal:        2776.45 ave        3961 max           0 min
Histogram: 8 4 4 0 6 10 8 4 26 34
Nghost:        3879.11 ave        5424 max         232 min
Histogram: 8 0 8 0 16 0 8 8 16 40
Neighs:        79213.3 ave      115469 max           0 min
Histogram: 8 4 4 0 10 6 8 8 24 32

Total # of neighbors = 8238186
Ave neighs/atom = 28.530415
Neighbor list builds = 1
Dangerous builds = 0
The dot product: 1.71711318250788e-06
The cos of the angle between the force vector and the displacement vector: 0.0188796382236407
The angle: 88.9182121390161
Setting atom values ...
  1 settings made for x
  1 settings made for y
  1 settings made for z
Setting up cg style minimization ...
  Unit style    : metal
  Current step  : 9709
Per MPI rank memory allocation (min/avg/max) = 5.441 | 5.816 | 6.074 Mbytes
Step PotEng KinEng TotEng v_fx v_fy v_fz 
    9709   -1152449.3            0   -1152449.3   0.06245649 -0.013915334 -0.027773666 
    9892   -1152449.3            0   -1152449.3 1.0055919e-05 -2.1675019e-05 1.7242715e-05 
Loop time of 2.18572 on 104 procs for 183 steps with 288751 atoms

99.9% CPU use with 104 MPI tasks x 1 OpenMP threads

Minimization stats:
  Stopping criterion = energy tolerance
  Energy initial, next-to-last, final = 
     -1152449.34731723  -1152449.34980766  -1152449.34980766
  Force two-norm initial, final = 0.21300987 0.00014182852
  Force max component initial, final = 0.10338815 3.1831394e-05
  Final line search alpha, max atom move = 1.0000000 3.1831394e-05
  Iterations, force evaluations = 183 366

MPI task timing breakdown:
Section |  min time  |  avg time  |  max time  |%varavg| %total
---------------------------------------------------------------
Pair    | 0.56029    | 1.5504     | 2.0611     |  33.6 | 70.93
Neigh   | 0          | 0          | 0          |   0.0 |  0.00
Comm    | 0.033371   | 0.36173    | 1.0665     |  48.2 | 16.55
Output  | 0          | 0          | 0          |   0.0 |  0.00
Modify  | 2.2215e-05 | 0.0030282  | 0.0064555  |   2.6 |  0.14
Other   |            | 0.2705     |            |       | 12.38

Nlocal:        2776.45 ave        3960 max           0 min
Histogram: 8 4 4 0 4 12 8 2 28 34
Nghost:        3879.01 ave        5424 max         232 min
Histogram: 8 0 8 0 16 0 8 8 16 40
Neighs:        79213.4 ave      115422 max           0 min
Histogram: 8 4 4 0 10 6 8 8 24 32

Total # of neighbors = 8238194
Ave neighs/atom = 28.530443
Neighbor list builds = 0
Dangerous builds = 0
The dot product: 2.32091449542201e-08
The cos of the angle between the force vector and the displacement vector: 0.000787661187027093
The angle: 89.9548703336304
Setting atom values ...
  1 settings made for x
  1 settings made for y
  1 settings made for z
Setting up cg style minimization ...
  Unit style    : metal
  Current step  : 9892
Per MPI rank memory allocation (min/avg/max) = 5.441 | 5.816 | 6.074 Mbytes
Step PotEng KinEng TotEng v_fx v_fy v_fz 
    9892   -1152449.3            0   -1152449.3  0.063834591  -0.01513481 -0.027632514 
   10000   -1152449.4            0   -1152449.4 -0.00010408126 0.00023521194 -0.0001902163 
   10145   -1152449.4            0   -1152449.4 1.4866044e-07 -1.1134469e-06 1.1405267e-06 
Loop time of 3.02883 on 104 procs for 253 steps with 288751 atoms

99.9% CPU use with 104 MPI tasks x 1 OpenMP threads

Minimization stats:
  Stopping criterion = energy tolerance
  Energy initial, next-to-last, final = 
     -1152449.34913115  -1152449.35156638  -1152449.35156638
  Force two-norm initial, final = 0.21268629 9.3420753e-06
  Force max component initial, final = 0.099802685 1.3945925e-06
  Final line search alpha, max atom move = 1.0000000 1.3945925e-06
  Iterations, force evaluations = 253 506

MPI task timing breakdown:
Section |  min time  |  avg time  |  max time  |%varavg| %total
---------------------------------------------------------------
Pair    | 0.76477    | 2.1345     | 2.8215     |  39.5 | 70.47
Neigh   | 0          | 0          | 0          |   0.0 |  0.00
Comm    | 0.048023   | 0.49345    | 1.4862     |  57.0 | 16.29
Output  | 0.00012001 | 0.00012361 | 0.00029182 |   0.0 |  0.00
Modify  | 3.0167e-05 | 0.004175   | 0.0089562  |   3.1 |  0.14
Other   |            | 0.3966     |            |       | 13.09

Nlocal:        2776.45 ave        3961 max           0 min
Histogram: 8 4 4 0 6 10 8 2 28 34
Nghost:        3879.01 ave        5424 max         232 min
Histogram: 8 0 8 0 16 0 8 8 16 40
Neighs:        79213.3 ave      115445 max           0 min
Histogram: 8 4 4 0 10 6 8 8 24 32

Total # of neighbors = 8238188
Ave neighs/atom = 28.530422
Neighbor list builds = 0
Dangerous builds = 0
The dot product: 5.21219167770898e-10
The cos of the angle between the force vector and the displacement vector: 0.000325592557050906
The angle: 89.9813449203103
OMP_NUM_THREADS environment is not set. Defaulting to 1 thread. (../comm.cpp:94)
  using 1 OpenMP thread(s) per MPI task
Reading data file ...
  orthogonal box = (-122.39241 -121.13707 -37.090501) to (122.39241 121.13707 37.090501)
  13 by 4 by 2 MPI processor grid
  reading atoms ...
  288751 atoms
  read_data CPU = 0.345 seconds
199981 atoms in group inner
88770 atoms in group outer
Setting atom values ...
  1 settings made for x
  1 settings made for y
  1 settings made for z
Neighbor list info ...
  update every 1 steps, delay 0 steps, check yes
  max neighbors/atom: 2000, page size: 100000
  master list distance cutoff = 5.6
  ghost atom cutoff = 5.6
  binsize = 2.8, bins = 88 87 27
  1 neighbor lists, perpetual/occasional/extra = 1 0 0
  (1) pair eam/alloy, perpetual
      attributes: half, newton on
      pair build: half/bin/atomonly/newton
      stencil: half/bin/3d/newton
      bin: standard
Setting up cg style minimization ...
  Unit style    : metal
  Current step  : 0
Per MPI rank memory allocation (min/avg/max) = 5.441 | 5.816 | 6.074 Mbytes
Step Temp E_pair E_mol TotEng Press 
       0            0   -1152447.7            0   -1152447.7   -524.05705 
     179            0   -1152449.5            0   -1152449.5    -526.3736 
Loop time of 2.07472 on 104 procs for 179 steps with 288751 atoms

99.9% CPU use with 104 MPI tasks x 1 OpenMP threads

Minimization stats:
  Stopping criterion = energy tolerance
  Energy initial, next-to-last, final = 
     -1152447.69255761  -1152449.45035262  -1152449.45035262
  Force two-norm initial, final = 10.619667 4.2633424e-05
  Force max component initial, final = 5.5401379 7.1553252e-06
  Final line search alpha, max atom move = 1.0000000 7.1553252e-06
  Iterations, force evaluations = 179 357

MPI task timing breakdown:
Section |  min time  |  avg time  |  max time  |%varavg| %total
---------------------------------------------------------------
Pair    | 0.54932    | 1.5029     | 1.9474     |  32.8 | 72.44
Neigh   | 2.0443e-05 | 0.0059032  | 0.0086043  |   3.2 |  0.28
Comm    | 0.03506    | 0.3376     | 1.0147     |  48.5 | 16.27
Output  | 0          | 0          | 0          |   0.0 |  0.00
Modify  | 2.0296e-05 | 0.0019135  | 0.0049039  |   2.7 |  0.09
Other   |            | 0.2264     |            |       | 10.91

Nlocal:        2776.45 ave        3960 max           0 min
Histogram: 8 4 4 0 4 12 8 2 28 34
Nghost:        3879.01 ave        5424 max         232 min
Histogram: 8 0 8 0 16 0 8 8 16 40
Neighs:        79213.7 ave      115432 max           0 min
Histogram: 8 4 4 0 10 6 8 8 24 32

Total # of neighbors = 8238221
Ave neighs/atom = 28.530537
Neighbor list builds = 2
Dangerous builds = 0
