LAMMPS (29 Oct 2020)
OMP_NUM_THREADS environment is not set. Defaulting to 1 thread. (../comm.cpp:94)
  using 1 OpenMP thread(s) per MPI task
OMP_NUM_THREADS environment is not set. Defaulting to 1 thread. (../comm.cpp:94)
  using 1 OpenMP thread(s) per MPI task
Reading data file ...
  orthogonal box = (-122.39241 -121.13707 -37.090501) to (122.39241 121.13707 37.090501)
  13 by 4 by 2 MPI processor grid
  reading atoms ...
  288751 atoms
  read_data CPU = 0.369 seconds
199981 atoms in group inner
88770 atoms in group outer
1 atoms in group carbon
Neighbor list info ...
  update every 1 steps, delay 0 steps, check yes
  max neighbors/atom: 2000, page size: 100000
  master list distance cutoff = 5.6
  ghost atom cutoff = 5.6
  binsize = 2.8, bins = 88 87 27
  1 neighbor lists, perpetual/occasional/extra = 1 0 0
  (1) pair eam/alloy, perpetual
      attributes: half, newton on
      pair build: half/bin/atomonly/newton
      stencil: half/bin/3d/newton
      bin: standard
Setting up cg style minimization ...
  Unit style    : metal
  Current step  : 0
Per MPI rank memory allocation (min/avg/max) = 5.441 | 5.816 | 6.074 Mbytes
Step v_fx v_fy v_fz PotEng KinEng TotEng 
       0   -25.793538    14.917389    -50.31359   -1152433.3            0   -1152433.3 
     245 -1.8985252e-06 -6.2418664e-09 -4.1728159e-06   -1152449.5            0   -1152449.5 
Loop time of 2.89171 on 104 procs for 245 steps with 288751 atoms

99.8% CPU use with 104 MPI tasks x 1 OpenMP threads

Minimization stats:
  Stopping criterion = energy tolerance
  Energy initial, next-to-last, final = 
     -1152433.34662944  -1152449.45035286  -1152449.45035286
  Force two-norm initial, final = 87.674933 2.1049948e-05
  Force max component initial, final = 57.511869 4.1728159e-06
  Final line search alpha, max atom move = 1.0000000 4.1728159e-06
  Iterations, force evaluations = 245 482

MPI task timing breakdown:
Section |  min time  |  avg time  |  max time  |%varavg| %total
---------------------------------------------------------------
Pair    | 0.74375    | 2.0342     | 2.6732     |  38.3 | 70.35
Neigh   | 5.1144e-05 | 0.014697   | 0.021438   |   5.0 |  0.51
Comm    | 0.050395   | 0.46753    | 1.371      |  55.1 | 16.17
Output  | 0          | 0          | 0          |   0.0 |  0.00
Modify  | 2.9814e-05 | 0.0025976  | 0.0066524  |   3.2 |  0.09
Other   |            | 0.3727     |            |       | 12.89

Nlocal:        2776.45 ave        3960 max           0 min
Histogram: 8 4 4 0 4 12 8 2 28 34
Nghost:        3879.01 ave        5425 max         232 min
Histogram: 8 0 8 0 16 0 8 8 16 40
Neighs:        79213.6 ave      115431 max           0 min
Histogram: 8 4 4 0 10 6 8 8 24 32

Total # of neighbors = 8238211
Ave neighs/atom = 28.530502
Neighbor list builds = 5
Dangerous builds = 0
Setting atom values ...
  1 settings made for x
  1 settings made for y
  1 settings made for z
Setting up cg style minimization ...
  Unit style    : metal
  Current step  : 245
Per MPI rank memory allocation (min/avg/max) = 5.441 | 5.816 | 6.074 Mbytes
Step PotEng KinEng TotEng v_fx v_fy v_fz 
     245   -1152449.4            0   -1152449.4  0.010895869 -0.014831421 -0.020186216 
     444   -1152449.5            0   -1152449.5 -6.5720927e-08 5.2451656e-07 1.5107903e-06 
Loop time of 2.36256 on 104 procs for 199 steps with 288751 atoms

99.9% CPU use with 104 MPI tasks x 1 OpenMP threads

Minimization stats:
  Stopping criterion = energy tolerance
  Energy initial, next-to-last, final = 
     -1152449.44955105  -1152449.45008155  -1152449.45008155
  Force two-norm initial, final = 0.10851151 3.2015797e-05
  Force max component initial, final = 0.048241415 3.9501049e-06
  Final line search alpha, max atom move = 1.0000000 3.9501049e-06
  Iterations, force evaluations = 199 398

MPI task timing breakdown:
Section |  min time  |  avg time  |  max time  |%varavg| %total
---------------------------------------------------------------
Pair    | 0.5993     | 1.6829     | 2.203      |  35.2 | 71.23
Neigh   | 0          | 0          | 0          |   0.0 |  0.00
Comm    | 0.036563   | 0.38499    | 1.138      |  51.0 | 16.30
Output  | 0          | 0          | 0          |   0.0 |  0.00
Modify  | 2.303e-05  | 0.003292   | 0.0070317  |   2.7 |  0.14
Other   |            | 0.2913     |            |       | 12.33

Nlocal:        2776.45 ave        3960 max           0 min
Histogram: 8 4 4 0 4 12 8 2 28 34
Nghost:        3879.01 ave        5424 max         232 min
Histogram: 8 0 8 0 16 0 8 8 16 40
Neighs:        79213.4 ave      115432 max           0 min
Histogram: 8 4 4 0 10 6 8 8 24 32

Total # of neighbors = 8238198
Ave neighs/atom = 28.530457
Neighbor list builds = 0
Dangerous builds = 0
Setting atom values ...
  1 settings made for x
  1 settings made for y
  1 settings made for z
Setting up cg style minimization ...
  Unit style    : metal
  Current step  : 444
Per MPI rank memory allocation (min/avg/max) = 5.441 | 5.816 | 6.074 Mbytes
Step PotEng KinEng TotEng v_fx v_fy v_fz 
     444   -1152449.4            0   -1152449.4  0.018332229  -0.02254621 -0.032558231 
     604   -1152449.4            0   -1152449.4 2.2008454e-05 -2.2140249e-05 -1.8310483e-05 
Loop time of 1.88398 on 104 procs for 160 steps with 288751 atoms

99.9% CPU use with 104 MPI tasks x 1 OpenMP threads

Minimization stats:
  Stopping criterion = energy tolerance
  Energy initial, next-to-last, final = 
     -1152449.44705457  -1152449.44849448  -1152449.44849448
  Force two-norm initial, final = 0.17824268 0.00012255187
  Force max component initial, final = 0.07772853 2.2140249e-05
  Final line search alpha, max atom move = 1.0000000 2.2140249e-05
  Iterations, force evaluations = 160 320

MPI task timing breakdown:
Section |  min time  |  avg time  |  max time  |%varavg| %total
---------------------------------------------------------------
Pair    | 0.47959    | 1.3459     | 1.7721     |  31.5 | 71.44
Neigh   | 0          | 0          | 0          |   0.0 |  0.00
Comm    | 0.027724   | 0.30616    | 0.91345    |  45.7 | 16.25
Output  | 0          | 0          | 0          |   0.0 |  0.00
Modify  | 1.8591e-05 | 0.0026474  | 0.0056934  |   2.4 |  0.14
Other   |            | 0.2293     |            |       | 12.17

Nlocal:        2776.45 ave        3960 max           0 min
Histogram: 8 4 4 0 4 12 8 2 28 34
Nghost:        3879.01 ave        5424 max         232 min
Histogram: 8 0 8 0 16 0 8 8 16 40
Neighs:        79213.5 ave      115432 max           0 min
Histogram: 8 4 4 0 10 6 8 8 24 32

Total # of neighbors = 8238200
Ave neighs/atom = 28.530464
Neighbor list builds = 0
Dangerous builds = 0
The dot product: 1.04648025287232e-08
Setting atom values ...
  1 settings made for x
  1 settings made for y
  1 settings made for z
Setting up cg style minimization ...
  Unit style    : metal
  Current step  : 604
Per MPI rank memory allocation (min/avg/max) = 5.441 | 5.816 | 6.074 Mbytes
Step PotEng KinEng TotEng v_fx v_fy v_fz 
     604   -1152449.4            0   -1152449.4   0.01872922 -0.021393801 -0.031916796 
     749   -1152449.4            0   -1152449.4 7.0334353e-06 -4.5438785e-06 7.5555061e-06 
Loop time of 1.69019 on 104 procs for 145 steps with 288751 atoms

99.9% CPU use with 104 MPI tasks x 1 OpenMP threads

Minimization stats:
  Stopping criterion = energy tolerance
  Energy initial, next-to-last, final = 
      -1152449.4440367   -1152449.4454659   -1152449.4454659
  Force two-norm initial, final = 0.17703917 7.2216465e-05
  Force max component initial, final = 0.075493159 1.3056968e-05
  Final line search alpha, max atom move = 1.0000000 1.3056968e-05
  Iterations, force evaluations = 145 290

MPI task timing breakdown:
Section |  min time  |  avg time  |  max time  |%varavg| %total
---------------------------------------------------------------
Pair    | 0.4372     | 1.2248     | 1.5904     |  29.9 | 72.47
Neigh   | 0          | 0          | 0          |   0.0 |  0.00
Comm    | 0.025114   | 0.27582    | 0.83101    |  44.1 | 16.32
Output  | 0          | 0          | 0          |   0.0 |  0.00
Modify  | 1.6835e-05 | 0.0023944  | 0.0051159  |   2.3 |  0.14
Other   |            | 0.1872     |            |       | 11.07

Nlocal:        2776.45 ave        3961 max           0 min
Histogram: 8 4 4 0 6 10 8 2 28 34
Nghost:        3879.01 ave        5424 max         232 min
Histogram: 8 0 8 0 16 0 8 8 16 40
Neighs:        79213.5 ave      115455 max           0 min
Histogram: 8 4 4 0 10 6 8 8 24 32

Total # of neighbors = 8238201
Ave neighs/atom = 28.530467
Neighbor list builds = 0
Dangerous builds = 0
The dot product: -1.85088425501893e-08
Setting atom values ...
  1 settings made for x
  1 settings made for y
  1 settings made for z
Setting up cg style minimization ...
  Unit style    : metal
  Current step  : 749
Per MPI rank memory allocation (min/avg/max) = 5.441 | 5.816 | 6.074 Mbytes
Step PotEng KinEng TotEng v_fx v_fy v_fz 
     749   -1152449.4            0   -1152449.4  0.019620225 -0.021133071 -0.030990955 
     860   -1152449.4            0   -1152449.4 5.0866045e-06 1.7808028e-06 4.4870351e-05 
Loop time of 1.35361 on 104 procs for 111 steps with 288751 atoms

99.8% CPU use with 104 MPI tasks x 1 OpenMP threads

Minimization stats:
  Stopping criterion = energy tolerance
  Energy initial, next-to-last, final = 
     -1152449.43953265   -1152449.4409533   -1152449.4409533
  Force two-norm initial, final = 0.17612455 0.00021304951
  Force max component initial, final = 0.073372371 4.4870351e-05
  Final line search alpha, max atom move = 1.0000000 4.4870351e-05
  Iterations, force evaluations = 111 222

MPI task timing breakdown:
Section |  min time  |  avg time  |  max time  |%varavg| %total
---------------------------------------------------------------
Pair    | 0.3342     | 0.94073    | 1.232      |  26.0 | 69.50
Neigh   | 0          | 0          | 0          |   0.0 |  0.00
Comm    | 0.021325   | 0.21753    | 0.63075    |  37.2 | 16.07
Output  | 0          | 0          | 0          |   0.0 |  0.00
Modify  | 1.2881e-05 | 0.0018362  | 0.0039217  |   2.0 |  0.14
Other   |            | 0.1935     |            |       | 14.30

Nlocal:        2776.45 ave        3960 max           0 min
Histogram: 8 4 4 0 4 12 8 2 28 34
Nghost:        3879.01 ave        5424 max         232 min
Histogram: 8 0 8 0 16 0 8 8 16 40
Neighs:        79213.5 ave      115432 max           0 min
Histogram: 8 4 4 0 10 6 8 8 24 32

Total # of neighbors = 8238201
Ave neighs/atom = 28.530467
Neighbor list builds = 0
Dangerous builds = 0
The dot product: -7.75819165729196e-08
Setting atom values ...
  1 settings made for x
  1 settings made for y
  1 settings made for z
Setting up cg style minimization ...
  Unit style    : metal
  Current step  : 860
Per MPI rank memory allocation (min/avg/max) = 5.441 | 5.816 | 6.074 Mbytes
Step PotEng KinEng TotEng v_fx v_fy v_fz 
     860   -1152449.4            0   -1152449.4  0.021035421 -0.021680092 -0.030603825 
     972   -1152449.4            0   -1152449.4 2.6355081e-05 -2.3964704e-05 -8.4411262e-06 
Loop time of 1.31285 on 104 procs for 112 steps with 288751 atoms

99.9% CPU use with 104 MPI tasks x 1 OpenMP threads

Minimization stats:
  Stopping criterion = energy tolerance
  Energy initial, next-to-last, final = 
      -1152449.4335096  -1152449.43492198  -1152449.43492198
  Force two-norm initial, final = 0.17546762 0.00020083894
  Force max component initial, final = 0.072588319 4.8241115e-05
  Final line search alpha, max atom move = 1.0000000 4.8241115e-05
  Iterations, force evaluations = 112 224

MPI task timing breakdown:
Section |  min time  |  avg time  |  max time  |%varavg| %total
---------------------------------------------------------------
Pair    | 0.33719    | 0.94748    | 1.2366     |  26.3 | 72.17
Neigh   | 0          | 0          | 0          |   0.0 |  0.00
Comm    | 0.020456   | 0.21338    | 0.63784    |  38.5 | 16.25
Output  | 0          | 0          | 0          |   0.0 |  0.00
Modify  | 1.3169e-05 | 0.0018517  | 0.0039591  |   2.0 |  0.14
Other   |            | 0.1501     |            |       | 11.44

Nlocal:        2776.45 ave        3960 max           0 min
Histogram: 8 4 4 0 4 12 8 2 28 34
Nghost:        3879.01 ave        5424 max         232 min
Histogram: 8 0 8 0 16 0 8 8 16 40
Neighs:        79213.5 ave      115432 max           0 min
Histogram: 8 4 4 0 10 6 8 8 24 32

Total # of neighbors = 8238201
Ave neighs/atom = 28.530467
Neighbor list builds = 0
Dangerous builds = 0
The dot product: 1.04403954823435e-09
Setting atom values ...
  1 settings made for x
  1 settings made for y
  1 settings made for z
Setting up cg style minimization ...
  Unit style    : metal
  Current step  : 972
Per MPI rank memory allocation (min/avg/max) = 5.441 | 5.816 | 6.074 Mbytes
Step PotEng KinEng TotEng v_fx v_fy v_fz 
     972   -1152449.4            0   -1152449.4  0.023029602 -0.022911322 -0.031127389 
    1000   -1152449.4            0   -1152449.4 7.5199129e-05 -7.8981203e-05 -0.00015154916 
    1100   -1152449.4            0   -1152449.4 2.429736e-06 -4.0672053e-06 -2.3039363e-05 
Loop time of 1.50267 on 104 procs for 128 steps with 288751 atoms

99.9% CPU use with 104 MPI tasks x 1 OpenMP threads

Minimization stats:
  Stopping criterion = energy tolerance
  Energy initial, next-to-last, final = 
     -1152449.42594384  -1152449.42734716  -1152449.42734716
  Force two-norm initial, final = 0.17507263 9.8853890e-05
  Force max component initial, final = 0.073091539 2.3039363e-05
  Final line search alpha, max atom move = 1.0000000 2.3039363e-05
  Iterations, force evaluations = 128 256

MPI task timing breakdown:
Section |  min time  |  avg time  |  max time  |%varavg| %total
---------------------------------------------------------------
Pair    | 0.38562    | 1.078      | 1.4122     |  28.2 | 71.74
Neigh   | 0          | 0          | 0          |   0.0 |  0.00
Comm    | 0.022606   | 0.2434     | 0.72834    |  40.9 | 16.20
Output  | 0.00014514 | 0.00015371 | 0.00023991 |   0.0 |  0.01
Modify  | 1.544e-05  | 0.0021178  | 0.0045269  |   2.2 |  0.14
Other   |            | 0.179      |            |       | 11.91

Nlocal:        2776.45 ave        3959 max           0 min
Histogram: 8 4 4 0 4 12 8 2 28 34
Nghost:        3879.01 ave        5424 max         232 min
Histogram: 8 0 8 0 16 0 8 8 16 40
Neighs:        79213.5 ave      115391 max           0 min
Histogram: 8 4 4 0 10 6 8 8 24 32

Total # of neighbors = 8238203
Ave neighs/atom = 28.530474
Neighbor list builds = 0
Dangerous builds = 0
The dot product: 3.87994180801058e-08
Setting atom values ...
  1 settings made for x
  1 settings made for y
  1 settings made for z
Setting up cg style minimization ...
  Unit style    : metal
  Current step  : 1100
Per MPI rank memory allocation (min/avg/max) = 5.441 | 5.816 | 6.074 Mbytes
Step PotEng KinEng TotEng v_fx v_fy v_fz 
    1100   -1152449.4            0   -1152449.4  0.025746232 -0.024760166 -0.032642407 
    1244   -1152449.4            0   -1152449.4 -5.5608062e-06 4.4205478e-06 -7.532268e-06 
Loop time of 1.68597 on 104 procs for 144 steps with 288751 atoms

99.9% CPU use with 104 MPI tasks x 1 OpenMP threads

Minimization stats:
  Stopping criterion = energy tolerance
  Energy initial, next-to-last, final = 
      -1152449.4168218  -1152449.41821639  -1152449.41821639
  Force two-norm initial, final = 0.1748277 4.6818799e-05
  Force max component initial, final = 0.073805343 7.6028080e-06
  Final line search alpha, max atom move = 1.0000000 7.6028080e-06
  Iterations, force evaluations = 144 288

MPI task timing breakdown:
Section |  min time  |  avg time  |  max time  |%varavg| %total
---------------------------------------------------------------
Pair    | 0.4322     | 1.2139     | 1.5933     |  29.8 | 72.00
Neigh   | 0          | 0          | 0          |   0.0 |  0.00
Comm    | 0.028013   | 0.27238    | 0.81304    |  43.8 | 16.16
Output  | 0          | 0          | 0          |   0.0 |  0.00
Modify  | 1.6572e-05 | 0.0023821  | 0.005106   |   2.3 |  0.14
Other   |            | 0.1974     |            |       | 11.71

Nlocal:        2776.45 ave        3958 max           0 min
Histogram: 8 4 4 0 4 12 8 2 28 34
Nghost:        3879.01 ave        5424 max         232 min
Histogram: 8 0 8 0 16 0 8 8 16 40
Neighs:        79213.5 ave      115354 max           0 min
Histogram: 8 4 4 0 10 6 8 8 24 32

Total # of neighbors = 8238203
Ave neighs/atom = 28.530474
Neighbor list builds = 0
Dangerous builds = 0
The dot product: 9.18696361568772e-09
Setting atom values ...
  1 settings made for x
  1 settings made for y
  1 settings made for z
Setting up cg style minimization ...
  Unit style    : metal
  Current step  : 1244
Per MPI rank memory allocation (min/avg/max) = 5.441 | 5.816 | 6.074 Mbytes
Step PotEng KinEng TotEng v_fx v_fy v_fz 
    1244   -1152449.4            0   -1152449.4  0.029416945 -0.027226108 -0.035288769 
    1376   -1152449.4            0   -1152449.4 -6.3941234e-06 4.7495965e-06 -1.8507742e-05 
Loop time of 1.54771 on 104 procs for 132 steps with 288751 atoms

99.9% CPU use with 104 MPI tasks x 1 OpenMP threads

Minimization stats:
  Stopping criterion = energy tolerance
  Energy initial, next-to-last, final = 
     -1152449.40614456   -1152449.4075339   -1152449.4075339
  Force two-norm initial, final = 0.17490678 9.7028071e-05
  Force max component initial, final = 0.074800239 1.8507742e-05
  Final line search alpha, max atom move = 1.0000000 1.8507742e-05
  Iterations, force evaluations = 132 264

MPI task timing breakdown:
Section |  min time  |  avg time  |  max time  |%varavg| %total
---------------------------------------------------------------
Pair    | 0.39699    | 1.1108     | 1.4583     |  28.6 | 71.77
Neigh   | 0          | 0          | 0          |   0.0 |  0.00
Comm    | 0.02384    | 0.25121    | 0.74939    |  41.7 | 16.23
Output  | 0          | 0          | 0          |   0.0 |  0.00
Modify  | 1.5413e-05 | 0.0021823  | 0.0047068  |   2.2 |  0.14
Other   |            | 0.1835     |            |       | 11.86

Nlocal:        2776.45 ave        3957 max           0 min
Histogram: 8 4 4 0 4 12 8 2 28 34
Nghost:        3879.01 ave        5424 max         232 min
Histogram: 8 0 8 0 16 0 8 8 16 40
Neighs:        79213.5 ave      115319 max           0 min
Histogram: 8 4 4 0 10 6 8 8 24 32

Total # of neighbors = 8238201
Ave neighs/atom = 28.530467
Neighbor list builds = 0
Dangerous builds = 0
The dot product: 2.96342487496881e-08
Setting atom values ...
  1 settings made for x
  1 settings made for y
  1 settings made for z
Setting up cg style minimization ...
  Unit style    : metal
  Current step  : 1376
Per MPI rank memory allocation (min/avg/max) = 5.441 | 5.816 | 6.074 Mbytes
Step PotEng KinEng TotEng v_fx v_fy v_fz 
    1376   -1152449.4            0   -1152449.4  0.034469761 -0.030399226  -0.03950341 
    1615   -1152449.4            0   -1152449.4 -4.0242198e-07 2.8036732e-07 -2.5786196e-06 
Loop time of 2.81557 on 104 procs for 239 steps with 288751 atoms

99.9% CPU use with 104 MPI tasks x 1 OpenMP threads

Minimization stats:
  Stopping criterion = linesearch alpha is zero
  Energy initial, next-to-last, final = 
     -1152449.39393658  -1152449.39533266  -1152449.39533266
  Force two-norm initial, final = 0.17558591 1.4087185e-05
  Force max component initial, final = 0.076072616 2.5786196e-06
  Final line search alpha, max atom move = 0.5 1.2893098e-06
  Iterations, force evaluations = 239 479

MPI task timing breakdown:
Section |  min time  |  avg time  |  max time  |%varavg| %total
---------------------------------------------------------------
Pair    | 0.71739    | 2.0231     | 2.6448     |  38.5 | 71.86
Neigh   | 0          | 0          | 0          |   0.0 |  0.00
Comm    | 0.046305   | 0.45439    | 1.3493     |  56.3 | 16.14
Output  | 0          | 0          | 0          |   0.0 |  0.00
Modify  | 2.7191e-05 | 0.0039589  | 0.0084785  |   3.0 |  0.14
Other   |            | 0.3341     |            |       | 11.87

Nlocal:        2776.45 ave        3955 max           0 min
Histogram: 8 4 4 0 4 12 8 2 28 34
Nghost:        3879.01 ave        5424 max         232 min
Histogram: 8 0 8 0 16 0 8 8 16 40
Neighs:        79213.4 ave      115265 max           0 min
Histogram: 8 4 4 0 10 6 8 8 24 32

Total # of neighbors = 8238197
Ave neighs/atom = 28.530454
Neighbor list builds = 0
Dangerous builds = 0
The dot product: 6.6807956261868e-09
Setting atom values ...
  1 settings made for x
  1 settings made for y
  1 settings made for z
Setting up cg style minimization ...
  Unit style    : metal
  Current step  : 1615
Per MPI rank memory allocation (min/avg/max) = 5.441 | 5.816 | 6.074 Mbytes
Step PotEng KinEng TotEng v_fx v_fy v_fz 
    1615   -1152449.4            0   -1152449.4  0.043176038 -0.035602378 -0.048539237 
    1740   -1152449.4            0   -1152449.4 -2.2596832e-05 1.8637147e-05 3.5598639e-05 
Loop time of 1.4649 on 104 procs for 125 steps with 288751 atoms

99.9% CPU use with 104 MPI tasks x 1 OpenMP threads

Minimization stats:
  Stopping criterion = energy tolerance
  Energy initial, next-to-last, final = 
     -1152449.38028873  -1152449.38176643  -1152449.38176643
  Force two-norm initial, final = 0.17867281 0.00016620362
  Force max component initial, final = 0.077641143 3.7967938e-05
  Final line search alpha, max atom move = 1.0000000 3.7967938e-05
  Iterations, force evaluations = 125 250

MPI task timing breakdown:
Section |  min time  |  avg time  |  max time  |%varavg| %total
---------------------------------------------------------------
Pair    | 0.37407    | 1.0531     | 1.3806     |  27.9 | 71.89
Neigh   | 0          | 0          | 0          |   0.0 |  0.00
Comm    | 0.021836   | 0.23818    | 0.71485    |  40.7 | 16.26
Output  | 0          | 0          | 0          |   0.0 |  0.00
Modify  | 1.4402e-05 | 0.0020642  | 0.0044146  |   2.1 |  0.14
Other   |            | 0.1716     |            |       | 11.71

Nlocal:        2776.45 ave        3949 max           0 min
Histogram: 8 4 4 0 4 12 8 2 26 36
Nghost:        3879.01 ave        5424 max         232 min
Histogram: 8 0 8 0 16 0 8 8 16 40
Neighs:        79213.4 ave      115073 max           0 min
Histogram: 8 4 4 0 10 6 8 8 24 32

Total # of neighbors = 8238198
Ave neighs/atom = 28.530457
Neighbor list builds = 0
Dangerous builds = 0
The dot product: -4.12209529928118e-07
Setting atom values ...
  1 settings made for x
  1 settings made for y
  1 settings made for z
Setting up cg style minimization ...
  Unit style    : metal
  Current step  : 1740
Per MPI rank memory allocation (min/avg/max) = 5.441 | 5.816 | 6.074 Mbytes
Step PotEng KinEng TotEng v_fx v_fy v_fz 
    1740   -1152449.4            0   -1152449.4  0.061460677 -0.044501639 -0.067846154 
    1939   -1152449.4            0   -1152449.4 -1.1597264e-05 8.4610043e-06 1.1205794e-05 
Loop time of 2.32403 on 104 procs for 199 steps with 288751 atoms

99.9% CPU use with 104 MPI tasks x 1 OpenMP threads

Minimization stats:
  Stopping criterion = energy tolerance
  Energy initial, next-to-last, final = 
     -1152449.36559173  -1152449.36855167  -1152449.36855167
  Force two-norm initial, final = 0.18959092 8.9340507e-05
  Force max component initial, final = 0.079709445 2.2259073e-05
  Final line search alpha, max atom move = 1.0000000 2.2259073e-05
  Iterations, force evaluations = 199 398

MPI task timing breakdown:
Section |  min time  |  avg time  |  max time  |%varavg| %total
---------------------------------------------------------------
Pair    | 0.59695    | 1.6817     | 2.1882     |  35.1 | 72.36
Neigh   | 0          | 0          | 0          |   0.0 |  0.00
Comm    | 0.040823   | 0.38127    | 1.1413     |  51.4 | 16.41
Output  | 0          | 0          | 0          |   0.0 |  0.00
Modify  | 2.504e-05  | 0.003287   | 0.0070022  |   2.7 |  0.14
Other   |            | 0.2578     |            |       | 11.09

Nlocal:        2776.45 ave        3946 max           0 min
Histogram: 8 4 4 0 4 12 8 2 26 36
Nghost:        3879.05 ave        5424 max         232 min
Histogram: 8 0 8 0 16 0 8 8 16 40
Neighs:        79213.4 ave      114991 max           0 min
Histogram: 8 4 4 0 10 6 8 8 24 32

Total # of neighbors = 8238194
Ave neighs/atom = 28.530443
Neighbor list builds = 0
Dangerous builds = 0
The dot product: -9.26044218495756e-07
Setting atom values ...
  1 settings made for x
  1 settings made for y
  1 settings made for z
Setting up cg style minimization ...
  Unit style    : metal
  Current step  : 1939
Per MPI rank memory allocation (min/avg/max) = 5.441 | 5.816 | 6.074 Mbytes
Step PotEng KinEng TotEng v_fx v_fy v_fz 
    1939   -1152449.4            0   -1152449.4   0.15860408 -0.054463387  -0.12924919 
    2000   -1152449.4            0   -1152449.4 -0.00031046435 0.00025262204 -0.00044795133 
    2173   -1152449.4            0   -1152449.4 -1.4387787e-06 3.4181671e-06 -1.2865228e-05 
Loop time of 2.76838 on 104 procs for 234 steps with 288751 atoms

99.9% CPU use with 104 MPI tasks x 1 OpenMP threads

Minimization stats:
  Stopping criterion = energy tolerance
  Energy initial, next-to-last, final = 
      -1152449.3547028  -1152449.36172973  -1152449.36172973
  Force two-norm initial, final = 0.25797872 5.0597566e-05
  Force max component initial, final = 0.15860408 1.4380533e-05
  Final line search alpha, max atom move = 1.0000000 1.4380533e-05
  Iterations, force evaluations = 234 468

MPI task timing breakdown:
Section |  min time  |  avg time  |  max time  |%varavg| %total
---------------------------------------------------------------
Pair    | 0.70539    | 1.9638     | 2.5925     |  37.7 | 70.94
Neigh   | 1.0158e-05 | 0.002957   | 0.0042986  |   2.2 |  0.11
Comm    | 0.042209   | 0.44831    | 1.3341     |  54.9 | 16.19
Output  | 9.8799e-05 | 0.00010188 | 0.0002127  |   0.0 |  0.00
Modify  | 2.7601e-05 | 0.0038695  | 0.0083022  |   2.9 |  0.14
Other   |            | 0.3493     |            |       | 12.62

Nlocal:        2776.45 ave        3948 max           0 min
Histogram: 8 4 4 0 4 12 8 2 26 36
Nghost:        3879.01 ave        5424 max         232 min
Histogram: 8 0 8 0 16 0 8 8 16 40
Neighs:        79213.4 ave      115047 max           0 min
Histogram: 8 4 4 0 10 6 8 8 24 32

Total # of neighbors = 8238197
Ave neighs/atom = 28.530454
Neighbor list builds = 1
Dangerous builds = 0
The dot product: 2.92662080617472e-07
Setting atom values ...
  1 settings made for x
  1 settings made for y
  1 settings made for z
Setting up cg style minimization ...
  Unit style    : metal
  Current step  : 2173
Per MPI rank memory allocation (min/avg/max) = 5.441 | 5.816 | 6.074 Mbytes
Step PotEng KinEng TotEng v_fx v_fy v_fz 
    2173   -1152449.3            0   -1152449.3   0.14250782  -0.01316589  -0.07676537 
    2368   -1152449.4            0   -1152449.4 -9.1126505e-06 1.0311803e-05 -2.3268045e-05 
Loop time of 2.27104 on 104 procs for 195 steps with 288751 atoms

99.9% CPU use with 104 MPI tasks x 1 OpenMP threads

Minimization stats:
  Stopping criterion = energy tolerance
  Energy initial, next-to-last, final = 
     -1152449.34986643  -1152449.35366844  -1152449.35366844
  Force two-norm initial, final = 0.21250198 0.00015131841
  Force max component initial, final = 0.14250782 2.9993357e-05
  Final line search alpha, max atom move = 1.0000000 2.9993357e-05
  Iterations, force evaluations = 195 390

MPI task timing breakdown:
Section |  min time  |  avg time  |  max time  |%varavg| %total
---------------------------------------------------------------
Pair    | 0.58464    | 1.6408     | 2.1435     |  34.7 | 72.25
Neigh   | 0          | 0          | 0          |   0.0 |  0.00
Comm    | 0.034262   | 0.36971    | 1.1058     |  50.9 | 16.28
Output  | 0          | 0          | 0          |   0.0 |  0.00
Modify  | 2.3367e-05 | 0.0032151  | 0.006873   |   2.7 |  0.14
Other   |            | 0.2573     |            |       | 11.33

Nlocal:        2776.45 ave        3949 max           0 min
Histogram: 8 4 4 0 4 12 8 1 27 36
Nghost:        3879.01 ave        5424 max         232 min
Histogram: 8 0 8 0 16 0 8 8 16 40
Neighs:        79213.5 ave      115063 max           0 min
Histogram: 8 4 4 0 10 6 8 8 24 32

Total # of neighbors = 8238202
Ave neighs/atom = 28.530471
Neighbor list builds = 0
Dangerous builds = 0
The dot product: 6.92994093372968e-08
Setting atom values ...
  1 settings made for x
  1 settings made for y
  1 settings made for z
Setting up cg style minimization ...
  Unit style    : metal
  Current step  : 2368
Per MPI rank memory allocation (min/avg/max) = 5.441 | 5.816 | 6.074 Mbytes
Step PotEng KinEng TotEng v_fx v_fy v_fz 
    2368   -1152449.3            0   -1152449.3  0.079124117 0.0034393149 -0.036948025 
    2528   -1152449.3            0   -1152449.3 -6.9484181e-06 1.240637e-06 -6.1918447e-07 
Loop time of 1.8604 on 104 procs for 160 steps with 288751 atoms

99.9% CPU use with 104 MPI tasks x 1 OpenMP threads

Minimization stats:
  Stopping criterion = energy tolerance
  Energy initial, next-to-last, final = 
     -1152449.34239168  -1152449.34472718  -1152449.34472718
  Force two-norm initial, final = 0.16271494 3.3628227e-05
  Force max component initial, final = 0.079397196 6.9484181e-06
  Final line search alpha, max atom move = 1.0000000 6.9484181e-06
  Iterations, force evaluations = 160 320

MPI task timing breakdown:
Section |  min time  |  avg time  |  max time  |%varavg| %total
---------------------------------------------------------------
Pair    | 0.47961    | 1.3422     | 1.7533     |  31.3 | 72.15
Neigh   | 0          | 0          | 0          |   0.0 |  0.00
Comm    | 0.028876   | 0.30121    | 0.90765    |  46.2 | 16.19
Output  | 0          | 0          | 0          |   0.0 |  0.00
Modify  | 1.9213e-05 | 0.0026419  | 0.0056571  |   2.4 |  0.14
Other   |            | 0.2143     |            |       | 11.52

Nlocal:        2776.45 ave        3949 max           0 min
Histogram: 8 4 4 0 4 12 8 0 28 36
Nghost:        3879.01 ave        5424 max         232 min
Histogram: 8 0 8 0 16 0 8 8 16 40
Neighs:        79213.5 ave      115063 max           0 min
Histogram: 8 4 4 0 10 6 8 8 24 32

Total # of neighbors = 8238203
Ave neighs/atom = 28.530474
Neighbor list builds = 0
Dangerous builds = 0
The dot product: -1.10028981797323e-07
Setting atom values ...
  1 settings made for x
  1 settings made for y
  1 settings made for z
Setting up cg style minimization ...
  Unit style    : metal
  Current step  : 2528
Per MPI rank memory allocation (min/avg/max) = 5.441 | 5.816 | 6.074 Mbytes
Step PotEng KinEng TotEng v_fx v_fy v_fz 
    2528   -1152449.3            0   -1152449.3  0.036207712  0.010082213  -0.02864765 
    2774   -1152449.3            0   -1152449.3 -3.2373382e-06 -6.7852771e-06 1.5618466e-05 
Loop time of 2.89162 on 104 procs for 246 steps with 288751 atoms

99.9% CPU use with 104 MPI tasks x 1 OpenMP threads

Minimization stats:
  Stopping criterion = energy tolerance
  Energy initial, next-to-last, final = 
     -1152449.33518214  -1152449.34516481  -1152449.34516481
  Force two-norm initial, final = 0.15179249 0.00010665805
  Force max component initial, final = 0.074118454 2.3159673e-05
  Final line search alpha, max atom move = 1.0000000 2.3159673e-05
  Iterations, force evaluations = 246 492

MPI task timing breakdown:
Section |  min time  |  avg time  |  max time  |%varavg| %total
---------------------------------------------------------------
Pair    | 0.74064    | 2.0732     | 2.7065     |  38.9 | 71.70
Neigh   | 1.0165e-05 | 0.0029663  | 0.0042889  |   2.2 |  0.10
Comm    | 0.042325   | 0.46991    | 1.4001     |  56.7 | 16.25
Output  | 0          | 0          | 0          |   0.0 |  0.00
Modify  | 2.9332e-05 | 0.0040637  | 0.0087253  |   3.0 |  0.14
Other   |            | 0.3415     |            |       | 11.81

Nlocal:        2776.45 ave        3953 max           0 min
Histogram: 8 4 4 0 4 12 8 0 30 34
Nghost:        3879.01 ave        5424 max         232 min
Histogram: 8 0 8 0 16 0 8 8 16 40
Neighs:        79213.5 ave      115200 max           0 min
Histogram: 8 4 4 0 10 6 8 8 24 32

Total # of neighbors = 8238202
Ave neighs/atom = 28.530471
Neighbor list builds = 1
Dangerous builds = 0
The dot product: -6.64002544361749e-07
Setting atom values ...
  1 settings made for x
  1 settings made for y
  1 settings made for z
Setting up cg style minimization ...
  Unit style    : metal
  Current step  : 2774
Per MPI rank memory allocation (min/avg/max) = 5.441 | 5.816 | 6.074 Mbytes
Step PotEng KinEng TotEng v_fx v_fy v_fz 
    2774   -1152449.3            0   -1152449.3 -0.0049803325 -0.021831748  0.036520058 
    2876   -1152449.3            0   -1152449.3 -2.128892e-05 -1.9936615e-05 3.4722275e-05 
Loop time of 1.19045 on 104 procs for 102 steps with 288751 atoms

99.9% CPU use with 104 MPI tasks x 1 OpenMP threads

Minimization stats:
  Stopping criterion = energy tolerance
  Energy initial, next-to-last, final = 
      -1152449.3473603  -1152449.34836119  -1152449.34836119
  Force two-norm initial, final = 0.1318323 0.00015821408
  Force max component initial, final = 0.052450314 3.4722275e-05
  Final line search alpha, max atom move = 1.0000000 3.4722275e-05
  Iterations, force evaluations = 102 204

MPI task timing breakdown:
Section |  min time  |  avg time  |  max time  |%varavg| %total
---------------------------------------------------------------
Pair    | 0.30573    | 0.85665    | 1.121      |  25.1 | 71.96
Neigh   | 0          | 0          | 0          |   0.0 |  0.00
Comm    | 0.01831    | 0.19265    | 0.57729    |  36.8 | 16.18
Output  | 0          | 0          | 0          |   0.0 |  0.00
Modify  | 1.1903e-05 | 0.001685   | 0.0036122  |   1.9 |  0.14
Other   |            | 0.1395     |            |       | 11.72

Nlocal:        2776.45 ave        3960 max           0 min
Histogram: 8 4 4 0 4 12 8 2 28 34
Nghost:        3879.01 ave        5424 max         232 min
Histogram: 8 0 8 0 16 0 8 8 16 40
Neighs:        79213.4 ave      115438 max           0 min
Histogram: 8 4 4 0 10 6 8 8 24 32

Total # of neighbors = 8238191
Ave neighs/atom = 28.530433
Neighbor list builds = 0
Dangerous builds = 0
The dot product: 1.71787130874276e-07
Setting atom values ...
  1 settings made for x
  1 settings made for y
  1 settings made for z
Setting up cg style minimization ...
  Unit style    : metal
  Current step  : 2876
Per MPI rank memory allocation (min/avg/max) = 5.441 | 5.816 | 6.074 Mbytes
Step PotEng KinEng TotEng v_fx v_fy v_fz 
    2876   -1152449.3            0   -1152449.3 0.00084575671 -0.010965504  0.018542585 
    3000   -1152449.4            0   -1152449.4 1.0157447e-05 -4.6307616e-05 7.7719274e-05 
    3069   -1152449.4            0   -1152449.4 6.4348553e-06 6.175258e-06 -1.1057848e-05 
Loop time of 2.28208 on 104 procs for 193 steps with 288751 atoms

99.9% CPU use with 104 MPI tasks x 1 OpenMP threads

Minimization stats:
  Stopping criterion = energy tolerance
  Energy initial, next-to-last, final = 
     -1152449.34965364  -1152449.35055841  -1152449.35055841
  Force two-norm initial, final = 0.1250654 7.7059351e-05
  Force max component initial, final = 0.052963151 1.1057848e-05
  Final line search alpha, max atom move = 1.0000000 1.1057848e-05
  Iterations, force evaluations = 193 386

MPI task timing breakdown:
Section |  min time  |  avg time  |  max time  |%varavg| %total
---------------------------------------------------------------
Pair    | 0.57957    | 1.6325     | 2.1421     |  34.6 | 71.54
Neigh   | 0          | 0          | 0          |   0.0 |  0.00
Comm    | 0.043888   | 0.36936    | 1.0912     |  50.3 | 16.19
Output  | 0.00014117 | 0.00014739 | 0.00027373 |   0.0 |  0.01
Modify  | 2.3865e-05 | 0.0031885  | 0.0068428  |   2.7 |  0.14
Other   |            | 0.2768     |            |       | 12.13

Nlocal:        2776.45 ave        3960 max           0 min
Histogram: 8 4 4 0 4 12 8 2 28 34
Nghost:        3879.01 ave        5424 max         232 min
Histogram: 8 0 8 0 16 0 8 8 16 40
Neighs:        79213.4 ave      115439 max           0 min
Histogram: 8 4 4 0 10 6 8 8 24 32

Total # of neighbors = 8238193
Ave neighs/atom = 28.530440
Neighbor list builds = 0
Dangerous builds = 0
The dot product: -5.18172651621275e-10
Setting atom values ...
  1 settings made for x
  1 settings made for y
  1 settings made for z
Setting up cg style minimization ...
  Unit style    : metal
  Current step  : 3069
Per MPI rank memory allocation (min/avg/max) = 5.441 | 5.816 | 6.074 Mbytes
Step PotEng KinEng TotEng v_fx v_fy v_fz 
    3069   -1152449.4            0   -1152449.4 0.00057907824 -0.011993596  0.020328077 
    3244   -1152449.4            0   -1152449.4 2.2772435e-05 4.3407989e-06 -9.3856365e-06 
Loop time of 2.04953 on 104 procs for 175 steps with 288751 atoms

99.9% CPU use with 104 MPI tasks x 1 OpenMP threads

Minimization stats:
  Stopping criterion = energy tolerance
  Energy initial, next-to-last, final = 
     -1152449.35063181  -1152449.35153365  -1152449.35153365
  Force two-norm initial, final = 0.12557364 0.00016455646
  Force max component initial, final = 0.052613472 2.6922539e-05
  Final line search alpha, max atom move = 1.0000000 2.6922539e-05
  Iterations, force evaluations = 175 350

MPI task timing breakdown:
Section |  min time  |  avg time  |  max time  |%varavg| %total
---------------------------------------------------------------
Pair    | 0.52268    | 1.4693     | 1.9336     |  32.9 | 71.69
Neigh   | 0          | 0          | 0          |   0.0 |  0.00
Comm    | 0.030158   | 0.33241    | 0.99509    |  48.0 | 16.22
Output  | 0          | 0          | 0          |   0.0 |  0.00
Modify  | 2.0104e-05 | 0.0029061  | 0.0062123  |   2.5 |  0.14
Other   |            | 0.2449     |            |       | 11.95

Nlocal:        2776.45 ave        3961 max           0 min
Histogram: 8 4 4 0 6 10 8 2 28 34
Nghost:        3879.01 ave        5425 max         232 min
Histogram: 8 0 8 0 16 0 8 8 16 40
Neighs:        79213.4 ave      115455 max           0 min
Histogram: 8 4 4 0 10 6 8 8 24 32

Total # of neighbors = 8238189
Ave neighs/atom = 28.530426
Neighbor list builds = 0
Dangerous builds = 0
The dot product: -1.63515685932441e-09
Setting atom values ...
  1 settings made for x
  1 settings made for y
  1 settings made for z
Setting up cg style minimization ...
  Unit style    : metal
  Current step  : 3244
Per MPI rank memory allocation (min/avg/max) = 5.441 | 5.816 | 6.074 Mbytes
Step PotEng KinEng TotEng v_fx v_fy v_fz 
    3244   -1152449.4            0   -1152449.4 0.00099062917 -0.011443294  0.019421295 
    3399   -1152449.4            0   -1152449.4 -7.3419501e-05 -4.2563354e-05 7.8990087e-05 
Loop time of 1.80877 on 104 procs for 155 steps with 288751 atoms

99.9% CPU use with 104 MPI tasks x 1 OpenMP threads

Minimization stats:
  Stopping criterion = energy tolerance
  Energy initial, next-to-last, final = 
     -1152449.35029593  -1152449.35119057  -1152449.35119057
  Force two-norm initial, final = 0.12510008 0.00029200713
  Force max component initial, final = 0.052461588 7.8990087e-05
  Final line search alpha, max atom move = 1.0000000 7.8990087e-05
  Iterations, force evaluations = 155 310

MPI task timing breakdown:
Section |  min time  |  avg time  |  max time  |%varavg| %total
---------------------------------------------------------------
Pair    | 0.46462    | 1.3092     | 1.7083     |  30.9 | 72.38
Neigh   | 0          | 0          | 0          |   0.0 |  0.00
Comm    | 0.02872    | 0.29328    | 0.87603    |  45.4 | 16.21
Output  | 0          | 0          | 0          |   0.0 |  0.00
Modify  | 1.7692e-05 | 0.0025615  | 0.0054866  |   2.4 |  0.14
Other   |            | 0.2038     |            |       | 11.27

Nlocal:        2776.45 ave        3961 max           0 min
Histogram: 8 4 4 0 6 10 8 2 28 34
Nghost:        3879.01 ave        5424 max         232 min
Histogram: 8 0 8 0 16 0 8 8 16 40
Neighs:        79213.4 ave      115455 max           0 min
Histogram: 8 4 4 0 10 6 8 8 24 32

Total # of neighbors = 8238191
Ave neighs/atom = 28.530433
Neighbor list builds = 0
Dangerous builds = 0
The dot product: 3.05542904045211e-08
Setting atom values ...
  1 settings made for x
  1 settings made for y
  1 settings made for z
Setting up cg style minimization ...
  Unit style    : metal
  Current step  : 3399
Per MPI rank memory allocation (min/avg/max) = 5.441 | 5.816 | 6.074 Mbytes
Step PotEng KinEng TotEng v_fx v_fy v_fz 
    3399   -1152449.3            0   -1152449.3  0.001251899 -0.010627335  0.018065382 
    3654   -1152449.3            0   -1152449.3 -2.3796353e-07 -1.5569598e-07 2.8686098e-07 
Loop time of 2.99483 on 104 procs for 255 steps with 288751 atoms

99.9% CPU use with 104 MPI tasks x 1 OpenMP threads

Minimization stats:
  Stopping criterion = energy tolerance
  Energy initial, next-to-last, final = 
     -1152449.34861516  -1152449.34949814  -1152449.34949814
  Force two-norm initial, final = 0.12423489 6.4119424e-06
  Force max component initial, final = 0.05226804 5.1612670e-07
  Final line search alpha, max atom move = 1.0000000 5.1612670e-07
  Iterations, force evaluations = 255 510

MPI task timing breakdown:
Section |  min time  |  avg time  |  max time  |%varavg| %total
---------------------------------------------------------------
Pair    | 0.76506    | 2.1461     | 2.8224     |  39.8 | 71.66
Neigh   | 0          | 0          | 0          |   0.0 |  0.00
Comm    | 0.04552    | 0.48589    | 1.4572     |  58.0 | 16.22
Output  | 0          | 0          | 0          |   0.0 |  0.00
Modify  | 2.9838e-05 | 0.0042044  | 0.0089865  |   3.1 |  0.14
Other   |            | 0.3586     |            |       | 11.97

Nlocal:        2776.45 ave        3961 max           0 min
Histogram: 8 4 4 0 6 10 8 2 28 34
Nghost:        3879.01 ave        5424 max         232 min
Histogram: 8 0 8 0 16 0 8 8 16 40
Neighs:        79213.4 ave      115455 max           0 min
Histogram: 8 4 4 0 10 6 8 8 24 32

Total # of neighbors = 8238191
Ave neighs/atom = 28.530433
Neighbor list builds = 0
Dangerous builds = 0
The dot product: 8.56245981548655e-11
Setting up cg style minimization ...
  Unit style    : metal
  Current step  : 3654
Per MPI rank memory allocation (min/avg/max) = 5.441 | 5.816 | 6.074 Mbytes
Step PotEng KinEng TotEng v_fx v_fy v_fz 
    3654   -1152449.3            0   -1152449.3 0.0051752442   0.10221077  0.059769332 
    3864   -1152449.4            0   -1152449.4 -8.6410922e-06 -7.2588906e-06 2.6326795e-05 
Loop time of 2.46496 on 104 procs for 210 steps with 288751 atoms

99.9% CPU use with 104 MPI tasks x 1 OpenMP threads

Minimization stats:
  Stopping criterion = energy tolerance
  Energy initial, next-to-last, final = 
     -1152449.34949814  -1152449.35157346  -1152449.35157346
  Force two-norm initial, final = 0.11851666 0.00010696406
  Force max component initial, final = 0.10221077 2.6326795e-05
  Final line search alpha, max atom move = 1.0000000 2.6326795e-05
  Iterations, force evaluations = 210 420

MPI task timing breakdown:
Section |  min time  |  avg time  |  max time  |%varavg| %total
---------------------------------------------------------------
Pair    | 0.63156    | 1.7669     | 2.32       |  35.9 | 71.68
Neigh   | 0          | 0          | 0          |   0.0 |  0.00
Comm    | 0.037167   | 0.39698    | 1.18       |  52.6 | 16.10
Output  | 0          | 0          | 0          |   0.0 |  0.00
Modify  | 2.1653e-05 | 0.002255   | 0.0058217  |   3.0 |  0.09
Other   |            | 0.2989     |            |       | 12.12

Nlocal:        2776.45 ave        3961 max           0 min
Histogram: 8 4 4 0 6 10 8 2 28 34
Nghost:        3879.01 ave        5424 max         232 min
Histogram: 8 0 8 0 16 0 8 8 16 40
Neighs:        79213.4 ave      115445 max           0 min
Histogram: 8 4 4 0 10 6 8 8 24 32

Total # of neighbors = 8238190
Ave neighs/atom = 28.530429
Neighbor list builds = 0
Dangerous builds = 0
OMP_NUM_THREADS environment is not set. Defaulting to 1 thread. (../comm.cpp:94)
  using 1 OpenMP thread(s) per MPI task
Reading data file ...
  orthogonal box = (-122.39241 -121.13707 -37.090501) to (122.39241 121.13707 37.090501)
  13 by 4 by 2 MPI processor grid
  reading atoms ...
  288751 atoms
  read_data CPU = 0.343 seconds
199981 atoms in group inner
88770 atoms in group outer
1 atoms in group carbon
Neighbor list info ...
  update every 1 steps, delay 0 steps, check yes
  max neighbors/atom: 2000, page size: 100000
  master list distance cutoff = 5.6
  ghost atom cutoff = 5.6
  binsize = 2.8, bins = 88 87 27
  1 neighbor lists, perpetual/occasional/extra = 1 0 0
  (1) pair eam/alloy, perpetual
      attributes: half, newton on
      pair build: half/bin/atomonly/newton
      stencil: half/bin/3d/newton
      bin: standard
Setting up cg style minimization ...
  Unit style    : metal
  Current step  : 0
Per MPI rank memory allocation (min/avg/max) = 5.441 | 5.816 | 6.074 Mbytes
Step v_fx v_fy v_fz PotEng KinEng TotEng 
       0   -25.793538    14.917389    -50.31359   -1152433.3            0   -1152433.3 
     245 -1.8985252e-06 -6.2418664e-09 -4.1728159e-06   -1152449.5            0   -1152449.5 
Loop time of 2.8532 on 104 procs for 245 steps with 288751 atoms

99.9% CPU use with 104 MPI tasks x 1 OpenMP threads

Minimization stats:
  Stopping criterion = energy tolerance
  Energy initial, next-to-last, final = 
     -1152433.34662944  -1152449.45035286  -1152449.45035286
  Force two-norm initial, final = 87.674933 2.1049948e-05
  Force max component initial, final = 57.511869 4.1728159e-06
  Final line search alpha, max atom move = 1.0000000 4.1728159e-06
  Iterations, force evaluations = 245 482

MPI task timing breakdown:
Section |  min time  |  avg time  |  max time  |%varavg| %total
---------------------------------------------------------------
Pair    | 0.74197    | 2.0328     | 2.6519     |  38.1 | 71.25
Neigh   | 5.0007e-05 | 0.014772   | 0.021489   |   5.0 |  0.52
Comm    | 0.044112   | 0.46144    | 1.375      |  56.2 | 16.17
Output  | 0          | 0          | 0          |   0.0 |  0.00
Modify  | 2.8557e-05 | 0.0025882  | 0.0067067  |   3.2 |  0.09
Other   |            | 0.3416     |            |       | 11.97

Nlocal:        2776.45 ave        3960 max           0 min
Histogram: 8 4 4 0 4 12 8 2 28 34
Nghost:        3879.01 ave        5425 max         232 min
Histogram: 8 0 8 0 16 0 8 8 16 40
Neighs:        79213.6 ave      115431 max           0 min
Histogram: 8 4 4 0 10 6 8 8 24 32

Total # of neighbors = 8238211
Ave neighs/atom = 28.530502
Neighbor list builds = 5
Dangerous builds = 0
Setting atom values ...
  1 settings made for x
  1 settings made for y
  1 settings made for z
Setting up cg style minimization ...
  Unit style    : metal
  Current step  : 245
Per MPI rank memory allocation (min/avg/max) = 5.441 | 5.816 | 6.074 Mbytes
Step PotEng KinEng TotEng v_fx v_fy v_fz 
     245   -1152449.4            0   -1152449.4  -0.02145854 -0.022522664  0.018299886 
     351   -1152449.4            0   -1152449.4 -1.072592e-05 -1.098339e-05 4.0024561e-05 
Loop time of 1.23359 on 104 procs for 106 steps with 288751 atoms

99.9% CPU use with 104 MPI tasks x 1 OpenMP threads

Minimization stats:
  Stopping criterion = energy tolerance
  Energy initial, next-to-last, final = 
     -1152449.44758651  -1152449.44932385  -1152449.44932385
  Force two-norm initial, final = 0.19159329 0.00026496913
  Force max component initial, final = 0.07666831 4.5788418e-05
  Final line search alpha, max atom move = 1.0000000 4.5788418e-05
  Iterations, force evaluations = 106 212

MPI task timing breakdown:
Section |  min time  |  avg time  |  max time  |%varavg| %total
---------------------------------------------------------------
Pair    | 0.31836    | 0.89236    | 1.162      |  25.5 | 72.34
Neigh   | 0          | 0          | 0          |   0.0 |  0.00
Comm    | 0.018517   | 0.19863    | 0.59805    |  37.7 | 16.10
Output  | 0          | 0          | 0          |   0.0 |  0.00
Modify  | 1.3358e-05 | 0.0017498  | 0.0037556  |   2.0 |  0.14
Other   |            | 0.1409     |            |       | 11.42

Nlocal:        2776.45 ave        3960 max           0 min
Histogram: 8 4 4 0 4 12 8 2 28 34
Nghost:        3879.01 ave        5424 max         232 min
Histogram: 8 0 8 0 16 0 8 8 16 40
Neighs:        79213.4 ave      115432 max           0 min
Histogram: 8 4 4 0 10 6 8 8 24 32

Total # of neighbors = 8238197
Ave neighs/atom = 28.530454
Neighbor list builds = 0
Dangerous builds = 0
Setting atom values ...
  1 settings made for x
  1 settings made for y
  1 settings made for z
Setting up cg style minimization ...
  Unit style    : metal
  Current step  : 351
Per MPI rank memory allocation (min/avg/max) = 5.441 | 5.816 | 6.074 Mbytes
Step PotEng KinEng TotEng v_fx v_fy v_fz 
     351   -1152449.4            0   -1152449.4 -0.019115135 -0.019443736  0.015019008 
     487   -1152449.4            0   -1152449.4 -1.6554881e-06 2.0339395e-07 2.9240824e-05 
Loop time of 1.57989 on 104 procs for 136 steps with 288751 atoms

99.9% CPU use with 104 MPI tasks x 1 OpenMP threads

Minimization stats:
  Stopping criterion = energy tolerance
  Energy initial, next-to-last, final = 
     -1152449.44525067  -1152449.44669193  -1152449.44669193
  Force two-norm initial, final = 0.17609935 8.8770119e-05
  Force max component initial, final = 0.069426873 2.9240824e-05
  Final line search alpha, max atom move = 1.0000000 2.9240824e-05
  Iterations, force evaluations = 136 272

MPI task timing breakdown:
Section |  min time  |  avg time  |  max time  |%varavg| %total
---------------------------------------------------------------
Pair    | 0.4082     | 1.1446     | 1.4901     |  28.9 | 72.45
Neigh   | 0          | 0          | 0          |   0.0 |  0.00
Comm    | 0.023857   | 0.25563    | 0.76889    |  42.7 | 16.18
Output  | 0          | 0          | 0          |   0.0 |  0.00
Modify  | 1.6433e-05 | 0.0022417  | 0.0048179  |   2.2 |  0.14
Other   |            | 0.1774     |            |       | 11.23

Nlocal:        2776.45 ave        3961 max           0 min
Histogram: 8 4 4 0 6 10 8 2 28 34
Nghost:        3879.01 ave        5424 max         232 min
Histogram: 8 0 8 0 16 0 8 8 16 40
Neighs:        79213.4 ave      115455 max           0 min
Histogram: 8 4 4 0 10 6 8 8 24 32

Total # of neighbors = 8238197
Ave neighs/atom = 28.530454
Neighbor list builds = 0
Dangerous builds = 0
The dot product: 3.57015941574626e-08
Setting atom values ...
  1 settings made for x
  1 settings made for y
  1 settings made for z
Setting up cg style minimization ...
  Unit style    : metal
  Current step  : 487
Per MPI rank memory allocation (min/avg/max) = 5.441 | 5.816 | 6.074 Mbytes
Step PotEng KinEng TotEng v_fx v_fy v_fz 
     487   -1152449.4            0   -1152449.4  -0.01822243 -0.018603257  0.011480534 
     645   -1152449.4            0   -1152449.4 -8.0349089e-06 -5.7584289e-06 2.6839963e-05 
Loop time of 1.84174 on 104 procs for 158 steps with 288751 atoms

99.9% CPU use with 104 MPI tasks x 1 OpenMP threads

Minimization stats:
  Stopping criterion = energy tolerance
  Energy initial, next-to-last, final = 
     -1152449.44126117  -1152449.44269829  -1152449.44269829
  Force two-norm initial, final = 0.17582629 0.00014717769
  Force max component initial, final = 0.067616331 2.6839963e-05
  Final line search alpha, max atom move = 1.0000000 2.6839963e-05
  Iterations, force evaluations = 158 316

MPI task timing breakdown:
Section |  min time  |  avg time  |  max time  |%varavg| %total
---------------------------------------------------------------
Pair    | 0.47423    | 1.3291     | 1.7322     |  31.1 | 72.17
Neigh   | 0          | 0          | 0          |   0.0 |  0.00
Comm    | 0.026646   | 0.30024    | 0.90059    |  45.4 | 16.30
Output  | 0          | 0          | 0          |   0.0 |  0.00
Modify  | 1.9464e-05 | 0.0026061  | 0.0056127  |   2.4 |  0.14
Other   |            | 0.2098     |            |       | 11.39

Nlocal:        2776.45 ave        3960 max           0 min
Histogram: 8 4 4 0 4 12 8 2 28 34
Nghost:        3879.01 ave        5424 max         232 min
Histogram: 8 0 8 0 16 0 8 8 16 40
Neighs:        79213.4 ave      115432 max           0 min
Histogram: 8 4 4 0 10 6 8 8 24 32

Total # of neighbors = 8238195
Ave neighs/atom = 28.530447
Neighbor list builds = 0
Dangerous builds = 0
The dot product: 2.53317193334514e-08
Setting atom values ...
  1 settings made for x
  1 settings made for y
  1 settings made for z
Setting up cg style minimization ...
  Unit style    : metal
  Current step  : 645
Per MPI rank memory allocation (min/avg/max) = 5.441 | 5.816 | 6.074 Mbytes
Step PotEng KinEng TotEng v_fx v_fy v_fz 
     645   -1152449.4            0   -1152449.4 -0.017685852 -0.018499079 0.0087718508 
     764   -1152449.4            0   -1152449.4 1.8368008e-05 1.4959856e-05 -3.8886595e-05 
Loop time of 1.402 on 104 procs for 119 steps with 288751 atoms

99.9% CPU use with 104 MPI tasks x 1 OpenMP threads

Minimization stats:
  Stopping criterion = energy tolerance
  Energy initial, next-to-last, final = 
     -1152449.43593065   -1152449.4373658   -1152449.4373658
  Force two-norm initial, final = 0.17532606 0.00020261839
  Force max component initial, final = 0.065691236 5.4289549e-05
  Final line search alpha, max atom move = 1.0000000 5.4289549e-05
  Iterations, force evaluations = 119 238

MPI task timing breakdown:
Section |  min time  |  avg time  |  max time  |%varavg| %total
---------------------------------------------------------------
Pair    | 0.35823    | 1.0028     | 1.3202     |  27.1 | 71.53
Neigh   | 0          | 0          | 0          |   0.0 |  0.00
Comm    | 0.020474   | 0.22714    | 0.6737     |  39.5 | 16.20
Output  | 0          | 0          | 0          |   0.0 |  0.00
Modify  | 1.4454e-05 | 0.0019676  | 0.0042253  |   2.1 |  0.14
Other   |            | 0.1701     |            |       | 12.13

Nlocal:        2776.45 ave        3960 max           0 min
Histogram: 8 4 4 0 4 12 8 2 28 34
Nghost:        3879.01 ave        5424 max         232 min
Histogram: 8 0 8 0 16 0 8 8 16 40
Neighs:        79213.4 ave      115432 max           0 min
Histogram: 8 4 4 0 10 6 8 8 24 32

Total # of neighbors = 8238196
Ave neighs/atom = 28.530450
Neighbor list builds = 0
Dangerous builds = 0
The dot product: -2.08291810458612e-08
Setting atom values ...
  1 settings made for x
  1 settings made for y
  1 settings made for z
Setting up cg style minimization ...
  Unit style    : metal
  Current step  : 764
Per MPI rank memory allocation (min/avg/max) = 5.441 | 5.816 | 6.074 Mbytes
Step PotEng KinEng TotEng v_fx v_fy v_fz 
     764   -1152449.4            0   -1152449.4 -0.017519581 -0.018913578 0.0064738046 
     870   -1152449.4            0   -1152449.4 -3.0288083e-05 -2.5878773e-05 5.2818789e-05 
Loop time of 1.28484 on 104 procs for 106 steps with 288751 atoms

99.9% CPU use with 104 MPI tasks x 1 OpenMP threads

Minimization stats:
  Stopping criterion = energy tolerance
  Energy initial, next-to-last, final = 
     -1152449.42921404  -1152449.43064884  -1152449.43064884
  Force two-norm initial, final = 0.17499014 0.00029285302
  Force max component initial, final = 0.06390282 5.2818789e-05
  Final line search alpha, max atom move = 1.0000000 5.2818789e-05
  Iterations, force evaluations = 106 212

MPI task timing breakdown:
Section |  min time  |  avg time  |  max time  |%varavg| %total
---------------------------------------------------------------
Pair    | 0.31791    | 0.89437    | 1.167      |  25.6 | 69.61
Neigh   | 0          | 0          | 0          |   0.0 |  0.00
Comm    | 0.019278   | 0.20644    | 0.60111    |  36.4 | 16.07
Output  | 0          | 0          | 0          |   0.0 |  0.00
Modify  | 1.3107e-05 | 0.0017522  | 0.0037598  |   2.0 |  0.14
Other   |            | 0.1823     |            |       | 14.19

Nlocal:        2776.45 ave        3959 max           0 min
Histogram: 8 4 4 0 4 12 8 2 28 34
Nghost:        3879.01 ave        5424 max         232 min
Histogram: 8 0 8 0 16 0 8 8 16 40
Neighs:        79213.4 ave      115392 max           0 min
Histogram: 8 4 4 0 10 6 8 8 24 32

Total # of neighbors = 8238198
Ave neighs/atom = 28.530457
Neighbor list builds = 0
Dangerous builds = 0
The dot product: 1.46541083586502e-08
Setting atom values ...
  1 settings made for x
  1 settings made for y
  1 settings made for z
Setting up cg style minimization ...
  Unit style    : metal
  Current step  : 870
Per MPI rank memory allocation (min/avg/max) = 5.441 | 5.816 | 6.074 Mbytes
Step PotEng KinEng TotEng v_fx v_fy v_fz 
     870   -1152449.4            0   -1152449.4 -0.017731438 -0.019680523 0.0049078928 
     993   -1152449.4            0   -1152449.4 -1.0325366e-05 -9.2702783e-06 1.5082558e-05 
Loop time of 1.45132 on 104 procs for 123 steps with 288751 atoms

99.9% CPU use with 104 MPI tasks x 1 OpenMP threads

Minimization stats:
  Stopping criterion = energy tolerance
  Energy initial, next-to-last, final = 
     -1152449.42107467  -1152449.42251015  -1152449.42251015
  Force two-norm initial, final = 0.17481053 0.00024387297
  Force max component initial, final = 0.063430571 3.2727768e-05
  Final line search alpha, max atom move = 1.0000000 3.2727768e-05
  Iterations, force evaluations = 123 246

MPI task timing breakdown:
Section |  min time  |  avg time  |  max time  |%varavg| %total
---------------------------------------------------------------
Pair    | 0.36978    | 1.0365     | 1.3581     |  27.6 | 71.42
Neigh   | 0          | 0          | 0          |   0.0 |  0.00
Comm    | 0.021698   | 0.23586    | 0.69707    |  39.8 | 16.25
Output  | 0          | 0          | 0          |   0.0 |  0.00
Modify  | 1.4787e-05 | 0.002035   | 0.0043618  |   2.1 |  0.14
Other   |            | 0.1769     |            |       | 12.19

Nlocal:        2776.45 ave        3959 max           0 min
Histogram: 8 4 4 0 4 12 8 2 28 34
Nghost:        3879.01 ave        5424 max         232 min
Histogram: 8 0 8 0 16 0 8 8 16 40
Neighs:        79213.4 ave      115392 max           0 min
Histogram: 8 4 4 0 10 6 8 8 24 32

Total # of neighbors = 8238198
Ave neighs/atom = 28.530457
Neighbor list builds = 0
Dangerous builds = 0
The dot product: 2.48329534414297e-09
Setting atom values ...
  1 settings made for x
  1 settings made for y
  1 settings made for z
Setting up cg style minimization ...
  Unit style    : metal
  Current step  : 993
Per MPI rank memory allocation (min/avg/max) = 5.441 | 5.816 | 6.074 Mbytes
Step PotEng KinEng TotEng v_fx v_fy v_fz 
     993   -1152449.4            0   -1152449.4  -0.01780297 -0.020186591  0.003804319 
    1000   -1152449.4            0   -1152449.4 -0.00044862223 0.00031890087  0.004411391 
    1168   -1152449.4            0   -1152449.4 -7.5842997e-07 -5.0212285e-06 -2.1537107e-05 
Loop time of 2.03118 on 104 procs for 175 steps with 288751 atoms

99.9% CPU use with 104 MPI tasks x 1 OpenMP threads

Minimization stats:
  Stopping criterion = energy tolerance
  Energy initial, next-to-last, final = 
     -1152449.41148355  -1152449.41291847  -1152449.41291847
  Force two-norm initial, final = 0.1744928 0.00014105548
  Force max component initial, final = 0.064587532 3.1898513e-05
  Final line search alpha, max atom move = 1.0000000 3.1898513e-05
  Iterations, force evaluations = 175 350

MPI task timing breakdown:
Section |  min time  |  avg time  |  max time  |%varavg| %total
---------------------------------------------------------------
Pair    | 0.52337    | 1.4677     | 1.9145     |  32.7 | 72.26
Neigh   | 0          | 0          | 0          |   0.0 |  0.00
Comm    | 0.031304   | 0.33021    | 0.98708    |  48.0 | 16.26
Output  | 0.00010154 | 0.0001043  | 0.00016927 |   0.0 |  0.01
Modify  | 2.1866e-05 | 0.00289    | 0.0061936  |   2.5 |  0.14
Other   |            | 0.2303     |            |       | 11.34

Nlocal:        2776.45 ave        3958 max           0 min
Histogram: 8 4 4 0 4 12 8 2 28 34
Nghost:        3879.01 ave        5424 max         232 min
Histogram: 8 0 8 0 16 0 8 8 16 40
Neighs:        79213.5 ave      115355 max           0 min
Histogram: 8 4 4 0 10 6 8 8 24 32

Total # of neighbors = 8238201
Ave neighs/atom = 28.530467
Neighbor list builds = 0
Dangerous builds = 0
The dot product: -2.44028054948659e-08
Setting atom values ...
  1 settings made for x
  1 settings made for y
  1 settings made for z
Setting up cg style minimization ...
  Unit style    : metal
  Current step  : 1168
Per MPI rank memory allocation (min/avg/max) = 5.441 | 5.816 | 6.074 Mbytes
Step PotEng KinEng TotEng v_fx v_fy v_fz 
    1168   -1152449.4            0   -1152449.4 -0.017574869 -0.020211256 0.0032511833 
    1310   -1152449.4            0   -1152449.4 -1.0787188e-06 -8.0139047e-06 -3.3029851e-05 
Loop time of 1.66226 on 104 procs for 142 steps with 288751 atoms

99.9% CPU use with 104 MPI tasks x 1 OpenMP threads

Minimization stats:
  Stopping criterion = energy tolerance
  Energy initial, next-to-last, final = 
     -1152449.40041433  -1152449.40185098  -1152449.40185098
  Force two-norm initial, final = 0.17403959 0.00014658563
  Force max component initial, final = 0.0656587 3.3029851e-05
  Final line search alpha, max atom move = 1.0000000 3.3029851e-05
  Iterations, force evaluations = 142 284

MPI task timing breakdown:
Section |  min time  |  avg time  |  max time  |%varavg| %total
---------------------------------------------------------------
Pair    | 0.42771    | 1.1981     | 1.5613     |  29.6 | 72.08
Neigh   | 0          | 0          | 0          |   0.0 |  0.00
Comm    | 0.024648   | 0.27117    | 0.81108    |  43.4 | 16.31
Output  | 0          | 0          | 0          |   0.0 |  0.00
Modify  | 1.7465e-05 | 0.0023501  | 0.0050737  |   2.3 |  0.14
Other   |            | 0.1906     |            |       | 11.47

Nlocal:        2776.45 ave        3954 max           0 min
Histogram: 8 4 4 0 4 12 8 0 30 34
Nghost:        3879.01 ave        5424 max         232 min
Histogram: 8 0 8 0 16 0 8 8 16 40
Neighs:        79213.5 ave      115248 max           0 min
Histogram: 8 4 4 0 10 6 8 8 24 32

Total # of neighbors = 8238202
Ave neighs/atom = 28.530471
Neighbor list builds = 0
Dangerous builds = 0
The dot product: -4.25627337695119e-08
Setting atom values ...
  1 settings made for x
  1 settings made for y
  1 settings made for z
Setting up cg style minimization ...
  Unit style    : metal
  Current step  : 1310
Per MPI rank memory allocation (min/avg/max) = 5.441 | 5.816 | 6.074 Mbytes
Step PotEng KinEng TotEng v_fx v_fy v_fz 
    1310   -1152449.4            0   -1152449.4 -0.016762715 -0.019479662 0.0029811453 
    1442   -1152449.4            0   -1152449.4 8.2566617e-06 -3.5430983e-06 -6.229649e-05 
Loop time of 1.53607 on 104 procs for 132 steps with 288751 atoms

99.9% CPU use with 104 MPI tasks x 1 OpenMP threads

Minimization stats:
  Stopping criterion = energy tolerance
  Energy initial, next-to-last, final = 
      -1152449.3878535  -1152449.38929579  -1152449.38929579
  Force two-norm initial, final = 0.17348156 0.00022301657
  Force max component initial, final = 0.06675435 6.2296490e-05
  Final line search alpha, max atom move = 1.0000000 6.2296490e-05
  Iterations, force evaluations = 132 264

MPI task timing breakdown:
Section |  min time  |  avg time  |  max time  |%varavg| %total
---------------------------------------------------------------
Pair    | 0.39392    | 1.1108     | 1.4503     |  28.7 | 72.32
Neigh   | 0          | 0          | 0          |   0.0 |  0.00
Comm    | 0.024318   | 0.24915    | 0.74824    |  41.8 | 16.22
Output  | 0          | 0          | 0          |   0.0 |  0.00
Modify  | 1.5982e-05 | 0.0021853  | 0.0046811  |   2.2 |  0.14
Other   |            | 0.1739     |            |       | 11.32

Nlocal:        2776.45 ave        3952 max           0 min
Histogram: 8 4 4 0 4 12 8 0 30 34
Nghost:        3879.01 ave        5427 max         232 min
Histogram: 8 0 8 0 16 0 8 8 16 40
Neighs:        79213.5 ave      115170 max           0 min
Histogram: 8 4 4 0 10 6 8 8 24 32

Total # of neighbors = 8238203
Ave neighs/atom = 28.530474
Neighbor list builds = 0
Dangerous builds = 0
The dot product: -8.54191762198978e-08
Setting atom values ...
  1 settings made for x
  1 settings made for y
  1 settings made for z
Setting up cg style minimization ...
  Unit style    : metal
  Current step  : 1442
Per MPI rank memory allocation (min/avg/max) = 5.441 | 5.816 | 6.074 Mbytes
Step PotEng KinEng TotEng v_fx v_fy v_fz 
    1442   -1152449.4            0   -1152449.4  -0.01511037 -0.017588864 0.0034992128 
    1662   -1152449.4            0   -1152449.4 2.0275216e-06 4.3645908e-07 -8.8247439e-06 
Loop time of 2.56669 on 104 procs for 220 steps with 288751 atoms

99.9% CPU use with 104 MPI tasks x 1 OpenMP threads

Minimization stats:
  Stopping criterion = energy tolerance
  Energy initial, next-to-last, final = 
     -1152449.37379599  -1152449.37525366  -1152449.37525366
  Force two-norm initial, final = 0.17280055 3.1034783e-05
  Force max component initial, final = 0.067982578 8.8247439e-06
  Final line search alpha, max atom move = 1.0000000 8.8247439e-06
  Iterations, force evaluations = 220 440

MPI task timing breakdown:
Section |  min time  |  avg time  |  max time  |%varavg| %total
---------------------------------------------------------------
Pair    | 0.65921    | 1.8516     | 2.4163     |  36.8 | 72.14
Neigh   | 0          | 0          | 0          |   0.0 |  0.00
Comm    | 0.038917   | 0.41836    | 1.2495     |  53.9 | 16.30
Output  | 0          | 0          | 0          |   0.0 |  0.00
Modify  | 2.7076e-05 | 0.0036331  | 0.00782    |   2.8 |  0.14
Other   |            | 0.2931     |            |       | 11.42

Nlocal:        2776.45 ave        3950 max           0 min
Histogram: 8 4 4 0 4 12 8 0 28 36
Nghost:        3879.01 ave        5429 max         232 min
Histogram: 8 0 8 0 16 0 8 8 16 40
Neighs:        79213.5 ave      115104 max           0 min
Histogram: 8 4 4 0 10 6 8 8 23 33

Total # of neighbors = 8238204
Ave neighs/atom = 28.530478
Neighbor list builds = 0
Dangerous builds = 0
The dot product: -1.48441447407742e-08
Setting atom values ...
  1 settings made for x
  1 settings made for y
  1 settings made for z
Setting up cg style minimization ...
  Unit style    : metal
  Current step  : 1662
Per MPI rank memory allocation (min/avg/max) = 5.441 | 5.816 | 6.074 Mbytes
Step PotEng KinEng TotEng v_fx v_fy v_fz 
    1662   -1152449.4            0   -1152449.4  -0.01172816  -0.01317318 0.0057414604 
    1789   -1152449.4            0   -1152449.4 -2.3937981e-05 -1.1248758e-05 7.4216245e-05 
Loop time of 1.46933 on 104 procs for 127 steps with 288751 atoms

99.9% CPU use with 104 MPI tasks x 1 OpenMP threads

Minimization stats:
  Stopping criterion = energy tolerance
  Energy initial, next-to-last, final = 
       -1152449.358251  -1152449.35976652  -1152449.35976652
  Force two-norm initial, final = 0.17207098 0.00026880304
  Force max component initial, final = 0.069692628 7.4216245e-05
  Final line search alpha, max atom move = 1.0000000 7.4216245e-05
  Iterations, force evaluations = 127 254

MPI task timing breakdown:
Section |  min time  |  avg time  |  max time  |%varavg| %total
---------------------------------------------------------------
Pair    | 0.38101    | 1.066      | 1.3854     |  27.8 | 72.55
Neigh   | 0          | 0          | 0          |   0.0 |  0.00
Comm    | 0.021089   | 0.23785    | 0.72125    |  41.1 | 16.19
Output  | 0          | 0          | 0          |   0.0 |  0.00
Modify  | 1.5868e-05 | 0.0020952  | 0.0045018  |   2.2 |  0.14
Other   |            | 0.1634     |            |       | 11.12

Nlocal:        2776.45 ave        3949 max           0 min
Histogram: 8 4 4 0 4 12 8 0 28 36
Nghost:        3878.97 ave        5429 max         232 min
Histogram: 8 0 8 0 16 0 8 8 16 40
Neighs:        79213.5 ave      115076 max           0 min
Histogram: 8 4 4 0 10 6 8 8 23 33

Total # of neighbors = 8238205
Ave neighs/atom = 28.530481
Neighbor list builds = 0
Dangerous builds = 0
The dot product: 1.70027244206611e-07
Setting atom values ...
  1 settings made for x
  1 settings made for y
  1 settings made for z
Setting up cg style minimization ...
  Unit style    : metal
  Current step  : 1789
Per MPI rank memory allocation (min/avg/max) = 5.441 | 5.816 | 6.074 Mbytes
Step PotEng KinEng TotEng v_fx v_fy v_fz 
    1789   -1152449.3            0   -1152449.3 -0.0025646009 0.00057535682  0.013606682 
    1978   -1152449.3            0   -1152449.3 -6.4010777e-06 2.1644178e-06 3.6469049e-05 
Loop time of 2.2183 on 104 procs for 189 steps with 288751 atoms

99.9% CPU use with 104 MPI tasks x 1 OpenMP threads

Minimization stats:
  Stopping criterion = energy tolerance
  Energy initial, next-to-last, final = 
     -1152449.34132606  -1152449.34323095  -1152449.34323095
  Force two-norm initial, final = 0.17189574 0.00013807874
  Force max component initial, final = 0.073001272 3.6469049e-05
  Final line search alpha, max atom move = 1.0000000 3.6469049e-05
  Iterations, force evaluations = 189 378

MPI task timing breakdown:
Section |  min time  |  avg time  |  max time  |%varavg| %total
---------------------------------------------------------------
Pair    | 0.56629    | 1.5932     | 2.0791     |  33.9 | 71.82
Neigh   | 0          | 0          | 0          |   0.0 |  0.00
Comm    | 0.033682   | 0.36029    | 1.0741     |  49.8 | 16.24
Output  | 0          | 0          | 0          |   0.0 |  0.00
Modify  | 2.3019e-05 | 0.0031249  | 0.006691   |   2.6 |  0.14
Other   |            | 0.2617     |            |       | 11.80

Nlocal:        2776.45 ave        3947 max           0 min
Histogram: 8 4 4 0 4 12 8 0 28 36
Nghost:        3878.97 ave        5429 max         232 min
Histogram: 8 0 8 0 16 0 8 8 16 40
Neighs:        79213.5 ave      115018 max           0 min
Histogram: 8 4 4 0 10 6 8 8 23 33

Total # of neighbors = 8238203
Ave neighs/atom = 28.530474
Neighbor list builds = 0
Dangerous builds = 0
The dot product: 3.35256308320324e-07
Setting atom values ...
  1 settings made for x
  1 settings made for y
  1 settings made for z
Setting up cg style minimization ...
  Unit style    : metal
  Current step  : 1978
Per MPI rank memory allocation (min/avg/max) = 5.441 | 5.816 | 6.074 Mbytes
Step PotEng KinEng TotEng v_fx v_fy v_fz 
    1978   -1152449.3            0   -1152449.3   0.01146086  0.030149123   0.03369063 
    2000   -1152449.3            0   -1152449.3 -4.3836457e-05 -0.00016049412 -0.00024483269 
    2257   -1152449.3            0   -1152449.3 -5.0771688e-07 -1.1564248e-07 1.6391549e-06 
Loop time of 3.24892 on 104 procs for 279 steps with 288751 atoms

99.9% CPU use with 104 MPI tasks x 1 OpenMP threads

Minimization stats:
  Stopping criterion = energy tolerance
  Energy initial, next-to-last, final = 
     -1152449.32360446  -1152449.32615706  -1152449.32615706
  Force two-norm initial, final = 0.17818075 7.6740380e-06
  Force max component initial, final = 0.079854597 1.8862534e-06
  Final line search alpha, max atom move = 1.0000000 1.8862534e-06
  Iterations, force evaluations = 279 558

MPI task timing breakdown:
Section |  min time  |  avg time  |  max time  |%varavg| %total
---------------------------------------------------------------
Pair    | 0.83594    | 2.3432     | 3.063      |  41.5 | 72.12
Neigh   | 0          | 0          | 0          |   0.0 |  0.00
Comm    | 0.051496   | 0.52599    | 1.5754     |  60.7 | 16.19
Output  | 9.9503e-05 | 0.00010594 | 0.00018316 |   0.0 |  0.00
Modify  | 3.4579e-05 | 0.0045988  | 0.0098981  |   3.2 |  0.14
Other   |            | 0.375      |            |       | 11.54

Nlocal:        2776.45 ave        3945 max           0 min
Histogram: 8 4 4 0 4 12 8 0 28 36
Nghost:        3879.09 ave        5429 max         232 min
Histogram: 8 0 8 0 16 0 8 8 16 40
Neighs:        79213.5 ave      114961 max           0 min
Histogram: 8 4 4 0 10 6 8 8 24 32

Total # of neighbors = 8238205
Ave neighs/atom = 28.530481
Neighbor list builds = 0
Dangerous builds = 0
The dot product: 1.66837813408041e-08
Setting atom values ...
  1 settings made for x
  1 settings made for y
  1 settings made for z
Setting up cg style minimization ...
  Unit style    : metal
  Current step  : 2257
Per MPI rank memory allocation (min/avg/max) = 5.441 | 5.816 | 6.074 Mbytes
Step PotEng KinEng TotEng v_fx v_fy v_fz 
    2257   -1152449.3            0   -1152449.3  0.018264763   0.05881733  0.046832043 
    2465   -1152449.3            0   -1152449.3 -1.3808772e-05 9.7388627e-07 4.5428501e-05 
Loop time of 2.42882 on 104 procs for 208 steps with 288751 atoms

99.9% CPU use with 104 MPI tasks x 1 OpenMP threads

Minimization stats:
  Stopping criterion = energy tolerance
  Energy initial, next-to-last, final = 
     -1152449.30558032  -1152449.30848909  -1152449.30848909
  Force two-norm initial, final = 0.18924426 0.00013405764
  Force max component initial, final = 0.089177536 4.5428501e-05
  Final line search alpha, max atom move = 1.0000000 4.5428501e-05
  Iterations, force evaluations = 208 416

MPI task timing breakdown:
Section |  min time  |  avg time  |  max time  |%varavg| %total
---------------------------------------------------------------
Pair    | 0.62291    | 1.752      | 2.2909     |  35.9 | 72.13
Neigh   | 0          | 0          | 0          |   0.0 |  0.00
Comm    | 0.037381   | 0.39366    | 1.177      |  52.7 | 16.21
Output  | 0          | 0          | 0          |   0.0 |  0.00
Modify  | 2.4943e-05 | 0.003433   | 0.0074199  |   2.8 |  0.14
Other   |            | 0.2797     |            |       | 11.52

Nlocal:        2776.45 ave        3945 max           0 min
Histogram: 8 4 4 0 4 12 8 0 28 36
Nghost:        3879.11 ave        5424 max         232 min
Histogram: 8 0 8 0 16 0 8 8 16 40
Neighs:        79213.5 ave      114971 max           0 min
Histogram: 8 4 4 0 10 6 8 8 24 32

Total # of neighbors = 8238206
Ave neighs/atom = 28.530485
Neighbor list builds = 0
Dangerous builds = 0
The dot product: 5.39104556725917e-07
Setting atom values ...
  1 settings made for x
  1 settings made for y
  1 settings made for z
Setting up cg style minimization ...
  Unit style    : metal
  Current step  : 2465
Per MPI rank memory allocation (min/avg/max) = 5.441 | 5.816 | 6.074 Mbytes
Step PotEng KinEng TotEng v_fx v_fy v_fz 
    2465   -1152449.3            0   -1152449.3  0.016267004  0.068199173  0.041350187 
    2677   -1152449.3            0   -1152449.3 -3.0467637e-06 3.6908993e-06 1.3085652e-05 
Loop time of 2.46097 on 104 procs for 212 steps with 288751 atoms

99.9% CPU use with 104 MPI tasks x 1 OpenMP threads

Minimization stats:
  Stopping criterion = energy tolerance
  Energy initial, next-to-last, final = 
     -1152449.28687415  -1152449.28970703  -1152449.28970703
  Force two-norm initial, final = 0.19148502 0.00010607321
  Force max component initial, final = 0.098129539 1.4057910e-05
  Final line search alpha, max atom move = 1.0000000 1.4057910e-05
  Iterations, force evaluations = 212 424

MPI task timing breakdown:
Section |  min time  |  avg time  |  max time  |%varavg| %total
---------------------------------------------------------------
Pair    | 0.63374    | 1.7772     | 2.32       |  36.1 | 72.21
Neigh   | 0          | 0          | 0          |   0.0 |  0.00
Comm    | 0.038032   | 0.39916    | 1.1926     |  53.0 | 16.22
Output  | 0          | 0          | 0          |   0.0 |  0.00
Modify  | 2.6608e-05 | 0.0034915  | 0.0075205  |   2.8 |  0.14
Other   |            | 0.2812     |            |       | 11.42

Nlocal:        2776.45 ave        3948 max           0 min
Histogram: 8 4 4 0 4 12 8 0 28 36
Nghost:        3879.11 ave        5424 max         232 min
Histogram: 8 0 8 0 16 0 8 8 16 40
Neighs:        79213.5 ave      115056 max           0 min
Histogram: 8 4 4 0 10 6 8 8 24 32

Total # of neighbors = 8238204
Ave neighs/atom = 28.530478
Neighbor list builds = 0
Dangerous builds = 0
The dot product: 2.18762525311729e-07
Setting atom values ...
  1 settings made for x
  1 settings made for y
  1 settings made for z
Setting up cg style minimization ...
  Unit style    : metal
  Current step  : 2677
Per MPI rank memory allocation (min/avg/max) = 5.441 | 5.816 | 6.074 Mbytes
Step PotEng KinEng TotEng v_fx v_fy v_fz 
    2677   -1152449.3            0   -1152449.3  0.011389068  0.065445193  0.032276475 
    2889   -1152449.3            0   -1152449.3 -1.5180982e-05 2.4047824e-06 4.020551e-05 
Loop time of 2.47573 on 104 procs for 212 steps with 288751 atoms

99.9% CPU use with 104 MPI tasks x 1 OpenMP threads

Minimization stats:
  Stopping criterion = energy tolerance
  Energy initial, next-to-last, final = 
     -1152449.26704032  -1152449.26970882  -1152449.26970882
  Force two-norm initial, final = 0.18852462 0.00011014261
  Force max component initial, final = 0.10534826 4.0205510e-05
  Final line search alpha, max atom move = 1.0000000 4.0205510e-05
  Iterations, force evaluations = 212 424

MPI task timing breakdown:
Section |  min time  |  avg time  |  max time  |%varavg| %total
---------------------------------------------------------------
Pair    | 0.63415    | 1.7876     | 2.3375     |  36.3 | 72.21
Neigh   | 0          | 0          | 0          |   0.0 |  0.00
Comm    | 0.037479   | 0.40388    | 1.21       |  53.2 | 16.31
Output  | 0          | 0          | 0          |   0.0 |  0.00
Modify  | 2.6563e-05 | 0.0034982  | 0.0075775  |   2.8 |  0.14
Other   |            | 0.2807     |            |       | 11.34

Nlocal:        2776.45 ave        3953 max           0 min
Histogram: 8 4 4 0 4 12 8 0 30 34
Nghost:        3879.13 ave        5424 max         232 min
Histogram: 8 0 8 0 16 0 8 8 16 40
Neighs:        79213.5 ave      115223 max           0 min
Histogram: 8 4 4 0 10 6 8 8 24 32

Total # of neighbors = 8238209
Ave neighs/atom = 28.530495
Neighbor list builds = 0
Dangerous builds = 0
The dot product: 4.44056894808461e-07
Setting atom values ...
  1 settings made for x
  1 settings made for y
  1 settings made for z
Setting up cg style minimization ...
  Unit style    : metal
  Current step  : 2889
Per MPI rank memory allocation (min/avg/max) = 5.441 | 5.816 | 6.074 Mbytes
Step PotEng KinEng TotEng v_fx v_fy v_fz 
    2889   -1152449.2            0   -1152449.2 0.0060079675  0.057274845  0.026064648 
    3000   -1152449.2            0   -1152449.2 4.1242389e-05 -1.7322509e-05 -0.00010711638 
    3071   -1152449.2            0   -1152449.2 1.2334838e-05 -2.5165165e-06 -3.0179972e-05 
Loop time of 2.11747 on 104 procs for 182 steps with 288751 atoms

99.9% CPU use with 104 MPI tasks x 1 OpenMP threads

Minimization stats:
  Stopping criterion = energy tolerance
  Energy initial, next-to-last, final = 
     -1152449.24606128  -1152449.24843456  -1152449.24843456
  Force two-norm initial, final = 0.18420533 0.00021845986
  Force max component initial, final = 0.11081551 3.0179972e-05
  Final line search alpha, max atom move = 1.0000000 3.0179972e-05
  Iterations, force evaluations = 182 364

MPI task timing breakdown:
Section |  min time  |  avg time  |  max time  |%varavg| %total
---------------------------------------------------------------
Pair    | 0.54464    | 1.5281     | 1.9917     |  33.4 | 72.16
Neigh   | 0          | 0          | 0          |   0.0 |  0.00
Comm    | 0.03102    | 0.34411    | 1.0333     |  49.0 | 16.25
Output  | 0.00010112 | 0.00011123 | 0.00023647 |   0.0 |  0.01
Modify  | 2.2014e-05 | 0.0030036  | 0.0064653  |   2.6 |  0.14
Other   |            | 0.2422     |            |       | 11.44

Nlocal:        2776.45 ave        3954 max           0 min
Histogram: 8 4 4 0 4 12 8 0 30 34
Nghost:        3879.13 ave        5424 max         232 min
Histogram: 8 0 8 0 16 0 8 8 16 40
Neighs:        79213.5 ave      115257 max           0 min
Histogram: 8 4 4 0 10 6 8 8 24 32

Total # of neighbors = 8238207
Ave neighs/atom = 28.530488
Neighbor list builds = 0
Dangerous builds = 0
The dot product: -3.18404667545125e-07
Setting atom values ...
  1 settings made for x
[...]
Setting up cg style minimization ...
  Unit style    : metal
  Current step  : 28278
Per MPI rank memory allocation (min/avg/max) = 5.441 | 5.816 | 6.074 Mbytes
Step PotEng KinEng TotEng v_fx v_fy v_fz 
   28278   -1152449.4            0   -1152449.4  0.027158765 -0.037036977  0.026560646 
   28352   -1152449.4            0   -1152449.4 -3.7757492e-06 -1.8656298e-05 2.5925244e-05 
Loop time of 0.869726 on 104 procs for 74 steps with 288751 atoms

99.9% CPU use with 104 MPI tasks x 1 OpenMP threads

Minimization stats:
  Stopping criterion = energy tolerance
  Energy initial, next-to-last, final = 
     -1152449.39207661  -1152449.39353441  -1152449.39353441
  Force two-norm initial, final = 0.16715826 0.00012996723
  Force max component initial, final = 0.071409179 3.7505423e-05
  Final line search alpha, max atom move = 1.0000000 3.7505423e-05
  Iterations, force evaluations = 74 148

MPI task timing breakdown:
Section |  min time  |  avg time  |  max time  |%varavg| %total
---------------------------------------------------------------
Pair    | 0.22235    | 0.63054    | 0.81969    |  21.4 | 72.50
Neigh   | 0          | 0          | 0          |   0.0 |  0.00
Comm    | 0.014094   | 0.14194    | 0.42571    |  31.8 | 16.32
Output  | 0          | 0          | 0          |   0.0 |  0.00
Modify  | 9.4483e-06 | 0.0012337  | 0.002713   |   1.7 |  0.14
Other   |            | 0.09601    |            |       | 11.04

Nlocal:        2776.45 ave        3945 max           0 min
Histogram: 8 4 4 0 4 12 8 2 26 36
Nghost:        3879.43 ave        5423 max         232 min
Histogram: 8 0 8 0 16 0 8 8 16 40
Neighs:        79213.5 ave      114794 max           0 min
Histogram: 8 4 4 0 10 6 8 8 22 34

Total # of neighbors = 8238203
Ave neighs/atom = 28.530474
Neighbor list builds = 0
Dangerous builds = 0
The dot product: 8.93633764442828e-08
Setting atom values ...
  1 settings made for x
  1 settings made for y
  1 settings made for z
Setting up cg style minimization ...
  Unit style    : metal
  Current step  : 28352
Per MPI rank memory allocation (min/avg/max) = 5.441 | 5.816 | 6.074 Mbytes
Step PotEng KinEng TotEng v_fx v_fy v_fz 
   28352   -1152449.4            0   -1152449.4  0.037949315  -0.03957422  0.022262171 
   28515   -1152449.4            0   -1152449.4 2.1728819e-05 -1.0032777e-05 -3.0083503e-06 
Loop time of 1.92281 on 104 procs for 163 steps with 288751 atoms

99.9% CPU use with 104 MPI tasks x 1 OpenMP threads

Minimization stats:
  Stopping criterion = energy tolerance
  Energy initial, next-to-last, final = 
     -1152449.38146446  -1152449.38345348  -1152449.38345348
  Force two-norm initial, final = 0.17126781 0.00018673308
  Force max component initial, final = 0.070155723 4.0166786e-05
  Final line search alpha, max atom move = 1.0000000 4.0166786e-05
  Iterations, force evaluations = 163 326

MPI task timing breakdown:
Section |  min time  |  avg time  |  max time  |%varavg| %total
---------------------------------------------------------------
Pair    | 0.49154    | 1.3744     | 1.8176     |  31.6 | 71.48
Neigh   | 0          | 0          | 0          |   0.0 |  0.00
Comm    | 0.03342    | 0.31253    | 0.93387    |  45.9 | 16.25
Output  | 0          | 0          | 0          |   0.0 |  0.00
Modify  | 1.9724e-05 | 0.0026924  | 0.0058024  |   2.5 |  0.14
Other   |            | 0.2332     |            |       | 12.13

Nlocal:        2776.45 ave        3945 max           0 min
Histogram: 8 4 4 0 4 12 8 2 26 36
Nghost:        3879.41 ave        5422 max         232 min
Histogram: 8 0 8 0 16 0 8 8 16 40
Neighs:        79213.5 ave      114794 max           0 min
Histogram: 8 4 4 0 10 6 8 8 22 34

Total # of neighbors = 8238207
Ave neighs/atom = 28.530488
Neighbor list builds = 0
Dangerous builds = 0
The dot product: 4.16734805653277e-07
Setting atom values ...
  1 settings made for x
  1 settings made for y
  1 settings made for z
Setting up cg style minimization ...
  Unit style    : metal
  Current step  : 28515
Per MPI rank memory allocation (min/avg/max) = 5.441 | 5.816 | 6.074 Mbytes
Step PotEng KinEng TotEng v_fx v_fy v_fz 
   28515   -1152449.4            0   -1152449.4  0.038224549 -0.039127183  0.022036295 
   28583   -1152449.4            0   -1152449.4 -3.3064085e-05 1.9261868e-05 -7.9349789e-07 
Loop time of 0.799352 on 104 procs for 68 steps with 288751 atoms

99.9% CPU use with 104 MPI tasks x 1 OpenMP threads

Minimization stats:
  Stopping criterion = energy tolerance
  Energy initial, next-to-last, final = 
     -1152449.37228042  -1152449.37393447  -1152449.37393447
  Force two-norm initial, final = 0.16752311 0.00021871571
  Force max component initial, final = 0.070088487 3.6995720e-05
  Final line search alpha, max atom move = 1.0000000 3.6995720e-05
  Iterations, force evaluations = 68 136

MPI task timing breakdown:
Section |  min time  |  avg time  |  max time  |%varavg| %total
---------------------------------------------------------------
Pair    | 0.20511    | 0.58048    | 0.75436    |  20.6 | 72.62
Neigh   | 0          | 0          | 0          |   0.0 |  0.00
Comm    | 0.012596   | 0.13067    | 0.39908    |  30.3 | 16.35
Output  | 0          | 0          | 0          |   0.0 |  0.00
Modify  | 9.1349e-06 | 0.00113    | 0.002439   |   1.6 |  0.14
Other   |            | 0.08708    |            |       | 10.89

Nlocal:        2776.45 ave        3944 max           0 min
Histogram: 8 4 4 0 4 12 8 2 26 36
Nghost:        3879.39 ave        5422 max         232 min
Histogram: 8 0 8 0 16 0 8 8 16 40
Neighs:        79213.5 ave      114796 max           0 min
Histogram: 8 4 4 0 10 6 8 8 22 34

Total # of neighbors = 8238205
Ave neighs/atom = 28.530481
Neighbor list builds = 0
Dangerous builds = 0
The dot product: -4.74258713305881e-07
Setting atom values ...
  1 settings made for x
  1 settings made for y
  1 settings made for z
Setting up cg style minimization ...
  Unit style    : metal
  Current step  : 28583
Per MPI rank memory allocation (min/avg/max) = 5.441 | 5.816 | 6.074 Mbytes
Step PotEng KinEng TotEng v_fx v_fy v_fz 
   28583   -1152449.4            0   -1152449.4  0.035432558 -0.037467432  0.022284238 
   28663   -1152449.4            0   -1152449.4 -1.8476597e-05 -6.0110125e-06 2.0482457e-05 
Loop time of 0.937196 on 104 procs for 80 steps with 288751 atoms

99.9% CPU use with 104 MPI tasks x 1 OpenMP threads

Minimization stats:
  Stopping criterion = energy tolerance
  Energy initial, next-to-last, final = 
     -1152449.36288893  -1152449.36433592  -1152449.36433592
  Force two-norm initial, final = 0.16310115 0.0001561329
  Force max component initial, final = 0.069795247 2.6965154e-05
  Final line search alpha, max atom move = 1.0000000 2.6965154e-05
  Iterations, force evaluations = 80 160

MPI task timing breakdown:
Section |  min time  |  avg time  |  max time  |%varavg| %total
---------------------------------------------------------------
Pair    | 0.24083    | 0.67646    | 0.88336    |  22.3 | 72.18
Neigh   | 0          | 0          | 0          |   0.0 |  0.00
Comm    | 0.015311   | 0.15166    | 0.45131    |  32.7 | 16.18
Output  | 0          | 0          | 0          |   0.0 |  0.00
Modify  | 9.8385e-06 | 0.0013284  | 0.0028729  |   1.7 |  0.14
Other   |            | 0.1078     |            |       | 11.50

Nlocal:        2776.45 ave        3945 max           0 min
Histogram: 8 4 4 0 4 12 8 2 26 36
Nghost:        3879.39 ave        5422 max         232 min
Histogram: 8 0 8 0 16 0 8 8 16 40
Neighs:        79213.5 ave      114826 max           0 min
Histogram: 8 4 4 0 10 6 8 8 22 34

Total # of neighbors = 8238206
Ave neighs/atom = 28.530485
Neighbor list builds = 0
Dangerous builds = 0
The dot product: -1.00118279112777e-07
Setting atom values ...
  1 settings made for x
  1 settings made for y
  1 settings made for z
Setting up cg style minimization ...
  Unit style    : metal
  Current step  : 28663
Per MPI rank memory allocation (min/avg/max) = 5.441 | 5.816 | 6.074 Mbytes
Step PotEng KinEng TotEng v_fx v_fy v_fz 
   28663   -1152449.4            0   -1152449.4  0.034446839  -0.03636435  0.021847795 
   28863   -1152449.4            0   -1152449.4 -4.4583727e-06 -3.5824105e-06 7.614349e-06 
Loop time of 2.3403 on 104 procs for 200 steps with 288751 atoms

99.9% CPU use with 104 MPI tasks x 1 OpenMP threads

Minimization stats:
  Stopping criterion = energy tolerance
  Energy initial, next-to-last, final = 
     -1152449.35297351  -1152449.35434917  -1152449.35434917
  Force two-norm initial, final = 0.16016178 3.0440724e-05
  Force max component initial, final = 0.069248588 7.6143490e-06
  Final line search alpha, max atom move = 1.0000000 7.6143490e-06
  Iterations, force evaluations = 200 400

MPI task timing breakdown:
Section |  min time  |  avg time  |  max time  |%varavg| %total
---------------------------------------------------------------
Pair    | 0.60011    | 1.6985     | 2.2072     |  35.2 | 72.58
Neigh   | 0          | 0          | 0          |   0.0 |  0.00
Comm    | 0.036168   | 0.38324    | 1.1712     |  52.2 | 16.38
Output  | 0          | 0          | 0          |   0.0 |  0.00
Modify  | 2.4138e-05 | 0.0033082  | 0.0072301  |   2.7 |  0.14
Other   |            | 0.2552     |            |       | 10.91

Nlocal:        2776.45 ave        3945 max           0 min
Histogram: 8 4 4 0 4 12 8 2 26 36
Nghost:        3879.39 ave        5422 max         232 min
Histogram: 8 0 8 0 16 0 8 8 16 40
Neighs:        79213.5 ave      114797 max           0 min
Histogram: 8 4 4 0 10 6 8 8 22 34

Total # of neighbors = 8238203
Ave neighs/atom = 28.530474
Neighbor list builds = 0
Dangerous builds = 0
The dot product: -9.12932793138453e-09
Setting atom values ...
  1 settings made for x
  1 settings made for y
  1 settings made for z
Setting up cg style minimization ...
  Unit style    : metal
  Current step  : 28863
Per MPI rank memory allocation (min/avg/max) = 5.441 | 5.816 | 6.074 Mbytes
Step PotEng KinEng TotEng v_fx v_fy v_fz 
   28863   -1152449.3            0   -1152449.3  0.035990892 -0.035713532  0.020182492 
   28963   -1152449.3            0   -1152449.3 2.5332532e-06 -2.2116797e-05 2.6172291e-05 
Loop time of 1.18591 on 104 procs for 100 steps with 288751 atoms

99.9% CPU use with 104 MPI tasks x 1 OpenMP threads

Minimization stats:
  Stopping criterion = energy tolerance
  Energy initial, next-to-last, final = 
     -1152449.34256061   -1152449.3439472   -1152449.3439472
  Force two-norm initial, final = 0.15856346 0.00015388109
  Force max component initial, final = 0.068571162 2.8731830e-05
  Final line search alpha, max atom move = 1.0000000 2.8731830e-05
  Iterations, force evaluations = 100 200

MPI task timing breakdown:
Section |  min time  |  avg time  |  max time  |%varavg| %total
---------------------------------------------------------------
Pair    | 0.3014     | 0.84759    | 1.1113     |  24.9 | 71.47
Neigh   | 0          | 0          | 0          |   0.0 |  0.00
Comm    | 0.018723   | 0.19143    | 0.57291    |  36.4 | 16.14
Output  | 0          | 0          | 0          |   0.0 |  0.00
Modify  | 1.2149e-05 | 0.0016599  | 0.0035729  |   1.9 |  0.14
Other   |            | 0.1452     |            |       | 12.25

Nlocal:        2776.45 ave        3945 max           0 min
Histogram: 8 4 4 0 4 12 8 2 26 36
Nghost:        3879.41 ave        5422 max         232 min
Histogram: 8 0 8 0 16 0 8 8 16 40
Neighs:        79213.5 ave      114791 max           0 min
Histogram: 8 4 4 0 10 6 8 8 22 34

Total # of neighbors = 8238204
Ave neighs/atom = 28.530478
Neighbor list builds = 0
Dangerous builds = 0
The dot product: 1.24844649806804e-07
The iteration number is maximum!
OMP_NUM_THREADS environment is not set. Defaulting to 1 thread. (../comm.cpp:94)
  using 1 OpenMP thread(s) per MPI task
Reading data file ...
  orthogonal box = (-122.39241 -121.13707 -37.090501) to (122.39241 121.13707 37.090501)
  13 by 4 by 2 MPI processor grid
  reading atoms ...
  288751 atoms
  read_data CPU = 0.343 seconds
199981 atoms in group inner
88770 atoms in group outer
1 atoms in group carbon
Neighbor list info ...
  update every 1 steps, delay 0 steps, check yes
  max neighbors/atom: 2000, page size: 100000
  master list distance cutoff = 5.6
  ghost atom cutoff = 5.6
  binsize = 2.8, bins = 88 87 27
  1 neighbor lists, perpetual/occasional/extra = 1 0 0
  (1) pair eam/alloy, perpetual
      attributes: half, newton on
      pair build: half/bin/atomonly/newton
      stencil: half/bin/3d/newton
      bin: standard
Setting up cg style minimization ...
  Unit style    : metal
  Current step  : 0
Per MPI rank memory allocation (min/avg/max) = 5.441 | 5.816 | 6.074 Mbytes
Step v_fx v_fy v_fz PotEng KinEng TotEng 
       0   -25.793538    14.917389    -50.31359   -1152433.3            0   -1152433.3 
     245 -1.8985252e-06 -6.2418664e-09 -4.1728159e-06   -1152449.5            0   -1152449.5 
Loop time of 2.86127 on 104 procs for 245 steps with 288751 atoms

99.9% CPU use with 104 MPI tasks x 1 OpenMP threads

Minimization stats:
  Stopping criterion = energy tolerance
  Energy initial, next-to-last, final = 
     -1152433.34662944  -1152449.45035286  -1152449.45035286
  Force two-norm initial, final = 87.674933 2.1049948e-05
  Force max component initial, final = 57.511869 4.1728159e-06
  Final line search alpha, max atom move = 1.0000000 4.1728159e-06
  Iterations, force evaluations = 245 482

MPI task timing breakdown:
Section |  min time  |  avg time  |  max time  |%varavg| %total
---------------------------------------------------------------
Pair    | 0.74097    | 2.0361     | 2.6611     |  38.2 | 71.16
Neigh   | 5.0046e-05 | 0.014823   | 0.021533   |   5.0 |  0.52
Comm    | 0.043579   | 0.46326    | 1.3751     |  56.0 | 16.19
Output  | 0          | 0          | 0          |   0.0 |  0.00
Modify  | 2.8317e-05 | 0.0025843  | 0.0066311  |   3.2 |  0.09
Other   |            | 0.3445     |            |       | 12.04

Nlocal:        2776.45 ave        3960 max           0 min
Histogram: 8 4 4 0 4 12 8 2 28 34
Nghost:        3879.01 ave        5425 max         232 min
Histogram: 8 0 8 0 16 0 8 8 16 40
Neighs:        79213.6 ave      115431 max           0 min
Histogram: 8 4 4 0 10 6 8 8 24 32

Total # of neighbors = 8238211
Ave neighs/atom = 28.530502
Neighbor list builds = 5
Dangerous builds = 0
Setting atom values ...
  1 settings made for x
  1 settings made for y
  1 settings made for z
Setting up cg style minimization ...
  Unit style    : metal
  Current step  : 245
Per MPI rank memory allocation (min/avg/max) = 5.441 | 5.816 | 6.074 Mbytes
Step PotEng KinEng TotEng v_fx v_fy v_fz 
     245   -1152449.5            0   -1152449.5 0.0036141959 0.0062325667 -0.00079050751 
     373   -1152449.5            0   -1152449.5 7.9872101e-06 -6.4468163e-06 2.7104675e-06 
Loop time of 1.49967 on 104 procs for 128 steps with 288751 atoms

99.9% CPU use with 104 MPI tasks x 1 OpenMP threads

Minimization stats:
  Stopping criterion = energy tolerance
  Energy initial, next-to-last, final = 
     -1152449.45007339  -1152449.45025945  -1152449.45025945
  Force two-norm initial, final = 0.062545856 0.00020744521
  Force max component initial, final = 0.028158678 4.4916464e-05
  Final line search alpha, max atom move = 1.0000000 4.4916464e-05
  Iterations, force evaluations = 128 256

MPI task timing breakdown:
Section |  min time  |  avg time  |  max time  |%varavg| %total
---------------------------------------------------------------
Pair    | 0.38424    | 1.0755     | 1.4148     |  28.1 | 71.71
Neigh   | 0          | 0          | 0          |   0.0 |  0.00
Comm    | 0.022214   | 0.24346    | 0.72904    |  40.9 | 16.23
Output  | 0          | 0          | 0          |   0.0 |  0.00
Modify  | 1.5866e-05 | 0.002107   | 0.0044922  |   2.2 |  0.14
Other   |            | 0.1786     |            |       | 11.91

Nlocal:        2776.45 ave        3960 max           0 min
Histogram: 8 4 4 0 4 12 8 2 28 34
Nghost:        3879.01 ave        5424 max         232 min
Histogram: 8 0 8 0 16 0 8 8 16 40
Neighs:        79213.4 ave      115432 max           0 min
Histogram: 8 4 4 0 10 6 8 8 24 32

Total # of neighbors = 8238197
Ave neighs/atom = 28.530454
Neighbor list builds = 0
Dangerous builds = 0
Setting atom values ...
  1 settings made for x
  1 settings made for y
  1 settings made for z
Setting up cg style minimization ...
  Unit style    : metal
  Current step  : 373
Per MPI rank memory allocation (min/avg/max) = 5.441 | 5.816 | 6.074 Mbytes
Step PotEng KinEng TotEng v_fx v_fy v_fz 
     373   -1152449.4            0   -1152449.4   0.01267763  0.026399896 -0.0038916281 
     522   -1152449.4            0   -1152449.4 -3.3852911e-05 -4.7170469e-06 -4.7108252e-06 
Loop time of 1.74446 on 104 procs for 149 steps with 288751 atoms

99.9% CPU use with 104 MPI tasks x 1 OpenMP threads

Minimization stats:
  Stopping criterion = energy tolerance
  Energy initial, next-to-last, final = 
     -1152449.44650328  -1152449.44860167  -1152449.44860167
  Force two-norm initial, final = 0.21203457 0.00024215376
  Force max component initial, final = 0.098104345 3.3852911e-05
  Final line search alpha, max atom move = 1.0000000 3.3852911e-05
  Iterations, force evaluations = 149 298

MPI task timing breakdown:
Section |  min time  |  avg time  |  max time  |%varavg| %total
---------------------------------------------------------------
Pair    | 0.44608    | 1.2567     | 1.6468     |  30.4 | 72.04
Neigh   | 0          | 0          | 0          |   0.0 |  0.00
Comm    | 0.026404   | 0.28486    | 0.84983    |  44.4 | 16.33
Output  | 0          | 0          | 0          |   0.0 |  0.00
Modify  | 1.7986e-05 | 0.0024582  | 0.0052654  |   2.3 |  0.14
Other   |            | 0.2005     |            |       | 11.49

Nlocal:        2776.45 ave        3961 max           0 min
Histogram: 8 4 4 0 6 10 8 2 28 34
Nghost:        3879.01 ave        5424 max         232 min
Histogram: 8 0 8 0 16 0 8 8 16 40
Neighs:        79213.4 ave      115455 max           0 min
Histogram: 8 4 4 0 10 6 8 8 24 32

Total # of neighbors = 8238198
Ave neighs/atom = 28.530457
Neighbor list builds = 0
Dangerous builds = 0
The dot product: 9.16894626352429e-11
Setting up cg style minimization ...
  Unit style    : metal
  Current step  : 522
Per MPI rank memory allocation (min/avg/max) = 5.441 | 5.816 | 6.074 Mbytes
Step PotEng KinEng TotEng v_fx v_fy v_fz 
     522   -1152449.4            0   -1152449.4  0.021835262 -0.029342608  -0.12778381 
     710   -1152449.5            0   -1152449.5 4.5838377e-05 -2.5735656e-07 -6.6101585e-05 
Loop time of 2.19947 on 104 procs for 188 steps with 288751 atoms

99.9% CPU use with 104 MPI tasks x 1 OpenMP threads

Minimization stats:
  Stopping criterion = energy tolerance
  Energy initial, next-to-last, final = 
     -1152449.44860167  -1152449.45035282  -1152449.45035282
  Force two-norm initial, final = 0.13291549 0.0001851043
  Force max component initial, final = 0.12778381 6.6101585e-05
  Final line search alpha, max atom move = 1.0000000 6.6101585e-05
  Iterations, force evaluations = 188 376

MPI task timing breakdown:
Section |  min time  |  avg time  |  max time  |%varavg| %total
---------------------------------------------------------------
Pair    | 0.56142    | 1.579      | 2.077      |  34.1 | 71.79
Neigh   | 0          | 0          | 0          |   0.0 |  0.00
Comm    | 0.032693   | 0.35702    | 1.0637     |  49.8 | 16.23
Output  | 0          | 0          | 0          |   0.0 |  0.00
Modify  | 2.1611e-05 | 0.0020142  | 0.0051912  |   2.8 |  0.09
Other   |            | 0.2615     |            |       | 11.89

Nlocal:        2776.45 ave        3960 max           0 min
Histogram: 8 4 4 0 4 12 8 2 28 34
Nghost:        3879.05 ave        5424 max         232 min
Histogram: 8 0 8 0 16 0 8 8 16 40
Neighs:        79213.4 ave      115435 max           0 min
Histogram: 8 4 4 0 10 6 8 8 24 32

Total # of neighbors = 8238197
Ave neighs/atom = 28.530454
Neighbor list builds = 0
Dangerous builds = 0
