LAMMPS (29 Oct 2020)
OMP_NUM_THREADS environment is not set. Defaulting to 1 thread. (../comm.cpp:94)
  using 1 OpenMP thread(s) per MPI task
OMP_NUM_THREADS environment is not set. Defaulting to 1 thread. (../comm.cpp:94)
  using 1 OpenMP thread(s) per MPI task
Reading data file ...
  orthogonal box = (-122.39241 -121.13707 -37.090501) to (122.39241 121.13707 37.090501)
  13 by 4 by 2 MPI processor grid
  reading atoms ...
  288751 atoms
  read_data CPU = 0.370 seconds
199981 atoms in group inner
88770 atoms in group outer
1 atoms in group carbon
Neighbor list info ...
  update every 1 steps, delay 0 steps, check yes
  max neighbors/atom: 2000, page size: 100000
  master list distance cutoff = 5.6
  ghost atom cutoff = 5.6
  binsize = 2.8, bins = 88 87 27
  1 neighbor lists, perpetual/occasional/extra = 1 0 0
  (1) pair eam/alloy, perpetual
      attributes: half, newton on
      pair build: half/bin/atomonly/newton
      stencil: half/bin/3d/newton
      bin: standard
Setting up cg style minimization ...
  Unit style    : metal
  Current step  : 0
Per MPI rank memory allocation (min/avg/max) = 5.441 | 5.816 | 6.074 Mbytes
Step v_fx v_fy v_fz PotEng KinEng TotEng 
       0   0.21837478    1.7844841    2.4024768   -1152447.8            0   -1152447.8 
     179 5.2332109e-06 8.9175834e-06 7.2364413e-06   -1152449.5            0   -1152449.5 
Loop time of 2.16268 on 104 procs for 179 steps with 288751 atoms

99.8% CPU use with 104 MPI tasks x 1 OpenMP threads

Minimization stats:
  Stopping criterion = energy tolerance
  Energy initial, next-to-last, final = 
     -1152447.79602085  -1152449.45035262  -1152449.45035262
  Force two-norm initial, final = 10.038562 4.7349096e-05
  Force max component initial, final = 6.1118897 1.1450911e-05
  Final line search alpha, max atom move = 1.0000000 1.1450911e-05
  Iterations, force evaluations = 179 357

MPI task timing breakdown:
Section |  min time  |  avg time  |  max time  |%varavg| %total
---------------------------------------------------------------
Pair    | 0.55895    | 1.5123     | 1.9813     |  32.9 | 69.93
Neigh   | 3.1473e-05 | 0.008776   | 0.012686   |   3.9 |  0.41
Comm    | 0.042596   | 0.35148    | 1.0166     |  46.9 | 16.25
Output  | 0          | 0          | 0          |   0.0 |  0.00
Modify  | 2.1282e-05 | 0.0019403  | 0.0049554  |   2.7 |  0.09
Other   |            | 0.2882     |            |       | 13.33

Nlocal:        2776.45 ave        3961 max           0 min
Histogram: 8 4 4 0 6 10 8 2 28 34
Nghost:        3879.01 ave        5424 max         232 min
Histogram: 8 0 8 0 16 0 8 8 16 40
Neighs:        79213.5 ave      115455 max           0 min
Histogram: 8 4 4 0 10 6 8 8 24 32

Total # of neighbors = 8238204
Ave neighs/atom = 28.530478
Neighbor list builds = 3
Dangerous builds = 0
Setting atom values ...
  1 settings made for x
  1 settings made for y
  1 settings made for z
Setting up cg style minimization ...
  Unit style    : metal
  Current step  : 179
Per MPI rank memory allocation (min/avg/max) = 5.441 | 5.816 | 6.074 Mbytes
Step PotEng KinEng TotEng v_fx v_fy v_fz 
     179   -1152449.4            0   -1152449.4 0.0074169726 -0.015056843 -0.024552221 
     368   -1152449.5            0   -1152449.5 -1.1994033e-05 -2.2354495e-06 1.6962214e-05 
Loop time of 2.2755 on 104 procs for 189 steps with 288751 atoms

99.9% CPU use with 104 MPI tasks x 1 OpenMP threads

Minimization stats:
  Stopping criterion = energy tolerance
  Energy initial, next-to-last, final = 
     -1152449.44965289   -1152449.4500794   -1152449.4500794
  Force two-norm initial, final = 0.094084208 6.7305665e-05
  Force max component initial, final = 0.043955602 1.6962214e-05
  Final line search alpha, max atom move = 1.0000000 1.6962214e-05
  Iterations, force evaluations = 189 378

MPI task timing breakdown:
Section |  min time  |  avg time  |  max time  |%varavg| %total
---------------------------------------------------------------
Pair    | 0.5779     | 1.602      | 2.1221     |  34.2 | 70.40
Neigh   | 0          | 0          | 0          |   0.0 |  0.00
Comm    | 0.038821   | 0.37318    | 1.0996     |  49.0 | 16.40
Output  | 0          | 0          | 0          |   0.0 |  0.00
Modify  | 2.2881e-05 | 0.0031447  | 0.006828   |   2.7 |  0.14
Other   |            | 0.2972     |            |       | 13.06

Nlocal:        2776.45 ave        3961 max           0 min
Histogram: 8 4 4 0 6 10 8 2 28 34
Nghost:        3879.01 ave        5425 max         232 min
Histogram: 8 0 8 0 16 0 8 8 16 40
Neighs:        79213.4 ave      115455 max           0 min
Histogram: 8 4 4 0 10 6 8 8 24 32

Total # of neighbors = 8238197
Ave neighs/atom = 28.530454
Neighbor list builds = 0
Dangerous builds = 0
Setting atom values ...
  1 settings made for x
  1 settings made for y
  1 settings made for z
Setting up cg style minimization ...
  Unit style    : metal
  Current step  : 368
Per MPI rank memory allocation (min/avg/max) = 5.441 | 5.816 | 6.074 Mbytes
Step PotEng KinEng TotEng v_fx v_fy v_fz 
     368   -1152449.4            0   -1152449.4 0.0084592534 -0.017039796 -0.038846958 
     596   -1152449.4            0   -1152449.4 -3.0202501e-06 -3.6499912e-06 1.4979938e-06 
Loop time of 2.71412 on 104 procs for 228 steps with 288751 atoms

99.9% CPU use with 104 MPI tasks x 1 OpenMP threads

Minimization stats:
  Stopping criterion = energy tolerance
  Energy initial, next-to-last, final = 
     -1152449.44696287  -1152449.44825576  -1152449.44825576
  Force two-norm initial, final = 0.16109314 2.4818576e-05
  Force max component initial, final = 0.087227188 4.5793748e-06
  Final line search alpha, max atom move = 1.0000000 4.5793748e-06
  Iterations, force evaluations = 228 456

MPI task timing breakdown:
Section |  min time  |  avg time  |  max time  |%varavg| %total
---------------------------------------------------------------
Pair    | 0.69265    | 1.9223     | 2.5274     |  37.6 | 70.83
Neigh   | 0          | 0          | 0          |   0.0 |  0.00
Comm    | 0.042539   | 0.44349    | 1.2992     |  53.6 | 16.34
Output  | 0          | 0          | 0          |   0.0 |  0.00
Modify  | 2.7795e-05 | 0.0037799  | 0.0080817  |   2.9 |  0.14
Other   |            | 0.3445     |            |       | 12.69

Nlocal:        2776.45 ave        3961 max           0 min
Histogram: 8 4 4 0 6 10 8 2 28 34
Nghost:        3879.01 ave        5424 max         232 min
Histogram: 8 0 8 0 16 0 8 8 16 40
Neighs:        79213.4 ave      115455 max           0 min
Histogram: 8 4 4 0 10 6 8 8 24 32

Total # of neighbors = 8238196
Ave neighs/atom = 28.530450
Neighbor list builds = 0
Dangerous builds = 0
The dot product: -2.59330056914683e-10
Setting atom values ...
  1 settings made for x
  1 settings made for y
  1 settings made for z
Setting up cg style minimization ...
  Unit style    : metal
  Current step  : 596
Per MPI rank memory allocation (min/avg/max) = 5.441 | 5.816 | 6.074 Mbytes
Step PotEng KinEng TotEng v_fx v_fy v_fz 
     596   -1152449.4            0   -1152449.4 0.0059149568 -0.0096834277 -0.031395332 
     752   -1152449.4            0   -1152449.4 2.052526e-05 2.0297143e-05 -1.797001e-05 
Loop time of 1.83404 on 104 procs for 156 steps with 288751 atoms

99.9% CPU use with 104 MPI tasks x 1 OpenMP threads

Minimization stats:
  Stopping criterion = energy tolerance
  Energy initial, next-to-last, final = 
     -1152449.44358767  -1152449.44482268  -1152449.44482268
  Force two-norm initial, final = 0.15528926 0.00015905325
  Force max component initial, final = 0.092290705 2.6475524e-05
  Final line search alpha, max atom move = 1.0000000 2.6475524e-05
  Iterations, force evaluations = 156 312

MPI task timing breakdown:
Section |  min time  |  avg time  |  max time  |%varavg| %total
---------------------------------------------------------------
Pair    | 0.47363    | 1.3192     | 1.7172     |  31.0 | 71.93
Neigh   | 0          | 0          | 0          |   0.0 |  0.00
Comm    | 0.032633   | 0.30029    | 0.89584    |  45.2 | 16.37
Output  | 0          | 0          | 0          |   0.0 |  0.00
Modify  | 1.9291e-05 | 0.0025864  | 0.0055209  |   2.4 |  0.14
Other   |            | 0.212      |            |       | 11.56

Nlocal:        2776.45 ave        3961 max           0 min
Histogram: 8 4 4 0 6 10 8 2 28 34
Nghost:        3879.01 ave        5424 max         232 min
Histogram: 8 0 8 0 16 0 8 8 16 40
Neighs:        79213.4 ave      115455 max           0 min
Histogram: 8 4 4 0 10 6 8 8 24 32

Total # of neighbors = 8238193
Ave neighs/atom = 28.530440
Neighbor list builds = 0
Dangerous builds = 0
The dot product: 3.40583965233538e-08
Setting atom values ...
  1 settings made for x
  1 settings made for y
  1 settings made for z
Setting up cg style minimization ...
  Unit style    : metal
  Current step  : 752
Per MPI rank memory allocation (min/avg/max) = 5.441 | 5.816 | 6.074 Mbytes
Step PotEng KinEng TotEng v_fx v_fy v_fz 
     752   -1152449.4            0   -1152449.4 0.0023769419 -0.0090351447 -0.025082513 
     888   -1152449.4            0   -1152449.4 -3.5705588e-06 -2.9046051e-05 -4.7350507e-05 
Loop time of 1.60693 on 104 procs for 136 steps with 288751 atoms

99.9% CPU use with 104 MPI tasks x 1 OpenMP threads

Minimization stats:
  Stopping criterion = energy tolerance
  Energy initial, next-to-last, final = 
     -1152449.43869463  -1152449.43988068  -1152449.43988068
  Force two-norm initial, final = 0.15176227 0.00015688997
  Force max component initial, final = 0.095971128 4.7350507e-05
  Final line search alpha, max atom move = 1.0000000 4.7350507e-05
  Iterations, force evaluations = 136 272

MPI task timing breakdown:
Section |  min time  |  avg time  |  max time  |%varavg| %total
---------------------------------------------------------------
Pair    | 0.41357    | 1.1436     | 1.4998     |  28.9 | 71.17
Neigh   | 0          | 0          | 0          |   0.0 |  0.00
Comm    | 0.025666   | 0.26191    | 0.77151    |  41.7 | 16.30
Output  | 0          | 0          | 0          |   0.0 |  0.00
Modify  | 1.6761e-05 | 0.0022567  | 0.0048113  |   2.2 |  0.14
Other   |            | 0.1991     |            |       | 12.39

Nlocal:        2776.45 ave        3961 max           0 min
Histogram: 8 4 4 0 6 10 8 2 28 34
Nghost:        3879.01 ave        5424 max         232 min
Histogram: 8 0 8 0 16 0 8 8 16 40
Neighs:        79213.4 ave      115455 max           0 min
Histogram: 8 4 4 0 10 6 8 8 24 32

Total # of neighbors = 8238194
Ave neighs/atom = 28.530443
Neighbor list builds = 0
Dangerous builds = 0
The dot product: 1.08433270091852e-07
Setting atom values ...
  1 settings made for x
  1 settings made for y
  1 settings made for z
Setting up cg style minimization ...
  Unit style    : metal
  Current step  : 888
Per MPI rank memory allocation (min/avg/max) = 5.441 | 5.816 | 6.074 Mbytes
Step PotEng KinEng TotEng v_fx v_fy v_fz 
     888   -1152449.4            0   -1152449.4 -0.0028427823 -0.012887981 -0.019655287 
    1000   -1152449.4            0   -1152449.4 -2.2669516e-05 -2.9160296e-05 8.6333066e-06 
    1055   -1152449.4            0   -1152449.4 1.4245072e-06 2.148035e-06 1.6662791e-07 
Loop time of 1.9894 on 104 procs for 167 steps with 288751 atoms

99.9% CPU use with 104 MPI tasks x 1 OpenMP threads

Minimization stats:
  Stopping criterion = energy tolerance
  Energy initial, next-to-last, final = 
     -1152449.43236537  -1152449.43353225  -1152449.43353225
  Force two-norm initial, final = 0.15016349 0.00016142316
  Force max component initial, final = 0.098999832 2.2391671e-05
  Final line search alpha, max atom move = 1.0000000 2.2391671e-05
  Iterations, force evaluations = 167 334

MPI task timing breakdown:
Section |  min time  |  avg time  |  max time  |%varavg| %total
---------------------------------------------------------------
Pair    | 0.50742    | 1.4106     | 1.8558     |  32.1 | 70.90
Neigh   | 0          | 0          | 0          |   0.0 |  0.00
Comm    | 0.030835   | 0.32284    | 0.96328    |  46.4 | 16.23
Output  | 0.00040575 | 0.00041495 | 0.00054621 |   0.0 |  0.02
Modify  | 2.0355e-05 | 0.0027701  | 0.005907   |   2.5 |  0.14
Other   |            | 0.2528     |            |       | 12.71

Nlocal:        2776.45 ave        3961 max           0 min
Histogram: 8 4 4 0 6 10 8 2 28 34
Nghost:        3879.01 ave        5424 max         232 min
Histogram: 8 0 8 0 16 0 8 8 16 40
Neighs:        79213.4 ave      115455 max           0 min
Histogram: 8 4 4 0 10 6 8 8 24 32

Total # of neighbors = 8238194
Ave neighs/atom = 28.530443
Neighbor list builds = 0
Dangerous builds = 0
The dot product: -7.12447306314476e-09
Setting atom values ...
  1 settings made for x
  1 settings made for y
  1 settings made for z
Setting up cg style minimization ...
  Unit style    : metal
  Current step  : 1055
Per MPI rank memory allocation (min/avg/max) = 5.441 | 5.816 | 6.074 Mbytes
Step PotEng KinEng TotEng v_fx v_fy v_fz 
    1055   -1152449.4            0   -1152449.4 -0.0078354926 -0.016520908 -0.014617098 
    1189   -1152449.4            0   -1152449.4 -1.0091166e-05 -2.1336967e-05 -1.897593e-05 
Loop time of 1.55704 on 104 procs for 134 steps with 288751 atoms

99.9% CPU use with 104 MPI tasks x 1 OpenMP threads

Minimization stats:
  Stopping criterion = energy tolerance
  Energy initial, next-to-last, final = 
     -1152449.42472344  -1152449.42589744  -1152449.42589744
  Force two-norm initial, final = 0.14953438 0.00012134237
  Force max component initial, final = 0.10160523 2.1336967e-05
  Final line search alpha, max atom move = 1.0000000 2.1336967e-05
  Iterations, force evaluations = 134 268

MPI task timing breakdown:
Section |  min time  |  avg time  |  max time  |%varavg| %total
---------------------------------------------------------------
Pair    | 0.40488    | 1.1248     | 1.4626     |  28.7 | 72.24
Neigh   | 0          | 0          | 0          |   0.0 |  0.00
Comm    | 0.025813   | 0.25432    | 0.75781    |  42.0 | 16.33
Output  | 0          | 0          | 0          |   0.0 |  0.00
Modify  | 1.6464e-05 | 0.0022201  | 0.004753   |   2.2 |  0.14
Other   |            | 0.1757     |            |       | 11.28

Nlocal:        2776.45 ave        3961 max           0 min
Histogram: 8 4 4 0 6 10 8 2 28 34
Nghost:        3878.99 ave        5424 max         232 min
Histogram: 8 0 8 0 16 0 8 8 16 40
Neighs:        79213.4 ave      115455 max           0 min
Histogram: 8 4 4 0 10 6 8 8 24 32

Total # of neighbors = 8238194
Ave neighs/atom = 28.530443
Neighbor list builds = 0
Dangerous builds = 0
The dot product: 1.29402771516343e-07
Setting atom values ...
  1 settings made for x
  1 settings made for y
  1 settings made for z
Setting up cg style minimization ...
  Unit style    : metal
  Current step  : 1189
Per MPI rank memory allocation (min/avg/max) = 5.441 | 5.816 | 6.074 Mbytes
Step PotEng KinEng TotEng v_fx v_fy v_fz 
    1189   -1152449.4            0   -1152449.4 -0.010844226 -0.017331744 -0.010491415 
    1315   -1152449.4            0   -1152449.4 1.7771158e-06 -7.1823796e-06 -2.6238878e-05 
Loop time of 1.47483 on 104 procs for 126 steps with 288751 atoms

99.9% CPU use with 104 MPI tasks x 1 OpenMP threads

Minimization stats:
  Stopping criterion = energy tolerance
  Energy initial, next-to-last, final = 
     -1152449.41580232   -1152449.4169864   -1152449.4169864
  Force two-norm initial, final = 0.14935239 0.00016672964
  Force max component initial, final = 0.10380101 2.6238878e-05
  Final line search alpha, max atom move = 1.0000000 2.6238878e-05
  Iterations, force evaluations = 126 252

MPI task timing breakdown:
Section |  min time  |  avg time  |  max time  |%varavg| %total
---------------------------------------------------------------
Pair    | 0.37958    | 1.0635     | 1.3911     |  27.9 | 72.11
Neigh   | 0          | 0          | 0          |   0.0 |  0.00
Comm    | 0.022052   | 0.24165    | 0.72547    |  40.8 | 16.39
Output  | 0          | 0          | 0          |   0.0 |  0.00
Modify  | 1.5476e-05 | 0.0020892  | 0.0044654  |   2.2 |  0.14
Other   |            | 0.1676     |            |       | 11.36

Nlocal:        2776.45 ave        3961 max           0 min
Histogram: 8 4 4 0 6 10 8 2 28 34
Nghost:        3878.99 ave        5424 max         232 min
Histogram: 8 0 8 0 16 0 8 8 16 40
Neighs:        79213.4 ave      115457 max           0 min
Histogram: 8 4 4 0 10 6 8 8 24 32

Total # of neighbors = 8238193
Ave neighs/atom = 28.530440
Neighbor list builds = 0
Dangerous builds = 0
The dot product: 5.16101454599265e-08
Setting atom values ...
  1 settings made for x
  1 settings made for y
  1 settings made for z
Setting up cg style minimization ...
  Unit style    : metal
  Current step  : 1315
Per MPI rank memory allocation (min/avg/max) = 5.441 | 5.816 | 6.074 Mbytes
Step PotEng KinEng TotEng v_fx v_fy v_fz 
    1315   -1152449.4            0   -1152449.4 -0.011616401 -0.015645941 -0.0072014562 
    1466   -1152449.4            0   -1152449.4 -4.9441368e-06 1.0225957e-05 4.842195e-05 
Loop time of 1.7811 on 104 procs for 151 steps with 288751 atoms

99.9% CPU use with 104 MPI tasks x 1 OpenMP threads

Minimization stats:
  Stopping criterion = energy tolerance
  Energy initial, next-to-last, final = 
     -1152449.40558896  -1152449.40677477  -1152449.40677477
  Force two-norm initial, final = 0.14944657 0.00018468067
  Force max component initial, final = 0.10557919 4.8421950e-05
  Final line search alpha, max atom move = 1.0000000 4.8421950e-05
  Iterations, force evaluations = 151 302

MPI task timing breakdown:
Section |  min time  |  avg time  |  max time  |%varavg| %total
---------------------------------------------------------------
Pair    | 0.45935    | 1.2706     | 1.6619     |  30.4 | 71.34
Neigh   | 0          | 0          | 0          |   0.0 |  0.00
Comm    | 0.0335     | 0.29062    | 0.85549    |  43.9 | 16.32
Output  | 0          | 0          | 0          |   0.0 |  0.00
Modify  | 1.8753e-05 | 0.0025068  | 0.005375   |   2.4 |  0.14
Other   |            | 0.2174     |            |       | 12.20

Nlocal:        2776.45 ave        3960 max           0 min
Histogram: 8 4 4 0 4 12 8 2 28 34
Nghost:        3878.99 ave        5424 max         232 min
Histogram: 8 0 8 0 16 0 8 8 16 40
Neighs:        79213.4 ave      115414 max           0 min
Histogram: 8 4 4 0 10 6 8 8 24 32

Total # of neighbors = 8238195
Ave neighs/atom = 28.530447
Neighbor list builds = 0
Dangerous builds = 0
The dot product: -6.78509444281681e-08
Setting atom values ...
  1 settings made for x
  1 settings made for y
  1 settings made for z
Setting up cg style minimization ...
  Unit style    : metal
  Current step  : 1466
Per MPI rank memory allocation (min/avg/max) = 5.441 | 5.816 | 6.074 Mbytes
Step PotEng KinEng TotEng v_fx v_fy v_fz 
    1466   -1152449.4            0   -1152449.4 -0.010481667 -0.012451289 -0.0045863929 
    1588   -1152449.4            0   -1152449.4 -3.8780608e-06 -9.762979e-06 -1.859536e-05 
Loop time of 1.45361 on 104 procs for 122 steps with 288751 atoms

99.9% CPU use with 104 MPI tasks x 1 OpenMP threads

Minimization stats:
  Stopping criterion = energy tolerance
  Energy initial, next-to-last, final = 
     -1152449.39404944  -1152449.39522741  -1152449.39522741
  Force two-norm initial, final = 0.14971716 0.00018462173
  Force max component initial, final = 0.10706896 2.1347103e-05
  Final line search alpha, max atom move = 1.0000000 2.1347103e-05
  Iterations, force evaluations = 122 244

MPI task timing breakdown:
Section |  min time  |  avg time  |  max time  |%varavg| %total
---------------------------------------------------------------
Pair    | 0.36959    | 1.0362     | 1.3518     |  27.6 | 71.28
Neigh   | 0          | 0          | 0          |   0.0 |  0.00
Comm    | 0.022812   | 0.2384     | 0.70805    |  39.6 | 16.40
Output  | 0          | 0          | 0          |   0.0 |  0.00
Modify  | 1.5154e-05 | 0.0020294  | 0.0043106  |   2.1 |  0.14
Other   |            | 0.177      |            |       | 12.18

Nlocal:        2776.45 ave        3959 max           0 min
Histogram: 8 4 4 0 4 12 8 2 28 34
Nghost:        3878.99 ave        5424 max         232 min
Histogram: 8 0 8 0 16 0 8 8 16 40
Neighs:        79213.4 ave      115391 max           0 min
Histogram: 8 4 4 0 10 6 8 8 24 32

Total # of neighbors = 8238196
Ave neighs/atom = 28.530450
Neighbor list builds = 0
Dangerous builds = 0
The dot product: 7.01705714365098e-08
Setting atom values ...
  1 settings made for x
  1 settings made for y
  1 settings made for z
Setting up cg style minimization ...
  Unit style    : metal
  Current step  : 1588
Per MPI rank memory allocation (min/avg/max) = 5.441 | 5.816 | 6.074 Mbytes
Step PotEng KinEng TotEng v_fx v_fy v_fz 
    1588   -1152449.4            0   -1152449.4 -0.0079326964 -0.008638876 -0.0028440881 
    1730   -1152449.4            0   -1152449.4 -2.0139165e-05 -2.6420784e-05 -2.2809255e-05 
Loop time of 1.65955 on 104 procs for 142 steps with 288751 atoms

99.9% CPU use with 104 MPI tasks x 1 OpenMP threads

Minimization stats:
  Stopping criterion = energy tolerance
  Energy initial, next-to-last, final = 
     -1152449.38114642  -1152449.38231347  -1152449.38231347
  Force two-norm initial, final = 0.15020718 0.00017731028
  Force max component initial, final = 0.10843148 2.6420784e-05
  Final line search alpha, max atom move = 1.0000000 2.6420784e-05
  Iterations, force evaluations = 142 284

MPI task timing breakdown:
Section |  min time  |  avg time  |  max time  |%varavg| %total
---------------------------------------------------------------
Pair    | 0.4295     | 1.1956     | 1.5584     |  29.6 | 72.04
Neigh   | 0          | 0          | 0          |   0.0 |  0.00
Comm    | 0.024236   | 0.27238    | 0.81461    |  43.4 | 16.41
Output  | 0          | 0          | 0          |   0.0 |  0.00
Modify  | 1.7322e-05 | 0.0023534  | 0.0050309  |   2.3 |  0.14
Other   |            | 0.1892     |            |       | 11.40

Nlocal:        2776.45 ave        3957 max           0 min
Histogram: 8 4 4 0 4 12 8 2 28 34
Nghost:        3878.99 ave        5424 max         232 min
Histogram: 8 0 8 0 16 0 8 8 16 40
Neighs:        79213.4 ave      115327 max           0 min
Histogram: 8 4 4 0 10 6 8 8 24 32

Total # of neighbors = 8238193
Ave neighs/atom = 28.530440
Neighbor list builds = 0
Dangerous builds = 0
The dot product: 1.78796111134199e-07
Setting atom values ...
  1 settings made for x
  1 settings made for y
  1 settings made for z
Setting up cg style minimization ...
  Unit style    : metal
  Current step  : 1730
Per MPI rank memory allocation (min/avg/max) = 5.441 | 5.816 | 6.074 Mbytes
Step PotEng KinEng TotEng v_fx v_fy v_fz 
    1730   -1152449.4            0   -1152449.4 -0.0045182892 -0.0046671166 -0.0015928521 
    1887   -1152449.4            0   -1152449.4 -8.9828549e-06 -4.8099401e-06 1.3097867e-05 
Loop time of 1.85616 on 104 procs for 157 steps with 288751 atoms

99.9% CPU use with 104 MPI tasks x 1 OpenMP threads

Minimization stats:
  Stopping criterion = energy tolerance
  Energy initial, next-to-last, final = 
     -1152449.36685635   -1152449.3680133   -1152449.3680133
  Force two-norm initial, final = 0.15090857 0.00017411152
  Force max component initial, final = 0.10981294 2.1165721e-05
  Final line search alpha, max atom move = 1.0000000 2.1165721e-05
  Iterations, force evaluations = 157 314

MPI task timing breakdown:
Section |  min time  |  avg time  |  max time  |%varavg| %total
---------------------------------------------------------------
Pair    | 0.4745     | 1.3247     | 1.7515     |  31.2 | 71.37
Neigh   | 0          | 0          | 0          |   0.0 |  0.00
Comm    | 0.026793   | 0.30584    | 0.91158    |  45.0 | 16.48
Output  | 0          | 0          | 0          |   0.0 |  0.00
Modify  | 1.9137e-05 | 0.0026031  | 0.0055584  |   2.4 |  0.14
Other   |            | 0.223      |            |       | 12.01

Nlocal:        2776.45 ave        3952 max           0 min
Histogram: 8 4 4 0 4 12 8 0 30 34
Nghost:        3879.01 ave        5424 max         232 min
Histogram: 8 0 8 0 16 0 8 8 16 40
Neighs:        79213.4 ave      115181 max           0 min
Histogram: 8 4 4 0 10 6 8 8 24 32

Total # of neighbors = 8238192
Ave neighs/atom = 28.530436
Neighbor list builds = 0
Dangerous builds = 0
The dot product: 2.55999822583046e-08
Setting atom values ...
  1 settings made for x
  1 settings made for y
  1 settings made for z
Setting up cg style minimization ...
  Unit style    : metal
  Current step  : 1887
Per MPI rank memory allocation (min/avg/max) = 5.441 | 5.816 | 6.074 Mbytes
Step PotEng KinEng TotEng v_fx v_fy v_fz 
    1887   -1152449.4            0   -1152449.4 -0.00068572065 -0.00080149748 -0.00069090771 
    2000   -1152449.4            0   -1152449.4 1.9996718e-05 2.4845869e-05 2.5719401e-05 
    2013   -1152449.4            0   -1152449.4 -6.9929149e-06 -9.333032e-06 -1.1431481e-05 
Loop time of 1.4664 on 104 procs for 126 steps with 288751 atoms

99.9% CPU use with 104 MPI tasks x 1 OpenMP threads

Minimization stats:
  Stopping criterion = energy tolerance
  Energy initial, next-to-last, final = 
     -1152449.35116401  -1152449.35230888  -1152449.35230888
  Force two-norm initial, final = 0.15186373 0.00016074388
  Force max component initial, final = 0.11133531 2.1449635e-05
  Final line search alpha, max atom move = 1.0000000 2.1449635e-05
  Iterations, force evaluations = 126 252

MPI task timing breakdown:
Section |  min time  |  avg time  |  max time  |%varavg| %total
---------------------------------------------------------------
Pair    | 0.3798     | 1.0579     | 1.379      |  27.8 | 72.14
Neigh   | 0          | 0          | 0          |   0.0 |  0.00
Comm    | 0.02344    | 0.24035    | 0.71254    |  40.5 | 16.39
Output  | 0.00024715 | 0.00025324 | 0.00038456 |   0.0 |  0.02
Modify  | 1.5614e-05 | 0.0020894  | 0.0045012  |   2.2 |  0.14
Other   |            | 0.1658     |            |       | 11.31

Nlocal:        2776.45 ave        3948 max           0 min
Histogram: 8 4 4 0 4 12 8 0 28 36
Nghost:        3879.01 ave        5424 max         232 min
Histogram: 8 0 8 0 16 0 8 8 16 40
Neighs:        79213.4 ave      115061 max           0 min
Histogram: 8 4 4 0 10 6 8 8 24 32

Total # of neighbors = 8238192
Ave neighs/atom = 28.530436
Neighbor list builds = 0
Dangerous builds = 0
The dot product: 4.03462736203416e-08
Setting atom values ...
  1 settings made for x
  1 settings made for y
  1 settings made for z
Setting up cg style minimization ...
  Unit style    : metal
  Current step  : 2013
Per MPI rank memory allocation (min/avg/max) = 5.441 | 5.816 | 6.074 Mbytes
Step PotEng KinEng TotEng v_fx v_fy v_fz 
    2013   -1152449.3            0   -1152449.3 0.0030519849 0.0027126558 8.4409507e-05 
    2166   -1152449.3            0   -1152449.3 -3.0138843e-06 5.4703223e-06 3.1699813e-05 
Loop time of 1.79798 on 104 procs for 153 steps with 288751 atoms

99.9% CPU use with 104 MPI tasks x 1 OpenMP threads

Minimization stats:
  Stopping criterion = energy tolerance
  Energy initial, next-to-last, final = 
      -1152449.3340448  -1152449.33518142  -1152449.33518142
  Force two-norm initial, final = 0.15308269 0.00017636315
  Force max component initial, final = 0.11307667 3.1699813e-05
  Final line search alpha, max atom move = 1.0000000 3.1699813e-05
  Iterations, force evaluations = 153 306

MPI task timing breakdown:
Section |  min time  |  avg time  |  max time  |%varavg| %total
---------------------------------------------------------------
Pair    | 0.46195    | 1.2891     | 1.6839     |  30.7 | 71.70
Neigh   | 0          | 0          | 0          |   0.0 |  0.00
Comm    | 0.027947   | 0.29384    | 0.88659    |  44.6 | 16.34
Output  | 0          | 0          | 0          |   0.0 |  0.00
Modify  | 1.8636e-05 | 0.0025342  | 0.0054064  |   2.4 |  0.14
Other   |            | 0.2125     |            |       | 11.82

Nlocal:        2776.45 ave        3942 max           0 min
Histogram: 8 4 4 0 4 12 8 0 28 36
Nghost:        3879.01 ave        5424 max         232 min
Histogram: 8 0 8 0 16 0 8 8 16 40
Neighs:        79213.4 ave      114844 max           0 min
Histogram: 8 4 4 0 10 6 8 8 22 34

Total # of neighbors = 8238191
Ave neighs/atom = 28.530433
Neighbor list builds = 0
Dangerous builds = 0
The dot product: -2.77151402698001e-08
Setting atom values ...
  1 settings made for x
  1 settings made for y
  1 settings made for z
Setting up cg style minimization ...
  Unit style    : metal
  Current step  : 2166
Per MPI rank memory allocation (min/avg/max) = 5.441 | 5.816 | 6.074 Mbytes
Step PotEng KinEng TotEng v_fx v_fy v_fz 
    2166   -1152449.3            0   -1152449.3 0.0065727711 0.0059700723 0.00097187533 
    2289   -1152449.3            0   -1152449.3 -5.9071477e-06 -6.7242923e-06 -6.2931909e-06 
Loop time of 1.45432 on 104 procs for 123 steps with 288751 atoms

99.9% CPU use with 104 MPI tasks x 1 OpenMP threads

Minimization stats:
  Stopping criterion = energy tolerance
  Energy initial, next-to-last, final = 
     -1152449.31548018  -1152449.31661564  -1152449.31661564
  Force two-norm initial, final = 0.15454156 0.00018710297
  Force max component initial, final = 0.11498171 3.7092422e-05
  Final line search alpha, max atom move = 1.0000000 3.7092422e-05
  Iterations, force evaluations = 123 246

MPI task timing breakdown:
Section |  min time  |  avg time  |  max time  |%varavg| %total
---------------------------------------------------------------
Pair    | 0.3726     | 1.0348     | 1.3531     |  27.5 | 71.16
Neigh   | 0          | 0          | 0          |   0.0 |  0.00
Comm    | 0.022683   | 0.23749    | 0.69622    |  39.5 | 16.33
Output  | 0          | 0          | 0          |   0.0 |  0.00
Modify  | 1.4958e-05 | 0.0020406  | 0.0043767  |   2.1 |  0.14
Other   |            | 0.1799     |            |       | 12.37

Nlocal:        2776.45 ave        3932 max           0 min
Histogram: 8 4 4 0 4 12 8 0 26 38
Nghost:        3879.01 ave        5424 max         232 min
Histogram: 8 0 8 0 16 0 8 8 16 40
Neighs:        79213.4 ave      114517 max           0 min
Histogram: 8 4 4 0 8 8 8 8 20 36

Total # of neighbors = 8238191
Ave neighs/atom = 28.530433
Neighbor list builds = 0
Dangerous builds = 0
The dot product: 7.30263401168936e-09
Setting atom values ...
  1 settings made for x
  1 settings made for y
  1 settings made for z
Setting up cg style minimization ...
  Unit style    : metal
  Current step  : 2289
Per MPI rank memory allocation (min/avg/max) = 5.441 | 5.816 | 6.074 Mbytes
Step PotEng KinEng TotEng v_fx v_fy v_fz 
    2289   -1152449.3            0   -1152449.3  0.009928081 0.0090280082 0.0016159578 
    2476   -1152449.3            0   -1152449.3 -4.7815447e-06 -1.2457057e-06 1.1786081e-05 
Loop time of 2.18216 on 104 procs for 187 steps with 288751 atoms

99.9% CPU use with 104 MPI tasks x 1 OpenMP threads

Minimization stats:
  Stopping criterion = energy tolerance
  Energy initial, next-to-last, final = 
     -1152449.29545866  -1152449.29660165  -1152449.29660165
  Force two-norm initial, final = 0.15628523 5.7228888e-05
  Force max component initial, final = 0.11704723 1.1786081e-05
  Final line search alpha, max atom move = 1.0000000 1.1786081e-05
  Iterations, force evaluations = 187 374

MPI task timing breakdown:
Section |  min time  |  avg time  |  max time  |%varavg| %total
---------------------------------------------------------------
Pair    | 0.56272    | 1.5757     | 2.0424     |  33.9 | 72.21
Neigh   | 0          | 0          | 0          |   0.0 |  0.00
Comm    | 0.034236   | 0.35512    | 1.0787     |  50.0 | 16.27
Output  | 0          | 0          | 0          |   0.0 |  0.00
Modify  | 2.274e-05  | 0.0030994  | 0.0066255  |   2.6 |  0.14
Other   |            | 0.2482     |            |       | 11.37

Nlocal:        2776.45 ave        3930 max           0 min
Histogram: 8 4 4 0 4 12 8 0 26 38
Nghost:        3878.99 ave        5424 max         232 min
Histogram: 8 0 8 0 16 0 8 8 16 40
Neighs:        79213.4 ave      114474 max           0 min
Histogram: 8 4 4 0 8 8 8 8 20 36

Total # of neighbors = 8238191
Ave neighs/atom = 28.530433
Neighbor list builds = 0
Dangerous builds = 0
The dot product: -1.04665896271187e-08
Setting atom values ...
  1 settings made for x
  1 settings made for y
  1 settings made for z
Setting up cg style minimization ...
  Unit style    : metal
  Current step  : 2476
Per MPI rank memory allocation (min/avg/max) = 5.441 | 5.816 | 6.074 Mbytes
Step PotEng KinEng TotEng v_fx v_fy v_fz 
    2476   -1152449.3            0   -1152449.3  0.013150722  0.012049748 0.0022588769 
    2596   -1152449.3            0   -1152449.3 2.6171532e-05 1.7165032e-05 -2.3338045e-05 
Loop time of 1.39357 on 104 procs for 120 steps with 288751 atoms

99.9% CPU use with 104 MPI tasks x 1 OpenMP threads

Minimization stats:
  Stopping criterion = energy tolerance
  Energy initial, next-to-last, final = 
      -1152449.2739745  -1152449.27513412  -1152449.27513412
  Force two-norm initial, final = 0.1584446 0.000169342
  Force max component initial, final = 0.11938035 3.0100757e-05
  Final line search alpha, max atom move = 1.0000000 3.0100757e-05
  Iterations, force evaluations = 120 240

MPI task timing breakdown:
Section |  min time  |  avg time  |  max time  |%varavg| %total
---------------------------------------------------------------
Pair    | 0.36418    | 1.0077     | 1.3083     |  27.0 | 72.31
Neigh   | 0          | 0          | 0          |   0.0 |  0.00
Comm    | 0.025418   | 0.22687    | 0.67641    |  39.7 | 16.28
Output  | 0          | 0          | 0          |   0.0 |  0.00
Modify  | 1.521e-05  | 0.0019853  | 0.004246   |   2.1 |  0.14
Other   |            | 0.157      |            |       | 11.26

Nlocal:        2776.45 ave        3930 max           0 min
Histogram: 8 4 4 0 4 12 8 0 26 38
Nghost:        3879.07 ave        5424 max         232 min
Histogram: 8 0 8 0 16 0 8 8 16 40
Neighs:        79213.3 ave      114474 max           0 min
Histogram: 8 4 4 0 8 8 8 8 20 36

Total # of neighbors = 8238188
Ave neighs/atom = 28.530422
Neighbor list builds = 0
Dangerous builds = 0
The dot product: 7.33396901880866e-08
Setting atom values ...
  1 settings made for x
  1 settings made for y
  1 settings made for z
Setting up cg style minimization ...
  Unit style    : metal
  Current step  : 2596
Per MPI rank memory allocation (min/avg/max) = 5.441 | 5.816 | 6.074 Mbytes
Step PotEng KinEng TotEng v_fx v_fy v_fz 
    2596   -1152449.3            0   -1152449.3  0.016294614  0.015013988 0.0023909421 
    2716   -1152449.3            0   -1152449.3 -4.1971359e-05 -4.251441e-05 -2.1905769e-05 
Loop time of 1.46854 on 104 procs for 120 steps with 288751 atoms

99.9% CPU use with 104 MPI tasks x 1 OpenMP threads

Minimization stats:
  Stopping criterion = energy tolerance
  Energy initial, next-to-last, final = 
     -1152449.25102622  -1152449.25221301  -1152449.25221301
  Force two-norm initial, final = 0.16100558 0.00021548479
  Force max component initial, final = 0.12184393 4.2514410e-05
  Final line search alpha, max atom move = 1.0000000 4.2514410e-05
  Iterations, force evaluations = 120 240

MPI task timing breakdown:
Section |  min time  |  avg time  |  max time  |%varavg| %total
---------------------------------------------------------------
Pair    | 0.36306    | 1.0208     | 1.3357     |  27.5 | 69.51
Neigh   | 0          | 0          | 0          |   0.0 |  0.00
Comm    | 0.022551   | 0.24177    | 0.69709    |  38.2 | 16.46
Output  | 0          | 0          | 0          |   0.0 |  0.00
Modify  | 1.4746e-05 | 0.0019968  | 0.0042578  |   2.1 |  0.14
Other   |            | 0.204      |            |       | 13.89

Nlocal:        2776.45 ave        3930 max           0 min
Histogram: 8 4 4 0 4 12 8 0 26 38
Nghost:        3879.07 ave        5424 max         232 min
Histogram: 8 0 8 0 16 0 8 8 16 40
Neighs:        79213.3 ave      114474 max           0 min
Histogram: 8 4 4 0 8 8 8 8 20 36

Total # of neighbors = 8238188
Ave neighs/atom = 28.530422
Neighbor list builds = 0
Dangerous builds = 0
The dot product: -1.74086215434866e-07
Setting atom values ...
  1 settings made for x
  1 settings made for y
  1 settings made for z
Setting up cg style minimization ...
  Unit style    : metal
  Current step  : 2716
Per MPI rank memory allocation (min/avg/max) = 5.441 | 5.816 | 6.074 Mbytes
Step PotEng KinEng TotEng v_fx v_fy v_fz 
    2716   -1152449.2            0   -1152449.2  0.019149191  0.017864865 0.0023722174 
    2848   -1152449.2            0   -1152449.2 -3.3863046e-06 -1.2692598e-05 -3.9493339e-05 
Loop time of 1.53618 on 104 procs for 132 steps with 288751 atoms

99.9% CPU use with 104 MPI tasks x 1 OpenMP threads

Minimization stats:
  Stopping criterion = energy tolerance
  Energy initial, next-to-last, final = 
     -1152449.22661894  -1152449.22784308  -1152449.22784308
  Force two-norm initial, final = 0.16398605 0.00019877759
  Force max component initial, final = 0.12452412 3.9493339e-05
  Final line search alpha, max atom move = 1.0000000 3.9493339e-05
  Iterations, force evaluations = 132 264

MPI task timing breakdown:
Section |  min time  |  avg time  |  max time  |%varavg| %total
---------------------------------------------------------------
Pair    | 0.39909    | 1.1115     | 1.4393     |  28.4 | 72.36
Neigh   | 0          | 0          | 0          |   0.0 |  0.00
Comm    | 0.02572    | 0.2526     | 0.75908    |  42.0 | 16.44
Output  | 0          | 0          | 0          |   0.0 |  0.00
Modify  | 1.6228e-05 | 0.0021879  | 0.004678   |   2.2 |  0.14
Other   |            | 0.1699     |            |       | 11.06

Nlocal:        2776.45 ave        3930 max           0 min
Histogram: 8 4 4 0 4 12 8 0 26 38
Nghost:        3879.07 ave        5424 max         232 min
Histogram: 8 0 8 0 16 0 8 8 16 40
Neighs:        79213.3 ave      114474 max           0 min
Histogram: 8 4 4 0 8 8 8 8 20 36

Total # of neighbors = 8238188
Ave neighs/atom = 28.530422
Neighbor list builds = 0
Dangerous builds = 0
The dot product: -2.64229077487492e-08
Setting atom values ...
  1 settings made for x
  1 settings made for y
  1 settings made for z
Setting up cg style minimization ...
  Unit style    : metal
  Current step  : 2848
Per MPI rank memory allocation (min/avg/max) = 5.441 | 5.816 | 6.074 Mbytes
Step PotEng KinEng TotEng v_fx v_fy v_fz 
    2848   -1152449.2            0   -1152449.2  0.021798398  0.020693098 0.0021703415 
    2994   -1152449.2            0   -1152449.2 2.4661559e-05 2.9482245e-05 2.7265071e-05 
Loop time of 1.70921 on 104 procs for 146 steps with 288751 atoms

99.9% CPU use with 104 MPI tasks x 1 OpenMP threads

Minimization stats:
  Stopping criterion = energy tolerance
  Energy initial, next-to-last, final = 
     -1152449.20076428  -1152449.20203589  -1152449.20203589
  Force two-norm initial, final = 0.16739925 0.00019989363
  Force max component initial, final = 0.12730553 3.9320442e-05
  Final line search alpha, max atom move = 1.0000000 3.9320442e-05
  Iterations, force evaluations = 146 292

MPI task timing breakdown:
Section |  min time  |  avg time  |  max time  |%varavg| %total
---------------------------------------------------------------
Pair    | 0.44227    | 1.235      | 1.6125     |  30.0 | 72.26
Neigh   | 0          | 0          | 0          |   0.0 |  0.00
Comm    | 0.027747   | 0.28115    | 0.83604    |  43.8 | 16.45
Output  | 0          | 0          | 0          |   0.0 |  0.00
Modify  | 1.7894e-05 | 0.0024149  | 0.0051792  |   2.3 |  0.14
Other   |            | 0.1907     |            |       | 11.15

Nlocal:        2776.45 ave        3930 max           0 min
Histogram: 8 4 4 0 4 12 8 0 26 38
Nghost:        3879.07 ave        5424 max         232 min
Histogram: 8 0 8 0 16 0 8 8 16 40
Neighs:        79213.3 ave      114475 max           0 min
Histogram: 8 4 4 0 8 8 8 8 20 36

Total # of neighbors = 8238183
Ave neighs/atom = 28.530405
Neighbor list builds = 0
Dangerous builds = 0
The dot product: 1.86302058049643e-07
Setting atom values ...
  1 settings made for x
  1 settings made for y
  1 settings made for z
Setting up cg style minimization ...
  Unit style    : metal
  Current step  : 2994
Per MPI rank memory allocation (min/avg/max) = 5.441 | 5.816 | 6.074 Mbytes
Step PotEng KinEng TotEng v_fx v_fy v_fz 
    2994   -1152449.2            0   -1152449.2  0.025238671  0.024390922 0.0014678824 
    3000   -1152449.2            0   -1152449.2 -0.0019200131 -0.0027733714 -0.0038444847 
    3171   -1152449.2            0   -1152449.2 -1.617378e-06 -1.4950323e-06 1.825612e-07 
Loop time of 2.07575 on 104 procs for 177 steps with 288751 atoms

99.9% CPU use with 104 MPI tasks x 1 OpenMP threads

Minimization stats:
  Stopping criterion = energy tolerance
  Energy initial, next-to-last, final = 
     -1152449.17348719  -1152449.17482872  -1152449.17482872
  Force two-norm initial, final = 0.17145311 0.00010398539
  Force max component initial, final = 0.13025682 7.5180456e-06
  Final line search alpha, max atom move = 1.0000000 7.5180456e-06
  Iterations, force evaluations = 177 354

MPI task timing breakdown:
Section |  min time  |  avg time  |  max time  |%varavg| %total
---------------------------------------------------------------
Pair    | 0.53639    | 1.4919     | 1.9497     |  33.1 | 71.87
Neigh   | 0          | 0          | 0          |   0.0 |  0.00
Comm    | 0.030819   | 0.34104    | 1.011      |  48.0 | 16.43
Output  | 0.00017246 | 0.000175   | 0.00023262 |   0.0 |  0.01
Modify  | 2.1585e-05 | 0.0029354  | 0.0062578  |   2.6 |  0.14
Other   |            | 0.2397     |            |       | 11.55

Nlocal:        2776.45 ave        3930 max           0 min
Histogram: 8 4 4 0 4 12 8 0 26 38
Nghost:        3879.07 ave        5424 max         232 min
Histogram: 8 0 8 0 16 0 8 8 16 40
Neighs:        79213.3 ave      114475 max           0 min
Histogram: 8 4 4 0 8 8 8 8 20 36

Total # of neighbors = 8238183
Ave neighs/atom = 28.530405
Neighbor list builds = 0
Dangerous builds = 0
The dot product: -1.56953078638143e-08
Setting atom values ...
  1 settings made for x
  1 settings made for y
  1 settings made for z
Setting up cg style minimization ...
  Unit style    : metal
  Current step  : 3171
Per MPI rank memory allocation (min/avg/max) = 5.441 | 5.816 | 6.074 Mbytes
Step PotEng KinEng TotEng v_fx v_fy v_fz 
    3171   -1152449.1            0   -1152449.1  0.030333474  0.029068931 -0.0035913761 
    3277   -1152449.1            0   -1152449.1 -3.1199348e-05 -4.4358259e-05 -5.4818511e-05 
Loop time of 1.24839 on 104 procs for 106 steps with 288751 atoms

99.9% CPU use with 104 MPI tasks x 1 OpenMP threads

Minimization stats:
  Stopping criterion = energy tolerance
  Energy initial, next-to-last, final = 
     -1152449.14482531  -1152449.14628951  -1152449.14628951
  Force two-norm initial, final = 0.17601718 0.00026600927
  Force max component initial, final = 0.13341171 5.4818511e-05
  Final line search alpha, max atom move = 1.0000000 5.4818511e-05
  Iterations, force evaluations = 106 212

MPI task timing breakdown:
Section |  min time  |  avg time  |  max time  |%varavg| %total
---------------------------------------------------------------
Pair    | 0.31982    | 0.8931     | 1.1651     |  25.5 | 71.54
Neigh   | 0          | 0          | 0          |   0.0 |  0.00
Comm    | 0.020847   | 0.20505    | 0.62194    |  37.0 | 16.42
Output  | 0          | 0          | 0          |   0.0 |  0.00
Modify  | 1.2911e-05 | 0.0017575  | 0.0037491  |   2.0 |  0.14
Other   |            | 0.1485     |            |       | 11.89

Nlocal:        2776.45 ave        3930 max           0 min
Histogram: 8 4 4 0 4 12 8 0 26 38
Nghost:        3879.07 ave        5424 max         232 min
Histogram: 8 0 8 0 16 0 8 8 16 40
Neighs:        79213.3 ave      114475 max           0 min
Histogram: 8 4 4 0 8 8 8 8 20 36

Total # of neighbors = 8238185
Ave neighs/atom = 28.530412
Neighbor list builds = 0
Dangerous builds = 0
The dot product: -4.19906389339665e-07
Setting atom values ...
  1 settings made for x
  1 settings made for y
  1 settings made for z
Setting up cg style minimization ...
  Unit style    : metal
  Current step  : 3277
Per MPI rank memory allocation (min/avg/max) = 5.441 | 5.816 | 6.074 Mbytes
Step PotEng KinEng TotEng v_fx v_fy v_fz 
    3277   -1152449.1            0   -1152449.1  0.038964248  0.036246585 -0.017177215 
    3391   -1152449.1            0   -1152449.1 2.1246194e-06 1.581986e-05 5.5485107e-05 
Loop time of 1.34078 on 104 procs for 114 steps with 288751 atoms

99.9% CPU use with 104 MPI tasks x 1 OpenMP threads

Minimization stats:
  Stopping criterion = energy tolerance
  Energy initial, next-to-last, final = 
     -1152449.11471666  -1152449.11645712  -1152449.11645712
  Force two-norm initial, final = 0.18324319 0.00022489553
  Force max component initial, final = 0.13705148 5.5485107e-05
  Final line search alpha, max atom move = 1.0000000 5.5485107e-05
  Iterations, force evaluations = 114 228

MPI task timing breakdown:
Section |  min time  |  avg time  |  max time  |%varavg| %total
---------------------------------------------------------------
Pair    | 0.34738    | 0.96025    | 1.2483     |  26.5 | 71.62
Neigh   | 0          | 0          | 0          |   0.0 |  0.00
Comm    | 0.021861   | 0.21942    | 0.64604    |  38.2 | 16.37
Output  | 0          | 0          | 0          |   0.0 |  0.00
Modify  | 1.4168e-05 | 0.0018921  | 0.004051   |   2.0 |  0.14
Other   |            | 0.1592     |            |       | 11.88

Nlocal:        2776.45 ave        3930 max           0 min
Histogram: 8 4 4 0 4 12 8 0 26 38
Nghost:        3879.06 ave        5424 max         232 min
Histogram: 8 0 8 0 16 0 8 8 16 40
Neighs:        79213.3 ave      114475 max           0 min
Histogram: 8 4 4 0 8 8 8 8 20 36

Total # of neighbors = 8238183
Ave neighs/atom = 28.530405
Neighbor list builds = 0
Dangerous builds = 0
The dot product: -8.93224529638539e-08
Setting atom values ...
  1 settings made for x
  1 settings made for y
  1 settings made for z
Setting up cg style minimization ...
  Unit style    : metal
  Current step  : 3391
Per MPI rank memory allocation (min/avg/max) = 5.441 | 5.816 | 6.074 Mbytes
Step PotEng KinEng TotEng v_fx v_fy v_fz 
    3391   -1152449.1            0   -1152449.1  0.047949102  0.046392294 -0.029214715 
    3514   -1152449.1            0   -1152449.1 -8.5444441e-06 -7.6876305e-06 7.6516633e-06 
Loop time of 1.4497 on 104 procs for 123 steps with 288751 atoms

99.9% CPU use with 104 MPI tasks x 1 OpenMP threads

Minimization stats:
  Stopping criterion = energy tolerance
  Energy initial, next-to-last, final = 
     -1152449.08328213  -1152449.08534764  -1152449.08534764
  Force two-norm initial, final = 0.19293387 0.00014992214
  Force max component initial, final = 0.141251 3.0044954e-05
  Final line search alpha, max atom move = 1.0000000 3.0044954e-05
  Iterations, force evaluations = 123 246

MPI task timing breakdown:
Section |  min time  |  avg time  |  max time  |%varavg| %total
---------------------------------------------------------------
Pair    | 0.37151    | 1.0384     | 1.3655     |  27.6 | 71.63
Neigh   | 0          | 0          | 0          |   0.0 |  0.00
Comm    | 0.021452   | 0.23681    | 0.7081     |  40.1 | 16.34
Output  | 0          | 0          | 0          |   0.0 |  0.00
Modify  | 1.5101e-05 | 0.0020387  | 0.0043541  |   2.1 |  0.14
Other   |            | 0.1725     |            |       | 11.90

Nlocal:        2776.45 ave        3930 max           0 min
Histogram: 8 4 4 0 4 12 8 0 26 38
Nghost:        3879.06 ave        5424 max         232 min
Histogram: 8 0 8 0 16 0 8 8 16 40
Neighs:        79213.3 ave      114475 max           0 min
Histogram: 8 4 4 0 8 8 8 8 20 36

Total # of neighbors = 8238183
Ave neighs/atom = 28.530405
Neighbor list builds = 0
Dangerous builds = 0
The dot product: -2.56956841880528e-07
Setting atom values ...
  1 settings made for x
  1 settings made for y
  1 settings made for z
Setting up cg style minimization ...
  Unit style    : metal
  Current step  : 3514
Per MPI rank memory allocation (min/avg/max) = 5.441 | 5.816 | 6.074 Mbytes
Step PotEng KinEng TotEng v_fx v_fy v_fz 
    3514   -1152449.1            0   -1152449.1  0.053134199  0.055548589  -0.03785982 
    3652   -1152449.1            0   -1152449.1 1.4488522e-05 1.4213295e-05 -1.4517239e-05 
Loop time of 1.61688 on 104 procs for 138 steps with 288751 atoms

99.9% CPU use with 104 MPI tasks x 1 OpenMP threads

Minimization stats:
  Stopping criterion = energy tolerance
  Energy initial, next-to-last, final = 
      -1152449.0506281  -1152449.05296154  -1152449.05296154
  Force two-norm initial, final = 0.201704 0.00017619516
  Force max component initial, final = 0.14561605 3.4559769e-05
  Final line search alpha, max atom move = 1.0000000 3.4559769e-05
  Iterations, force evaluations = 138 276

MPI task timing breakdown:
Section |  min time  |  avg time  |  max time  |%varavg| %total
---------------------------------------------------------------
Pair    | 0.41566    | 1.1589     | 1.5158     |  29.2 | 71.67
Neigh   | 0          | 0          | 0          |   0.0 |  0.00
Comm    | 0.027342   | 0.26404    | 0.78497    |  42.3 | 16.33
Output  | 0          | 0          | 0          |   0.0 |  0.00
Modify  | 1.6759e-05 | 0.0022879  | 0.0048981  |   2.3 |  0.14
Other   |            | 0.1917     |            |       | 11.86

Nlocal:        2776.45 ave        3930 max           0 min
Histogram: 8 4 4 0 4 12 8 0 26 38
Nghost:        3879.07 ave        5424 max         232 min
Histogram: 8 0 8 0 16 0 8 8 16 40
Neighs:        79213.3 ave      114475 max           0 min
Histogram: 8 4 4 0 8 8 8 8 20 36

Total # of neighbors = 8238182
Ave neighs/atom = 28.530402
Neighbor list builds = 0
Dangerous builds = 0
The dot product: 5.26916837978425e-07
Setting atom values ...
  1 settings made for x
  1 settings made for y
  1 settings made for z
Setting up cg style minimization ...
  Unit style    : metal
  Current step  : 3652
Per MPI rank memory allocation (min/avg/max) = 5.441 | 5.816 | 6.074 Mbytes
Step PotEng KinEng TotEng v_fx v_fy v_fz 
    3652     -1152449            0     -1152449  0.055114185  0.062082571 -0.050362089 
    3842     -1152449            0     -1152449 3.2683706e-06 5.5552399e-06 6.2935163e-06 
Loop time of 2.21328 on 104 procs for 190 steps with 288751 atoms

99.9% CPU use with 104 MPI tasks x 1 OpenMP threads

Minimization stats:
  Stopping criterion = energy tolerance
  Energy initial, next-to-last, final = 
     -1152449.01682154  -1152449.01940698  -1152449.01940698
  Force two-norm initial, final = 0.20996174 9.6158252e-05
  Force max component initial, final = 0.14969422 6.5547544e-06
  Final line search alpha, max atom move = 1.0000000 6.5547544e-06
  Iterations, force evaluations = 190 380

MPI task timing breakdown:
Section |  min time  |  avg time  |  max time  |%varavg| %total
---------------------------------------------------------------
Pair    | 0.57311    | 1.6062     | 2.0859     |  34.2 | 72.57
Neigh   | 0          | 0          | 0          |   0.0 |  0.00
Comm    | 0.032335   | 0.36387    | 1.0997     |  50.4 | 16.44
Output  | 0          | 0          | 0          |   0.0 |  0.00
Modify  | 2.3125e-05 | 0.0031459  | 0.0067383  |   2.6 |  0.14
Other   |            | 0.2401     |            |       | 10.85

Nlocal:        2776.45 ave        3930 max           0 min
Histogram: 8 4 4 0 4 12 8 0 26 38
Nghost:        3879.07 ave        5424 max         232 min
Histogram: 8 0 8 0 16 0 8 8 16 40
Neighs:        79213.2 ave      114475 max           0 min
Histogram: 8 4 4 0 8 8 8 8 20 36

Total # of neighbors = 8238178
Ave neighs/atom = 28.530388
Neighbor list builds = 0
Dangerous builds = 0
The dot product: 4.67672814331275e-08
Setting atom values ...
  1 settings made for x
  1 settings made for y
  1 settings made for z
Setting up cg style minimization ...
  Unit style    : metal
  Current step  : 3842
Per MPI rank memory allocation (min/avg/max) = 5.441 | 5.816 | 6.074 Mbytes
Step PotEng KinEng TotEng v_fx v_fy v_fz 
    3842     -1152449            0     -1152449  0.053641364  0.065114105 -0.068646945 
    4000     -1152449            0     -1152449 -9.4537991e-06 -9.0284512e-06 2.6718322e-05 
    4025     -1152449            0     -1152449 2.1204359e-05 2.6385948e-05 -2.3274354e-05 
Loop time of 2.13666 on 104 procs for 183 steps with 288751 atoms

99.9% CPU use with 104 MPI tasks x 1 OpenMP threads

Minimization stats:
  Stopping criterion = energy tolerance
  Energy initial, next-to-last, final = 
     -1152448.98211077  -1152448.98489195  -1152448.98489195
  Force two-norm initial, final = 0.21846536 0.00016063273
  Force max component initial, final = 0.15357138 2.6385948e-05
  Final line search alpha, max atom move = 1.0000000 2.6385948e-05
  Iterations, force evaluations = 183 366

MPI task timing breakdown:
Section |  min time  |  avg time  |  max time  |%varavg| %total
---------------------------------------------------------------
Pair    | 0.5515     | 1.536      | 2.0149     |  33.6 | 71.89
Neigh   | 0          | 0          | 0          |   0.0 |  0.00
Comm    | 0.032574   | 0.34922    | 1.0356     |  48.7 | 16.34
Output  | 0.00023657 | 0.0002433  | 0.00038974 |   0.0 |  0.01
Modify  | 2.2355e-05 | 0.0030323  | 0.0064757  |   2.6 |  0.14
Other   |            | 0.2482     |            |       | 11.62

Nlocal:        2776.45 ave        3930 max           0 min
Histogram: 8 4 4 0 4 12 8 0 26 38
Nghost:        3878.97 ave        5424 max         232 min
Histogram: 8 0 8 0 16 0 8 8 16 40
Neighs:        79213.2 ave      114474 max           0 min
Histogram: 8 4 4 0 8 8 8 8 20 36

Total # of neighbors = 8238178
Ave neighs/atom = 28.530388
Neighbor list builds = 0
Dangerous builds = 0
The dot product: 1.01461524774996e-06
Setting atom values ...
  1 settings made for x
  1 settings made for y
  1 settings made for z
Setting up cg style minimization ...
  Unit style    : metal
  Current step  : 4025
Per MPI rank memory allocation (min/avg/max) = 5.441 | 5.816 | 6.074 Mbytes
Step PotEng KinEng TotEng v_fx v_fy v_fz 
    4025   -1152448.9            0   -1152448.9  0.047443485  0.063638785 -0.081749582 
    4415     -1152449            0     -1152449 -1.5885232e-06 -2.6999783e-06 -2.030261e-06 
Loop time of 4.55825 on 104 procs for 390 steps with 288751 atoms

99.9% CPU use with 104 MPI tasks x 1 OpenMP threads

Minimization stats:
  Stopping criterion = energy tolerance
  Energy initial, next-to-last, final = 
     -1152448.94672751   -1152448.9810996   -1152448.9810996
  Force two-norm initial, final = 0.22437404 1.8160892e-05
  Force max component initial, final = 0.15705796 4.4062297e-06
  Final line search alpha, max atom move = 1.0000000 4.4062297e-06
  Iterations, force evaluations = 390 778

MPI task timing breakdown:
Section |  min time  |  avg time  |  max time  |%varavg| %total
---------------------------------------------------------------
Pair    | 1.1915     | 3.2862     | 4.2848     |  48.7 | 72.09
Neigh   | 3.1203e-05 | 0.0087928  | 0.012762   |   3.9 |  0.19
Comm    | 0.070737   | 0.75075    | 2.2353     |  71.3 | 16.47
Output  | 0          | 0          | 0          |   0.0 |  0.00
Modify  | 4.6828e-05 | 0.0064296  | 0.013771   |   3.8 |  0.14
Other   |            | 0.5061     |            |       | 11.10

Nlocal:        2776.45 ave        3945 max           0 min
Histogram: 8 4 4 0 4 12 8 0 28 36
Nghost:        3879.01 ave        5426 max         232 min
Histogram: 8 0 8 0 16 0 8 8 16 40
Neighs:        79213.2 ave      114968 max           0 min
Histogram: 8 4 4 0 10 6 8 8 23 33

Total # of neighbors = 8238176
Ave neighs/atom = 28.530381
Neighbor list builds = 3
Dangerous builds = 0
The dot product: 5.36456862472354e-08
Setting atom values ...
  1 settings made for x
  1 settings made for y
  1 settings made for z
Setting up cg style minimization ...
  Unit style    : metal
  Current step  : 4415
Per MPI rank memory allocation (min/avg/max) = 5.441 | 5.816 | 6.074 Mbytes
Step PotEng KinEng TotEng v_fx v_fy v_fz 
    4415     -1152449            0     -1152449  0.021527803  0.051729741  -0.14004106 
    4587     -1152449            0     -1152449 -5.2490506e-06 -7.704908e-06 -1.2011029e-05 
Loop time of 1.9971 on 104 procs for 172 steps with 288751 atoms

99.9% CPU use with 104 MPI tasks x 1 OpenMP threads

Minimization stats:
  Stopping criterion = energy tolerance
  Energy initial, next-to-last, final = 
     -1152448.95874823  -1152448.96262819  -1152448.96262819
  Force two-norm initial, final = 0.25576976 0.00025561189
  Force max component initial, final = 0.1643944 1.6223573e-05
  Final line search alpha, max atom move = 1.0000000 1.6223573e-05
  Iterations, force evaluations = 172 344

MPI task timing breakdown:
Section |  min time  |  avg time  |  max time  |%varavg| %total
---------------------------------------------------------------
Pair    | 0.51652    | 1.4472     | 1.8781     |  32.7 | 72.47
Neigh   | 0          | 0          | 0          |   0.0 |  0.00
Comm    | 0.030204   | 0.32761    | 0.9777     |  47.8 | 16.40
Output  | 0          | 0          | 0          |   0.0 |  0.00
Modify  | 2.068e-05  | 0.0028485  | 0.0061713  |   2.5 |  0.14
Other   |            | 0.2194     |            |       | 10.99

Nlocal:        2776.45 ave        3946 max           0 min
Histogram: 8 4 4 0 4 12 8 0 28 36
Nghost:        3879.01 ave        5428 max         232 min
Histogram: 8 0 8 0 16 0 8 8 16 40
Neighs:        79213.3 ave      114987 max           0 min
Histogram: 8 4 4 0 10 6 8 8 24 32

Total # of neighbors = 8238183
Ave neighs/atom = 28.530405
Neighbor list builds = 0
Dangerous builds = 0
The dot product: 2.40190718521392e-07
Setting atom values ...
  1 settings made for x
  1 settings made for y
  1 settings made for z
Setting up cg style minimization ...
  Unit style    : metal
  Current step  : 4587
Per MPI rank memory allocation (min/avg/max) = 5.441 | 5.816 | 6.074 Mbytes
Step PotEng KinEng TotEng v_fx v_fy v_fz 
    4587   -1152448.9            0   -1152448.9 0.0059034318  0.025045095 -0.068541709 
    4756   -1152448.9            0   -1152448.9 -8.3361111e-06 -1.5157754e-05 1.3431896e-06 
Loop time of 2.0293 on 104 procs for 169 steps with 288751 atoms

99.9% CPU use with 104 MPI tasks x 1 OpenMP threads

Minimization stats:
  Stopping criterion = energy tolerance
  Energy initial, next-to-last, final = 
     -1152448.94018668  -1152448.94255051  -1152448.94255051
  Force two-norm initial, final = 0.22363931 9.9062015e-05
  Force max component initial, final = 0.16595519 2.1273382e-05
  Final line search alpha, max atom move = 1.0000000 2.1273382e-05
  Iterations, force evaluations = 169 338

MPI task timing breakdown:
Section |  min time  |  avg time  |  max time  |%varavg| %total
---------------------------------------------------------------
Pair    | 0.51032    | 1.4293     | 1.883      |  32.4 | 70.43
Neigh   | 0          | 0          | 0          |   0.0 |  0.00
Comm    | 0.03027    | 0.33242    | 0.96923    |  46.1 | 16.38
Output  | 0          | 0          | 0          |   0.0 |  0.00
Modify  | 2.0805e-05 | 0.0027967  | 0.0059594  |   2.5 |  0.14
Other   |            | 0.2648     |            |       | 13.05

Nlocal:        2776.45 ave        3951 max           0 min
Histogram: 8 4 4 0 4 12 8 0 30 34
Nghost:        3879.03 ave        5427 max         232 min
Histogram: 8 0 8 0 16 0 8 8 16 40
Neighs:        79213.3 ave      115134 max           0 min
Histogram: 8 4 4 0 10 6 8 8 24 32

Total # of neighbors = 8238184
Ave neighs/atom = 28.530409
Neighbor list builds = 0
Dangerous builds = 0
The dot product: -8.86817855847665e-08
Setting atom values ...
  1 settings made for x
  1 settings made for y
  1 settings made for z
Setting up cg style minimization ...
  Unit style    : metal
  Current step  : 4756
Per MPI rank memory allocation (min/avg/max) = 5.441 | 5.816 | 6.074 Mbytes
Step PotEng KinEng TotEng v_fx v_fy v_fz 
    4756   -1152448.9            0   -1152448.9 0.0010362091  0.012780004 -0.041457008 
    4916   -1152448.9            0   -1152448.9  -1.3548e-05 -2.5635489e-05 4.0151401e-06 
Loop time of 1.89391 on 104 procs for 160 steps with 288751 atoms

99.9% CPU use with 104 MPI tasks x 1 OpenMP threads

Minimization stats:
  Stopping criterion = energy tolerance
  Energy initial, next-to-last, final = 
     -1152448.92010299  -1152448.92239087  -1152448.92239087
  Force two-norm initial, final = 0.22083592 0.00011769151
  Force max component initial, final = 0.16769046 2.5635489e-05
  Final line search alpha, max atom move = 1.0000000 2.5635489e-05
  Iterations, force evaluations = 160 320

MPI task timing breakdown:
Section |  min time  |  avg time  |  max time  |%varavg| %total
---------------------------------------------------------------
Pair    | 0.48374    | 1.349      | 1.7635     |  31.5 | 71.23
Neigh   | 0          | 0          | 0          |   0.0 |  0.00
Comm    | 0.030834   | 0.30934    | 0.91469    |  45.3 | 16.33
Output  | 0          | 0          | 0          |   0.0 |  0.00
Modify  | 1.9533e-05 | 0.0026531  | 0.0062205  |   2.4 |  0.14
Other   |            | 0.2329     |            |       | 12.30

Nlocal:        2776.45 ave        3951 max           0 min
Histogram: 8 4 4 0 4 12 8 0 30 34
Nghost:        3879.05 ave        5425 max         232 min
Histogram: 8 0 8 0 16 0 8 8 16 40
Neighs:        79213.3 ave      115134 max           0 min
Histogram: 8 4 4 0 10 6 8 8 24 32

Total # of neighbors = 8238185
Ave neighs/atom = 28.530412
Neighbor list builds = 0
Dangerous builds = 0
The dot product: -9.07885579627356e-08
Setting atom values ...
  1 settings made for x
  1 settings made for y
  1 settings made for z
Setting up cg style minimization ...
  Unit style    : metal
  Current step  : 4916
Per MPI rank memory allocation (min/avg/max) = 5.441 | 5.816 | 6.074 Mbytes
Step PotEng KinEng TotEng v_fx v_fy v_fz 
    4916   -1152448.9            0   -1152448.9 -0.00055398284 0.0078846702 -0.030273514 
    5000   -1152448.9            0   -1152448.9 -1.0107017e-05 -1.75101e-05 -3.3059847e-06 
    5115   -1152448.9            0   -1152448.9 -2.564828e-06 -5.4082944e-06 2.443714e-06 
Loop time of 2.3302 on 104 procs for 199 steps with 288751 atoms

99.9% CPU use with 104 MPI tasks x 1 OpenMP threads

Minimization stats:
  Stopping criterion = energy tolerance
  Energy initial, next-to-last, final = 
     -1152448.90013589  -1152448.90212497  -1152448.90212497
  Force two-norm initial, final = 0.22079668 4.7159206e-05
  Force max component initial, final = 0.16966243 1.3139876e-05
  Final line search alpha, max atom move = 1.0000000 1.3139876e-05
  Iterations, force evaluations = 199 398

MPI task timing breakdown:
Section |  min time  |  avg time  |  max time  |%varavg| %total
---------------------------------------------------------------
Pair    | 0.60027    | 1.6774     | 2.195      |  35.0 | 71.99
Neigh   | 0          | 0          | 0          |   0.0 |  0.00
Comm    | 0.034144   | 0.3808     | 1.1473     |  51.3 | 16.34
Output  | 0.00015305 | 0.00015879 | 0.00027581 |   0.0 |  0.01
Modify  | 2.4311e-05 | 0.0032967  | 0.0070267  |   2.7 |  0.14
Other   |            | 0.2685     |            |       | 11.52

Nlocal:        2776.45 ave        3953 max           0 min
Histogram: 8 4 4 0 4 12 8 0 30 34
Nghost:        3879.05 ave        5425 max         232 min
Histogram: 8 0 8 0 16 0 8 8 16 40
Neighs:        79213.3 ave      115197 max           0 min
Histogram: 8 4 4 0 10 6 8 8 24 32

Total # of neighbors = 8238182
Ave neighs/atom = 28.530402
Neighbor list builds = 0
Dangerous builds = 0
The dot product: -1.69416083138285e-08
Setting atom values ...
  1 settings made for x
  1 settings made for y
  1 settings made for z
Setting up cg style minimization ...
  Unit style    : metal
  Current step  : 5115
Per MPI rank memory allocation (min/avg/max) = 5.441 | 5.816 | 6.074 Mbytes
Step PotEng KinEng TotEng v_fx v_fy v_fz 
    5115   -1152448.9            0   -1152448.9 -0.00045028184 0.0055074479 -0.020343124 
    5260   -1152448.9            0   -1152448.9 4.0742114e-06 2.5085605e-06 1.5949607e-05 
Loop time of 1.68896 on 104 procs for 145 steps with 288751 atoms

99.9% CPU use with 104 MPI tasks x 1 OpenMP threads

Minimization stats:
  Stopping criterion = energy tolerance
  Energy initial, next-to-last, final = 
     -1152448.87880812  -1152448.88061584  -1152448.88061584
  Force two-norm initial, final = 0.21930575 0.00021815508
  Force max component initial, final = 0.17174247 3.0535590e-05
  Final line search alpha, max atom move = 1.0000000 3.0535590e-05
  Iterations, force evaluations = 145 290

MPI task timing breakdown:
Section |  min time  |  avg time  |  max time  |%varavg| %total
---------------------------------------------------------------
Pair    | 0.43719    | 1.2165     | 1.5896     |  29.8 | 72.03
Neigh   | 0          | 0          | 0          |   0.0 |  0.00
Comm    | 0.028373   | 0.27501    | 0.81682    |  43.5 | 16.28
Output  | 0          | 0          | 0          |   0.0 |  0.00
Modify  | 1.7485e-05 | 0.0024021  | 0.0051334  |   2.3 |  0.14
Other   |            | 0.1951     |            |       | 11.55

Nlocal:        2776.45 ave        3951 max           0 min
Histogram: 8 4 4 0 4 12 8 0 30 34
Nghost:        3878.99 ave        5425 max         232 min
Histogram: 8 0 8 0 16 0 8 8 16 40
Neighs:        79213.3 ave      115134 max           0 min
Histogram: 8 4 4 0 10 6 8 8 24 32

Total # of neighbors = 8238180
Ave neighs/atom = 28.530395
Neighbor list builds = 0
Dangerous builds = 0
The dot product: -3.46952048896049e-08
Setting atom values ...
  1 settings made for x
  1 settings made for y
  1 settings made for z
Setting up cg style minimization ...
  Unit style    : metal
  Current step  : 5260
Per MPI rank memory allocation (min/avg/max) = 5.441 | 5.816 | 6.074 Mbytes
Step PotEng KinEng TotEng v_fx v_fy v_fz 
    5260   -1152448.9            0   -1152448.9 -0.0002217126 0.0038534808 -0.013379962 
    5409   -1152448.9            0   -1152448.9 -2.6499121e-05 -5.5855267e-05 2.2785834e-05 
Loop time of 1.7582 on 104 procs for 149 steps with 288751 atoms

99.9% CPU use with 104 MPI tasks x 1 OpenMP threads

Minimization stats:
  Stopping criterion = energy tolerance
  Energy initial, next-to-last, final = 
     -1152448.85530058  -1152448.85721977  -1152448.85721977
  Force two-norm initial, final = 0.22313874 0.00029307391
  Force max component initial, final = 0.17389681 8.7571919e-05
  Final line search alpha, max atom move = 1.0000000 8.7571919e-05
  Iterations, force evaluations = 149 298

MPI task timing breakdown:
Section |  min time  |  avg time  |  max time  |%varavg| %total
---------------------------------------------------------------
Pair    | 0.44815    | 1.2583     | 1.6548     |  30.4 | 71.57
Neigh   | 0          | 0          | 0          |   0.0 |  0.00
Comm    | 0.026533   | 0.28904    | 0.86687    |  44.2 | 16.44
Output  | 0          | 0          | 0          |   0.0 |  0.00
Modify  | 1.8243e-05 | 0.0024648  | 0.0053182  |   2.3 |  0.14
Other   |            | 0.2084     |            |       | 11.85

Nlocal:        2776.45 ave        3949 max           0 min
Histogram: 8 4 4 0 4 12 8 0 28 36
Nghost:        3878.99 ave        5425 max         232 min
Histogram: 8 0 8 0 16 0 8 8 16 40
Neighs:        79213.3 ave      115080 max           0 min
Histogram: 8 4 4 0 10 6 8 8 24 32

Total # of neighbors = 8238179
Ave neighs/atom = 28.530391
Neighbor list builds = 0
Dangerous builds = 0
The dot product: 1.77960962204961e-08
Setting atom values ...
  1 settings made for x
  1 settings made for y
  1 settings made for z
Setting up cg style minimization ...
  Unit style    : metal
  Current step  : 5409
Per MPI rank memory allocation (min/avg/max) = 5.441 | 5.816 | 6.074 Mbytes
Step PotEng KinEng TotEng v_fx v_fy v_fz 
    5409   -1152448.8            0   -1152448.8 -0.00012920055 0.0028968369 -0.0097831547 
    5602   -1152448.8            0   -1152448.8 -7.600147e-06 -1.5468304e-05 4.8644473e-06 
Loop time of 2.23792 on 104 procs for 193 steps with 288751 atoms

99.9% CPU use with 104 MPI tasks x 1 OpenMP threads

Minimization stats:
  Stopping criterion = energy tolerance
  Energy initial, next-to-last, final = 
      -1152448.8296735  -1152448.83170443  -1152448.83170443
  Force two-norm initial, final = 0.22774804 9.8151863e-05
  Force max component initial, final = 0.17609977 3.2830941e-05
  Final line search alpha, max atom move = 1.0000000 3.2830941e-05
  Iterations, force evaluations = 193 386

MPI task timing breakdown:
Section |  min time  |  avg time  |  max time  |%varavg| %total
---------------------------------------------------------------
Pair    | 0.58096    | 1.6195     | 2.1073     |  34.5 | 72.36
Neigh   | 0          | 0          | 0          |   0.0 |  0.00
Comm    | 0.034089   | 0.36566    | 1.093      |  50.5 | 16.34
Output  | 0          | 0          | 0          |   0.0 |  0.00
Modify  | 2.34e-05   | 0.0031911  | 0.0068069  |   2.7 |  0.14
Other   |            | 0.2496     |            |       | 11.15

Nlocal:        2776.45 ave        3945 max           0 min
Histogram: 8 4 4 0 4 12 8 0 28 36
Nghost:        3878.99 ave        5425 max         232 min
Histogram: 8 0 8 0 16 0 8 8 16 40
Neighs:        79213.2 ave      114941 max           0 min
Histogram: 8 4 4 0 10 6 8 8 22 34

Total # of neighbors = 8238177
Ave neighs/atom = 28.530384
Neighbor list builds = 0
Dangerous builds = 0
The dot product: 1.35029405977813e-08
Setting atom values ...
  1 settings made for x
  1 settings made for y
  1 settings made for z
Setting up cg style minimization ...
  Unit style    : metal
  Current step  : 5602
Per MPI rank memory allocation (min/avg/max) = 5.441 | 5.816 | 6.074 Mbytes
Step PotEng KinEng TotEng v_fx v_fy v_fz 
    5602   -1152448.8            0   -1152448.8 1.8993311e-05  0.002517195 -0.0077604464 
    5780   -1152448.8            0   -1152448.8 4.2278789e-06 5.3865444e-06 7.2817283e-06 
Loop time of 2.08971 on 104 procs for 178 steps with 288751 atoms

99.9% CPU use with 104 MPI tasks x 1 OpenMP threads

Minimization stats:
  Stopping criterion = energy tolerance
  Energy initial, next-to-last, final = 
     -1152448.80181324  -1152448.80394416  -1152448.80394416
  Force two-norm initial, final = 0.23236907 0.00019986028
  Force max component initial, final = 0.17848474 6.4035814e-05
  Final line search alpha, max atom move = 1.0000000 6.4035814e-05
  Iterations, force evaluations = 178 356

MPI task timing breakdown:
Section |  min time  |  avg time  |  max time  |%varavg| %total
---------------------------------------------------------------
Pair    | 0.53906    | 1.5069     | 1.9724     |  33.2 | 72.11
Neigh   | 0          | 0          | 0          |   0.0 |  0.00
Comm    | 0.030707   | 0.34151    | 1.0285     |  48.5 | 16.34
Output  | 0          | 0          | 0          |   0.0 |  0.00
Modify  | 2.1563e-05 | 0.0029465  | 0.0063019  |   2.6 |  0.14
Other   |            | 0.2383     |            |       | 11.40

Nlocal:        2776.45 ave        3940 max           0 min
Histogram: 8 4 4 0 4 12 8 0 28 36
Nghost:        3879.03 ave        5425 max         232 min
Histogram: 8 0 8 0 16 0 8 8 16 40
Neighs:        79213.2 ave      114786 max           0 min
Histogram: 8 4 4 0 10 6 8 8 22 34

Total # of neighbors = 8238176
Ave neighs/atom = 28.530381
Neighbor list builds = 0
Dangerous builds = 0
The dot product: -3.91811296561431e-09
Setting atom values ...
  1 settings made for x
  1 settings made for y
  1 settings made for z
Setting up cg style minimization ...
  Unit style    : metal
  Current step  : 5780
Per MPI rank memory allocation (min/avg/max) = 5.441 | 5.816 | 6.074 Mbytes
Step PotEng KinEng TotEng v_fx v_fy v_fz 
    5780   -1152448.8            0   -1152448.8 0.00027474431  0.002554322 -0.0064554925 
    5968   -1152448.8            0   -1152448.8 9.5244845e-07 2.459582e-06 -2.2834355e-06 
Loop time of 2.19456 on 104 procs for 188 steps with 288751 atoms

99.9% CPU use with 104 MPI tasks x 1 OpenMP threads

Minimization stats:
  Stopping criterion = energy tolerance
  Energy initial, next-to-last, final = 
     -1152448.77164497  -1152448.77385276  -1152448.77385276
  Force two-norm initial, final = 0.23642549 0.00013247887
  Force max component initial, final = 0.18095466 3.7341515e-05
  Final line search alpha, max atom move = 1.0000000 3.7341515e-05
  Iterations, force evaluations = 188 376

MPI task timing breakdown:
Section |  min time  |  avg time  |  max time  |%varavg| %total
---------------------------------------------------------------
Pair    | 0.56675    | 1.5828     | 2.0617     |  33.9 | 72.12
Neigh   | 0          | 0          | 0          |   0.0 |  0.00
Comm    | 0.032956   | 0.35785    | 1.0641     |  49.6 | 16.31
Output  | 0          | 0          | 0          |   0.0 |  0.00
Modify  | 2.2679e-05 | 0.0031114  | 0.0066528  |   2.6 |  0.14
Other   |            | 0.2508     |            |       | 11.43

Nlocal:        2776.45 ave        3930 max           0 min
Histogram: 8 4 4 0 4 12 8 0 26 38
Nghost:        3879.01 ave        5425 max         232 min
Histogram: 8 0 8 0 16 0 8 8 16 40
Neighs:        79213.2 ave      114461 max           0 min
Histogram: 8 4 4 0 8 8 8 8 20 36

Total # of neighbors = 8238169
Ave neighs/atom = 28.530357
Neighbor list builds = 0
Dangerous builds = 0
The dot product: -3.50917397460837e-09
Setting atom values ...
  1 settings made for x
  1 settings made for y
  1 settings made for z
Setting up cg style minimization ...
  Unit style    : metal
  Current step  : 5968
Per MPI rank memory allocation (min/avg/max) = 5.441 | 5.816 | 6.074 Mbytes
Step PotEng KinEng TotEng v_fx v_fy v_fz 
    5968   -1152448.7            0   -1152448.7 0.00055763594 0.0028576523 -0.0058415659 
    6000   -1152448.7            0   -1152448.7 -4.6674397e-05 -4.5954751e-05 -0.0001224962 
    6108   -1152448.7            0   -1152448.7 -2.9865183e-07 -9.5999495e-07 1.3234301e-06 
Loop time of 1.62584 on 104 procs for 140 steps with 288751 atoms

99.9% CPU use with 104 MPI tasks x 1 OpenMP threads

Minimization stats:
  Stopping criterion = energy tolerance
  Energy initial, next-to-last, final = 
     -1152448.73911346  -1152448.74137372  -1152448.74137372
  Force two-norm initial, final = 0.23962831 0.00020466735
  Force max component initial, final = 0.18332651 5.8513612e-05
  Final line search alpha, max atom move = 1.0000000 5.8513612e-05
  Iterations, force evaluations = 140 280

MPI task timing breakdown:
Section |  min time  |  avg time  |  max time  |%varavg| %total
---------------------------------------------------------------
Pair    | 0.42374    | 1.182      | 1.5332     |  29.4 | 72.70
Neigh   | 0          | 0          | 0          |   0.0 |  0.00
Comm    | 0.026145   | 0.26708    | 0.80364    |  43.2 | 16.43
Output  | 0.00016444 | 0.0001666  | 0.0002498  |   0.0 |  0.01
Modify  | 1.695e-05  | 0.0023179  | 0.0049543  |   2.3 |  0.14
Other   |            | 0.1743     |            |       | 10.72

Nlocal:        2776.45 ave        3930 max           0 min
Histogram: 8 4 4 0 4 12 8 0 26 38
Nghost:        3879.05 ave        5426 max         232 min
Histogram: 8 0 8 0 16 0 8 8 16 40
Neighs:        79213.1 ave      114461 max           0 min
Histogram: 8 4 4 0 8 8 8 8 20 36

Total # of neighbors = 8238166
Ave neighs/atom = 28.530346
Neighbor list builds = 0
Dangerous builds = 0
The dot product: 1.7266870935774e-09
Setting atom values ...
  1 settings made for x
  1 settings made for y
  1 settings made for z
Setting up cg style minimization ...
  Unit style    : metal
  Current step  : 6108
Per MPI rank memory allocation (min/avg/max) = 5.441 | 5.816 | 6.074 Mbytes
Step PotEng KinEng TotEng v_fx v_fy v_fz 
    6108   -1152448.7            0   -1152448.7 0.00086620298 0.0033301974 -0.0056250125 
    6288   -1152448.7            0   -1152448.7 -3.6924114e-06 -4.5178305e-06 -6.8975105e-06 
Loop time of 2.11209 on 104 procs for 180 steps with 288751 atoms

99.9% CPU use with 104 MPI tasks x 1 OpenMP threads

Minimization stats:
  Stopping criterion = energy tolerance
  Energy initial, next-to-last, final = 
     -1152448.70418603  -1152448.70647855  -1152448.70647855
  Force two-norm initial, final = 0.24216086 0.00023038937
  Force max component initial, final = 0.18577192 6.5251441e-05
  Final line search alpha, max atom move = 1.0000000 6.5251441e-05
  Iterations, force evaluations = 180 360

MPI task timing breakdown:
Section |  min time  |  avg time  |  max time  |%varavg| %total
---------------------------------------------------------------
Pair    | 0.54274    | 1.5175     | 1.9856     |  33.3 | 71.85
Neigh   | 0          | 0          | 0          |   0.0 |  0.00
Comm    | 0.031934   | 0.34611    | 1.0355     |  48.5 | 16.39
Output  | 0          | 0          | 0          |   0.0 |  0.00
Modify  | 2.2059e-05 | 0.0029794  | 0.0063932  |   2.6 |  0.14
Other   |            | 0.2455     |            |       | 11.62

Nlocal:        2776.45 ave        3930 max           0 min
Histogram: 8 4 4 0 4 12 8 0 26 38
Nghost:        3878.97 ave        5426 max         232 min
Histogram: 8 0 8 0 16 0 8 8 16 40
Neighs:        79213.1 ave      114461 max           0 min
Histogram: 8 4 4 0 8 8 8 8 20 36

Total # of neighbors = 8238166
Ave neighs/atom = 28.530346
Neighbor list builds = 0
Dangerous builds = 0
The dot product: -6.55350668559056e-10
Setting atom values ...
  1 settings made for x
  1 settings made for y
  1 settings made for z
Setting up cg style minimization ...
  Unit style    : metal
  Current step  : 6288
Per MPI rank memory allocation (min/avg/max) = 5.441 | 5.816 | 6.074 Mbytes
Step PotEng KinEng TotEng v_fx v_fy v_fz 
    6288   -1152448.7            0   -1152448.7 0.0011722151 0.0039821922 -0.0060039034 
    6461   -1152448.7            0   -1152448.7 -4.8226701e-06 -1.1533482e-05 9.1013296e-06 
Loop time of 2.0431 on 104 procs for 173 steps with 288751 atoms

99.9% CPU use with 104 MPI tasks x 1 OpenMP threads

Minimization stats:
  Stopping criterion = energy tolerance
  Energy initial, next-to-last, final = 
     -1152448.66685569  -1152448.66916167  -1152448.66916167
  Force two-norm initial, final = 0.24413571 0.00023137367
  Force max component initial, final = 0.18822408 7.9173820e-05
  Final line search alpha, max atom move = 1.0000000 7.9173820e-05
  Iterations, force evaluations = 173 346

MPI task timing breakdown:
Section |  min time  |  avg time  |  max time  |%varavg| %total
---------------------------------------------------------------
Pair    | 0.52425    | 1.4622     | 1.9226     |  32.7 | 71.57
Neigh   | 0          | 0          | 0          |   0.0 |  0.00
Comm    | 0.030086   | 0.33467    | 0.99854    |  47.5 | 16.38
Output  | 0          | 0          | 0          |   0.0 |  0.00
Modify  | 2.0933e-05 | 0.0028607  | 0.0061377  |   2.5 |  0.14
Other   |            | 0.2433     |            |       | 11.91

Nlocal:        2776.45 ave        3930 max           0 min
Histogram: 8 4 4 0 4 12 8 0 26 38
Nghost:        3878.94 ave        5426 max         232 min
Histogram: 8 0 8 0 16 0 8 8 16 40
Neighs:        79213.1 ave      114461 max           0 min
Histogram: 8 4 4 0 8 8 8 8 20 36

Total # of neighbors = 8238163
Ave neighs/atom = 28.530336
Neighbor list builds = 0
Dangerous builds = 0
The dot product: 1.53964538793981e-08
Setting atom values ...
  1 settings made for x
  1 settings made for y
  1 settings made for z
Setting up cg style minimization ...
  Unit style    : metal
  Current step  : 6461
Per MPI rank memory allocation (min/avg/max) = 5.441 | 5.816 | 6.074 Mbytes
Step PotEng KinEng TotEng v_fx v_fy v_fz 
    6461   -1152448.6            0   -1152448.6 0.0015295932  0.004784135 -0.0065817113 
    6663   -1152448.6            0   -1152448.6 5.0981159e-07 1.6402104e-06 -2.3417986e-06 
Loop time of 2.35811 on 104 procs for 202 steps with 288751 atoms

99.9% CPU use with 104 MPI tasks x 1 OpenMP threads

[...]
Nghost:        3879.11 ave        5427 max         232 min
Histogram: 8 0 8 0 16 0 8 8 16 40
Neighs:        79213.2 ave      115430 max           0 min
Histogram: 8 4 4 0 10 6 8 8 24 32

Total # of neighbors = 8238174
Ave neighs/atom = 28.530374
Neighbor list builds = 0
Dangerous builds = 0
The dot product: 1.02196315890708e-08
Setting atom values ...
  1 settings made for x
  1 settings made for y
  1 settings made for z
Setting up cg style minimization ...
  Unit style    : metal
  Current step  : 27079
Per MPI rank memory allocation (min/avg/max) = 5.441 | 5.816 | 6.074 Mbytes
Step PotEng KinEng TotEng v_fx v_fy v_fz 
   27079   -1152449.1            0   -1152449.1 0.0067387945 -0.0028178153 0.0096530724 
   27276   -1152449.1            0   -1152449.1 -4.9223535e-06 2.8557118e-06 -7.0497541e-06 
Loop time of 2.29907 on 104 procs for 197 steps with 288751 atoms

99.9% CPU use with 104 MPI tasks x 1 OpenMP threads

Minimization stats:
  Stopping criterion = energy tolerance
  Energy initial, next-to-last, final = 
      -1152449.1061806  -1152449.10754048  -1152449.10754048
  Force two-norm initial, final = 0.1620195 5.6065092e-05
  Force max component initial, final = 0.076796827 7.0497541e-06
  Final line search alpha, max atom move = 1.0000000 7.0497541e-06
  Iterations, force evaluations = 197 394

MPI task timing breakdown:
Section |  min time  |  avg time  |  max time  |%varavg| %total
---------------------------------------------------------------
Pair    | 0.59414    | 1.6604     | 2.1612     |  34.8 | 72.22
Neigh   | 0          | 0          | 0          |   0.0 |  0.00
Comm    | 0.034555   | 0.37348    | 1.123      |  51.1 | 16.24
Output  | 0          | 0          | 0          |   0.0 |  0.00
Modify  | 2.4325e-05 | 0.0032575  | 0.0069378  |   2.7 |  0.14
Other   |            | 0.2619     |            |       | 11.39

Nlocal:        2776.45 ave        3960 max           0 min
Histogram: 8 4 4 0 4 12 8 6 24 34
Nghost:        3879.11 ave        5427 max         232 min
Histogram: 8 0 8 0 16 0 8 8 16 40
Neighs:        79213.2 ave      115430 max           0 min
Histogram: 8 4 4 0 10 6 8 8 24 32

Total # of neighbors = 8238172
Ave neighs/atom = 28.530367
Neighbor list builds = 0
Dangerous builds = 0
The dot product: -1.54828986671245e-08
Setting atom values ...
  1 settings made for x
  1 settings made for y
  1 settings made for z
Setting up cg style minimization ...
  Unit style    : metal
  Current step  : 27276
Per MPI rank memory allocation (min/avg/max) = 5.441 | 5.816 | 6.074 Mbytes
Step PotEng KinEng TotEng v_fx v_fy v_fz 
   27276   -1152449.1            0   -1152449.1  0.005814114 -0.0021214739 0.0083379415 
   27417   -1152449.1            0   -1152449.1 -4.604112e-05 -6.7034169e-05 -6.6086541e-05 
Loop time of 1.63822 on 104 procs for 141 steps with 288751 atoms

99.9% CPU use with 104 MPI tasks x 1 OpenMP threads

Minimization stats:
  Stopping criterion = energy tolerance
  Energy initial, next-to-last, final = 
     -1152449.08635472  -1152449.08775259  -1152449.08775259
  Force two-norm initial, final = 0.1617918 0.00027344395
  Force max component initial, final = 0.077197295 6.7034169e-05
  Final line search alpha, max atom move = 1.0000000 6.7034169e-05
  Iterations, force evaluations = 141 282

MPI task timing breakdown:
Section |  min time  |  avg time  |  max time  |%varavg| %total
---------------------------------------------------------------
Pair    | 0.42596    | 1.188      | 1.5424     |  29.4 | 72.52
Neigh   | 0          | 0          | 0          |   0.0 |  0.00
Comm    | 0.023811   | 0.27024    | 0.82107    |  43.4 | 16.50
Output  | 0          | 0          | 0          |   0.0 |  0.00
Modify  | 1.7409e-05 | 0.0023402  | 0.0049825  |   2.3 |  0.14
Other   |            | 0.1776     |            |       | 10.84

Nlocal:        2776.45 ave        3960 max           0 min
Histogram: 8 4 4 0 4 12 8 6 24 34
Nghost:        3879.11 ave        5427 max         232 min
Histogram: 8 0 8 0 16 0 8 8 16 40
Neighs:        79213.2 ave      115430 max           0 min
Histogram: 8 4 4 0 10 6 8 8 24 32

Total # of neighbors = 8238172
Ave neighs/atom = 28.530367
Neighbor list builds = 0
Dangerous builds = 0
The dot product: 2.92894900438573e-08
Setting atom values ...
  1 settings made for x
  1 settings made for y
  1 settings made for z
Setting up cg style minimization ...
  Unit style    : metal
  Current step  : 27417
Per MPI rank memory allocation (min/avg/max) = 5.441 | 5.816 | 6.074 Mbytes
Step PotEng KinEng TotEng v_fx v_fy v_fz 
   27417   -1152449.1            0   -1152449.1 0.0050249219 -0.0016202516 0.0072140096 
   27566   -1152449.1            0   -1152449.1 -4.1073416e-06 -6.4161859e-06 -5.8940102e-06 
Loop time of 1.76542 on 104 procs for 149 steps with 288751 atoms

99.9% CPU use with 104 MPI tasks x 1 OpenMP threads

Minimization stats:
  Stopping criterion = energy tolerance
  Energy initial, next-to-last, final = 
     -1152449.06552165   -1152449.0669065   -1152449.0669065
  Force two-norm initial, final = 0.16179953 0.00027087316
  Force max component initial, final = 0.077519324 2.2470190e-05
  Final line search alpha, max atom move = 1.0000000 2.2470190e-05
  Iterations, force evaluations = 149 298

MPI task timing breakdown:
Section |  min time  |  avg time  |  max time  |%varavg| %total
---------------------------------------------------------------
Pair    | 0.45517    | 1.2564     | 1.6331     |  30.1 | 71.17
Neigh   | 0          | 0          | 0          |   0.0 |  0.00
Comm    | 0.025655   | 0.28813    | 0.85646    |  43.7 | 16.32
Output  | 0          | 0          | 0          |   0.0 |  0.00
Modify  | 1.822e-05  | 0.0024677  | 0.0052481  |   2.3 |  0.14
Other   |            | 0.2184     |            |       | 12.37

Nlocal:        2776.45 ave        3960 max           0 min
Histogram: 8 4 4 0 4 12 8 6 24 34
Nghost:        3879.14 ave        5427 max         232 min
Histogram: 8 0 8 0 16 0 8 8 16 40
Neighs:        79213.2 ave      115430 max           0 min
Histogram: 8 4 4 0 10 6 8 8 24 32

Total # of neighbors = 8238171
Ave neighs/atom = 28.530364
Neighbor list builds = 0
Dangerous builds = 0
The dot product: 3.41335977383375e-09
Setting atom values ...
  1 settings made for x
  1 settings made for y
  1 settings made for z
Setting up cg style minimization ...
  Unit style    : metal
  Current step  : 27566
Per MPI rank memory allocation (min/avg/max) = 5.441 | 5.816 | 6.074 Mbytes
Step PotEng KinEng TotEng v_fx v_fy v_fz 
   27566     -1152449            0     -1152449 0.0042746827 -0.0011432852 0.0061422164 
   27738     -1152449            0     -1152449 1.9881154e-05 2.9293885e-05 2.8522551e-05 
Loop time of 2.13258 on 104 procs for 172 steps with 288751 atoms

99.8% CPU use with 104 MPI tasks x 1 OpenMP threads

Minimization stats:
  Stopping criterion = energy tolerance
  Energy initial, next-to-last, final = 
     -1152449.04352122  -1152449.04487361  -1152449.04487361
  Force two-norm initial, final = 0.16195244 0.00016918009
  Force max component initial, final = 0.077831074 2.9293885e-05
  Final line search alpha, max atom move = 1.0000000 2.9293885e-05
  Iterations, force evaluations = 172 344

MPI task timing breakdown:
Section |  min time  |  avg time  |  max time  |%varavg| %total
---------------------------------------------------------------
Pair    | 0.52039    | 1.4641     | 1.9283     |  33.0 | 68.66
Neigh   | 0          | 0          | 0          |   0.0 |  0.00
Comm    | 0.044028   | 0.34828    | 0.99634    |  45.5 | 16.33
Output  | 0          | 0          | 0          |   0.0 |  0.00
Modify  | 2.1919e-05 | 0.0028515  | 0.0060851  |   2.5 |  0.13
Other   |            | 0.3173     |            |       | 14.88

Nlocal:        2776.45 ave        3960 max           0 min
Histogram: 8 4 4 0 4 12 8 6 24 34
Nghost:        3879.18 ave        5427 max         232 min
Histogram: 8 0 8 0 16 0 8 8 16 40
Neighs:        79213.2 ave      115423 max           0 min
Histogram: 8 4 4 0 10 6 8 8 24 32

Total # of neighbors = 8238170
Ave neighs/atom = 28.530360
Neighbor list builds = 0
Dangerous builds = 0
The dot product: -1.34780727245707e-08
Setting atom values ...
  1 settings made for x
  1 settings made for y
  1 settings made for z
Setting up cg style minimization ...
  Unit style    : metal
  Current step  : 27738
Per MPI rank memory allocation (min/avg/max) = 5.441 | 5.816 | 6.074 Mbytes
Step PotEng KinEng TotEng v_fx v_fy v_fz 
   27738     -1152449            0     -1152449 0.0034632349 -0.0010011712 0.0049799178 
   27907     -1152449            0     -1152449 -4.5156087e-06 9.7059581e-06 -6.5105839e-06 
Loop time of 1.9562 on 104 procs for 169 steps with 288751 atoms

99.9% CPU use with 104 MPI tasks x 1 OpenMP threads

Minimization stats:
  Stopping criterion = energy tolerance
  Energy initial, next-to-last, final = 
     -1152449.02021475   -1152449.0215467   -1152449.0215467
  Force two-norm initial, final = 0.16219577 0.00020795741
  Force max component initial, final = 0.078055386 3.6609973e-05
  Final line search alpha, max atom move = 1.0000000 3.6609973e-05
  Iterations, force evaluations = 169 338

MPI task timing breakdown:
Section |  min time  |  avg time  |  max time  |%varavg| %total
---------------------------------------------------------------
Pair    | 0.51021    | 1.4194     | 1.8433     |  32.1 | 72.56
Neigh   | 0          | 0          | 0          |   0.0 |  0.00
Comm    | 0.028814   | 0.31877    | 0.97122    |  47.6 | 16.30
Output  | 0          | 0          | 0          |   0.0 |  0.00
Modify  | 2.0917e-05 | 0.0027952  | 0.0059519  |   2.5 |  0.14
Other   |            | 0.2152     |            |       | 11.00

Nlocal:        2776.45 ave        3960 max           0 min
Histogram: 8 4 4 0 4 12 8 6 24 34
Nghost:        3879.18 ave        5427 max         232 min
Histogram: 8 0 8 0 16 0 8 8 16 40
Neighs:        79213.2 ave      115423 max           0 min
Histogram: 8 4 4 0 10 6 8 8 24 32

Total # of neighbors = 8238171
Ave neighs/atom = 28.530364
Neighbor list builds = 0
Dangerous builds = 0
The dot product: -1.8248634320625e-08
Setting atom values ...
  1 settings made for x
  1 settings made for y
  1 settings made for z
Setting up cg style minimization ...
  Unit style    : metal
  Current step  : 27907
Per MPI rank memory allocation (min/avg/max) = 5.441 | 5.816 | 6.074 Mbytes
Step PotEng KinEng TotEng v_fx v_fy v_fz 
   27907     -1152449            0     -1152449 0.0025518609 -0.0012173155 0.0036728998 
   28000     -1152449            0     -1152449 -5.0899906e-05 -2.7616201e-05 -7.3115171e-05 
   28071     -1152449            0     -1152449 -5.7529543e-06 4.3813622e-06 -8.2848214e-06 
Loop time of 1.91269 on 104 procs for 164 steps with 288751 atoms

99.9% CPU use with 104 MPI tasks x 1 OpenMP threads

Minimization stats:
  Stopping criterion = energy tolerance
  Energy initial, next-to-last, final = 
     -1152448.99551305  -1152448.99682696  -1152448.99682696
  Force two-norm initial, final = 0.16266242 0.00025878159
  Force max component initial, final = 0.078317682 5.6929399e-05
  Final line search alpha, max atom move = 1.0000000 5.6929399e-05
  Iterations, force evaluations = 164 328

MPI task timing breakdown:
Section |  min time  |  avg time  |  max time  |%varavg| %total
---------------------------------------------------------------
Pair    | 0.49509    | 1.3842     | 1.7971     |  31.9 | 72.37
Neigh   | 0          | 0          | 0          |   0.0 |  0.00
Comm    | 0.027457   | 0.31823    | 0.96716    |  46.8 | 16.64
Output  | 0.00015848 | 0.00016097 | 0.00027639 |   0.0 |  0.01
Modify  | 2.0333e-05 | 0.002715   | 0.0057749  |   2.4 |  0.14
Other   |            | 0.2074     |            |       | 10.84

Nlocal:        2776.45 ave        3960 max           0 min
Histogram: 8 4 4 0 4 12 8 6 24 34
Nghost:        3879.18 ave        5427 max         232 min
Histogram: 8 0 8 0 16 0 8 8 16 40
Neighs:        79213.2 ave      115423 max           0 min
Histogram: 8 4 4 0 10 6 8 8 24 32

Total # of neighbors = 8238173
Ave neighs/atom = 28.530370
Neighbor list builds = 0
Dangerous builds = 0
The dot product: -9.50395098266559e-09
Setting atom values ...
  1 settings made for x
  1 settings made for y
  1 settings made for z
Setting up cg style minimization ...
  Unit style    : metal
  Current step  : 28071
Per MPI rank memory allocation (min/avg/max) = 5.441 | 5.816 | 6.074 Mbytes
Step PotEng KinEng TotEng v_fx v_fy v_fz 
   28071     -1152449            0     -1152449 0.0016293514 -0.0016328981 0.0023492448 
   28266     -1152449            0     -1152449 -8.2966665e-06 -7.0476133e-06 -1.1908642e-05 
Loop time of 2.26606 on 104 procs for 195 steps with 288751 atoms

99.9% CPU use with 104 MPI tasks x 1 OpenMP threads

Minimization stats:
  Stopping criterion = energy tolerance
  Energy initial, next-to-last, final = 
      -1152448.9693158  -1152448.97061528  -1152448.97061528
  Force two-norm initial, final = 0.16326142 9.3906138e-05
  Force max component initial, final = 0.078428831 1.1908642e-05
  Final line search alpha, max atom move = 1.0000000 1.1908642e-05
  Iterations, force evaluations = 195 390

MPI task timing breakdown:
Section |  min time  |  avg time  |  max time  |%varavg| %total
---------------------------------------------------------------
Pair    | 0.58785    | 1.6362     | 2.1221     |  34.4 | 72.20
Neigh   | 0          | 0          | 0          |   0.0 |  0.00
Comm    | 0.034471   | 0.36465    | 1.1021     |  51.1 | 16.09
Output  | 0          | 0          | 0          |   0.0 |  0.00
Modify  | 2.4082e-05 | 0.0032288  | 0.0068638  |   2.7 |  0.14
Other   |            | 0.262      |            |       | 11.56

Nlocal:        2776.45 ave        3960 max           0 min
Histogram: 8 4 4 0 4 12 8 6 24 34
Nghost:        3879.18 ave        5426 max         232 min
Histogram: 8 0 8 0 16 0 8 8 16 40
Neighs:        79213.2 ave      115422 max           0 min
Histogram: 8 4 4 0 10 6 8 8 24 32

Total # of neighbors = 8238171
Ave neighs/atom = 28.530364
Neighbor list builds = 0
Dangerous builds = 0
The dot product: 8.32846338249383e-09
Setting atom values ...
  1 settings made for x
  1 settings made for y
  1 settings made for z
Setting up cg style minimization ...
  Unit style    : metal
  Current step  : 28266
Per MPI rank memory allocation (min/avg/max) = 5.441 | 5.816 | 6.074 Mbytes
Step PotEng KinEng TotEng v_fx v_fy v_fz 
   28266   -1152448.9            0   -1152448.9 0.00075703518 -0.0021208327  0.001097791 
   28492   -1152448.9            0   -1152448.9 -7.2775533e-07 -4.7753381e-07 -1.0447847e-06 
Loop time of 2.63583 on 104 procs for 226 steps with 288751 atoms

99.9% CPU use with 104 MPI tasks x 1 OpenMP threads

Minimization stats:
  Stopping criterion = energy tolerance
  Energy initial, next-to-last, final = 
     -1152448.94153204  -1152448.94282597  -1152448.94282597
  Force two-norm initial, final = 0.16417801 2.4891297e-05
  Force max component initial, final = 0.078641792 1.4157523e-06
  Final line search alpha, max atom move = 1.0000000 1.4157523e-06
  Iterations, force evaluations = 226 452

MPI task timing breakdown:
Section |  min time  |  avg time  |  max time  |%varavg| %total
---------------------------------------------------------------
Pair    | 0.68008    | 1.9048     | 2.4762     |  37.3 | 72.26
Neigh   | 0          | 0          | 0          |   0.0 |  0.00
Comm    | 0.042809   | 0.43885    | 1.3414     |  54.7 | 16.65
Output  | 0          | 0          | 0          |   0.0 |  0.00
Modify  | 2.7767e-05 | 0.0037297  | 0.0079562  |   2.9 |  0.14
Other   |            | 0.2885     |            |       | 10.94

Nlocal:        2776.45 ave        3960 max           0 min
Histogram: 8 4 4 0 4 12 8 6 24 34
Nghost:        3879.17 ave        5426 max         232 min
Histogram: 8 0 8 0 16 0 8 8 16 40
Neighs:        79213.2 ave      115421 max           0 min
Histogram: 8 4 4 0 10 6 8 8 24 32

Total # of neighbors = 8238172
Ave neighs/atom = 28.530367
Neighbor list builds = 0
Dangerous builds = 0
The dot product: 8.45544455433198e-10
Setting atom values ...
  1 settings made for x
  1 settings made for y
  1 settings made for z
Setting up cg style minimization ...
  Unit style    : metal
  Current step  : 28492
Per MPI rank memory allocation (min/avg/max) = 5.441 | 5.816 | 6.074 Mbytes
Step PotEng KinEng TotEng v_fx v_fy v_fz 
   28492   -1152448.9            0   -1152448.9 5.5533708e-05 -0.0024587149 9.1893315e-05 
   28688   -1152448.9            0   -1152448.9 -8.4517048e-06 -1.0857129e-05 -1.2102301e-05 
Loop time of 2.26891 on 104 procs for 196 steps with 288751 atoms

99.9% CPU use with 104 MPI tasks x 1 OpenMP threads

Minimization stats:
  Stopping criterion = energy tolerance
  Energy initial, next-to-last, final = 
     -1152448.91209281  -1152448.91338658  -1152448.91338658
  Force two-norm initial, final = 0.16524329 0.00010023991
  Force max component initial, final = 0.078790426 1.2102301e-05
  Final line search alpha, max atom move = 1.0000000 1.2102301e-05
  Iterations, force evaluations = 196 392

MPI task timing breakdown:
Section |  min time  |  avg time  |  max time  |%varavg| %total
---------------------------------------------------------------
Pair    | 0.5906     | 1.6457     | 2.1382     |  34.6 | 72.53
Neigh   | 0          | 0          | 0          |   0.0 |  0.00
Comm    | 0.034109   | 0.36811    | 1.1084     |  51.2 | 16.22
Output  | 0          | 0          | 0          |   0.0 |  0.00
Modify  | 2.438e-05  | 0.0032451  | 0.0068883  |   2.7 |  0.14
Other   |            | 0.2519     |            |       | 11.10

Nlocal:        2776.45 ave        3960 max           0 min
Histogram: 8 4 4 0 4 12 8 6 24 34
Nghost:        3879.10 ave        5426 max         232 min
Histogram: 8 0 8 0 16 0 8 8 16 40
Neighs:        79213.2 ave      115413 max           0 min
Histogram: 8 4 4 0 10 6 8 8 24 32

Total # of neighbors = 8238170
Ave neighs/atom = 28.530360
Neighbor list builds = 0
Dangerous builds = 0
The dot product: 1.91784553456081e-08
Setting atom values ...
  1 settings made for x
  1 settings made for y
  1 settings made for z
Setting up cg style minimization ...
  Unit style    : metal
  Current step  : 28688
Per MPI rank memory allocation (min/avg/max) = 5.441 | 5.816 | 6.074 Mbytes
Step PotEng KinEng TotEng v_fx v_fy v_fz 
   28688   -1152448.9            0   -1152448.9 -0.00042065833 -0.0024868068 -0.00059097519 
   28854   -1152448.9            0   -1152448.9 1.8902997e-05 -2.5093505e-05 2.7321159e-05 
Loop time of 1.93657 on 104 procs for 166 steps with 288751 atoms

99.9% CPU use with 104 MPI tasks x 1 OpenMP threads

Minimization stats:
  Stopping criterion = energy tolerance
  Energy initial, next-to-last, final = 
     -1152448.88093885  -1152448.88223501  -1152448.88223501
  Force two-norm initial, final = 0.16639541 0.00030744521
  Force max component initial, final = 0.078914335 8.7390785e-05
  Final line search alpha, max atom move = 1.0000000 8.7390785e-05
  Iterations, force evaluations = 166 332

MPI task timing breakdown:
Section |  min time  |  avg time  |  max time  |%varavg| %total
---------------------------------------------------------------
Pair    | 0.50091    | 1.4        | 1.8195     |  31.9 | 72.29
Neigh   | 0          | 0          | 0          |   0.0 |  0.00
Comm    | 0.028325   | 0.31838    | 0.96287    |  47.0 | 16.44
Output  | 0          | 0          | 0          |   0.0 |  0.00
Modify  | 2.0542e-05 | 0.0027476  | 0.005868   |   2.5 |  0.14
Other   |            | 0.2154     |            |       | 11.12

Nlocal:        2776.45 ave        3960 max           0 min
Histogram: 8 4 4 0 4 12 8 6 24 34
Nghost:        3879.02 ave        5426 max         232 min
Histogram: 8 0 8 0 16 0 8 8 16 40
Neighs:        79213.2 ave      115413 max           0 min
Histogram: 8 4 4 0 10 6 8 8 24 32

Total # of neighbors = 8238169
Ave neighs/atom = 28.530357
Neighbor list builds = 0
Dangerous builds = 0
The dot product: 1.88020097230499e-08
