LAMMPS (29 Oct 2020)
OMP_NUM_THREADS environment is not set. Defaulting to 1 thread. (../comm.cpp:94)
  using 1 OpenMP thread(s) per MPI task
OMP_NUM_THREADS environment is not set. Defaulting to 1 thread. (../comm.cpp:94)
  using 1 OpenMP thread(s) per MPI task
Reading data file ...
  orthogonal box = (-122.39241 -121.13707 -37.090501) to (122.39241 121.13707 37.090501)
  13 by 4 by 2 MPI processor grid
  reading atoms ...
  288751 atoms
  read_data CPU = 0.406 seconds
199981 atoms in group inner
88770 atoms in group outer
1 atoms in group carbon
Neighbor list info ...
  update every 1 steps, delay 0 steps, check yes
  max neighbors/atom: 2000, page size: 100000
  master list distance cutoff = 5.6
  ghost atom cutoff = 5.6
  binsize = 2.8, bins = 88 87 27
  1 neighbor lists, perpetual/occasional/extra = 1 0 0
  (1) pair eam/alloy, perpetual
      attributes: half, newton on
      pair build: half/bin/atomonly/newton
      stencil: half/bin/3d/newton
      bin: standard
Setting up cg style minimization ...
  Unit style    : metal
  Current step  : 0
Per MPI rank memory allocation (min/avg/max) = 5.441 | 5.816 | 6.074 Mbytes
Step v_fx v_fy v_fz PotEng KinEng TotEng 
       0   0.21621638    1.8275332    2.4527655   -1152447.8            0   -1152447.8 
     179 5.0846973e-06 8.6285062e-06 8.2625658e-06   -1152449.5            0   -1152449.5 
Loop time of 2.10401 on 104 procs for 179 steps with 288751 atoms

99.8% CPU use with 104 MPI tasks x 1 OpenMP threads

Minimization stats:
  Stopping criterion = energy tolerance
  Energy initial, next-to-last, final = 
     -1152447.79068125  -1152449.45035262  -1152449.45035262
  Force two-norm initial, final = 10.091074 4.7379127e-05
  Force max component initial, final = 6.1548423 1.1190100e-05
  Final line search alpha, max atom move = 1.0000000 1.1190100e-05
  Iterations, force evaluations = 179 357

MPI task timing breakdown:
Section |  min time  |  avg time  |  max time  |%varavg| %total
---------------------------------------------------------------
Pair    | 0.56322    | 1.5031     | 1.9547     |  32.4 | 71.44
Neigh   | 3.1372e-05 | 0.0088759  | 0.01303    |   3.9 |  0.42
Comm    | 0.040248   | 0.34212    | 1.029      |  48.2 | 16.26
Output  | 0          | 0          | 0          |   0.0 |  0.00
Modify  | 1.9825e-05 | 0.0019253  | 0.004949   |   2.7 |  0.09
Other   |            | 0.248      |            |       | 11.79

Nlocal:        2776.45 ave        3961 max           0 min
Histogram: 8 4 4 0 6 10 8 2 28 34
Nghost:        3879.01 ave        5424 max         232 min
Histogram: 8 0 8 0 16 0 8 8 16 40
Neighs:        79213.5 ave      115455 max           0 min
Histogram: 8 4 4 0 10 6 8 8 24 32

Total # of neighbors = 8238203
Ave neighs/atom = 28.530474
Neighbor list builds = 3
Dangerous builds = 0
Setting atom values ...
  1 settings made for x
  1 settings made for y
  1 settings made for z
Setting up cg style minimization ...
  Unit style    : metal
  Current step  : 179
Per MPI rank memory allocation (min/avg/max) = 5.441 | 5.816 | 6.074 Mbytes
Step PotEng KinEng TotEng v_fx v_fy v_fz 
     179   -1152449.4            0   -1152449.4 -0.00063970959   0.00132103 0.0026227257 
     365   -1152449.5            0   -1152449.5 1.6197883e-06 3.4699406e-06 1.5117327e-05 
Loop time of 2.19921 on 104 procs for 186 steps with 288751 atoms

99.9% CPU use with 104 MPI tasks x 1 OpenMP threads

Minimization stats:
  Stopping criterion = energy tolerance
  Energy initial, next-to-last, final = 
     -1152449.44942729  -1152449.45004204  -1152449.45004204
  Force two-norm initial, final = 0.1151361 4.9175212e-05
  Force max component initial, final = 0.053216105 1.5117327e-05
  Final line search alpha, max atom move = 1.0000000 1.5117327e-05
  Iterations, force evaluations = 186 372

MPI task timing breakdown:
Section |  min time  |  avg time  |  max time  |%varavg| %total
---------------------------------------------------------------
Pair    | 0.56926    | 1.574      | 2.0571     |  33.6 | 71.57
Neigh   | 0          | 0          | 0          |   0.0 |  0.00
Comm    | 0.035686   | 0.36153    | 1.0762     |  49.0 | 16.44
Output  | 0          | 0          | 0          |   0.0 |  0.00
Modify  | 2.3298e-05 | 0.0030721  | 0.0065674  |   2.6 |  0.14
Other   |            | 0.2606     |            |       | 11.85

Nlocal:        2776.45 ave        3961 max           0 min
Histogram: 8 4 4 0 6 10 8 2 28 34
Nghost:        3879.01 ave        5425 max         232 min
Histogram: 8 0 8 0 16 0 8 8 16 40
Neighs:        79213.4 ave      115455 max           0 min
Histogram: 8 4 4 0 10 6 8 8 24 32

Total # of neighbors = 8238197
Ave neighs/atom = 28.530454
Neighbor list builds = 0
Dangerous builds = 0
Setting atom values ...
  1 settings made for x
  1 settings made for y
  1 settings made for z
Setting up cg style minimization ...
  Unit style    : metal
  Current step  : 365
Per MPI rank memory allocation (min/avg/max) = 5.441 | 5.816 | 6.074 Mbytes
Step PotEng KinEng TotEng v_fx v_fy v_fz 
     365   -1152449.4            0   -1152449.4 -0.0048915314 0.0043614481 0.0031840106 
     586   -1152449.4            0   -1152449.4 -7.1085995e-07 3.2926827e-07 -6.7945975e-07 
Loop time of 2.57992 on 104 procs for 221 steps with 288751 atoms

99.9% CPU use with 104 MPI tasks x 1 OpenMP threads

Minimization stats:
  Stopping criterion = energy tolerance
  Energy initial, next-to-last, final = 
      -1152449.4464655  -1152449.44816103  -1152449.44816103
  Force two-norm initial, final = 0.19153177 2.6381421e-05
  Force max component initial, final = 0.088859619 2.5069083e-06
  Final line search alpha, max atom move = 1.0000000 2.5069083e-06
  Iterations, force evaluations = 221 442

MPI task timing breakdown:
Section |  min time  |  avg time  |  max time  |%varavg| %total
---------------------------------------------------------------
Pair    | 0.67644    | 1.8543     | 2.428      |  36.7 | 71.87
Neigh   | 0          | 0          | 0          |   0.0 |  0.00
Comm    | 0.042138   | 0.42153    | 1.2674     |  53.7 | 16.34
Output  | 0          | 0          | 0          |   0.0 |  0.00
Modify  | 2.6954e-05 | 0.0036457  | 0.0077582  |   2.9 |  0.14
Other   |            | 0.3005     |            |       | 11.65

Nlocal:        2776.45 ave        3961 max           0 min
Histogram: 8 4 4 0 6 10 8 2 28 34
Nghost:        3879.01 ave        5425 max         232 min
Histogram: 8 0 8 0 16 0 8 8 16 40
Neighs:        79213.4 ave      115455 max           0 min
Histogram: 8 4 4 0 10 6 8 8 24 32

Total # of neighbors = 8238196
Ave neighs/atom = 28.530450
Neighbor list builds = 0
Dangerous builds = 0
The dot product: 5.73657299327839e-10
Setting atom values ...
  1 settings made for x
  1 settings made for y
  1 settings made for z
Setting up cg style minimization ...
  Unit style    : metal
  Current step  : 586
Per MPI rank memory allocation (min/avg/max) = 5.441 | 5.816 | 6.074 Mbytes
Step PotEng KinEng TotEng v_fx v_fy v_fz 
     586   -1152449.4            0   -1152449.4 -0.011933891 0.0087328393 0.00062227859 
     716   -1152449.4            0   -1152449.4 -2.8533739e-06 5.7372898e-07 -6.2907244e-06 
Loop time of 1.5299 on 104 procs for 130 steps with 288751 atoms

99.9% CPU use with 104 MPI tasks x 1 OpenMP threads

Minimization stats:
  Stopping criterion = energy tolerance
  Energy initial, next-to-last, final = 
     -1152449.44295224  -1152449.44465824  -1152449.44465824
  Force two-norm initial, final = 0.19223785 0.00013802254
  Force max component initial, final = 0.088596689 3.2625348e-05
  Final line search alpha, max atom move = 1.0000000 3.2625348e-05
  Iterations, force evaluations = 130 260

MPI task timing breakdown:
Section |  min time  |  avg time  |  max time  |%varavg| %total
---------------------------------------------------------------
Pair    | 0.40069    | 1.1011     | 1.4398     |  28.3 | 71.97
Neigh   | 0          | 0          | 0          |   0.0 |  0.00
Comm    | 0.021263   | 0.2518     | 0.76337    |  41.5 | 16.46
Output  | 0          | 0          | 0          |   0.0 |  0.00
Modify  | 1.5283e-05 | 0.0021486  | 0.004587   |   2.2 |  0.14
Other   |            | 0.1749     |            |       | 11.43

Nlocal:        2776.45 ave        3961 max           0 min
Histogram: 8 4 4 0 6 10 8 2 28 34
Nghost:        3879.01 ave        5424 max         232 min
Histogram: 8 0 8 0 16 0 8 8 16 40
Neighs:        79213.4 ave      115455 max           0 min
Histogram: 8 4 4 0 10 6 8 8 24 32

Total # of neighbors = 8238197
Ave neighs/atom = 28.530454
Neighbor list builds = 0
Dangerous builds = 0
The dot product: 1.29273528700983e-08
Setting atom values ...
  1 settings made for x
  1 settings made for y
  1 settings made for z
Setting up cg style minimization ...
  Unit style    : metal
  Current step  : 716
Per MPI rank memory allocation (min/avg/max) = 5.441 | 5.816 | 6.074 Mbytes
Step PotEng KinEng TotEng v_fx v_fy v_fz 
     716   -1152449.4            0   -1152449.4 -0.017590826  0.013635475 -0.00039846815 
     841   -1152449.4            0   -1152449.4 6.279491e-07 1.1110257e-06 7.5547264e-06 
Loop time of 1.44265 on 104 procs for 125 steps with 288751 atoms

99.9% CPU use with 104 MPI tasks x 1 OpenMP threads

Minimization stats:
  Stopping criterion = energy tolerance
  Energy initial, next-to-last, final = 
     -1152449.43805193  -1152449.43977359  -1152449.43977359
  Force two-norm initial, final = 0.19277924 0.0001241528
  Force max component initial, final = 0.087654107 7.5547264e-06
  Final line search alpha, max atom move = 1.0000000 7.5547264e-06
  Iterations, force evaluations = 125 250

MPI task timing breakdown:
Section |  min time  |  avg time  |  max time  |%varavg| %total
---------------------------------------------------------------
Pair    | 0.38004    | 1.0471     | 1.3664     |  27.5 | 72.58
Neigh   | 0          | 0          | 0          |   0.0 |  0.00
Comm    | 0.021799   | 0.23552    | 0.71183    |  40.7 | 16.33
Output  | 0          | 0          | 0          |   0.0 |  0.00
Modify  | 1.4805e-05 | 0.0020596  | 0.0044157  |   2.1 |  0.14
Other   |            | 0.158      |            |       | 10.95

Nlocal:        2776.45 ave        3961 max           0 min
Histogram: 8 4 4 0 6 10 8 2 28 34
Nghost:        3879.01 ave        5424 max         232 min
Histogram: 8 0 8 0 16 0 8 8 16 40
Neighs:        79213.4 ave      115455 max           0 min
Histogram: 8 4 4 0 10 6 8 8 24 32

Total # of neighbors = 8238196
Ave neighs/atom = 28.530450
Neighbor list builds = 0
Dangerous builds = 0
The dot product: -8.93517892971914e-09
Setting atom values ...
  1 settings made for x
  1 settings made for y
  1 settings made for z
Setting up cg style minimization ...
  Unit style    : metal
  Current step  : 841
Per MPI rank memory allocation (min/avg/max) = 5.441 | 5.816 | 6.074 Mbytes
Step PotEng KinEng TotEng v_fx v_fy v_fz 
     841   -1152449.4            0   -1152449.4 -0.018174323  0.016034419  0.001628405 
     978   -1152449.4            0   -1152449.4 5.1316447e-07 -1.1353582e-06 -3.5101995e-06 
Loop time of 1.60008 on 104 procs for 137 steps with 288751 atoms

99.9% CPU use with 104 MPI tasks x 1 OpenMP threads

Minimization stats:
  Stopping criterion = energy tolerance
  Energy initial, next-to-last, final = 
     -1152449.43189523  -1152449.43361192  -1152449.43361192
  Force two-norm initial, final = 0.19218129 8.6678077e-05
  Force max component initial, final = 0.08652722 3.5101995e-06
  Final line search alpha, max atom move = 1.0000000 3.5101995e-06
  Iterations, force evaluations = 137 274

MPI task timing breakdown:
Section |  min time  |  avg time  |  max time  |%varavg| %total
---------------------------------------------------------------
Pair    | 0.41801    | 1.1546     | 1.5011     |  28.9 | 72.16
Neigh   | 0          | 0          | 0          |   0.0 |  0.00
Comm    | 0.031034   | 0.26043    | 0.79164    |  42.7 | 16.28
Output  | 0          | 0          | 0          |   0.0 |  0.00
Modify  | 1.6298e-05 | 0.002258   | 0.0048416  |   2.2 |  0.14
Other   |            | 0.1827     |            |       | 11.42

Nlocal:        2776.45 ave        3961 max           0 min
Histogram: 8 4 4 0 6 10 8 2 28 34
Nghost:        3878.99 ave        5424 max         232 min
Histogram: 8 0 8 0 16 0 8 8 16 40
Neighs:        79213.4 ave      115455 max           0 min
Histogram: 8 4 4 0 10 6 8 8 24 32

Total # of neighbors = 8238198
Ave neighs/atom = 28.530457
Neighbor list builds = 0
Dangerous builds = 0
The dot product: -8.93037511139811e-10
Setting atom values ...
  1 settings made for x
  1 settings made for y
  1 settings made for z
Setting up cg style minimization ...
  Unit style    : metal
  Current step  : 978
Per MPI rank memory allocation (min/avg/max) = 5.441 | 5.816 | 6.074 Mbytes
Step PotEng KinEng TotEng v_fx v_fy v_fz 
     978   -1152449.4            0   -1152449.4 -0.015975819  0.015761635 0.0046020271 
    1000   -1152449.4            0   -1152449.4 2.6335023e-05 1.7377014e-05 0.00021934983 
    1085   -1152449.4            0   -1152449.4 -6.960526e-06 -1.223584e-05 -9.7978132e-05 
Loop time of 1.24969 on 104 procs for 107 steps with 288751 atoms

99.9% CPU use with 104 MPI tasks x 1 OpenMP threads

Minimization stats:
  Stopping criterion = energy tolerance
  Energy initial, next-to-last, final = 
     -1152449.42448855  -1152449.42618213  -1152449.42618213
  Force two-norm initial, final = 0.19082633 0.00023276178
  Force max component initial, final = 0.085913153 9.7978132e-05
  Final line search alpha, max atom move = 1.0000000 9.7978132e-05
  Iterations, force evaluations = 107 214

MPI task timing breakdown:
Section |  min time  |  avg time  |  max time  |%varavg| %total
---------------------------------------------------------------
Pair    | 0.32699    | 0.8991     | 1.1696     |  25.5 | 71.95
Neigh   | 0          | 0          | 0          |   0.0 |  0.00
Comm    | 0.021561   | 0.20487    | 0.62091    |  37.6 | 16.39
Output  | 0.00018923 | 0.00019287 | 0.00027306 |   0.0 |  0.02
Modify  | 1.3531e-05 | 0.0017717  | 0.0037686  |   2.0 |  0.14
Other   |            | 0.1438     |            |       | 11.50

Nlocal:        2776.45 ave        3961 max           0 min
Histogram: 8 4 4 0 6 10 8 2 28 34
Nghost:        3878.99 ave        5424 max         232 min
Histogram: 8 0 8 0 16 0 8 8 16 40
Neighs:        79213.4 ave      115455 max           0 min
Histogram: 8 4 4 0 10 6 8 8 24 32

Total # of neighbors = 8238198
Ave neighs/atom = 28.530457
Neighbor list builds = 0
Dangerous builds = 0
The dot product: 8.0803663101389e-09
Setting atom values ...
  1 settings made for x
  1 settings made for y
  1 settings made for z
Setting up cg style minimization ...
  Unit style    : metal
  Current step  : 1085
Per MPI rank memory allocation (min/avg/max) = 5.441 | 5.816 | 6.074 Mbytes
Step PotEng KinEng TotEng v_fx v_fy v_fz 
    1085   -1152449.4            0   -1152449.4    -0.012826  0.013888246 0.0074168155 
    1214   -1152449.4            0   -1152449.4 -8.480749e-07 -6.1875522e-06 -3.6355631e-05 
Loop time of 1.49247 on 104 procs for 129 steps with 288751 atoms

99.9% CPU use with 104 MPI tasks x 1 OpenMP threads

Minimization stats:
  Stopping criterion = energy tolerance
  Energy initial, next-to-last, final = 
     -1152449.41577554  -1152449.41744812  -1152449.41744812
  Force two-norm initial, final = 0.18929646 0.0001569638
  Force max component initial, final = 0.086135472 3.6355631e-05
  Final line search alpha, max atom move = 1.0000000 3.6355631e-05
  Iterations, force evaluations = 129 258

MPI task timing breakdown:
Section |  min time  |  avg time  |  max time  |%varavg| %total
---------------------------------------------------------------
Pair    | 0.39343    | 1.0855     | 1.4138     |  28.0 | 72.73
Neigh   | 0          | 0          | 0          |   0.0 |  0.00
Comm    | 0.021462   | 0.24472    | 0.74398    |  41.4 | 16.40
Output  | 0          | 0          | 0          |   0.0 |  0.00
Modify  | 1.5046e-05 | 0.0021235  | 0.0045331  |   2.2 |  0.14
Other   |            | 0.1601     |            |       | 10.73

Nlocal:        2776.45 ave        3961 max           0 min
Histogram: 8 4 4 0 6 10 8 2 28 34
Nghost:        3878.99 ave        5424 max         232 min
Histogram: 8 0 8 0 16 0 8 8 16 40
Neighs:        79213.5 ave      115455 max           0 min
Histogram: 8 4 4 0 10 6 8 8 24 32

Total # of neighbors = 8238202
Ave neighs/atom = 28.530471
Neighbor list builds = 0
Dangerous builds = 0
The dot product: -2.60429409058113e-08
Setting atom values ...
  1 settings made for x
  1 settings made for y
  1 settings made for z
Setting up cg style minimization ...
  Unit style    : metal
  Current step  : 1214
Per MPI rank memory allocation (min/avg/max) = 5.441 | 5.816 | 6.074 Mbytes
Step PotEng KinEng TotEng v_fx v_fy v_fz 
    1214   -1152449.4            0   -1152449.4 -0.0093419415  0.011245448  0.010033059 
    1393   -1152449.4            0   -1152449.4 -1.072639e-06 -3.2090422e-06 -2.124527e-05 
Loop time of 2.07046 on 104 procs for 179 steps with 288751 atoms

99.9% CPU use with 104 MPI tasks x 1 OpenMP threads

Minimization stats:
  Stopping criterion = energy tolerance
  Energy initial, next-to-last, final = 
     -1152449.40572324  -1152449.40739126  -1152449.40739126
  Force two-norm initial, final = 0.18789966 8.5679688e-05
  Force max component initial, final = 0.087022886 2.1245270e-05
  Final line search alpha, max atom move = 1.0000000 2.1245270e-05
  Iterations, force evaluations = 179 358

MPI task timing breakdown:
Section |  min time  |  avg time  |  max time  |%varavg| %total
---------------------------------------------------------------
Pair    | 0.54281    | 1.5003     | 1.9549     |  33.1 | 72.46
Neigh   | 0          | 0          | 0          |   0.0 |  0.00
Comm    | 0.034715   | 0.33761    | 1.0275     |  48.9 | 16.31
Output  | 0          | 0          | 0          |   0.0 |  0.00
Modify  | 2.1084e-05 | 0.0029438  | 0.0063516  |   2.6 |  0.14
Other   |            | 0.2296     |            |       | 11.09

Nlocal:        2776.45 ave        3960 max           0 min
Histogram: 8 4 4 0 4 12 8 2 28 34
Nghost:        3878.99 ave        5424 max         232 min
Histogram: 8 0 8 0 16 0 8 8 16 40
Neighs:        79213.5 ave      115412 max           0 min
Histogram: 8 4 4 0 10 6 8 8 24 32

Total # of neighbors = 8238206
Ave neighs/atom = 28.530485
Neighbor list builds = 0
Dangerous builds = 0
The dot product: -3.24557092571757e-08
Setting atom values ...
  1 settings made for x
  1 settings made for y
  1 settings made for z
Setting up cg style minimization ...
  Unit style    : metal
  Current step  : 1393
Per MPI rank memory allocation (min/avg/max) = 5.441 | 5.816 | 6.074 Mbytes
Step PotEng KinEng TotEng v_fx v_fy v_fz 
    1393   -1152449.4            0   -1152449.4 -0.0056974309 0.0083399439  0.012640351 
    1521   -1152449.4            0   -1152449.4 -3.0762569e-06 -3.7770212e-06 -3.1667584e-05 
Loop time of 1.4987 on 104 procs for 128 steps with 288751 atoms

99.9% CPU use with 104 MPI tasks x 1 OpenMP threads

Minimization stats:
  Stopping criterion = energy tolerance
  Energy initial, next-to-last, final = 
     -1152449.39433895  -1152449.39603293  -1152449.39603293
  Force two-norm initial, final = 0.18661377 0.0001861357
  Force max component initial, final = 0.088544085 3.1667584e-05
  Final line search alpha, max atom move = 1.0000000 3.1667584e-05
  Iterations, force evaluations = 128 256

MPI task timing breakdown:
Section |  min time  |  avg time  |  max time  |%varavg| %total
---------------------------------------------------------------
Pair    | 0.39125    | 1.0809     | 1.413      |  28.0 | 72.12
Neigh   | 0          | 0          | 0          |   0.0 |  0.00
Comm    | 0.021141   | 0.2471     | 0.75136    |  41.2 | 16.49
Output  | 0          | 0          | 0          |   0.0 |  0.00
Modify  | 1.5096e-05 | 0.0021095  | 0.0045161  |   2.2 |  0.14
Other   |            | 0.1686     |            |       | 11.25

Nlocal:        2776.45 ave        3959 max           0 min
Histogram: 8 4 4 0 4 12 8 2 28 34
Nghost:        3879.01 ave        5424 max         232 min
Histogram: 8 0 8 0 16 0 8 8 16 40
Neighs:        79213.5 ave      115385 max           0 min
Histogram: 8 4 4 0 10 6 8 8 24 32

Total # of neighbors = 8238204
Ave neighs/atom = 28.530478
Neighbor list builds = 0
Dangerous builds = 0
The dot product: -9.90071624798733e-08
Setting atom values ...
  1 settings made for x
  1 settings made for y
  1 settings made for z
Setting up cg style minimization ...
  Unit style    : metal
  Current step  : 1521
Per MPI rank memory allocation (min/avg/max) = 5.441 | 5.816 | 6.074 Mbytes
Step PotEng KinEng TotEng v_fx v_fy v_fz 
    1521   -1152449.4            0   -1152449.4 -0.0014061828 0.0053778951  0.016779831 
    1709   -1152449.4            0   -1152449.4 1.1825277e-06 -6.8764226e-07 1.9226577e-06 
Loop time of 2.18531 on 104 procs for 188 steps with 288751 atoms

99.9% CPU use with 104 MPI tasks x 1 OpenMP threads

Minimization stats:
  Stopping criterion = energy tolerance
  Energy initial, next-to-last, final = 
     -1152449.38171441  -1152449.38356276  -1152449.38356276
  Force two-norm initial, final = 0.18535203 0.000100469
  Force max component initial, final = 0.090759305 9.0047996e-06
  Final line search alpha, max atom move = 1.0000000 9.0047996e-06
  Iterations, force evaluations = 188 376

MPI task timing breakdown:
Section |  min time  |  avg time  |  max time  |%varavg| %total
---------------------------------------------------------------
Pair    | 0.57633    | 1.5812     | 2.0594     |  33.8 | 72.35
Neigh   | 0          | 0          | 0          |   0.0 |  0.00
Comm    | 0.03288    | 0.35786    | 1.0841     |  50.0 | 16.38
Output  | 0          | 0          | 0          |   0.0 |  0.00
Modify  | 2.2194e-05 | 0.0030995  | 0.0066016  |   2.6 |  0.14
Other   |            | 0.2432     |            |       | 11.13

Nlocal:        2776.45 ave        3957 max           0 min
Histogram: 8 4 4 0 4 12 8 2 28 34
Nghost:        3879.01 ave        5424 max         232 min
Histogram: 8 0 8 0 16 0 8 8 16 40
Neighs:        79213.5 ave      115336 max           0 min
Histogram: 8 4 4 0 10 6 8 8 24 32

Total # of neighbors = 8238203
Ave neighs/atom = 28.530474
Neighbor list builds = 0
Dangerous builds = 0
The dot product: 1.65043589321401e-08
Setting atom values ...
  1 settings made for x
  1 settings made for y
  1 settings made for z
Setting up cg style minimization ...
  Unit style    : metal
  Current step  : 1709
Per MPI rank memory allocation (min/avg/max) = 5.441 | 5.816 | 6.074 Mbytes
Step PotEng KinEng TotEng v_fx v_fy v_fz 
    1709   -1152449.4            0   -1152449.4 0.0044642398 0.0029737556  0.025296472 
    1901   -1152449.4            0   -1152449.4 -9.0909731e-07 -8.0604682e-07 -5.858209e-06 
Loop time of 2.24376 on 104 procs for 192 steps with 288751 atoms

99.9% CPU use with 104 MPI tasks x 1 OpenMP threads

Minimization stats:
  Stopping criterion = energy tolerance
  Energy initial, next-to-last, final = 
     -1152449.36816261  -1152449.37002707  -1152449.37002707
  Force two-norm initial, final = 0.18425446 0.00010075133
  Force max component initial, final = 0.093948644 1.8456936e-05
  Final line search alpha, max atom move = 1.0000000 1.8456936e-05
  Iterations, force evaluations = 192 384

MPI task timing breakdown:
Section |  min time  |  avg time  |  max time  |%varavg| %total
---------------------------------------------------------------
Pair    | 0.58721    | 1.6165     | 2.1134     |  34.1 | 72.04
Neigh   | 0          | 0          | 0          |   0.0 |  0.00
Comm    | 0.036877   | 0.3693     | 1.1198     |  50.0 | 16.46
Output  | 0          | 0          | 0          |   0.0 |  0.00
Modify  | 2.3659e-05 | 0.0031601  | 0.0067478  |   2.7 |  0.14
Other   |            | 0.2548     |            |       | 11.36

Nlocal:        2776.45 ave        3955 max           0 min
Histogram: 8 4 4 0 4 12 8 2 28 34
Nghost:        3879.01 ave        5424 max         232 min
Histogram: 8 0 8 0 16 0 8 8 16 40
Neighs:        79213.5 ave      115285 max           0 min
Histogram: 8 4 4 0 10 6 8 8 24 32

Total # of neighbors = 8238205
Ave neighs/atom = 28.530481
Neighbor list builds = 0
Dangerous builds = 0
The dot product: -5.06715788571992e-08
Setting atom values ...
  1 settings made for x
  1 settings made for y
  1 settings made for z
Setting up cg style minimization ...
  Unit style    : metal
  Current step  : 1901
Per MPI rank memory allocation (min/avg/max) = 5.441 | 5.816 | 6.074 Mbytes
Step PotEng KinEng TotEng v_fx v_fy v_fz 
    1901   -1152449.4            0   -1152449.4 0.0080675831 0.0019635724  0.027716741 
    2000   -1152449.4            0   -1152449.4 6.148992e-06 -1.6721503e-05 -3.3255422e-05 
    2128   -1152449.4            0   -1152449.4 -2.0365466e-06 -1.7977732e-06 -1.0883433e-05 
Loop time of 2.61571 on 104 procs for 227 steps with 288751 atoms

99.9% CPU use with 104 MPI tasks x 1 OpenMP threads

Minimization stats:
  Stopping criterion = energy tolerance
  Energy initial, next-to-last, final = 
     -1152449.35354982  -1152449.35549707  -1152449.35549707
  Force two-norm initial, final = 0.18289177 3.9162720e-05
  Force max component initial, final = 0.097945134 1.0883433e-05
  Final line search alpha, max atom move = 1.0000000 1.0883433e-05
  Iterations, force evaluations = 227 454

MPI task timing breakdown:
Section |  min time  |  avg time  |  max time  |%varavg| %total
---------------------------------------------------------------
Pair    | 0.69024    | 1.8967     | 2.4763     |  37.1 | 72.51
Neigh   | 0          | 0          | 0          |   0.0 |  0.00
Comm    | 0.038113   | 0.42861    | 1.3052     |  54.8 | 16.39
Output  | 0.00017364 | 0.00017626 | 0.00032829 |   0.0 |  0.01
Modify  | 2.6525e-05 | 0.0037339  | 0.0080142  |   2.9 |  0.14
Other   |            | 0.2865     |            |       | 10.95

Nlocal:        2776.45 ave        3953 max           0 min
Histogram: 8 4 4 0 4 12 8 2 28 34
Nghost:        3879.08 ave        5424 max         232 min
Histogram: 8 0 8 0 16 0 8 8 16 40
Neighs:        79213.5 ave      115235 max           0 min
Histogram: 8 4 4 0 10 6 8 8 24 32

Total # of neighbors = 8238203
Ave neighs/atom = 28.530474
Neighbor list builds = 0
Dangerous builds = 0
The dot product: -1.06078730138881e-07
Setting atom values ...
  1 settings made for x
  1 settings made for y
  1 settings made for z
Setting up cg style minimization ...
  Unit style    : metal
  Current step  : 2128
Per MPI rank memory allocation (min/avg/max) = 5.441 | 5.816 | 6.074 Mbytes
Step PotEng KinEng TotEng v_fx v_fy v_fz 
    2128   -1152449.3            0   -1152449.3 0.0098179965 0.0017767718  0.026802805 
    2330   -1152449.3            0   -1152449.3 2.8997468e-06 3.9422195e-06 1.6750136e-05 
Loop time of 2.33793 on 104 procs for 202 steps with 288751 atoms

99.9% CPU use with 104 MPI tasks x 1 OpenMP threads

Minimization stats:
  Stopping criterion = energy tolerance
  Energy initial, next-to-last, final = 
     -1152449.33794158  -1152449.33978226  -1152449.33978226
  Force two-norm initial, final = 0.18115568 9.7476541e-05
  Force max component initial, final = 0.10201467 1.6750136e-05
  Final line search alpha, max atom move = 1.0000000 1.6750136e-05
  Iterations, force evaluations = 202 404

MPI task timing breakdown:
Section |  min time  |  avg time  |  max time  |%varavg| %total
---------------------------------------------------------------
Pair    | 0.61697    | 1.6987     | 2.2084     |  35.0 | 72.66
Neigh   | 0          | 0          | 0          |   0.0 |  0.00
Comm    | 0.033859   | 0.38262    | 1.1646     |  52.0 | 16.37
Output  | 0          | 0          | 0          |   0.0 |  0.00
Modify  | 2.3821e-05 | 0.0033262  | 0.007097   |   2.7 |  0.14
Other   |            | 0.2533     |            |       | 10.83

Nlocal:        2776.45 ave        3951 max           0 min
Histogram: 8 4 4 0 4 12 8 2 28 34
Nghost:        3879.07 ave        5424 max         232 min
Histogram: 8 0 8 0 16 0 8 8 16 40
Neighs:        79213.5 ave      115165 max           0 min
Histogram: 8 4 4 0 10 6 8 8 24 32

Total # of neighbors = 8238207
Ave neighs/atom = 28.530488
Neighbor list builds = 0
Dangerous builds = 0
The dot product: 1.45974701743422e-07
Setting atom values ...
  1 settings made for x
  1 settings made for y
  1 settings made for z
Setting up cg style minimization ...
  Unit style    : metal
  Current step  : 2330
Per MPI rank memory allocation (min/avg/max) = 5.441 | 5.816 | 6.074 Mbytes
Step PotEng KinEng TotEng v_fx v_fy v_fz 
    2330   -1152449.3            0   -1152449.3 0.0085730203 0.0017687139  0.021042813 
    2528   -1152449.3            0   -1152449.3 6.5124198e-06 4.2283761e-06 2.2697092e-05 
Loop time of 2.28193 on 104 procs for 198 steps with 288751 atoms

99.9% CPU use with 104 MPI tasks x 1 OpenMP threads

Minimization stats:
  Stopping criterion = energy tolerance
  Energy initial, next-to-last, final = 
     -1152449.32099514  -1152449.32276905  -1152449.32276905
  Force two-norm initial, final = 0.17906102 0.00010556038
  Force max component initial, final = 0.10575505 2.7435126e-05
  Final line search alpha, max atom move = 1.0000000 2.7435126e-05
  Iterations, force evaluations = 198 396

MPI task timing breakdown:
Section |  min time  |  avg time  |  max time  |%varavg| %total
---------------------------------------------------------------
Pair    | 0.60183    | 1.6566     | 2.1603     |  34.7 | 72.59
Neigh   | 0          | 0          | 0          |   0.0 |  0.00
Comm    | 0.034345   | 0.37151    | 1.1298     |  51.5 | 16.28
Output  | 0          | 0          | 0          |   0.0 |  0.00
Modify  | 2.3095e-05 | 0.0032528  | 0.0069767  |   2.7 |  0.14
Other   |            | 0.2506     |            |       | 10.98

Nlocal:        2776.45 ave        3948 max           0 min
Histogram: 8 4 4 0 4 12 8 2 26 36
Nghost:        3879.08 ave        5424 max         232 min
Histogram: 8 0 8 0 16 0 8 8 16 40
Neighs:        79213.6 ave      115058 max           0 min
Histogram: 8 4 4 0 10 6 8 8 24 32

Total # of neighbors = 8238210
Ave neighs/atom = 28.530499
Neighbor list builds = 0
Dangerous builds = 0
The dot product: 1.87272284153562e-07
Setting atom values ...
  1 settings made for x
  1 settings made for y
  1 settings made for z
Setting up cg style minimization ...
  Unit style    : metal
  Current step  : 2528
Per MPI rank memory allocation (min/avg/max) = 5.441 | 5.816 | 6.074 Mbytes
Step PotEng KinEng TotEng v_fx v_fy v_fz 
    2528   -1152449.3            0   -1152449.3  0.006851623 0.0018637779   0.01619005 
    2763   -1152449.3            0   -1152449.3 9.4587792e-08 5.2711748e-08 2.8146848e-07 
Loop time of 2.73294 on 104 procs for 235 steps with 288751 atoms

99.9% CPU use with 104 MPI tasks x 1 OpenMP threads

Minimization stats:
  Stopping criterion = energy tolerance
  Energy initial, next-to-last, final = 
     -1152449.30270237  -1152449.30445302  -1152449.30445302
  Force two-norm initial, final = 0.17736231 2.3218891e-05
  Force max component initial, final = 0.10896167 2.3051702e-06
  Final line search alpha, max atom move = 1.0000000 2.3051702e-06
  Iterations, force evaluations = 235 470

MPI task timing breakdown:
Section |  min time  |  avg time  |  max time  |%varavg| %total
---------------------------------------------------------------
Pair    | 0.71688    | 1.9762     | 2.5674     |  37.9 | 72.31
Neigh   | 0          | 0          | 0          |   0.0 |  0.00
Comm    | 0.045311   | 0.4476     | 1.3665     |  56.1 | 16.38
Output  | 0          | 0          | 0          |   0.0 |  0.00
Modify  | 2.739e-05  | 0.0038642  | 0.0082555  |   2.9 |  0.14
Other   |            | 0.3053     |            |       | 11.17

Nlocal:        2776.45 ave        3944 max           0 min
Histogram: 8 4 4 0 4 12 8 2 26 36
Nghost:        3879.08 ave        5424 max         232 min
Histogram: 8 0 8 0 16 0 8 8 16 40
Neighs:        79213.6 ave      114916 max           0 min
Histogram: 8 4 4 0 10 6 8 8 22 34

Total # of neighbors = 8238211
Ave neighs/atom = 28.530502
Neighbor list builds = 0
Dangerous builds = 0
The dot product: 2.27177922754831e-09
Setting atom values ...
  1 settings made for x
  1 settings made for y
  1 settings made for z
Setting up cg style minimization ...
  Unit style    : metal
  Current step  : 2763
Per MPI rank memory allocation (min/avg/max) = 5.441 | 5.816 | 6.074 Mbytes
Step PotEng KinEng TotEng v_fx v_fy v_fz 
    2763   -1152449.3            0   -1152449.3 0.0060255384 0.0020589795  0.013953888 
    2956   -1152449.3            0   -1152449.3 -5.1832944e-06 -2.5081739e-06 -1.3483462e-05 
Loop time of 2.22273 on 104 procs for 193 steps with 288751 atoms

99.9% CPU use with 104 MPI tasks x 1 OpenMP threads

Minimization stats:
  Stopping criterion = energy tolerance
  Energy initial, next-to-last, final = 
     -1152449.28312468  -1152449.28490989  -1152449.28490989
  Force two-norm initial, final = 0.17605105 0.00011788428
  Force max component initial, final = 0.11176658 2.9059084e-05
  Final line search alpha, max atom move = 1.0000000 2.9059084e-05
  Iterations, force evaluations = 193 386

MPI task timing breakdown:
Section |  min time  |  avg time  |  max time  |%varavg| %total
---------------------------------------------------------------
Pair    | 0.58286    | 1.6133     | 2.0969     |  34.3 | 72.58
Neigh   | 0          | 0          | 0          |   0.0 |  0.00
Comm    | 0.032523   | 0.3624     | 1.1178     |  51.0 | 16.30
Output  | 0          | 0          | 0          |   0.0 |  0.00
Modify  | 2.2495e-05 | 0.0031783  | 0.0067881  |   2.7 |  0.14
Other   |            | 0.2438     |            |       | 10.97

Nlocal:        2776.45 ave        3939 max           0 min
Histogram: 8 4 4 0 4 12 8 2 26 36
Nghost:        3879.13 ave        5425 max         232 min
Histogram: 8 0 8 0 16 0 8 8 16 40
Neighs:        79213.6 ave      114767 max           0 min
Histogram: 8 4 4 0 10 6 8 8 22 34

Total # of neighbors = 8238215
Ave neighs/atom = 28.530516
Neighbor list builds = 0
Dangerous builds = 0
The dot product: -1.18226332257551e-07
Setting atom values ...
  1 settings made for x
  1 settings made for y
  1 settings made for z
Setting up cg style minimization ...
  Unit style    : metal
  Current step  : 2956
Per MPI rank memory allocation (min/avg/max) = 5.441 | 5.816 | 6.074 Mbytes
Step PotEng KinEng TotEng v_fx v_fy v_fz 
    2956   -1152449.3            0   -1152449.3 0.0065319681 0.0025228623   0.01455178 
    3000   -1152449.3            0   -1152449.3 -0.00012521501 -0.00020231371 -0.00056875444 
    3127   -1152449.3            0   -1152449.3 -5.5968635e-06 -1.2633965e-06 -1.0777591e-05 
Loop time of 1.98236 on 104 procs for 171 steps with 288751 atoms

99.9% CPU use with 104 MPI tasks x 1 OpenMP threads

Minimization stats:
  Stopping criterion = energy tolerance
  Energy initial, next-to-last, final = 
     -1152449.26240209  -1152449.26418141  -1152449.26418141
  Force two-norm initial, final = 0.17497063 0.00023346109
  Force max component initial, final = 0.11430741 3.9097650e-05
  Final line search alpha, max atom move = 1.0000000 3.9097650e-05
  Iterations, force evaluations = 171 342

MPI task timing breakdown:
Section |  min time  |  avg time  |  max time  |%varavg| %total
---------------------------------------------------------------
Pair    | 0.52021    | 1.4418     | 1.8767     |  32.4 | 72.73
Neigh   | 0          | 0          | 0          |   0.0 |  0.00
Comm    | 0.029192   | 0.32783    | 0.99814    |  47.7 | 16.54
Output  | 0.0001396  | 0.00014278 | 0.00025147 |   0.0 |  0.01
Modify  | 1.9982e-05 | 0.0028151  | 0.0060635  |   2.5 |  0.14
Other   |            | 0.2097     |            |       | 10.58

Nlocal:        2776.45 ave        3935 max           0 min
Histogram: 8 4 4 0 4 12 8 0 28 36
Nghost:        3879.15 ave        5425 max         232 min
Histogram: 8 0 8 0 16 0 8 8 16 40
Neighs:        79213.6 ave      114650 max           0 min
Histogram: 8 4 4 0 8 8 8 8 22 34

Total # of neighbors = 8238215
Ave neighs/atom = 28.530516
Neighbor list builds = 0
Dangerous builds = 0
The dot product: -1.03221905826773e-07
Setting atom values ...
  1 settings made for x
  1 settings made for y
  1 settings made for z
Setting up cg style minimization ...
  Unit style    : metal
  Current step  : 3127
Per MPI rank memory allocation (min/avg/max) = 5.441 | 5.816 | 6.074 Mbytes
Step PotEng KinEng TotEng v_fx v_fy v_fz 
    3127   -1152449.2            0   -1152449.2 0.0073994087 0.0027010161  0.015066583 
    3326   -1152449.2            0   -1152449.2 -2.8614829e-06 -2.6119523e-06 -8.6031046e-06 
Loop time of 2.30929 on 104 procs for 199 steps with 288751 atoms

99.9% CPU use with 104 MPI tasks x 1 OpenMP threads

Minimization stats:
  Stopping criterion = energy tolerance
  Energy initial, next-to-last, final = 
     -1152449.24048221  -1152449.24228653  -1152449.24228653
  Force two-norm initial, final = 0.17411921 0.00010034878
  Force max component initial, final = 0.11688914 1.5180771e-05
  Final line search alpha, max atom move = 1.0000000 1.5180771e-05
  Iterations, force evaluations = 199 398

MPI task timing breakdown:
Section |  min time  |  avg time  |  max time  |%varavg| %total
---------------------------------------------------------------
Pair    | 0.60449    | 1.6707     | 2.1817     |  35.0 | 72.35
Neigh   | 0          | 0          | 0          |   0.0 |  0.00
Comm    | 0.035668   | 0.37937    | 1.1531     |  51.4 | 16.43
Output  | 0          | 0          | 0          |   0.0 |  0.00
Modify  | 2.6535e-05 | 0.0032819  | 0.0069971  |   2.7 |  0.14
Other   |            | 0.256      |            |       | 11.08

Nlocal:        2776.45 ave        3935 max           0 min
Histogram: 8 4 4 0 4 12 8 0 28 36
Nghost:        3879.15 ave        5425 max         232 min
Histogram: 8 0 8 0 16 0 8 8 16 40
Neighs:        79213.6 ave      114650 max           0 min
Histogram: 8 4 4 0 8 8 8 8 22 34

Total # of neighbors = 8238215
Ave neighs/atom = 28.530516
Neighbor list builds = 0
Dangerous builds = 0
The dot product: -8.67359515105451e-08
Setting atom values ...
  1 settings made for x
  1 settings made for y
  1 settings made for z
Setting up cg style minimization ...
  Unit style    : metal
  Current step  : 3326
Per MPI rank memory allocation (min/avg/max) = 5.441 | 5.816 | 6.074 Mbytes
Step PotEng KinEng TotEng v_fx v_fy v_fz 
    3326   -1152449.2            0   -1152449.2 0.0099700137 0.0028655593   0.01759097 
    3499   -1152449.2            0   -1152449.2 -8.7402938e-06 -2.412157e-05 -5.1440732e-05 
Loop time of 2.01686 on 104 procs for 173 steps with 288751 atoms

99.9% CPU use with 104 MPI tasks x 1 OpenMP threads

Minimization stats:
  Stopping criterion = energy tolerance
  Energy initial, next-to-last, final = 
     -1152449.21746583   -1152449.2194521   -1152449.2194521
  Force two-norm initial, final = 0.1736706 0.00021401443
  Force max component initial, final = 0.11948258 5.1440732e-05
  Final line search alpha, max atom move = 1.0000000 5.1440732e-05
  Iterations, force evaluations = 173 346

MPI task timing breakdown:
Section |  min time  |  avg time  |  max time  |%varavg| %total
---------------------------------------------------------------
Pair    | 0.5268     | 1.4587     | 1.9035     |  32.5 | 72.33
Neigh   | 0          | 0          | 0          |   0.0 |  0.00
Comm    | 0.028975   | 0.33137    | 1.0136     |  47.8 | 16.43
Output  | 0          | 0          | 0          |   0.0 |  0.00
Modify  | 2.027e-05  | 0.0028485  | 0.0060643  |   2.5 |  0.14
Other   |            | 0.2239     |            |       | 11.10

Nlocal:        2776.45 ave        3935 max           0 min
Histogram: 8 4 4 0 4 12 8 0 28 36
Nghost:        3879.15 ave        5425 max         232 min
Histogram: 8 0 8 0 16 0 8 8 16 40
Neighs:        79213.6 ave      114650 max           0 min
Histogram: 8 4 4 0 8 8 8 8 22 34

Total # of neighbors = 8238212
Ave neighs/atom = 28.530506
Neighbor list builds = 0
Dangerous builds = 0
The dot product: -6.47803654470824e-07
Setting atom values ...
  1 settings made for x
  1 settings made for y
  1 settings made for z
Setting up cg style minimization ...
  Unit style    : metal
  Current step  : 3499
Per MPI rank memory allocation (min/avg/max) = 5.441 | 5.816 | 6.074 Mbytes
Step PotEng KinEng TotEng v_fx v_fy v_fz 
    3499   -1152449.2            0   -1152449.2  0.016436107 0.0036125724  0.024812773 
    3670   -1152449.2            0   -1152449.2 1.2307437e-05 2.1985024e-05 4.850638e-05 
Loop time of 1.98681 on 104 procs for 171 steps with 288751 atoms

99.9% CPU use with 104 MPI tasks x 1 OpenMP threads

Minimization stats:
  Stopping criterion = energy tolerance
  Energy initial, next-to-last, final = 
     -1152449.19382128  -1152449.19600482  -1152449.19600482
  Force two-norm initial, final = 0.17401724 0.00020076222
  Force max component initial, final = 0.12198251 5.6679727e-05
  Final line search alpha, max atom move = 1.0000000 5.6679727e-05
  Iterations, force evaluations = 171 342

MPI task timing breakdown:
Section |  min time  |  avg time  |  max time  |%varavg| %total
---------------------------------------------------------------
Pair    | 0.5232     | 1.4378     | 1.8775     |  32.3 | 72.37
Neigh   | 0          | 0          | 0          |   0.0 |  0.00
Comm    | 0.029842   | 0.32422    | 0.98606    |  47.9 | 16.32
Output  | 0          | 0          | 0          |   0.0 |  0.00
Modify  | 1.999e-05  | 0.0028144  | 0.0060389  |   2.5 |  0.14
Other   |            | 0.2219     |            |       | 11.17

Nlocal:        2776.45 ave        3936 max           0 min
Histogram: 8 4 4 0 4 12 8 0 28 36
Nghost:        3879.16 ave        5425 max         232 min
Histogram: 8 0 8 0 16 0 8 8 16 40
Neighs:        79213.6 ave      114674 max           0 min
Histogram: 8 4 4 0 8 8 8 8 22 34

Total # of neighbors = 8238212
Ave neighs/atom = 28.530506
Neighbor list builds = 0
Dangerous builds = 0
The dot product: 7.70510974562644e-07
Setting atom values ...
  1 settings made for x
  1 settings made for y
  1 settings made for z
Setting up cg style minimization ...
  Unit style    : metal
  Current step  : 3670
Per MPI rank memory allocation (min/avg/max) = 5.441 | 5.816 | 6.074 Mbytes
Step PotEng KinEng TotEng v_fx v_fy v_fz 
    3670   -1152449.2            0   -1152449.2  0.021996615 0.0047396057  0.029893146 
    3822   -1152449.2            0   -1152449.2 7.8476378e-06 1.4251759e-05 2.8720322e-05 
Loop time of 1.76544 on 104 procs for 152 steps with 288751 atoms

99.9% CPU use with 104 MPI tasks x 1 OpenMP threads

Minimization stats:
  Stopping criterion = energy tolerance
  Energy initial, next-to-last, final = 
     -1152449.16972125  -1152449.17185206  -1152449.17185206
  Force two-norm initial, final = 0.17454638 0.00029938847
  Force max component initial, final = 0.1245052 3.4574360e-05
  Final line search alpha, max atom move = 1.0000000 3.4574360e-05
  Iterations, force evaluations = 152 304

MPI task timing breakdown:
Section |  min time  |  avg time  |  max time  |%varavg| %total
---------------------------------------------------------------
Pair    | 0.46307    | 1.2772     | 1.6596     |  30.4 | 72.34
Neigh   | 0          | 0          | 0          |   0.0 |  0.00
Comm    | 0.025792   | 0.28912    | 0.87559    |  44.7 | 16.38
Output  | 0          | 0          | 0          |   0.0 |  0.00
Modify  | 1.7687e-05 | 0.0025059  | 0.0053737  |   2.4 |  0.14
Other   |            | 0.1966     |            |       | 11.14

Nlocal:        2776.45 ave        3936 max           0 min
Histogram: 8 4 4 0 4 12 8 0 28 36
Nghost:        3879.14 ave        5425 max         232 min
Histogram: 8 0 8 0 16 0 8 8 16 40
Neighs:        79213.6 ave      114674 max           0 min
Histogram: 8 4 4 0 8 8 8 8 22 34

Total # of neighbors = 8238216
Ave neighs/atom = 28.530519
Neighbor list builds = 0
Dangerous builds = 0
The dot product: 4.57040779702044e-07
Setting atom values ...
  1 settings made for x
  1 settings made for y
  1 settings made for z
Setting up cg style minimization ...
  Unit style    : metal
  Current step  : 3822
Per MPI rank memory allocation (min/avg/max) = 5.441 | 5.816 | 6.074 Mbytes
Step PotEng KinEng TotEng v_fx v_fy v_fz 
    3822   -1152449.1            0   -1152449.1  0.022287549 0.0047029277  0.027495007 
    3986   -1152449.1            0   -1152449.1 6.833844e-06 2.076568e-05 3.4381897e-05 
Loop time of 1.88892 on 104 procs for 164 steps with 288751 atoms

99.9% CPU use with 104 MPI tasks x 1 OpenMP threads

Minimization stats:
  Stopping criterion = energy tolerance
  Energy initial, next-to-last, final = 
     -1152449.14469744  -1152449.14670787  -1152449.14670787
  Force two-norm initial, final = 0.17404098 0.00021481167
  Force max component initial, final = 0.12740401 3.4381897e-05
  Final line search alpha, max atom move = 1.0000000 3.4381897e-05
  Iterations, force evaluations = 164 328

MPI task timing breakdown:
Section |  min time  |  avg time  |  max time  |%varavg| %total
---------------------------------------------------------------
Pair    | 0.49662    | 1.3712     | 1.7908     |  31.6 | 72.59
Neigh   | 0          | 0          | 0          |   0.0 |  0.00
Comm    | 0.027411   | 0.3092     | 0.94575    |  46.8 | 16.37
Output  | 0          | 0          | 0          |   0.0 |  0.00
Modify  | 1.9265e-05 | 0.0026971  | 0.0058011  |   2.5 |  0.14
Other   |            | 0.2058     |            |       | 10.90

Nlocal:        2776.45 ave        3936 max           0 min
Histogram: 8 4 4 0 4 12 8 0 28 36
Nghost:        3879.16 ave        5426 max         232 min
Histogram: 8 0 8 0 16 0 8 8 16 40
Neighs:        79213.6 ave      114666 max           0 min
Histogram: 8 4 4 0 8 8 8 8 22 34

Total # of neighbors = 8238215
Ave neighs/atom = 28.530516
Neighbor list builds = 0
Dangerous builds = 0
The dot product: 4.90477708695709e-07
Setting atom values ...
  1 settings made for x
  1 settings made for y
  1 settings made for z
Setting up cg style minimization ...
  Unit style    : metal
  Current step  : 3986
Per MPI rank memory allocation (min/avg/max) = 5.441 | 5.816 | 6.074 Mbytes
Step PotEng KinEng TotEng v_fx v_fy v_fz 
    3986   -1152449.1            0   -1152449.1  0.019802175 0.0044004101  0.022875069 
    4000   -1152449.1            0   -1152449.1 -0.00071250599 -0.00027246898 -0.0009678588 
    4159   -1152449.1            0   -1152449.1 -3.6705871e-06 4.2957327e-06 2.2437952e-06 
Loop time of 2.01765 on 104 procs for 173 steps with 288751 atoms

99.9% CPU use with 104 MPI tasks x 1 OpenMP threads

Minimization stats:
  Stopping criterion = energy tolerance
  Energy initial, next-to-last, final = 
      -1152449.1185609  -1152449.12039541  -1152449.12039541
  Force two-norm initial, final = 0.17335969 0.00017474632
  Force max component initial, final = 0.13020487 3.7844985e-05
  Final line search alpha, max atom move = 1.0000000 3.7844985e-05
  Iterations, force evaluations = 173 346

MPI task timing breakdown:
Section |  min time  |  avg time  |  max time  |%varavg| %total
---------------------------------------------------------------
Pair    | 0.52819    | 1.4597     | 1.8931     |  32.2 | 72.35
Neigh   | 0          | 0          | 0          |   0.0 |  0.00
Comm    | 0.029986   | 0.33059    | 0.98836    |  48.0 | 16.38
Output  | 0.00010617 | 0.00011464 | 0.00020582 |   0.0 |  0.01
Modify  | 2.0933e-05 | 0.0028491  | 0.006103   |   2.5 |  0.14
Other   |            | 0.2244     |            |       | 11.12

Nlocal:        2776.45 ave        3937 max           0 min
Histogram: 8 4 4 0 4 12 8 0 28 36
Nghost:        3879.16 ave        5426 max         232 min
Histogram: 8 0 8 0 16 0 8 8 16 40
Neighs:        79213.6 ave      114691 max           0 min
Histogram: 8 4 4 0 8 8 8 8 22 34

Total # of neighbors = 8238212
Ave neighs/atom = 28.530506
Neighbor list builds = 0
Dangerous builds = 0
The dot product: 8.63191388709109e-09
Setting atom values ...
  1 settings made for x
  1 settings made for y
  1 settings made for z
Setting up cg style minimization ...
  Unit style    : metal
  Current step  : 4159
Per MPI rank memory allocation (min/avg/max) = 5.441 | 5.816 | 6.074 Mbytes
Step PotEng KinEng TotEng v_fx v_fy v_fz 
    4159   -1152449.1            0   -1152449.1  0.015610582 0.0034575764  0.016941701 
    4340   -1152449.1            0   -1152449.1 5.1632065e-06 1.1253436e-05 1.7860522e-05 
Loop time of 2.08326 on 104 procs for 181 steps with 288751 atoms

99.9% CPU use with 104 MPI tasks x 1 OpenMP threads

Minimization stats:
  Stopping criterion = energy tolerance
  Energy initial, next-to-last, final = 
     -1152449.09109536  -1152449.09280974  -1152449.09280974
  Force two-norm initial, final = 0.17297943 0.00013197287
  Force max component initial, final = 0.13295275 2.6746732e-05
  Final line search alpha, max atom move = 1.0000000 2.6746732e-05
  Iterations, force evaluations = 181 362

MPI task timing breakdown:
Section |  min time  |  avg time  |  max time  |%varavg| %total
---------------------------------------------------------------
Pair    | 0.54887    | 1.5136     | 1.9693     |  33.1 | 72.65
Neigh   | 0          | 0          | 0          |   0.0 |  0.00
Comm    | 0.032526   | 0.33916    | 1.0386     |  49.4 | 16.28
Output  | 0          | 0          | 0          |   0.0 |  0.00
Modify  | 2.193e-05  | 0.0029774  | 0.0063682  |   2.6 |  0.14
Other   |            | 0.2275     |            |       | 10.92

Nlocal:        2776.45 ave        3937 max           0 min
Histogram: 8 4 4 0 4 12 8 0 28 36
Nghost:        3879.16 ave        5426 max         232 min
Histogram: 8 0 8 0 16 0 8 8 16 40
Neighs:        79213.6 ave      114692 max           0 min
Histogram: 8 4 4 0 8 8 8 8 22 34

Total # of neighbors = 8238212
Ave neighs/atom = 28.530506
Neighbor list builds = 0
Dangerous builds = 0
The dot product: 1.9118226982583e-07
Setting atom values ...
  1 settings made for x
  1 settings made for y
  1 settings made for z
Setting up cg style minimization ...
  Unit style    : metal
  Current step  : 4340
Per MPI rank memory allocation (min/avg/max) = 5.441 | 5.816 | 6.074 Mbytes
Step PotEng KinEng TotEng v_fx v_fy v_fz 
    4340   -1152449.1            0   -1152449.1  0.011147655 0.0026140373  0.011705938 
    4505   -1152449.1            0   -1152449.1 1.1837528e-05 3.3248212e-05 4.806801e-05 
Loop time of 1.91692 on 104 procs for 165 steps with 288751 atoms

99.9% CPU use with 104 MPI tasks x 1 OpenMP threads

Minimization stats:
  Stopping criterion = energy tolerance
  Energy initial, next-to-last, final = 
     -1152449.06229611  -1152449.06394217  -1152449.06394217
  Force two-norm initial, final = 0.17319662 0.00021474583
  Force max component initial, final = 0.13558358 4.8068010e-05
  Final line search alpha, max atom move = 1.0000000 4.8068010e-05
  Iterations, force evaluations = 165 330

MPI task timing breakdown:
Section |  min time  |  avg time  |  max time  |%varavg| %total
---------------------------------------------------------------
Pair    | 0.50228    | 1.394      | 1.8133     |  31.8 | 72.72
Neigh   | 0          | 0          | 0          |   0.0 |  0.00
Comm    | 0.027063   | 0.31694    | 0.96748    |  47.1 | 16.53
Output  | 0          | 0          | 0          |   0.0 |  0.00
Modify  | 1.9204e-05 | 0.0027201  | 0.0058092  |   2.5 |  0.14
Other   |            | 0.2032     |            |       | 10.60

Nlocal:        2776.45 ave        3937 max           0 min
Histogram: 8 4 4 0 4 12 8 0 28 36
Nghost:        3879.16 ave        5426 max         232 min
Histogram: 8 0 8 0 16 0 8 8 16 40
Neighs:        79213.6 ave      114686 max           0 min
Histogram: 8 4 4 0 8 8 8 8 22 34

Total # of neighbors = 8238214
Ave neighs/atom = 28.530512
Neighbor list builds = 0
Dangerous builds = 0
The dot product: 4.32841974974352e-07
Setting atom values ...
  1 settings made for x
  1 settings made for y
  1 settings made for z
Setting up cg style minimization ...
  Unit style    : metal
  Current step  : 4505
Per MPI rank memory allocation (min/avg/max) = 5.441 | 5.816 | 6.074 Mbytes
Step PotEng KinEng TotEng v_fx v_fy v_fz 
    4505     -1152449            0     -1152449 0.0071401819 0.0019656602 0.0075598816 
    4682     -1152449            0     -1152449 1.0345778e-05 3.2705245e-05 4.4862916e-05 
Loop time of 2.03279 on 104 procs for 177 steps with 288751 atoms

99.9% CPU use with 104 MPI tasks x 1 OpenMP threads

Minimization stats:
  Stopping criterion = energy tolerance
  Energy initial, next-to-last, final = 
     -1152449.03221173  -1152449.03384207  -1152449.03384207
  Force two-norm initial, final = 0.17379349 0.00017330823
  Force max component initial, final = 0.13791835 4.4862916e-05
  Final line search alpha, max atom move = 1.0000000 4.4862916e-05
  Iterations, force evaluations = 177 354

MPI task timing breakdown:
Section |  min time  |  avg time  |  max time  |%varavg| %total
---------------------------------------------------------------
Pair    | 0.53738    | 1.4799     | 1.9267     |  32.8 | 72.80
Neigh   | 0          | 0          | 0          |   0.0 |  0.00
Comm    | 0.032028   | 0.33256    | 1.0078     |  48.6 | 16.36
Output  | 0          | 0          | 0          |   0.0 |  0.00
Modify  | 2.0601e-05 | 0.0029147  | 0.0062734  |   2.6 |  0.14
Other   |            | 0.2174     |            |       | 10.70

Nlocal:        2776.45 ave        3937 max           0 min
Histogram: 8 4 4 0 4 12 8 0 28 36
Nghost:        3879.18 ave        5426 max         232 min
Histogram: 8 0 8 0 16 0 8 8 16 40
Neighs:        79213.6 ave      114687 max           0 min
Histogram: 8 4 4 0 8 8 8 8 22 34

Total # of neighbors = 8238218
Ave neighs/atom = 28.530526
Neighbor list builds = 0
Dangerous builds = 0
The dot product: 3.60328693848742e-07
Setting atom values ...
  1 settings made for x
  1 settings made for y
  1 settings made for z
Setting up cg style minimization ...
  Unit style    : metal
  Current step  : 4682
Per MPI rank memory allocation (min/avg/max) = 5.441 | 5.816 | 6.074 Mbytes
Step PotEng KinEng TotEng v_fx v_fy v_fz 
    4682     -1152449            0     -1152449 0.0041680113  0.001511938 0.0046898806 
    4875     -1152449            0     -1152449 8.666742e-06 2.1361117e-05 2.992554e-05 
Loop time of 2.29758 on 104 procs for 193 steps with 288751 atoms

99.9% CPU use with 104 MPI tasks x 1 OpenMP threads

Minimization stats:
  Stopping criterion = energy tolerance
  Energy initial, next-to-last, final = 
     -1152449.00097861  -1152449.00262364  -1152449.00262364
  Force two-norm initial, final = 0.17457536 0.00011207764
  Force max component initial, final = 0.14000422 2.9925540e-05
  Final line search alpha, max atom move = 1.0000000 2.9925540e-05
  Iterations, force evaluations = 193 386

MPI task timing breakdown:
Section |  min time  |  avg time  |  max time  |%varavg| %total
---------------------------------------------------------------
Pair    | 0.58993    | 1.6252     | 2.131      |  34.3 | 70.73
Neigh   | 0          | 0          | 0          |   0.0 |  0.00
Comm    | 0.033675   | 0.37236    | 1.1311     |  50.3 | 16.21
Output  | 0          | 0          | 0          |   0.0 |  0.00
Modify  | 2.2507e-05 | 0.0031792  | 0.006795   |   2.7 |  0.14
Other   |            | 0.2969     |            |       | 12.92

Nlocal:        2776.45 ave        3937 max           0 min
Histogram: 8 4 4 0 4 12 8 0 28 36
Nghost:        3879.18 ave        5426 max         232 min
Histogram: 8 0 8 0 16 0 8 8 16 40
Neighs:        79213.6 ave      114678 max           0 min
Histogram: 8 4 4 0 8 8 8 8 22 34

Total # of neighbors = 8238218
Ave neighs/atom = 28.530526
Neighbor list builds = 0
Dangerous builds = 0
The dot product: 2.20621376206597e-07
Setting atom values ...
  1 settings made for x
  1 settings made for y
  1 settings made for z
Setting up cg style minimization ...
  Unit style    : metal
  Current step  : 4875
Per MPI rank memory allocation (min/avg/max) = 5.441 | 5.816 | 6.074 Mbytes
Step PotEng KinEng TotEng v_fx v_fy v_fz 
    4875     -1152449            0     -1152449 0.0019528864 0.00083172724 0.0022790949 
    5000     -1152449            0     -1152449 1.606704e-05 5.6800445e-05 7.2856616e-05 
    5069     -1152449            0     -1152449 -2.1692893e-07 -6.0565627e-06 -6.7125702e-06 
Loop time of 2.25447 on 104 procs for 194 steps with 288751 atoms

99.9% CPU use with 104 MPI tasks x 1 OpenMP threads

Minimization stats:
  Stopping criterion = energy tolerance
  Energy initial, next-to-last, final = 
     -1152448.96869021   -1152448.9703422   -1152448.9703422
  Force two-norm initial, final = 0.17545522 0.0001093167
  Force max component initial, final = 0.14191884 1.9130759e-05
  Final line search alpha, max atom move = 1.0000000 1.9130759e-05
  Iterations, force evaluations = 194 388

MPI task timing breakdown:
Section |  min time  |  avg time  |  max time  |%varavg| %total
---------------------------------------------------------------
Pair    | 0.5924     | 1.6314     | 2.1337     |  34.5 | 72.36
Neigh   | 0          | 0          | 0          |   0.0 |  0.00
Comm    | 0.032736   | 0.36858    | 1.1238     |  50.9 | 16.35
Output  | 0.00015223 | 0.00016508 | 0.00034724 |   0.0 |  0.01
Modify  | 2.3056e-05 | 0.00319    | 0.006795   |   2.7 |  0.14
Other   |            | 0.2512     |            |       | 11.14

Nlocal:        2776.45 ave        3937 max           0 min
Histogram: 8 4 4 0 4 12 8 0 28 36
Nghost:        3879.20 ave        5426 max         232 min
Histogram: 8 0 8 0 16 0 8 8 16 40
Neighs:        79213.6 ave      114676 max           0 min
Histogram: 8 4 4 0 8 8 8 8 22 34

Total # of neighbors = 8238219
Ave neighs/atom = 28.530530
Neighbor list builds = 0
Dangerous builds = 0
The dot product: -4.57711842501565e-08
Setting atom values ...
  1 settings made for x
  1 settings made for y
  1 settings made for z
Setting up cg style minimization ...
  Unit style    : metal
  Current step  : 5069
Per MPI rank memory allocation (min/avg/max) = 5.441 | 5.816 | 6.074 Mbytes
Step PotEng KinEng TotEng v_fx v_fy v_fz 
    5069   -1152448.9            0   -1152448.9 0.0004088333 -5.2092707e-05 0.00022735607 
    5268   -1152448.9            0   -1152448.9 7.6960087e-07 4.5293943e-06 5.340378e-06 
Loop time of 2.31216 on 104 procs for 199 steps with 288751 atoms

99.9% CPU use with 104 MPI tasks x 1 OpenMP threads

Minimization stats:
  Stopping criterion = energy tolerance
  Energy initial, next-to-last, final = 
     -1152448.93542191  -1152448.93713635  -1152448.93713635
  Force two-norm initial, final = 0.17633946 9.9397442e-05
  Force max component initial, final = 0.14364503 1.0598169e-05
  Final line search alpha, max atom move = 1.0000000 1.0598169e-05
  Iterations, force evaluations = 199 398

MPI task timing breakdown:
Section |  min time  |  avg time  |  max time  |%varavg| %total
---------------------------------------------------------------
Pair    | 0.60682    | 1.678      | 2.1793     |  34.7 | 72.57
Neigh   | 0          | 0          | 0          |   0.0 |  0.00
Comm    | 0.035498   | 0.3773     | 1.137      |  51.4 | 16.32
Output  | 0          | 0          | 0          |   0.0 |  0.00
Modify  | 2.3115e-05 | 0.0032748  | 0.0069574  |   2.7 |  0.14
Other   |            | 0.2536     |            |       | 10.97

Nlocal:        2776.45 ave        3937 max           0 min
Histogram: 8 4 4 0 4 12 8 0 28 36
Nghost:        3879.20 ave        5426 max         232 min
Histogram: 8 0 8 0 16 0 8 8 16 40
Neighs:        79213.6 ave      114663 max           0 min
Histogram: 8 4 4 0 8 8 8 8 22 34

Total # of neighbors = 8238216
Ave neighs/atom = 28.530519
Neighbor list builds = 0
Dangerous builds = 0
The dot product: 3.53309631299208e-08
Setting atom values ...
  1 settings made for x
  1 settings made for y
  1 settings made for z
Setting up cg style minimization ...
  Unit style    : metal
  Current step  : 5268
Per MPI rank memory allocation (min/avg/max) = 5.441 | 5.816 | 6.074 Mbytes
Step PotEng KinEng TotEng v_fx v_fy v_fz 
    5268   -1152448.9            0   -1152448.9 -0.00057724749 -0.00095677691 -0.001388967 
    5452   -1152448.9            0   -1152448.9 -5.9636096e-06 -1.2450825e-05 -1.702367e-05 
Loop time of 2.11838 on 104 procs for 184 steps with 288751 atoms

99.9% CPU use with 104 MPI tasks x 1 OpenMP threads

Minimization stats:
  Stopping criterion = energy tolerance
  Energy initial, next-to-last, final = 
     -1152448.90134672  -1152448.90299186  -1152448.90299186
  Force two-norm initial, final = 0.17702342 0.00015728394
  Force max component initial, final = 0.14501871 1.7023670e-05
  Final line search alpha, max atom move = 1.0000000 1.7023670e-05
  Iterations, force evaluations = 184 368

MPI task timing breakdown:
Section |  min time  |  avg time  |  max time  |%varavg| %total
---------------------------------------------------------------
Pair    | 0.55845    | 1.542      | 2.0079     |  33.5 | 72.79
Neigh   | 0          | 0          | 0          |   0.0 |  0.00
Comm    | 0.032426   | 0.346      | 1.0556     |  49.8 | 16.33
Output  | 0          | 0          | 0          |   0.0 |  0.00
Modify  | 2.1702e-05 | 0.0030238  | 0.0064785  |   2.6 |  0.14
Other   |            | 0.2274     |            |       | 10.73

Nlocal:        2776.45 ave        3938 max           0 min
Histogram: 8 4 4 0 4 12 8 2 26 36
Nghost:        3879.17 ave        5426 max         232 min
Histogram: 8 0 8 0 16 0 8 8 16 40
Neighs:        79213.6 ave      114686 max           0 min
Histogram: 8 4 4 0 8 8 8 8 22 34

Total # of neighbors = 8238214
Ave neighs/atom = 28.530512
Neighbor list builds = 0
Dangerous builds = 0
The dot product: -9.54841552749185e-08
Setting atom values ...
  1 settings made for x
  1 settings made for y
  1 settings made for z
Setting up cg style minimization ...
  Unit style    : metal
  Current step  : 5452
Per MPI rank memory allocation (min/avg/max) = 5.441 | 5.816 | 6.074 Mbytes
Step PotEng KinEng TotEng v_fx v_fy v_fz 
    5452   -1152448.9            0   -1152448.9 -0.0019299694 -0.0029278686 -0.0042968413 
    5652   -1152448.9            0   -1152448.9 -1.6835937e-06 -2.8562208e-06 -4.0583291e-06 
Loop time of 2.30852 on 104 procs for 200 steps with 288751 atoms

99.9% CPU use with 104 MPI tasks x 1 OpenMP threads

Minimization stats:
  Stopping criterion = energy tolerance
  Energy initial, next-to-last, final = 
     -1152448.86618647    -1152448.867795    -1152448.867795
  Force two-norm initial, final = 0.17822904 8.9959400e-05
  Force max component initial, final = 0.14669182 1.4001992e-05
  Final line search alpha, max atom move = 1.0000000 1.4001992e-05
  Iterations, force evaluations = 200 400

MPI task timing breakdown:
Section |  min time  |  avg time  |  max time  |%varavg| %total
---------------------------------------------------------------
Pair    | 0.61016    | 1.6809     | 2.1845     |  34.8 | 72.81
Neigh   | 0          | 0          | 0          |   0.0 |  0.00
Comm    | 0.036163   | 0.37763    | 1.1495     |  51.7 | 16.36
Output  | 0          | 0          | 0          |   0.0 |  0.00
Modify  | 2.4801e-05 | 0.0032911  | 0.0070393  |   2.7 |  0.14
Other   |            | 0.2467     |            |       | 10.69

Nlocal:        2776.45 ave        3938 max           0 min
Histogram: 8 4 4 0 4 12 8 2 26 36
Nghost:        3879.10 ave        5425 max         232 min
Histogram: 8 0 8 0 16 0 8 8 16 40
Neighs:        79213.6 ave      114689 max           0 min
Histogram: 8 4 4 0 8 8 8 8 22 34

Total # of neighbors = 8238213
Ave neighs/atom = 28.530509
Neighbor list builds = 0
Dangerous builds = 0
The dot product: -1.8513127890127e-08
Setting atom values ...
  1 settings made for x
  1 settings made for y
  1 settings made for z
Setting up cg style minimization ...
  Unit style    : metal
  Current step  : 5652
Per MPI rank memory allocation (min/avg/max) = 5.441 | 5.816 | 6.074 Mbytes
Step PotEng KinEng TotEng v_fx v_fy v_fz 
    5652   -1152448.8            0   -1152448.8 -0.0031139575 -0.0051307727 -0.0072646785 
    5884   -1152448.8            0   -1152448.8 7.6641362e-07 1.635057e-06 2.1653286e-06 
Loop time of 2.67149 on 104 procs for 232 steps with 288751 atoms

99.9% CPU use with 104 MPI tasks x 1 OpenMP threads

Minimization stats:
  Stopping criterion = energy tolerance
  Energy initial, next-to-last, final = 
     -1152448.82994077  -1152448.83164082  -1152448.83164082
  Force two-norm initial, final = 0.17953011 4.1013139e-05
  Force max component initial, final = 0.14829981 2.1653286e-06
  Final line search alpha, max atom move = 1.0000000 2.1653286e-06
  Iterations, force evaluations = 232 464

MPI task timing breakdown:
Section |  min time  |  avg time  |  max time  |%varavg| %total
---------------------------------------------------------------
Pair    | 0.70236    | 1.9364     | 2.5237     |  37.5 | 72.49
Neigh   | 0          | 0          | 0          |   0.0 |  0.00
Comm    | 0.041156   | 0.43522    | 1.3184     |  55.4 | 16.29
Output  | 0          | 0          | 0          |   0.0 |  0.00
Modify  | 2.7468e-05 | 0.0038136  | 0.0081455  |   2.9 |  0.14
Other   |            | 0.296      |            |       | 11.08

Nlocal:        2776.45 ave        3938 max           0 min
Histogram: 8 4 4 0 4 12 8 2 26 36
Nghost:        3879.10 ave        5425 max         232 min
Histogram: 8 0 8 0 16 0 8 8 16 40
Neighs:        79213.6 ave      114687 max           0 min
Histogram: 8 4 4 0 8 8 8 8 22 34

Total # of neighbors = 8238216
Ave neighs/atom = 28.530519
Neighbor list builds = 0
Dangerous builds = 0
The dot product: 9.19155821976358e-09
Setting atom values ...
  1 settings made for x
  1 settings made for y
  1 settings made for z
Setting up cg style minimization ...
  Unit style    : metal
  Current step  : 5884
Per MPI rank memory allocation (min/avg/max) = 5.441 | 5.816 | 6.074 Mbytes
Step PotEng KinEng TotEng v_fx v_fy v_fz 
    5884   -1152448.8            0   -1152448.8 -0.0036719369 -0.0067899911 -0.0092197475 
    6000   -1152448.8            0   -1152448.8 2.8117246e-05 9.3668204e-05 0.00011237642 
    6082   -1152448.8            0   -1152448.8 -1.3076821e-06 -2.4274457e-06 -3.2927747e-06 
Loop time of 2.30361 on 104 procs for 198 steps with 288751 atoms

99.9% CPU use with 104 MPI tasks x 1 OpenMP threads

Minimization stats:
  Stopping criterion = energy tolerance
  Energy initial, next-to-last, final = 
     -1152448.79296748  -1152448.79459544  -1152448.79459544
  Force two-norm initial, final = 0.18011231 9.9353021e-05
  Force max component initial, final = 0.14934925 5.2989903e-06
  Final line search alpha, max atom move = 1.0000000 5.2989903e-06
  Iterations, force evaluations = 198 396

MPI task timing breakdown:
Section |  min time  |  avg time  |  max time  |%varavg| %total
---------------------------------------------------------------
Pair    | 0.60108    | 1.6678     | 2.1765     |  34.8 | 72.40
Neigh   | 0          | 0          | 0          |   0.0 |  0.00
Comm    | 0.033829   | 0.37706    | 1.1429     |  51.5 | 16.37
Output  | 0.00013898 | 0.00014549 | 0.00031081 |   0.0 |  0.01
Modify  | 2.3016e-05 | 0.0032574  | 0.0069573  |   2.7 |  0.14
Other   |            | 0.2554     |            |       | 11.09

Nlocal:        2776.45 ave        3939 max           0 min
Histogram: 8 4 4 0 4 12 8 2 26 36
Nghost:        3879.08 ave        5425 max         232 min
Histogram: 8 0 8 0 16 0 8 8 16 40
Neighs:        79213.6 ave      114740 max           0 min
Histogram: 8 4 4 0 9 7 8 8 22 34

Total # of neighbors = 8238215
Ave neighs/atom = 28.530516
Neighbor list builds = 0
Dangerous builds = 0
The dot product: -9.69018788124076e-09
Setting atom values ...
  1 settings made for x
  1 settings made for y
  1 settings made for z
Setting up cg style minimization ...
  Unit style    : metal
  Current step  : 6082
Per MPI rank memory allocation (min/avg/max) = 5.441 | 5.816 | 6.074 Mbytes
Step PotEng KinEng TotEng v_fx v_fy v_fz 
    6082   -1152448.8            0   -1152448.8 -0.0046437729 -0.0096832492  -0.01266896 
    6270   -1152448.8            0   -1152448.8 1.145541e-05 2.3634018e-05 3.1000584e-05 
Loop time of 2.16119 on 104 procs for 188 steps with 288751 atoms

99.9% CPU use with 104 MPI tasks x 1 OpenMP threads

Minimization stats:
  Stopping criterion = energy tolerance
  Energy initial, next-to-last, final = 
     -1152448.75490832  -1152448.75653493  -1152448.75653493
  Force two-norm initial, final = 0.18114939 0.00014222432
  Force max component initial, final = 0.15071104 3.4806827e-05
  Final line search alpha, max atom move = 1.0000000 3.4806827e-05
  Iterations, force evaluations = 188 376

MPI task timing breakdown:
Section |  min time  |  avg time  |  max time  |%varavg| %total
---------------------------------------------------------------
Pair    | 0.57231    | 1.5734     | 2.0478     |  33.8 | 72.80
Neigh   | 0          | 0          | 0          |   0.0 |  0.00
Comm    | 0.031854   | 0.35483    | 1.0816     |  50.2 | 16.42
Output  | 0          | 0          | 0          |   0.0 |  0.00
Modify  | 2.2016e-05 | 0.0030939  | 0.0066178  |   2.6 |  0.14
Other   |            | 0.2299     |            |       | 10.64

Nlocal:        2776.45 ave        3939 max           0 min
Histogram: 8 4 4 0 4 12 8 2 26 36
Nghost:        3879.06 ave        5424 max         232 min
Histogram: 8 0 8 0 16 0 8 8 16 40
Neighs:        79213.6 ave      114738 max           0 min
Histogram: 8 4 4 0 9 7 8 8 22 34

Total # of neighbors = 8238212
Ave neighs/atom = 28.530506
Neighbor list builds = 0
Dangerous builds = 0
The dot product: 5.49179429823678e-08
Setting atom values ...
  1 settings made for x
  1 settings made for y
  1 settings made for z
Setting up cg style minimization ...
  Unit style    : metal
  Current step  : 6270
Per MPI rank memory allocation (min/avg/max) = 5.441 | 5.816 | 6.074 Mbytes
Step PotEng KinEng TotEng v_fx v_fy v_fz 
    6270   -1152448.7            0   -1152448.7 -0.0052667325 -0.012539786 -0.015852044 
    6435   -1152448.7            0   -1152448.7 -6.7851727e-06 -2.1285254e-05 -2.5501643e-05 
Loop time of 1.9103 on 104 procs for 165 steps with 288751 atoms

99.9% CPU use with 104 MPI tasks x 1 OpenMP threads

Minimization stats:
  Stopping criterion = energy tolerance
  Energy initial, next-to-last, final = 
     -1152448.71589949  -1152448.71766878  -1152448.71766878
  Force two-norm initial, final = 0.18169245 0.00013400748
  Force max component initial, final = 0.15183258 2.6716409e-05
  Final line search alpha, max atom move = 1.0000000 2.6716409e-05
  Iterations, force evaluations = 165 330

MPI task timing breakdown:
Section |  min time  |  avg time  |  max time  |%varavg| %total
---------------------------------------------------------------
Pair    | 0.50367    | 1.3903     | 1.8072     |  31.7 | 72.78
Neigh   | 0          | 0          | 0          |   0.0 |  0.00
Comm    | 0.027602   | 0.31273    | 0.95732    |  47.2 | 16.37
Output  | 0          | 0          | 0          |   0.0 |  0.00
Modify  | 1.9614e-05 | 0.0027145  | 0.0058067  |   2.5 |  0.14
Other   |            | 0.2045     |            |       | 10.71

Nlocal:        2776.45 ave        3939 max           0 min
Histogram: 8 4 4 0 4 12 8 2 26 36
Nghost:        3879.07 ave        5424 max         232 min
Histogram: 8 0 8 0 16 0 8 8 16 40
Neighs:        79213.6 ave      114738 max           0 min
Histogram: 8 4 4 0 9 7 8 8 22 34

Total # of neighbors = 8238212
Ave neighs/atom = 28.530506
Neighbor list builds = 0
Dangerous builds = 0
The dot product: -3.28048730766083e-08
Setting atom values ...
  1 settings made for x
  1 settings made for y
  1 settings made for z
Setting up cg style minimization ...
  Unit style    : metal
  Current step  : 6435
Per MPI rank memory allocation (min/avg/max) = 5.441 | 5.816 | 6.074 Mbytes
Step PotEng KinEng TotEng v_fx v_fy v_fz 
    6435   -1152448.7            0   -1152448.7 -0.0056475272 -0.014605812 -0.018095998 
    6618   -1152448.7            0   -1152448.7 -5.5729189e-06 -2.5798747e-05 -2.9090604e-05 
Loop time of 2.12962 on 104 procs for 183 steps with 288751 atoms

99.9% CPU use with 104 MPI tasks x 1 OpenMP threads

Minimization stats:
  Stopping criterion = energy tolerance
  Energy initial, next-to-last, final = 
     -1152448.67654267  -1152448.67828169  -1152448.67828169
  Force two-norm initial, final = 0.18067732 0.00017298843
  Force max component initial, final = 0.15192505 4.2760108e-05
  Final line search alpha, max atom move = 1.0000000 4.2760108e-05
  Iterations, force evaluations = 183 366

MPI task timing breakdown:
Section |  min time  |  avg time  |  max time  |%varavg| %total
---------------------------------------------------------------
Pair    | 0.5634     | 1.5393     | 2.006      |  33.3 | 72.28
Neigh   | 0          | 0          | 0          |   0.0 |  0.00
Comm    | 0.031922   | 0.34664    | 1.048      |  49.3 | 16.28
Output  | 0          | 0          | 0          |   0.0 |  0.00
Modify  | 2.1873e-05 | 0.0030058  | 0.0064479  |   2.6 |  0.14
Other   |            | 0.2407     |            |       | 11.30

Nlocal:        2776.45 ave        3940 max           0 min
Histogram: 8 4 4 0 4 12 8 2 26 36
Nghost:        3879.09 ave        5424 max         232 min
Histogram: 8 0 8 0 16 0 8 8 16 40
Neighs:        79213.5 ave      114770 max           0 min
Histogram: 8 4 4 0 10 6 8 8 22 34

Total # of neighbors = 8238205
Ave neighs/atom = 28.530481
Neighbor list builds = 0
Dangerous builds = 0
The dot product: 4.40169427220072e-10
Setting atom values ...
  1 settings made for x
  1 settings made for y
  1 settings made for z
Setting up cg style minimization ...
  Unit style    : metal
  Current step  : 6618
Per MPI rank memory allocation (min/avg/max) = 5.441 | 5.816 | 6.074 Mbytes
Step PotEng KinEng TotEng v_fx v_fy v_fz 
    6618   -1152448.6            0   -1152448.6 -0.0058854553  -0.01757186 -0.021183375 
    6911   -1152448.6            0   -1152448.6 -4.3739769e-06 -6.9837934e-06 -9.7519937e-06 
Loop time of 3.40497 on 104 procs for 293 steps with 288751 atoms

99.9% CPU use with 104 MPI tasks x 1 OpenMP threads

Minimization stats:
  Stopping criterion = energy tolerance
  Energy initial, next-to-last, final = 
     -1152448.63678677  -1152448.63873968  -1152448.63873968
  Force two-norm initial, final = 0.17980048 7.7501269e-05
  Force max component initial, final = 0.15181683 1.1723657e-05
  Final line search alpha, max atom move = 1.0000000 1.1723657e-05
  Iterations, force evaluations = 293 586

MPI task timing breakdown:
Section |  min time  |  avg time  |  max time  |%varavg| %total
---------------------------------------------------------------
Pair    | 0.8895     | 2.4608     | 3.2132     |  42.3 | 72.27
Neigh   | 0          | 0          | 0          |   0.0 |  0.00
Comm    | 0.054392   | 0.56024    | 1.728      |  62.3 | 16.45
Output  | 0          | 0          | 0          |   0.0 |  0.00
Modify  | 3.4245e-05 | 0.0048135  | 0.010252   |   3.3 |  0.14
Other   |            | 0.3791     |            |       | 11.13

Nlocal:        2776.45 ave        3940 max           0 min
Histogram: 8 4 4 0 4 12 8 2 26 36
Nghost:        3879.09 ave        5424 max         232 min
Histogram: 8 0 8 0 16 0 8 8 16 40
Neighs:        79213.5 ave      114767 max           0 min
Histogram: 8 4 4 0 10 6 8 8 22 34

Total # of neighbors = 8238200
Ave neighs/atom = 28.530464
Neighbor list builds = 0
Dangerous builds = 0
The dot product: 9.82657924526459e-09
Setting atom values ...
  1 settings made for x
  1 settings made for y
  1 settings made for z
Setting up cg style minimization ...
  Unit style    : metal
  Current step  : 6911
Per MPI rank memory allocation (min/avg/max) = 5.441 | 5.816 | 6.074 Mbytes
Step PotEng KinEng TotEng v_fx v_fy v_fz 
    6911   -1152448.6            0   -1152448.6 -0.0090958924 -0.018820652 -0.024562558 
    7000   -1152448.6            0   -1152448.6 2.3055638e-05 8.8093355e-05 0.00010210406 
    7106   -1152448.6            0   -1152448.6 -1.1334277e-05 -3.0762015e-05 -3.7818567e-05 
Loop time of 2.2454 on 104 procs for 195 steps with 288751 atoms

99.9% CPU use with 104 MPI tasks x 1 OpenMP threads

Minimization stats:
  Stopping criterion = energy tolerance
  Energy initial, next-to-last, final = 
      -1152448.5979194  -1152448.60003862  -1152448.60003862
  Force two-norm initial, final = 0.17780607 0.00018222559
  Force max component initial, final = 0.14939349 3.7818567e-05
  Final line search alpha, max atom move = 1.0000000 3.7818567e-05
  Iterations, force evaluations = 195 390

MPI task timing breakdown:
Section |  min time  |  avg time  |  max time  |%varavg| %total
---------------------------------------------------------------
Pair    | 0.59123    | 1.6334     | 2.1289     |  34.5 | 72.75
Neigh   | 0          | 0          | 0          |   0.0 |  0.00
Comm    | 0.03474    | 0.36708    | 1.1182     |  51.2 | 16.35
Output  | 0.00010843 | 0.00011924 | 0.00027444 |   0.0 |  0.01
Modify  | 2.2893e-05 | 0.0032076  | 0.0068912  |   2.7 |  0.14
Other   |            | 0.2415     |            |       | 10.76

Nlocal:        2776.45 ave        3941 max           0 min
Histogram: 8 4 4 0 4 12 8 2 26 36
Nghost:        3879.09 ave        5424 max         232 min
Histogram: 8 0 8 0 16 0 8 8 16 40
Neighs:        79213.5 ave      114789 max           0 min
Histogram: 8 4 4 0 10 6 8 8 22 34

Total # of neighbors = 8238205
Ave neighs/atom = 28.530481
Neighbor list builds = 0
Dangerous builds = 0
The dot product: 2.45440428494417e-08
Setting atom values ...
  1 settings made for x
  1 settings made for y
  1 settings made for z
Setting up cg style minimization ...
  Unit style    : metal
  Current step  : 7106
Per MPI rank memory allocation (min/avg/max) = 5.441 | 5.816 | 6.074 Mbytes
Step PotEng KinEng TotEng v_fx v_fy v_fz 
    7106   -1152448.6            0   -1152448.6 -0.011457181 -0.019007639 -0.026354584 
    7394   -1152448.6            0   -1152448.6 -1.0116901e-07 8.7011045e-08 1.8703157e-08 
Loop time of 3.33348 on 104 procs for 288 steps with 288751 atoms

99.9% CPU use with 104 MPI tasks x 1 OpenMP threads

Minimization stats:
  Stopping criterion = energy tolerance
  Energy initial, next-to-last, final = 
     -1152448.56072759  -1152448.57174832  -1152448.57174832
  Force two-norm initial, final = 0.18340349 1.5663962e-05
  Force max component initial, final = 0.14684382 3.1675628e-07
  Final line search alpha, max atom move = 1.0000000 3.1675628e-07
  Iterations, force evaluations = 288 576

MPI task timing breakdown:
Section |  min time  |  avg time  |  max time  |%varavg| %total
---------------------------------------------------------------
Pair    | 0.88226    | 2.4237     | 3.1505     |  41.7 | 72.71
Neigh   | 1.0205e-05 | 0.0029595  | 0.0042905  |   2.2 |  0.09
Comm    | 0.050028   | 0.54353    | 1.6448     |  62.2 | 16.31
Output  | 0          | 0          | 0          |   0.0 |  0.00
Modify  | 3.3334e-05 | 0.004738   | 0.010131   |   3.3 |  0.14
Other   |            | 0.3586     |            |       | 10.76

Nlocal:        2776.45 ave        3941 max           0 min
Histogram: 8 4 4 0 4 12 8 2 26 36
Nghost:        3879.05 ave        5424 max         232 min
Histogram: 8 0 8 0 16 0 8 8 16 40
Neighs:        79213.4 ave      114784 max           0 min
Histogram: 8 4 4 0 10 6 8 8 22 34

Total # of neighbors = 8238194
Ave neighs/atom = 28.530443
Neighbor list builds = 1
Dangerous builds = 0
The dot product: 7.67518029754007e-10
Setting atom values ...
  1 settings made for x
  1 settings made for y
  1 settings made for z
Setting up cg style minimization ...
  Unit style    : metal
  Current step  : 7394
Per MPI rank memory allocation (min/avg/max) = 5.441 | 5.816 | 6.074 Mbytes
Step PotEng KinEng TotEng v_fx v_fy v_fz 
    7394   -1152448.5            0   -1152448.5 -0.0056695375 -0.013070888 -0.016051377 
    7595   -1152448.5            0   -1152448.5 8.2093128e-06 1.8988615e-05 2.330103e-05 
[...]

Nlocal:        2776.45 ave        3961 max           0 min
Histogram: 8 4 4 0 6 10 8 2 28 34
Nghost:        3879.03 ave        5426 max         232 min
Histogram: 8 0 8 0 16 0 8 8 16 40
Neighs:        79213.4 ave      115455 max           0 min
Histogram: 8 4 4 0 10 6 8 8 24 32

Total # of neighbors = 8238193
Ave neighs/atom = 28.530440
Neighbor list builds = 0
Dangerous builds = 0
The dot product: -2.24241118675844e-10
Setting atom values ...
  1 settings made for x
  1 settings made for y
  1 settings made for z
Setting up cg style minimization ...
  Unit style    : metal
  Current step  : 3379
Per MPI rank memory allocation (min/avg/max) = 5.441 | 5.816 | 6.074 Mbytes
Step PotEng KinEng TotEng v_fx v_fy v_fz 
    3379   -1152449.4            0   -1152449.4 -0.010681517 0.0054569368  0.020301782 
    3541   -1152449.4            0   -1152449.4 -5.7964863e-06 1.7452089e-05 2.4437172e-05 
Loop time of 1.87289 on 104 procs for 162 steps with 288751 atoms

99.9% CPU use with 104 MPI tasks x 1 OpenMP threads

Minimization stats:
  Stopping criterion = energy tolerance
  Energy initial, next-to-last, final = 
     -1152449.35063225  -1152449.35153401  -1152449.35153401
  Force two-norm initial, final = 0.12555171 0.00023329753
  Force max component initial, final = 0.047037352 2.4437172e-05
  Final line search alpha, max atom move = 1.0000000 2.4437172e-05
  Iterations, force evaluations = 162 324

MPI task timing breakdown:
Section |  min time  |  avg time  |  max time  |%varavg| %total
---------------------------------------------------------------
Pair    | 0.49166    | 1.3603     | 1.7591     |  31.5 | 72.63
Neigh   | 0          | 0          | 0          |   0.0 |  0.00
Comm    | 0.031832   | 0.30582    | 0.9348     |  46.7 | 16.33
Output  | 0          | 0          | 0          |   0.0 |  0.00
Modify  | 1.955e-05  | 0.0026672  | 0.0057042  |   2.4 |  0.14
Other   |            | 0.2041     |            |       | 10.90

Nlocal:        2776.45 ave        3961 max           0 min
Histogram: 8 4 4 0 6 10 8 2 28 34
Nghost:        3879.05 ave        5424 max         232 min
Histogram: 8 0 8 0 16 0 8 8 16 40
Neighs:        79213.4 ave      115455 max           0 min
Histogram: 8 4 4 0 10 6 8 8 24 32

Total # of neighbors = 8238189
Ave neighs/atom = 28.530426
Neighbor list builds = 0
Dangerous builds = 0
The dot product: 1.27113471985145e-08
Setting atom values ...
  1 settings made for x
  1 settings made for y
  1 settings made for z
Setting up cg style minimization ...
  Unit style    : metal
  Current step  : 3541
Per MPI rank memory allocation (min/avg/max) = 5.441 | 5.816 | 6.074 Mbytes
Step PotEng KinEng TotEng v_fx v_fy v_fz 
    3541   -1152449.4            0   -1152449.4 -0.010400792 0.0048999381  0.019449514 
    3729   -1152449.4            0   -1152449.4 3.931106e-07 1.2986383e-05  1.14918e-05 
Loop time of 2.14989 on 104 procs for 188 steps with 288751 atoms

99.9% CPU use with 104 MPI tasks x 1 OpenMP threads

Minimization stats:
  Stopping criterion = energy tolerance
  Energy initial, next-to-last, final = 
     -1152449.35029317  -1152449.35118807  -1152449.35118807
  Force two-norm initial, final = 0.12512314 0.00010164657
  Force max component initial, final = 0.046439995 2.3332209e-05
  Final line search alpha, max atom move = 1.0000000 2.3332209e-05
  Iterations, force evaluations = 188 376

MPI task timing breakdown:
Section |  min time  |  avg time  |  max time  |%varavg| %total
---------------------------------------------------------------
Pair    | 0.57078    | 1.5731     | 2.0362     |  33.8 | 73.17
Neigh   | 0          | 0          | 0          |   0.0 |  0.00
Comm    | 0.033073   | 0.35039    | 1.0686     |  50.6 | 16.30
Output  | 0          | 0          | 0          |   0.0 |  0.00
Modify  | 2.2108e-05 | 0.0030938  | 0.0066488  |   2.6 |  0.14
Other   |            | 0.2233     |            |       | 10.39

Nlocal:        2776.45 ave        3961 max           0 min
Histogram: 8 4 4 0 6 10 8 2 28 34
Nghost:        3879.01 ave        5424 max         232 min
Histogram: 8 0 8 0 16 0 8 8 16 40
Neighs:        79213.4 ave      115455 max           0 min
Histogram: 8 4 4 0 10 6 8 8 24 32

Total # of neighbors = 8238191
Ave neighs/atom = 28.530433
Neighbor list builds = 0
Dangerous builds = 0
The dot product: 3.96443374798931e-09
Setting atom values ...
  1 settings made for x
  1 settings made for y
  1 settings made for z
Setting up cg style minimization ...
  Unit style    : metal
  Current step  : 3729
Per MPI rank memory allocation (min/avg/max) = 5.441 | 5.816 | 6.074 Mbytes
Step PotEng KinEng TotEng v_fx v_fy v_fz 
    3729   -1152449.3            0   -1152449.3 -0.0098284587 0.0041574148  0.017995449 
    3920   -1152449.3            0   -1152449.3 -6.203305e-07 -1.4850378e-05 -1.2918721e-05 
Loop time of 2.19707 on 104 procs for 191 steps with 288751 atoms

99.9% CPU use with 104 MPI tasks x 1 OpenMP threads

Minimization stats:
  Stopping criterion = energy tolerance
  Energy initial, next-to-last, final = 
     -1152449.34860998  -1152449.34949248  -1152449.34949248
  Force two-norm initial, final = 0.1241958 9.4177571e-05
  Force max component initial, final = 0.046043363 1.5755883e-05
  Final line search alpha, max atom move = 1.0000000 1.5755883e-05
  Iterations, force evaluations = 191 382

MPI task timing breakdown:
Section |  min time  |  avg time  |  max time  |%varavg| %total
---------------------------------------------------------------
Pair    | 0.58144    | 1.6015     | 2.0685     |  34.0 | 72.89
Neigh   | 0          | 0          | 0          |   0.0 |  0.00
Comm    | 0.038877   | 0.35684    | 1.0793     |  50.7 | 16.24
Output  | 0          | 0          | 0          |   0.0 |  0.00
Modify  | 2.3776e-05 | 0.003143   | 0.0067176  |   2.7 |  0.14
Other   |            | 0.2356     |            |       | 10.72

Nlocal:        2776.45 ave        3960 max           0 min
Histogram: 8 4 4 0 4 12 8 2 28 34
Nghost:        3879.01 ave        5424 max         232 min
Histogram: 8 0 8 0 16 0 8 8 16 40
Neighs:        79213.4 ave      115432 max           0 min
Histogram: 8 4 4 0 10 6 8 8 24 32

Total # of neighbors = 8238191
Ave neighs/atom = 28.530433
Neighbor list builds = 0
Dangerous builds = 0
The dot product: -3.51215561292553e-09
Setting atom values ...
  1 settings made for x
  1 settings made for y
  1 settings made for z
Setting up cg style minimization ...
  Unit style    : metal
  Current step  : 3920
Per MPI rank memory allocation (min/avg/max) = 5.441 | 5.816 | 6.074 Mbytes
Step PotEng KinEng TotEng v_fx v_fy v_fz 
    3920   -1152449.3            0   -1152449.3 -0.009024852 0.0034928938    0.0162679 
    4000   -1152449.3            0   -1152449.3 -2.6980351e-05 0.00014932402 0.00017797571 
    4082   -1152449.3            0   -1152449.3 3.0275263e-05  -3.5582e-05 -7.6798448e-05 
Loop time of 1.85389 on 104 procs for 162 steps with 288751 atoms

99.9% CPU use with 104 MPI tasks x 1 OpenMP threads

Minimization stats:
  Stopping criterion = energy tolerance
  Energy initial, next-to-last, final = 
     -1152449.34557159  -1152449.34643995  -1152449.34643995
  Force two-norm initial, final = 0.12319139 0.00026179017
  Force max component initial, final = 0.045963403 7.6798448e-05
  Final line search alpha, max atom move = 1.0000000 7.6798448e-05
  Iterations, force evaluations = 162 324

MPI task timing breakdown:
Section |  min time  |  avg time  |  max time  |%varavg| %total
---------------------------------------------------------------
Pair    | 0.493      | 1.3578     | 1.7563     |  31.4 | 73.24
Neigh   | 0          | 0          | 0          |   0.0 |  0.00
Comm    | 0.027821   | 0.30277    | 0.92303    |  47.1 | 16.33
Output  | 0.00014578 | 0.00015622 | 0.00031208 |   0.0 |  0.01
Modify  | 1.9621e-05 | 0.0026672  | 0.0057208  |   2.4 |  0.14
Other   |            | 0.1905     |            |       | 10.27

Nlocal:        2776.45 ave        3960 max           0 min
Histogram: 8 4 4 0 4 12 8 2 28 34
Nghost:        3879.01 ave        5424 max         232 min
Histogram: 8 0 8 0 16 0 8 8 16 40
Neighs:        79213.4 ave      115432 max           0 min
Histogram: 8 4 4 0 10 6 8 8 24 32

Total # of neighbors = 8238190
Ave neighs/atom = 28.530429
Neighbor list builds = 0
Dangerous builds = 0
The dot product: -3.52365932608338e-08
Setting atom values ...
  1 settings made for x
  1 settings made for y
  1 settings made for z
Setting up cg style minimization ...
  Unit style    : metal
  Current step  : 4082
Per MPI rank memory allocation (min/avg/max) = 5.441 | 5.816 | 6.074 Mbytes
Step PotEng KinEng TotEng v_fx v_fy v_fz 
    4082   -1152449.3            0   -1152449.3 -0.0080149772 0.0030986474   0.01448046 
    4284   -1152449.3            0   -1152449.3 -2.5652286e-06 1.8907317e-06 5.4727693e-06 
Loop time of 2.31534 on 104 procs for 202 steps with 288751 atoms

99.9% CPU use with 104 MPI tasks x 1 OpenMP threads

Minimization stats:
  Stopping criterion = energy tolerance
  Energy initial, next-to-last, final = 
     -1152449.34116912    -1152449.342025    -1152449.342025
  Force two-norm initial, final = 0.12236167 7.4945410e-05
  Force max component initial, final = 0.045944938 1.1160225e-05
  Final line search alpha, max atom move = 1.0000000 1.1160225e-05
  Iterations, force evaluations = 202 404

MPI task timing breakdown:
Section |  min time  |  avg time  |  max time  |%varavg| %total
---------------------------------------------------------------
Pair    | 0.61486    | 1.6913     | 2.194      |  35.1 | 73.05
Neigh   | 0          | 0          | 0          |   0.0 |  0.00
Comm    | 0.035441   | 0.3786     | 1.1445     |  52.3 | 16.35
Output  | 0          | 0          | 0          |   0.0 |  0.00
Modify  | 2.4233e-05 | 0.0033223  | 0.0070867  |   2.7 |  0.14
Other   |            | 0.2421     |            |       | 10.46

Nlocal:        2776.45 ave        3960 max           0 min
Histogram: 8 4 4 0 4 12 8 2 28 34
Nghost:        3879.01 ave        5424 max         232 min
Histogram: 8 0 8 0 16 0 8 8 16 40
Neighs:        79213.4 ave      115432 max           0 min
Histogram: 8 4 4 0 10 6 8 8 24 32

Total # of neighbors = 8238190
Ave neighs/atom = 28.530429
Neighbor list builds = 0
Dangerous builds = 0
The dot product: 2.17723462784767e-09
Setting atom values ...
  1 settings made for x
  1 settings made for y
  1 settings made for z
Setting up cg style minimization ...
  Unit style    : metal
  Current step  : 4284
Per MPI rank memory allocation (min/avg/max) = 5.441 | 5.816 | 6.074 Mbytes
Step PotEng KinEng TotEng v_fx v_fy v_fz 
    4284   -1152449.3            0   -1152449.3 -0.0069098858  0.003101563  0.012909377 
    4429   -1152449.3            0   -1152449.3 -3.4686744e-05 5.2345084e-05 9.9121677e-05 
Loop time of 1.6699 on 104 procs for 145 steps with 288751 atoms

99.9% CPU use with 104 MPI tasks x 1 OpenMP threads

Minimization stats:
  Stopping criterion = energy tolerance
  Energy initial, next-to-last, final = 
     -1152449.33538796  -1152449.33623639  -1152449.33623639
  Force two-norm initial, final = 0.12194542 0.00032860899
  Force max component initial, final = 0.045752095 9.9121677e-05
  Final line search alpha, max atom move = 1.0000000 9.9121677e-05
  Iterations, force evaluations = 145 290

MPI task timing breakdown:
Section |  min time  |  avg time  |  max time  |%varavg| %total
---------------------------------------------------------------
Pair    | 0.43977    | 1.2149     | 1.5738     |  29.8 | 72.75
Neigh   | 0          | 0          | 0          |   0.0 |  0.00
Comm    | 0.026609   | 0.27153    | 0.82456    |  44.2 | 16.26
Output  | 0          | 0          | 0          |   0.0 |  0.00
Modify  | 1.7274e-05 | 0.0023933  | 0.0051264  |   2.3 |  0.14
Other   |            | 0.181      |            |       | 10.84

Nlocal:        2776.45 ave        3960 max           0 min
Histogram: 8 4 4 0 4 12 8 2 28 34
Nghost:        3879.09 ave        5424 max         232 min
Histogram: 8 0 8 0 16 0 8 8 16 40
Neighs:        79213.4 ave      115432 max           0 min
Histogram: 8 4 4 0 10 6 8 8 24 32

Total # of neighbors = 8238192
Ave neighs/atom = 28.530436
Neighbor list builds = 0
Dangerous builds = 0
The dot product: 3.61171040074206e-08
Setting atom values ...
  1 settings made for x
  1 settings made for y
  1 settings made for z
Setting up cg style minimization ...
  Unit style    : metal
  Current step  : 4429
Per MPI rank memory allocation (min/avg/max) = 5.441 | 5.816 | 6.074 Mbytes
Step PotEng KinEng TotEng v_fx v_fy v_fz 
    4429   -1152449.3            0   -1152449.3 -0.005677381 0.0034953061  0.011510506 
    4607   -1152449.3            0   -1152449.3 -9.1781406e-06 -4.9987019e-05 -3.3366295e-05 
Loop time of 2.03968 on 104 procs for 178 steps with 288751 atoms

99.9% CPU use with 104 MPI tasks x 1 OpenMP threads

Minimization stats:
  Stopping criterion = energy tolerance
  Energy initial, next-to-last, final = 
     -1152449.32820808  -1152449.32905509  -1152449.32905509
  Force two-norm initial, final = 0.1219012 0.00014792772
  Force max component initial, final = 0.04560362 4.9987019e-05
  Final line search alpha, max atom move = 1.0000000 4.9987019e-05
  Iterations, force evaluations = 178 356

MPI task timing breakdown:
Section |  min time  |  avg time  |  max time  |%varavg| %total
---------------------------------------------------------------
Pair    | 0.539      | 1.4922     | 1.9308     |  33.1 | 73.16
Neigh   | 0          | 0          | 0          |   0.0 |  0.00
Comm    | 0.030422   | 0.33524    | 1.0178     |  49.1 | 16.44
Output  | 0          | 0          | 0          |   0.0 |  0.00
Modify  | 2.1223e-05 | 0.0029265  | 0.0062734  |   2.6 |  0.14
Other   |            | 0.2093     |            |       | 10.26

Nlocal:        2776.45 ave        3960 max           0 min
Histogram: 8 4 4 0 4 12 8 2 28 34
Nghost:        3879.09 ave        5424 max         232 min
Histogram: 8 0 8 0 16 0 8 8 16 40
Neighs:        79213.4 ave      115432 max           0 min
Histogram: 8 4 4 0 10 6 8 8 24 32

Total # of neighbors = 8238189
Ave neighs/atom = 28.530426
Neighbor list builds = 0
Dangerous builds = 0
The dot product: -6.34525544548405e-09
Setting atom values ...
  1 settings made for x
  1 settings made for y
  1 settings made for z
Setting up cg style minimization ...
  Unit style    : metal
  Current step  : 4607
Per MPI rank memory allocation (min/avg/max) = 5.441 | 5.816 | 6.074 Mbytes
Step PotEng KinEng TotEng v_fx v_fy v_fz 
    4607   -1152449.3            0   -1152449.3 -0.0042625517 0.0041203759  0.010052142 
    4865   -1152449.3            0   -1152449.3 2.6843969e-07 -1.1708574e-06 -1.4852287e-06 
Loop time of 2.98536 on 104 procs for 258 steps with 288751 atoms

99.9% CPU use with 104 MPI tasks x 1 OpenMP threads

Minimization stats:
  Stopping criterion = energy tolerance
  Energy initial, next-to-last, final = 
     -1152449.31960167  -1152449.32045185  -1152449.32045185
  Force two-norm initial, final = 0.12214255 4.8805050e-06
  Force max component initial, final = 0.045567905 1.4852287e-06
  Final line search alpha, max atom move = 1.0000000 1.4852287e-06
  Iterations, force evaluations = 258 516

MPI task timing breakdown:
Section |  min time  |  avg time  |  max time  |%varavg| %total
---------------------------------------------------------------
Pair    | 0.78857    | 2.1637     | 2.7906     |  39.4 | 72.48
Neigh   | 0          | 0          | 0          |   0.0 |  0.00
Comm    | 0.054151   | 0.48584    | 1.4824     |  58.9 | 16.27
Output  | 0          | 0          | 0          |   0.0 |  0.00
Modify  | 3.0384e-05 | 0.0042452  | 0.009074   |   3.1 |  0.14
Other   |            | 0.3316     |            |       | 11.11

Nlocal:        2776.45 ave        3960 max           0 min
Histogram: 8 4 4 0 4 12 8 2 28 34
Nghost:        3879.05 ave        5424 max         232 min
Histogram: 8 0 8 0 16 0 8 8 16 40
Neighs:        79213.3 ave      115432 max           0 min
Histogram: 8 4 4 0 10 6 8 8 24 32

Total # of neighbors = 8238188
Ave neighs/atom = 28.530422
Neighbor list builds = 0
Dangerous builds = 0
The dot product: -4.50459691568472e-10
Setting atom values ...
  1 settings made for x
  1 settings made for y
  1 settings made for z
Setting up cg style minimization ...
  Unit style    : metal
  Current step  : 4865
Per MPI rank memory allocation (min/avg/max) = 5.441 | 5.816 | 6.074 Mbytes
Step PotEng KinEng TotEng v_fx v_fy v_fz 
    4865   -1152449.3            0   -1152449.3 -0.0027910434 0.0052689749 0.0089965018 
    5000   -1152449.3            0   -1152449.3 2.543084e-05 -6.2938848e-05 -9.5949829e-05 
    5118   -1152449.3            0   -1152449.3 -3.8750126e-07 -4.9383211e-07 1.0188027e-07 
Loop time of 2.88976 on 104 procs for 253 steps with 288751 atoms

99.9% CPU use with 104 MPI tasks x 1 OpenMP threads

Minimization stats:
  Stopping criterion = energy tolerance
  Energy initial, next-to-last, final = 
     -1152449.30953539  -1152449.31039246  -1152449.31039246
  Force two-norm initial, final = 0.12269909 6.3138811e-06
  Force max component initial, final = 0.045433335 1.5730840e-06
  Final line search alpha, max atom move = 1.0000000 1.5730840e-06
  Iterations, force evaluations = 253 506

MPI task timing breakdown:
Section |  min time  |  avg time  |  max time  |%varavg| %total
---------------------------------------------------------------
Pair    | 0.76605    | 2.1179     | 2.7363     |  39.3 | 73.29
Neigh   | 0          | 0          | 0          |   0.0 |  0.00
Comm    | 0.045408   | 0.47349    | 1.4383     |  58.5 | 16.39
Output  | 0.00013057 | 0.00013357 | 0.00032923 |   0.0 |  0.00
Modify  | 3.033e-05  | 0.0041662  | 0.0089354  |   3.0 |  0.14
Other   |            | 0.2941     |            |       | 10.18

Nlocal:        2776.45 ave        3960 max           0 min
Histogram: 8 4 4 0 4 12 8 2 28 34
Nghost:        3879.05 ave        5424 max         232 min
Histogram: 8 0 8 0 16 0 8 8 16 40
Neighs:        79213.4 ave      115432 max           0 min
Histogram: 8 4 4 0 10 6 8 8 24 32

Total # of neighbors = 8238189
Ave neighs/atom = 28.530426
Neighbor list builds = 0
Dangerous builds = 0
The dot product: -6.60038750415869e-11
Setting up cg style minimization ...
  Unit style    : metal
  Current step  : 5118
Per MPI rank memory allocation (min/avg/max) = 5.441 | 5.816 | 6.074 Mbytes
Step PotEng KinEng TotEng v_fx v_fy v_fz 
    5118   -1152449.3            0   -1152449.3   0.39324383  -0.25285199   0.27008617 
    5347   -1152449.4            0   -1152449.4 1.8706009e-05 1.7396322e-06 -3.7340327e-05 
Loop time of 2.62458 on 104 procs for 229 steps with 288751 atoms

99.9% CPU use with 104 MPI tasks x 1 OpenMP threads

Minimization stats:
  Stopping criterion = energy tolerance
  Energy initial, next-to-last, final = 
     -1152449.31039246  -1152449.35157313  -1152449.35157313
  Force two-norm initial, final = 0.5399272 0.00016025192
  Force max component initial, final = 0.39324383 3.7340327e-05
  Final line search alpha, max atom move = 1.0000000 3.7340327e-05
  Iterations, force evaluations = 229 458

MPI task timing breakdown:
Section |  min time  |  avg time  |  max time  |%varavg| %total
---------------------------------------------------------------
Pair    | 0.69819    | 1.9191     | 2.4834     |  37.4 | 73.12
Neigh   | 1.0188e-05 | 0.0029601  | 0.0042961  |   2.2 |  0.11
Comm    | 0.040521   | 0.42781    | 1.3016     |  55.7 | 16.30
Output  | 0          | 0          | 0          |   0.0 |  0.00
Modify  | 2.5951e-05 | 0.0024526  | 0.0063269  |   3.1 |  0.09
Other   |            | 0.2723     |            |       | 10.37

Nlocal:        2776.45 ave        3960 max           0 min
Histogram: 8 4 4 0 4 12 8 2 28 34
Nghost:        3879.11 ave        5425 max         232 min
Histogram: 8 0 8 0 16 0 8 8 16 40
Neighs:        79213.4 ave      115422 max           0 min
Histogram: 8 4 4 0 10 6 8 8 24 32

Total # of neighbors = 8238192
Ave neighs/atom = 28.530436
Neighbor list builds = 1
Dangerous builds = 0
