LAMMPS (29 Oct 2020)
OMP_NUM_THREADS environment is not set. Defaulting to 1 thread. (../comm.cpp:94)
  using 1 OpenMP thread(s) per MPI task
OMP_NUM_THREADS environment is not set. Defaulting to 1 thread. (../comm.cpp:94)
  using 1 OpenMP thread(s) per MPI task
Reading data file ...
  orthogonal box = (-122.39241 -121.13707 -37.090501) to (122.39241 121.13707 37.090501)
  13 by 4 by 2 MPI processor grid
  reading atoms ...
  288751 atoms
  read_data CPU = 0.393 seconds
199981 atoms in group inner
88770 atoms in group outer
1 atoms in group carbon
Neighbor list info ...
  update every 1 steps, delay 0 steps, check yes
  max neighbors/atom: 2000, page size: 100000
  master list distance cutoff = 5.6
  ghost atom cutoff = 5.6
  binsize = 2.8, bins = 88 87 27
  1 neighbor lists, perpetual/occasional/extra = 1 0 0
  (1) pair eam/alloy, perpetual
      attributes: half, newton on
      pair build: half/bin/atomonly/newton
      stencil: half/bin/3d/newton
      bin: standard
Setting up cg style minimization ...
  Unit style    : metal
  Current step  : 0
Per MPI rank memory allocation (min/avg/max) = 5.441 | 5.816 | 6.074 Mbytes
Step v_fx v_fy v_fz PotEng KinEng TotEng 
       0    12.585061    22.666174    13.181776   -1152441.8            0   -1152441.8 
     219 1.7603367e-05 3.8128962e-05 4.8561171e-05     -1152449            0     -1152449 
Loop time of 2.6467 on 104 procs for 219 steps with 288751 atoms

99.8% CPU use with 104 MPI tasks x 1 OpenMP threads

Minimization stats:
  Stopping criterion = energy tolerance
  Energy initial, next-to-last, final = 
     -1152441.79648195   -1152448.9721878   -1152448.9721878
  Force two-norm initial, final = 47.391371 0.00023110492
  Force max component initial, final = 28.717760 5.3252410e-05
  Final line search alpha, max atom move = 1.0000000 5.3252410e-05
  Iterations, force evaluations = 219 435

MPI task timing breakdown:
Section |  min time  |  avg time  |  max time  |%varavg| %total
---------------------------------------------------------------
Pair    | 0.69739    | 1.8446     | 2.3969     |  35.8 | 69.70
Neigh   | 9.3942e-05 | 0.026271   | 0.038086   |   6.7 |  0.99
Comm    | 0.041737   | 0.42779    | 1.2461     |  52.2 | 16.16
Output  | 0          | 0          | 0          |   0.0 |  0.00
Modify  | 2.536e-05  | 0.002363   | 0.0059806  |   3.0 |  0.09
Other   |            | 0.3457     |            |       | 13.06

Nlocal:        2776.45 ave        3960 max           0 min
Histogram: 8 4 4 0 4 12 8 2 28 34
Nghost:        3879.06 ave        5424 max         232 min
Histogram: 8 0 8 0 16 0 8 8 16 40
Neighs:        79213.7 ave      115427 max           0 min
Histogram: 8 4 4 0 10 6 8 8 24 32

Total # of neighbors = 8238221
Ave neighs/atom = 28.530537
Neighbor list builds = 9
Dangerous builds = 1
Setting atom values ...
  1 settings made for x
  1 settings made for y
  1 settings made for z
Setting up cg style minimization ...
  Unit style    : metal
  Current step  : 219
Per MPI rank memory allocation (min/avg/max) = 5.441 | 5.816 | 6.074 Mbytes
Step PotEng KinEng TotEng v_fx v_fy v_fz 
     219     -1152449            0     -1152449 -0.0045471049 -0.018495999 -0.0086668614 
     369     -1152449            0     -1152449 -1.5413698e-06 -2.2956493e-05 -1.7212612e-05 
Loop time of 1.81798 on 104 procs for 150 steps with 288751 atoms

99.8% CPU use with 104 MPI tasks x 1 OpenMP threads

Minimization stats:
  Stopping criterion = energy tolerance
  Energy initial, next-to-last, final = 
     -1152448.97164269  -1152448.97200998  -1152448.97200998
  Force two-norm initial, final = 0.08427101 0.00010941355
  Force max component initial, final = 0.041800042 2.2956493e-05
  Final line search alpha, max atom move = 1.0000000 2.2956493e-05
  Iterations, force evaluations = 150 300

MPI task timing breakdown:
Section |  min time  |  avg time  |  max time  |%varavg| %total
---------------------------------------------------------------
Pair    | 0.47317    | 1.2833     | 1.6543     |  30.0 | 70.59
Neigh   | 0          | 0          | 0          |   0.0 |  0.00
Comm    | 0.031713   | 0.30223    | 0.8919     |  43.9 | 16.62
Output  | 0          | 0          | 0          |   0.0 |  0.00
Modify  | 1.8757e-05 | 0.0024884  | 0.0052901  |   2.3 |  0.14
Other   |            | 0.2299     |            |       | 12.65

Nlocal:        2776.45 ave        3960 max           0 min
Histogram: 8 4 4 0 4 12 8 2 28 34
Nghost:        3879.12 ave        5424 max         232 min
Histogram: 8 0 8 0 16 0 8 8 16 40
Neighs:        79213.5 ave      115425 max           0 min
Histogram: 8 4 4 0 10 6 8 8 24 32

Total # of neighbors = 8238206
Ave neighs/atom = 28.530485
Neighbor list builds = 0
Dangerous builds = 0
Setting atom values ...
  1 settings made for x
  1 settings made for y
  1 settings made for z
Setting up cg style minimization ...
  Unit style    : metal
  Current step  : 369
Per MPI rank memory allocation (min/avg/max) = 5.441 | 5.816 | 6.074 Mbytes
Step PotEng KinEng TotEng v_fx v_fy v_fz 
     369     -1152449            0     -1152449 -0.0075282174  -0.04162494 -0.019615673 
     707     -1152449            0     -1152449 -9.8266089e-08 -7.879033e-07 -4.0902758e-07 
Loop time of 3.99584 on 104 procs for 338 steps with 288751 atoms

99.9% CPU use with 104 MPI tasks x 1 OpenMP threads

Minimization stats:
  Stopping criterion = energy tolerance
  Energy initial, next-to-last, final = 
     -1152448.96954535  -1152448.97110302  -1152448.97110302
  Force two-norm initial, final = 0.15938176 4.2720358e-06
  Force max component initial, final = 0.061060948 9.9986583e-07
  Final line search alpha, max atom move = 1.0000000 9.9986583e-07
  Iterations, force evaluations = 338 676

MPI task timing breakdown:
Section |  min time  |  avg time  |  max time  |%varavg| %total
---------------------------------------------------------------
Pair    | 1.0322     | 2.8476     | 3.7059     |  45.5 | 71.26
Neigh   | 0          | 0          | 0          |   0.0 |  0.00
Comm    | 0.068801   | 0.65382    | 1.9455     |  66.1 | 16.36
Output  | 0          | 0          | 0          |   0.0 |  0.00
Modify  | 3.9183e-05 | 0.005591   | 0.011891   |   3.5 |  0.14
Other   |            | 0.4889     |            |       | 12.23

Nlocal:        2776.45 ave        3960 max           0 min
Histogram: 8 4 4 0 4 12 8 2 28 34
Nghost:        3879.15 ave        5425 max         232 min
Histogram: 8 0 8 0 16 0 8 8 16 40
Neighs:        79213.5 ave      115423 max           0 min
Histogram: 8 4 4 0 10 6 8 8 24 32

Total # of neighbors = 8238203
Ave neighs/atom = 28.530474
Neighbor list builds = 0
Dangerous builds = 0
The dot product: -5.0894170055349e-09
Setting atom values ...
  1 settings made for x
  1 settings made for y
  1 settings made for z
Setting up cg style minimization ...
  Unit style    : metal
  Current step  : 707
Per MPI rank memory allocation (min/avg/max) = 5.441 | 5.816 | 6.074 Mbytes
Step PotEng KinEng TotEng v_fx v_fy v_fz 
     707     -1152449            0     -1152449 -0.010698985 -0.050775987 -0.013589125 
     908     -1152449            0     -1152449 -2.4191542e-06 -1.4400868e-05 -4.0912012e-06 
Loop time of 2.38726 on 104 procs for 201 steps with 288751 atoms

99.9% CPU use with 104 MPI tasks x 1 OpenMP threads

Minimization stats:
  Stopping criterion = energy tolerance
  Energy initial, next-to-last, final = 
     -1152448.96772966  -1152448.96955816  -1152448.96955816
  Force two-norm initial, final = 0.17369497 9.4473662e-05
  Force max component initial, final = 0.078440746 1.4400868e-05
  Final line search alpha, max atom move = 1.0000000 1.4400868e-05
  Iterations, force evaluations = 201 402

MPI task timing breakdown:
Section |  min time  |  avg time  |  max time  |%varavg| %total
---------------------------------------------------------------
Pair    | 0.60279    | 1.7003     | 2.2045     |  35.4 | 71.22
Neigh   | 0          | 0          | 0          |   0.0 |  0.00
Comm    | 0.036609   | 0.38738    | 1.1565     |  51.1 | 16.23
Output  | 0          | 0          | 0          |   0.0 |  0.00
Modify  | 2.3706e-05 | 0.003325   | 0.0070619  |   2.7 |  0.14
Other   |            | 0.2963     |            |       | 12.41

Nlocal:        2776.45 ave        3960 max           0 min
Histogram: 8 4 4 0 4 12 8 2 28 34
Nghost:        3879.12 ave        5424 max         232 min
Histogram: 8 0 8 0 16 0 8 8 16 40
Neighs:        79213.5 ave      115426 max           0 min
Histogram: 8 4 4 0 10 6 8 8 24 32

Total # of neighbors = 8238200
Ave neighs/atom = 28.530464
Neighbor list builds = 0
Dangerous builds = 0
The dot product: -8.78288387538671e-08
Setting atom values ...
  1 settings made for x
  1 settings made for y
  1 settings made for z
Setting up cg style minimization ...
  Unit style    : metal
  Current step  : 908
Per MPI rank memory allocation (min/avg/max) = 5.441 | 5.816 | 6.074 Mbytes
Step PotEng KinEng TotEng v_fx v_fy v_fz 
     908     -1152449            0     -1152449 -0.0079541883  -0.05651436 -0.0097780147 
    1000     -1152449            0     -1152449 -7.094633e-05 -0.00028421447 -4.2744236e-05 
    1111     -1152449            0     -1152449 5.659829e-06 2.3524442e-05 3.582078e-06 
Loop time of 2.38901 on 104 procs for 203 steps with 288751 atoms

99.9% CPU use with 104 MPI tasks x 1 OpenMP threads

Minimization stats:
  Stopping criterion = energy tolerance
  Energy initial, next-to-last, final = 
     -1152448.96535601  -1152448.96783502  -1152448.96783502
  Force two-norm initial, final = 0.18361152 0.00012154174
  Force max component initial, final = 0.083338187 2.8396692e-05
  Final line search alpha, max atom move = 1.0000000 2.8396692e-05
  Iterations, force evaluations = 203 406

MPI task timing breakdown:
Section |  min time  |  avg time  |  max time  |%varavg| %total
---------------------------------------------------------------
Pair    | 0.60968    | 1.7024     | 2.2326     |  35.4 | 71.26
Neigh   | 0          | 0          | 0          |   0.0 |  0.00
Comm    | 0.039435   | 0.38937    | 1.1608     |  51.3 | 16.30
Output  | 0.00024162 | 0.00024934 | 0.00037276 |   0.0 |  0.01
Modify  | 2.3786e-05 | 0.0033563  | 0.0071286  |   2.7 |  0.14
Other   |            | 0.2936     |            |       | 12.29

Nlocal:        2776.45 ave        3960 max           0 min
Histogram: 8 4 4 0 4 12 8 2 28 34
Nghost:        3879.08 ave        5424 max         232 min
Histogram: 8 0 8 0 16 0 8 8 16 40
Neighs:        79213.5 ave      115433 max           0 min
Histogram: 8 4 4 0 10 6 8 8 24 32

Total # of neighbors = 8238208
Ave neighs/atom = 28.530492
Neighbor list builds = 0
Dangerous builds = 0
The dot product: 3.76862314651076e-07
Setting atom values ...
  1 settings made for x
  1 settings made for y
  1 settings made for z
Setting up cg style minimization ...
  Unit style    : metal
  Current step  : 1111
Per MPI rank memory allocation (min/avg/max) = 5.441 | 5.816 | 6.074 Mbytes
Step PotEng KinEng TotEng v_fx v_fy v_fz 
    1111     -1152449            0     -1152449 -0.0044188167 -0.053378459 0.0020112837 
    1260     -1152449            0     -1152449 8.7259061e-06 2.0976025e-05 -1.7496303e-06 
Loop time of 1.7535 on 104 procs for 149 steps with 288751 atoms

99.9% CPU use with 104 MPI tasks x 1 OpenMP threads

Minimization stats:
  Stopping criterion = energy tolerance
  Energy initial, next-to-last, final = 
     -1152448.96363131  -1152448.96615969  -1152448.96615969
  Force two-norm initial, final = 0.19807631 9.4115220e-05
  Force max component initial, final = 0.081138487 2.0976025e-05
  Final line search alpha, max atom move = 1.0000000 2.0976025e-05
  Iterations, force evaluations = 149 298

MPI task timing breakdown:
Section |  min time  |  avg time  |  max time  |%varavg| %total
---------------------------------------------------------------
Pair    | 0.44764    | 1.257      | 1.6348     |  30.4 | 71.68
Neigh   | 0          | 0          | 0          |   0.0 |  0.00
Comm    | 0.026004   | 0.28537    | 0.87085    |  44.6 | 16.27
Output  | 0          | 0          | 0          |   0.0 |  0.00
Modify  | 1.7961e-05 | 0.0024633  | 0.0052292  |   2.3 |  0.14
Other   |            | 0.2087     |            |       | 11.90

Nlocal:        2776.45 ave        3960 max           0 min
Histogram: 8 4 4 0 4 12 8 2 28 34
Nghost:        3879.08 ave        5424 max         232 min
Histogram: 8 0 8 0 16 0 8 8 16 40
Neighs:        79213.6 ave      115435 max           0 min
Histogram: 8 4 4 0 10 6 8 8 24 32

Total # of neighbors = 8238214
Ave neighs/atom = 28.530512
Neighbor list builds = 0
Dangerous builds = 0
The dot product: 1.96624305606877e-07
Setting atom values ...
  1 settings made for x
  1 settings made for y
  1 settings made for z
Setting up cg style minimization ...
  Unit style    : metal
  Current step  : 1260
Per MPI rank memory allocation (min/avg/max) = 5.441 | 5.816 | 6.074 Mbytes
Step PotEng KinEng TotEng v_fx v_fy v_fz 
    1260     -1152449            0     -1152449 -0.0021748291  -0.05973009 0.0078795928 
    1506     -1152449            0     -1152449 3.6363986e-06 7.7392052e-06 -1.4611353e-06 
Loop time of 2.87603 on 104 procs for 246 steps with 288751 atoms

99.9% CPU use with 104 MPI tasks x 1 OpenMP threads

Minimization stats:
  Stopping criterion = energy tolerance
  Energy initial, next-to-last, final = 
     -1152448.96158776  -1152448.96462344  -1152448.96462344
  Force two-norm initial, final = 0.20724613 5.4788179e-05
  Force max component initial, final = 0.088968985 1.0007530e-05
  Final line search alpha, max atom move = 1.0000000 1.0007530e-05
  Iterations, force evaluations = 246 492

MPI task timing breakdown:
Section |  min time  |  avg time  |  max time  |%varavg| %total
---------------------------------------------------------------
Pair    | 0.7434     | 2.0624     | 2.6953     |  38.7 | 71.71
Neigh   | 0          | 0          | 0          |   0.0 |  0.00
Comm    | 0.045425   | 0.46626    | 1.3855     |  56.7 | 16.21
Output  | 0          | 0          | 0          |   0.0 |  0.00
Modify  | 2.9335e-05 | 0.0040579  | 0.0086242  |   3.0 |  0.14
Other   |            | 0.3433     |            |       | 11.94

Nlocal:        2776.45 ave        3960 max           0 min
Histogram: 8 4 4 0 4 12 8 2 28 34
Nghost:        3879.12 ave        5424 max         232 min
Histogram: 8 0 8 0 16 0 8 8 16 40
Neighs:        79213.6 ave      115434 max           0 min
Histogram: 8 4 4 0 10 6 8 8 24 32

Total # of neighbors = 8238216
Ave neighs/atom = 28.530519
Neighbor list builds = 0
Dangerous builds = 0
The dot product: 8.25379975878077e-08
Setting atom values ...
  1 settings made for x
  1 settings made for y
  1 settings made for z
Setting up cg style minimization ...
  Unit style    : metal
  Current step  : 1506
Per MPI rank memory allocation (min/avg/max) = 5.441 | 5.816 | 6.074 Mbytes
Step PotEng KinEng TotEng v_fx v_fy v_fz 
    1506     -1152449            0     -1152449 -0.0015639436 -0.060984602  0.013130151 
    1671     -1152449            0     -1152449 5.4134525e-06 1.1920157e-05 -3.3416748e-06 
Loop time of 1.94092 on 104 procs for 165 steps with 288751 atoms

99.9% CPU use with 104 MPI tasks x 1 OpenMP threads

Minimization stats:
  Stopping criterion = energy tolerance
  Energy initial, next-to-last, final = 
     -1152448.96051049  -1152448.96317063  -1152448.96317063
  Force two-norm initial, final = 0.21491803 0.00017893306
  Force max component initial, final = 0.095974595 6.2756364e-05
  Final line search alpha, max atom move = 1.0000000 6.2756364e-05
  Iterations, force evaluations = 165 330

MPI task timing breakdown:
Section |  min time  |  avg time  |  max time  |%varavg| %total
---------------------------------------------------------------
Pair    | 0.49703    | 1.3916     | 1.8109     |  31.9 | 71.70
Neigh   | 0          | 0          | 0          |   0.0 |  0.00
Comm    | 0.028844   | 0.318      | 0.9549     |  46.5 | 16.38
Output  | 0          | 0          | 0          |   0.0 |  0.00
Modify  | 2.0156e-05 | 0.0027308  | 0.005806   |   2.5 |  0.14
Other   |            | 0.2285     |            |       | 11.77

Nlocal:        2776.45 ave        3960 max           0 min
Histogram: 8 4 4 0 4 12 8 2 28 34
Nghost:        3879.12 ave        5424 max         232 min
Histogram: 8 0 8 0 16 0 8 8 16 40
Neighs:        79213.6 ave      115431 max           0 min
Histogram: 8 4 4 0 10 6 8 8 24 32

Total # of neighbors = 8238211
Ave neighs/atom = 28.530502
Neighbor list builds = 0
Dangerous builds = 0
The dot product: -1.1685600036832e-08
Setting atom values ...
  1 settings made for x
  1 settings made for y
  1 settings made for z
Setting up cg style minimization ...
  Unit style    : metal
  Current step  : 1671
Per MPI rank memory allocation (min/avg/max) = 5.441 | 5.816 | 6.074 Mbytes
Step PotEng KinEng TotEng v_fx v_fy v_fz 
    1671     -1152449            0     -1152449 -0.003003861 -0.069350098  0.014552877 
    1858     -1152449            0     -1152449 -6.4270976e-06 -1.1542016e-05 3.3327809e-06 
Loop time of 2.17716 on 104 procs for 187 steps with 288751 atoms

99.9% CPU use with 104 MPI tasks x 1 OpenMP threads

Minimization stats:
  Stopping criterion = energy tolerance
  Energy initial, next-to-last, final = 
     -1152448.95861498  -1152448.96108743  -1152448.96108743
  Force two-norm initial, final = 0.21731594 0.00015722455
  Force max component initial, final = 0.09645625 2.1298756e-05
  Final line search alpha, max atom move = 1.0000000 2.1298756e-05
  Iterations, force evaluations = 187 374

MPI task timing breakdown:
Section |  min time  |  avg time  |  max time  |%varavg| %total
---------------------------------------------------------------
Pair    | 0.56088    | 1.5693     | 2.0445     |  33.9 | 72.08
Neigh   | 0          | 0          | 0          |   0.0 |  0.00
Comm    | 0.033874   | 0.35552    | 1.0683     |  49.7 | 16.33
Output  | 0          | 0          | 0          |   0.0 |  0.00
Modify  | 2.2054e-05 | 0.003082   | 0.0065824  |   2.6 |  0.14
Other   |            | 0.2493     |            |       | 11.45

Nlocal:        2776.45 ave        3960 max           0 min
Histogram: 8 4 4 0 4 12 8 2 28 34
Nghost:        3879.12 ave        5424 max         232 min
Histogram: 8 0 8 0 16 0 8 8 16 40
Neighs:        79213.6 ave      115440 max           0 min
Histogram: 8 4 4 0 10 6 8 8 24 32

Total # of neighbors = 8238212
Ave neighs/atom = 28.530506
Neighbor list builds = 0
Dangerous builds = 0
The dot product: 6.96251101971794e-08
Setting atom values ...
  1 settings made for x
  1 settings made for y
  1 settings made for z
Setting up cg style minimization ...
  Unit style    : metal
  Current step  : 1858
Per MPI rank memory allocation (min/avg/max) = 5.441 | 5.816 | 6.074 Mbytes
Step PotEng KinEng TotEng v_fx v_fy v_fz 
    1858     -1152449            0     -1152449 -0.0044337342 -0.077063102  0.013567653 
    2000     -1152449            0     -1152449 -9.7087406e-06 -1.9515526e-05 4.698609e-06 
    2006     -1152449            0     -1152449 -5.9935135e-06 -1.1168136e-05 2.7532123e-06 
Loop time of 1.73239 on 104 procs for 148 steps with 288751 atoms

99.9% CPU use with 104 MPI tasks x 1 OpenMP threads

Minimization stats:
  Stopping criterion = energy tolerance
  Energy initial, next-to-last, final = 
     -1152448.95592451  -1152448.95850486  -1152448.95850486
  Force two-norm initial, final = 0.21732943 0.00015092819
  Force max component initial, final = 0.094575986 2.9985280e-05
  Final line search alpha, max atom move = 1.0000000 2.9985280e-05
  Iterations, force evaluations = 148 296

MPI task timing breakdown:
Section |  min time  |  avg time  |  max time  |%varavg| %total
---------------------------------------------------------------
Pair    | 0.44536    | 1.2503     | 1.6235     |  30.2 | 72.17
Neigh   | 0          | 0          | 0          |   0.0 |  0.00
Comm    | 0.028484   | 0.28282    | 0.85777    |  44.6 | 16.33
Output  | 0.00029012 | 0.00029279 | 0.00046037 |   0.0 |  0.02
Modify  | 1.8431e-05 | 0.0024496  | 0.0052037  |   2.3 |  0.14
Other   |            | 0.1965     |            |       | 11.34

Nlocal:        2776.45 ave        3960 max           0 min
Histogram: 8 4 4 0 4 12 8 2 28 34
Nghost:        3879.12 ave        5424 max         232 min
Histogram: 8 0 8 0 16 0 8 8 16 40
Neighs:        79213.5 ave      115438 max           0 min
Histogram: 8 4 4 0 10 6 8 8 24 32

Total # of neighbors = 8238208
Ave neighs/atom = 28.530492
Neighbor list builds = 0
Dangerous builds = 0
The dot product: 5.54299008951325e-08
Setting atom values ...
  1 settings made for x
  1 settings made for y
  1 settings made for z
Setting up cg style minimization ...
  Unit style    : metal
  Current step  : 2006
Per MPI rank memory allocation (min/avg/max) = 5.441 | 5.816 | 6.074 Mbytes
Step PotEng KinEng TotEng v_fx v_fy v_fz 
    2006     -1152449            0     -1152449 -0.0043474396 -0.080577745   0.01190345 
    2198     -1152449            0     -1152449 1.1242895e-07 6.9371818e-07 -1.133985e-07 
Loop time of 2.24117 on 104 procs for 192 steps with 288751 atoms

99.9% CPU use with 104 MPI tasks x 1 OpenMP threads

Minimization stats:
  Stopping criterion = energy tolerance
  Energy initial, next-to-last, final = 
     -1152448.95306497  -1152448.95539921  -1152448.95539921
  Force two-norm initial, final = 0.21652086 0.00011367433
  Force max component initial, final = 0.093034886 1.4235724e-05
  Final line search alpha, max atom move = 1.0000000 1.4235724e-05
  Iterations, force evaluations = 192 384

MPI task timing breakdown:
Section |  min time  |  avg time  |  max time  |%varavg| %total
---------------------------------------------------------------
Pair    | 0.57523    | 1.6151     | 2.1035     |  34.5 | 72.06
Neigh   | 0          | 0          | 0          |   0.0 |  0.00
Comm    | 0.035154   | 0.36689    | 1.096      |  50.6 | 16.37
Output  | 0          | 0          | 0          |   0.0 |  0.00
Modify  | 2.3301e-05 | 0.003173   | 0.0067675  |   2.7 |  0.14
Other   |            | 0.256      |            |       | 11.42

Nlocal:        2776.45 ave        3960 max           0 min
Histogram: 8 4 4 0 4 12 8 2 28 34
Nghost:        3879.12 ave        5424 max         232 min
Histogram: 8 0 8 0 16 0 8 8 16 40
Neighs:        79213.5 ave      115436 max           0 min
Histogram: 8 4 4 0 10 6 8 8 24 32

Total # of neighbors = 8238204
Ave neighs/atom = 28.530478
Neighbor list builds = 0
Dangerous builds = 0
The dot product: -4.71455785929456e-09
Setting atom values ...
  1 settings made for x
  1 settings made for y
  1 settings made for z
Setting up cg style minimization ...
  Unit style    : metal
  Current step  : 2198
Per MPI rank memory allocation (min/avg/max) = 5.441 | 5.816 | 6.074 Mbytes
Step PotEng KinEng TotEng v_fx v_fy v_fz 
    2198   -1152448.9            0   -1152448.9 -0.0050249083  -0.08588463  0.009778466 
    2382     -1152449            0     -1152449 8.1913954e-06 1.7269001e-05 -2.9842924e-06 
Loop time of 2.14768 on 104 procs for 184 steps with 288751 atoms

99.9% CPU use with 104 MPI tasks x 1 OpenMP threads

Minimization stats:
  Stopping criterion = energy tolerance
  Energy initial, next-to-last, final = 
     -1152448.94925554  -1152448.95150174  -1152448.95150174
  Force two-norm initial, final = 0.21560024 0.00012661298
  Force max component initial, final = 0.090720509 2.9546894e-05
  Final line search alpha, max atom move = 1.0000000 2.9546894e-05
  Iterations, force evaluations = 184 368

MPI task timing breakdown:
Section |  min time  |  avg time  |  max time  |%varavg| %total
---------------------------------------------------------------
Pair    | 0.55413    | 1.5523     | 2.0116     |  33.7 | 72.28
Neigh   | 0          | 0          | 0          |   0.0 |  0.00
Comm    | 0.036284   | 0.35667    | 1.0912     |  49.5 | 16.61
Output  | 0          | 0          | 0          |   0.0 |  0.00
Modify  | 2.2294e-05 | 0.0030373  | 0.0064909  |   2.6 |  0.14
Other   |            | 0.2356     |            |       | 10.97

Nlocal:        2776.45 ave        3960 max           0 min
Histogram: 8 4 4 0 4 12 8 2 28 34
Nghost:        3879.12 ave        5424 max         232 min
Histogram: 8 0 8 0 16 0 8 8 16 40
Neighs:        79213.5 ave      115436 max           0 min
Histogram: 8 4 4 0 10 6 8 8 24 32

Total # of neighbors = 8238201
Ave neighs/atom = 28.530467
Neighbor list builds = 0
Dangerous builds = 0
The dot product: -1.47949593973576e-07
Setting atom values ...
  1 settings made for x
  1 settings made for y
  1 settings made for z
Setting up cg style minimization ...
  Unit style    : metal
  Current step  : 2382
Per MPI rank memory allocation (min/avg/max) = 5.441 | 5.816 | 6.074 Mbytes
Step PotEng KinEng TotEng v_fx v_fy v_fz 
    2382   -1152448.9            0   -1152448.9 -0.0059870042 -0.090248582 0.0070052294 
    2567   -1152448.9            0   -1152448.9 -1.9851321e-06 -3.9162788e-06 5.3822648e-07 
Loop time of 2.15871 on 104 procs for 185 steps with 288751 atoms

99.9% CPU use with 104 MPI tasks x 1 OpenMP threads

Minimization stats:
  Stopping criterion = energy tolerance
  Energy initial, next-to-last, final = 
     -1152448.94463812  -1152448.94685382  -1152448.94685382
  Force two-norm initial, final = 0.21402557 0.00010754585
  Force max component initial, final = 0.090248582 1.1382179e-05
  Final line search alpha, max atom move = 1.0000000 1.1382179e-05
  Iterations, force evaluations = 185 370

MPI task timing breakdown:
Section |  min time  |  avg time  |  max time  |%varavg| %total
---------------------------------------------------------------
Pair    | 0.55377    | 1.5497     | 2.0308     |  33.7 | 71.79
Neigh   | 0          | 0          | 0          |   0.0 |  0.00
Comm    | 0.035539   | 0.35041    | 1.0423     |  49.1 | 16.23
Output  | 0          | 0          | 0          |   0.0 |  0.00
Modify  | 2.2299e-05 | 0.0030557  | 0.0064795  |   2.6 |  0.14
Other   |            | 0.2555     |            |       | 11.84

Nlocal:        2776.45 ave        3960 max           0 min
Histogram: 8 4 4 0 4 12 8 2 28 34
Nghost:        3879.10 ave        5425 max         232 min
Histogram: 8 0 8 0 16 0 8 8 16 40
Neighs:        79213.5 ave      115437 max           0 min
Histogram: 8 4 4 0 10 6 8 8 24 32

Total # of neighbors = 8238208
Ave neighs/atom = 28.530492
Neighbor list builds = 0
Dangerous builds = 0
The dot product: 3.72467943827602e-08
Setting atom values ...
  1 settings made for x
  1 settings made for y
  1 settings made for z
Setting up cg style minimization ...
  Unit style    : metal
  Current step  : 2567
Per MPI rank memory allocation (min/avg/max) = 5.441 | 5.816 | 6.074 Mbytes
Step PotEng KinEng TotEng v_fx v_fy v_fz 
    2567   -1152448.9            0   -1152448.9 -0.0068798124 -0.093246619  0.003857425 
    2735   -1152448.9            0   -1152448.9 -1.8903257e-05 -4.8463445e-05 3.9773969e-06 
Loop time of 1.96086 on 104 procs for 168 steps with 288751 atoms

99.9% CPU use with 104 MPI tasks x 1 OpenMP threads

Minimization stats:
  Stopping criterion = energy tolerance
  Energy initial, next-to-last, final = 
     -1152448.93933312  -1152448.94143822  -1152448.94143822
  Force two-norm initial, final = 0.21193517 0.00016382062
  Force max component initial, final = 0.093246619 4.8463445e-05
  Final line search alpha, max atom move = 1.0000000 4.8463445e-05
  Iterations, force evaluations = 168 336

MPI task timing breakdown:
Section |  min time  |  avg time  |  max time  |%varavg| %total
---------------------------------------------------------------
Pair    | 0.50434    | 1.4151     | 1.8383     |  32.2 | 72.17
Neigh   | 0          | 0          | 0          |   0.0 |  0.00
Comm    | 0.029479   | 0.31878    | 0.95419    |  47.2 | 16.26
Output  | 0          | 0          | 0          |   0.0 |  0.00
Modify  | 1.976e-05  | 0.0027767  | 0.0058941  |   2.5 |  0.14
Other   |            | 0.2242     |            |       | 11.43

Nlocal:        2776.45 ave        3959 max           0 min
Histogram: 8 4 4 0 4 12 8 2 28 34
Nghost:        3879.10 ave        5425 max         232 min
Histogram: 8 0 8 0 16 0 8 8 16 40
Neighs:        79213.5 ave      115405 max           0 min
Histogram: 8 4 4 0 10 6 8 8 24 32

Total # of neighbors = 8238205
Ave neighs/atom = 28.530481
Neighbor list builds = 0
Dangerous builds = 0
The dot product: 4.07694694934597e-07
Setting atom values ...
  1 settings made for x
  1 settings made for y
  1 settings made for z
Setting up cg style minimization ...
  Unit style    : metal
  Current step  : 2735
Per MPI rank memory allocation (min/avg/max) = 5.441 | 5.816 | 6.074 Mbytes
Step PotEng KinEng TotEng v_fx v_fy v_fz 
    2735   -1152448.9            0   -1152448.9  -0.00612159 -0.094045836 0.00077795578 
    2906   -1152448.9            0   -1152448.9 7.8520571e-06 2.2797004e-05 -9.908439e-07 
Loop time of 1.99817 on 104 procs for 171 steps with 288751 atoms

99.9% CPU use with 104 MPI tasks x 1 OpenMP threads

Minimization stats:
  Stopping criterion = energy tolerance
  Energy initial, next-to-last, final = 
     -1152448.93317628  -1152448.93519363  -1152448.93519363
  Force two-norm initial, final = 0.2096118 0.00013071008
  Force max component initial, final = 0.094045836 2.2797004e-05
  Final line search alpha, max atom move = 1.0000000 2.2797004e-05
  Iterations, force evaluations = 171 342

MPI task timing breakdown:
Section |  min time  |  avg time  |  max time  |%varavg| %total
---------------------------------------------------------------
Pair    | 0.51375    | 1.4344     | 1.8779     |  32.5 | 71.79
Neigh   | 0          | 0          | 0          |   0.0 |  0.00
Comm    | 0.030211   | 0.32634    | 0.97458    |  47.3 | 16.33
Output  | 0          | 0          | 0          |   0.0 |  0.00
Modify  | 1.9676e-05 | 0.0028246  | 0.0060174  |   2.5 |  0.14
Other   |            | 0.2346     |            |       | 11.74

Nlocal:        2776.45 ave        3959 max           0 min
Histogram: 8 4 4 0 4 12 8 2 28 34
Nghost:        3879.10 ave        5424 max         232 min
Histogram: 8 0 8 0 16 0 8 8 16 40
Neighs:        79213.5 ave      115413 max           0 min
Histogram: 8 4 4 0 10 6 8 8 24 32

Total # of neighbors = 8238202
Ave neighs/atom = 28.530471
Neighbor list builds = 0
Dangerous builds = 0
The dot product: -1.68843841180499e-07
Setting atom values ...
  1 settings made for x
  1 settings made for y
  1 settings made for z
Setting up cg style minimization ...
  Unit style    : metal
  Current step  : 2906
Per MPI rank memory allocation (min/avg/max) = 5.441 | 5.816 | 6.074 Mbytes
Step PotEng KinEng TotEng v_fx v_fy v_fz 
    2906   -1152448.9            0   -1152448.9 -0.0077081044  -0.09215471 -0.0015306297 
    3000   -1152448.9            0   -1152448.9 -6.3265288e-05 -0.00016409917 3.5848145e-06 
    3065   -1152448.9            0   -1152448.9 1.7159206e-05 5.0461557e-05 -8.0997867e-07 
Loop time of 1.85133 on 104 procs for 159 steps with 288751 atoms

99.9% CPU use with 104 MPI tasks x 1 OpenMP threads

Minimization stats:
  Stopping criterion = energy tolerance
  Energy initial, next-to-last, final = 
     -1152448.92611339  -1152448.92802887  -1152448.92802887
  Force two-norm initial, final = 0.20648655 0.00017441209
  Force max component initial, final = 0.09215471 5.0461557e-05
  Final line search alpha, max atom move = 1.0000000 5.0461557e-05
  Iterations, force evaluations = 159 318

MPI task timing breakdown:
Section |  min time  |  avg time  |  max time  |%varavg| %total
---------------------------------------------------------------
Pair    | 0.47625    | 1.338      | 1.738      |  31.3 | 72.27
Neigh   | 0          | 0          | 0          |   0.0 |  0.00
Comm    | 0.029984   | 0.30045    | 0.90341    |  46.1 | 16.23
Output  | 0.0002516  | 0.00025809 | 0.00040141 |   0.0 |  0.01
Modify  | 1.9087e-05 | 0.0026316  | 0.0055782  |   2.4 |  0.14
Other   |            | 0.21       |            |       | 11.35

Nlocal:        2776.45 ave        3959 max           0 min
Histogram: 8 4 4 0 4 12 8 2 28 34
Nghost:        3879.10 ave        5424 max         232 min
Histogram: 8 0 8 0 16 0 8 8 16 40
Neighs:        79213.5 ave      115412 max           0 min
Histogram: 8 4 4 0 10 6 8 8 24 32

Total # of neighbors = 8238200
Ave neighs/atom = 28.530464
Neighbor list builds = 0
Dangerous builds = 0
The dot product: -3.33388281071098e-07
Setting atom values ...
  1 settings made for x
  1 settings made for y
  1 settings made for z
Setting up cg style minimization ...
  Unit style    : metal
  Current step  : 3065
Per MPI rank memory allocation (min/avg/max) = 5.441 | 5.816 | 6.074 Mbytes
Step PotEng KinEng TotEng v_fx v_fy v_fz 
    3065   -1152448.9            0   -1152448.9 -0.015932986  -0.08653982 -0.002273737 
    3250   -1152448.9            0   -1152448.9 3.6862481e-06 1.041768e-05 4.7342493e-08 
Loop time of 2.14936 on 104 procs for 185 steps with 288751 atoms

99.9% CPU use with 104 MPI tasks x 1 OpenMP threads

Minimization stats:
  Stopping criterion = energy tolerance
  Energy initial, next-to-last, final = 
     -1152448.91782241   -1152448.9196952   -1152448.9196952
  Force two-norm initial, final = 0.20282037 7.8609888e-05
  Force max component initial, final = 0.08653982 1.0678615e-05
  Final line search alpha, max atom move = 1.0000000 1.0678615e-05
  Iterations, force evaluations = 185 370

MPI task timing breakdown:
Section |  min time  |  avg time  |  max time  |%varavg| %total
---------------------------------------------------------------
Pair    | 0.56302    | 1.5513     | 2.0184     |  33.5 | 72.18
Neigh   | 0          | 0          | 0          |   0.0 |  0.00
Comm    | 0.032513   | 0.34881    | 1.0415     |  49.3 | 16.23
Output  | 0          | 0          | 0          |   0.0 |  0.00
Modify  | 2.2735e-05 | 0.0030551  | 0.006487   |   2.6 |  0.14
Other   |            | 0.2461     |            |       | 11.45

Nlocal:        2776.45 ave        3959 max           0 min
Histogram: 8 4 4 0 4 12 8 2 28 34
Nghost:        3879.06 ave        5424 max         232 min
Histogram: 8 0 8 0 16 0 8 8 16 40
Neighs:        79213.4 ave      115409 max           0 min
Histogram: 8 4 4 0 10 6 8 8 24 32

Total # of neighbors = 8238198
Ave neighs/atom = 28.530457
Neighbor list builds = 0
Dangerous builds = 0
The dot product: -5.72761398663597e-08
Setting atom values ...
  1 settings made for x
  1 settings made for y
  1 settings made for z
Setting up cg style minimization ...
  Unit style    : metal
  Current step  : 3250
Per MPI rank memory allocation (min/avg/max) = 5.441 | 5.816 | 6.074 Mbytes
Step PotEng KinEng TotEng v_fx v_fy v_fz 
    3250   -1152448.9            0   -1152448.9 -0.022140629 -0.082474251 -0.0026895394 
    3446   -1152448.9            0   -1152448.9 2.967019e-06 9.2941788e-06 2.4438983e-07 
Loop time of 2.30741 on 104 procs for 196 steps with 288751 atoms

99.9% CPU use with 104 MPI tasks x 1 OpenMP threads

Minimization stats:
  Stopping criterion = energy tolerance
  Energy initial, next-to-last, final = 
     -1152448.90816126  -1152448.91002761  -1152448.91002761
  Force two-norm initial, final = 0.20093562 7.3864773e-05
  Force max component initial, final = 0.082474251 2.0894842e-05
  Final line search alpha, max atom move = 1.0000000 2.0894842e-05
  Iterations, force evaluations = 196 392

MPI task timing breakdown:
Section |  min time  |  avg time  |  max time  |%varavg| %total
---------------------------------------------------------------
Pair    | 0.58961    | 1.659      | 2.1554     |  34.9 | 71.90
Neigh   | 0          | 0          | 0          |   0.0 |  0.00
Comm    | 0.036488   | 0.3795     | 1.1404     |  50.9 | 16.45
Output  | 0          | 0          | 0          |   0.0 |  0.00
Modify  | 2.3432e-05 | 0.0032431  | 0.0068877  |   2.7 |  0.14
Other   |            | 0.2657     |            |       | 11.51

Nlocal:        2776.45 ave        3959 max           0 min
Histogram: 8 4 4 0 4 12 8 2 28 34
Nghost:        3879.11 ave        5424 max         232 min
Histogram: 8 0 8 0 16 0 8 8 16 40
Neighs:        79213.4 ave      115413 max           0 min
Histogram: 8 4 4 0 10 6 8 8 24 32

Total # of neighbors = 8238198
Ave neighs/atom = 28.530457
Neighbor list builds = 0
Dangerous builds = 0
The dot product: -4.24507511153951e-08
Setting atom values ...
  1 settings made for x
  1 settings made for y
  1 settings made for z
Setting up cg style minimization ...
  Unit style    : metal
  Current step  : 3446
Per MPI rank memory allocation (min/avg/max) = 5.441 | 5.816 | 6.074 Mbytes
Step PotEng KinEng TotEng v_fx v_fy v_fz 
    3446   -1152448.9            0   -1152448.9 -0.025366758  -0.08020019 -0.0032304679 
    3632   -1152448.9            0   -1152448.9 -2.0516572e-06 -6.4567495e-06 -2.5896068e-07 
Loop time of 2.18005 on 104 procs for 186 steps with 288751 atoms

99.9% CPU use with 104 MPI tasks x 1 OpenMP threads

Minimization stats:
  Stopping criterion = energy tolerance
  Energy initial, next-to-last, final = 
     -1152448.89713769  -1152448.89900313  -1152448.89900313
  Force two-norm initial, final = 0.19978844 9.4659561e-05
  Force max component initial, final = 0.083586743 2.0433119e-05
  Final line search alpha, max atom move = 1.0000000 2.0433119e-05
  Iterations, force evaluations = 186 372

MPI task timing breakdown:
Section |  min time  |  avg time  |  max time  |%varavg| %total
---------------------------------------------------------------
Pair    | 0.55942    | 1.563      | 2.036      |  33.9 | 71.69
Neigh   | 0          | 0          | 0          |   0.0 |  0.00
Comm    | 0.035634   | 0.35437    | 1.0614     |  49.6 | 16.26
Output  | 0          | 0          | 0          |   0.0 |  0.00
Modify  | 2.2145e-05 | 0.0030776  | 0.0065413  |   2.6 |  0.14
Other   |            | 0.2596     |            |       | 11.91

Nlocal:        2776.45 ave        3959 max           0 min
Histogram: 8 4 4 0 4 12 8 2 28 34
Nghost:        3879.11 ave        5424 max         232 min
Histogram: 8 0 8 0 16 0 8 8 16 40
Neighs:        79213.5 ave      115413 max           0 min
Histogram: 8 4 4 0 10 6 8 8 24 32

Total # of neighbors = 8238199
Ave neighs/atom = 28.530461
Neighbor list builds = 0
Dangerous builds = 0
The dot product: 2.32417103554666e-08
Setting atom values ...
  1 settings made for x
  1 settings made for y
  1 settings made for z
Setting up cg style minimization ...
  Unit style    : metal
  Current step  : 3632
Per MPI rank memory allocation (min/avg/max) = 5.441 | 5.816 | 6.074 Mbytes
Step PotEng KinEng TotEng v_fx v_fy v_fz 
    3632   -1152448.9            0   -1152448.9 -0.027327442 -0.077992018 -0.0036322659 
    3824   -1152448.9            0   -1152448.9 4.6655409e-07 6.5214733e-06 5.0887316e-07 
Loop time of 2.22928 on 104 procs for 192 steps with 288751 atoms

99.9% CPU use with 104 MPI tasks x 1 OpenMP threads

Minimization stats:
  Stopping criterion = energy tolerance
  Energy initial, next-to-last, final = 
      -1152448.8847731  -1152448.88667673  -1152448.88667673
  Force two-norm initial, final = 0.19894539 9.9579657e-05
  Force max component initial, final = 0.085143601 1.4645221e-05
  Final line search alpha, max atom move = 1.0000000 1.4645221e-05
  Iterations, force evaluations = 192 384

MPI task timing breakdown:
Section |  min time  |  avg time  |  max time  |%varavg| %total
---------------------------------------------------------------
Pair    | 0.57676    | 1.6198     | 2.0996     |  34.4 | 72.66
Neigh   | 0          | 0          | 0          |   0.0 |  0.00
Comm    | 0.032613   | 0.36591    | 1.1175     |  50.7 | 16.41
Output  | 0          | 0          | 0          |   0.0 |  0.00
Modify  | 2.3201e-05 | 0.0031646  | 0.006729   |   2.6 |  0.14
Other   |            | 0.2404     |            |       | 10.78

Nlocal:        2776.45 ave        3959 max           0 min
Histogram: 8 4 4 0 4 12 8 2 28 34
Nghost:        3879.11 ave        5424 max         232 min
Histogram: 8 0 8 0 16 0 8 8 16 40
Neighs:        79213.4 ave      115414 max           0 min
Histogram: 8 4 4 0 10 6 8 8 24 32

Total # of neighbors = 8238198
Ave neighs/atom = 28.530457
Neighbor list builds = 0
Dangerous builds = 0
The dot product: -4.95182035175908e-09
Setting atom values ...
  1 settings made for x
  1 settings made for y
  1 settings made for z
Setting up cg style minimization ...
  Unit style    : metal
  Current step  : 3824
Per MPI rank memory allocation (min/avg/max) = 5.441 | 5.816 | 6.074 Mbytes
Step PotEng KinEng TotEng v_fx v_fy v_fz 
    3824   -1152448.9            0   -1152448.9 -0.027088921 -0.073792904 -0.0035029843 
    3980   -1152448.9            0   -1152448.9 -1.3119836e-05 -3.4707504e-05 -1.6058024e-06 
Loop time of 1.83277 on 104 procs for 156 steps with 288751 atoms

99.9% CPU use with 104 MPI tasks x 1 OpenMP threads

Minimization stats:
  Stopping criterion = energy tolerance
  Energy initial, next-to-last, final = 
     -1152448.87124019  -1152448.87370048  -1152448.87370048
  Force two-norm initial, final = 0.19764944 9.6312981e-05
  Force max component initial, final = 0.086044556 3.4707504e-05
  Final line search alpha, max atom move = 1.0000000 3.4707504e-05
  Iterations, force evaluations = 156 312

MPI task timing breakdown:
Section |  min time  |  avg time  |  max time  |%varavg| %total
---------------------------------------------------------------
Pair    | 0.47993    | 1.3187     | 1.7166     |  30.9 | 71.95
Neigh   | 0          | 0          | 0          |   0.0 |  0.00
Comm    | 0.026993   | 0.3003     | 0.89611    |  45.4 | 16.39
Output  | 0          | 0          | 0          |   0.0 |  0.00
Modify  | 1.8416e-05 | 0.0025824  | 0.0054989  |   2.4 |  0.14
Other   |            | 0.2112     |            |       | 11.52

Nlocal:        2776.45 ave        3959 max           0 min
Histogram: 8 4 4 0 4 12 8 2 28 34
Nghost:        3879.11 ave        5424 max         232 min
Histogram: 8 0 8 0 16 0 8 8 16 40
Neighs:        79213.4 ave      115414 max           0 min
Histogram: 8 4 4 0 10 6 8 8 24 32

Total # of neighbors = 8238194
Ave neighs/atom = 28.530443
Neighbor list builds = 0
Dangerous builds = 0
The dot product: -5.91261224269618e-07
Setting atom values ...
  1 settings made for x
  1 settings made for y
  1 settings made for z
Setting up cg style minimization ...
  Unit style    : metal
  Current step  : 3980
Per MPI rank memory allocation (min/avg/max) = 5.441 | 5.816 | 6.074 Mbytes
Step PotEng KinEng TotEng v_fx v_fy v_fz 
    3980   -1152448.9            0   -1152448.9 -0.014155923   -0.0519419 -0.00086736521 
    4000   -1152448.9            0   -1152448.9 -0.00086031022 -0.0022283319 -4.6428948e-06 
    4170   -1152448.9            0   -1152448.9 5.6060798e-07 3.3285319e-06 1.0018688e-07 
Loop time of 2.20829 on 104 procs for 190 steps with 288751 atoms

99.9% CPU use with 104 MPI tasks x 1 OpenMP threads

Minimization stats:
  Stopping criterion = energy tolerance
  Energy initial, next-to-last, final = 
     -1152448.85804017  -1152448.86041957  -1152448.86041957
  Force two-norm initial, final = 0.19297822 0.00014038943
  Force max component initial, final = 0.082400995 1.1195280e-05
  Final line search alpha, max atom move = 1.0000000 1.1195280e-05
  Iterations, force evaluations = 190 380

MPI task timing breakdown:
Section |  min time  |  avg time  |  max time  |%varavg| %total
---------------------------------------------------------------
Pair    | 0.56968    | 1.5953     | 2.0792     |  34.1 | 72.24
Neigh   | 0          | 0          | 0          |   0.0 |  0.00
Comm    | 0.037497   | 0.36099    | 1.0956     |  50.4 | 16.35
Output  | 0.00015112 | 0.00016235 | 0.00026493 |   0.0 |  0.01
Modify  | 2.2359e-05 | 0.003138   | 0.0066784  |   2.6 |  0.14
Other   |            | 0.2487     |            |       | 11.26

Nlocal:        2776.45 ave        3959 max           0 min
Histogram: 8 4 4 0 4 12 8 2 28 34
Nghost:        3879.18 ave        5425 max         232 min
Histogram: 8 0 8 0 16 0 8 8 16 40
Neighs:        79213.4 ave      115412 max           0 min
Histogram: 8 4 4 0 10 6 8 8 24 32

Total # of neighbors = 8238193
Ave neighs/atom = 28.530440
Neighbor list builds = 0
Dangerous builds = 0
The dot product: 4.80223539551662e-08
Setting atom values ...
  1 settings made for x
  1 settings made for y
  1 settings made for z
Setting up cg style minimization ...
  Unit style    : metal
  Current step  : 4170
Per MPI rank memory allocation (min/avg/max) = 5.441 | 5.816 | 6.074 Mbytes
Step PotEng KinEng TotEng v_fx v_fy v_fz 
    4170   -1152448.8            0   -1152448.8 -0.016784523 -0.053399721 0.0013671819 
    4439   -1152448.8            0   -1152448.8 6.024663e-07 1.3712319e-06 -5.9672129e-08 
Loop time of 3.14282 on 104 procs for 269 steps with 288751 atoms

99.9% CPU use with 104 MPI tasks x 1 OpenMP threads

Minimization stats:
  Stopping criterion = energy tolerance
  Energy initial, next-to-last, final = 
     -1152448.84367707  -1152448.84574794  -1152448.84574794
  Force two-norm initial, final = 0.19659863 6.4637125e-06
  Force max component initial, final = 0.080767723 2.3094532e-06
  Final line search alpha, max atom move = 1.0000000 2.3094532e-06
  Iterations, force evaluations = 269 538

MPI task timing breakdown:
Section |  min time  |  avg time  |  max time  |%varavg| %total
---------------------------------------------------------------
Pair    | 0.80652    | 2.2556     | 2.9568     |  40.7 | 71.77
Neigh   | 0          | 0          | 0          |   0.0 |  0.00
Comm    | 0.048232   | 0.5116     | 1.5215     |  59.2 | 16.28
Output  | 0          | 0          | 0          |   0.0 |  0.00
Modify  | 3.1513e-05 | 0.0044366  | 0.0094072  |   3.1 |  0.14
Other   |            | 0.3712     |            |       | 11.81

Nlocal:        2776.45 ave        3959 max           0 min
Histogram: 8 4 4 0 4 12 8 2 28 34
Nghost:        3879.18 ave        5425 max         232 min
Histogram: 8 0 8 0 16 0 8 8 16 40
Neighs:        79213.4 ave      115405 max           0 min
Histogram: 8 4 4 0 10 6 8 8 24 32

Total # of neighbors = 8238192
Ave neighs/atom = 28.530436
Neighbor list builds = 0
Dangerous builds = 0
The dot product: 1.59548865027964e-08
Setting atom values ...
  1 settings made for x
  1 settings made for y
  1 settings made for z
Setting up cg style minimization ...
  Unit style    : metal
  Current step  : 4439
Per MPI rank memory allocation (min/avg/max) = 5.441 | 5.816 | 6.074 Mbytes
Step PotEng KinEng TotEng v_fx v_fy v_fz 
    4439   -1152448.8            0   -1152448.8 -0.022073768 -0.057821376 0.0035634654 
    4649   -1152448.8            0   -1152448.8 -8.651027e-06 -2.645974e-05 1.4118596e-06 
Loop time of 2.45853 on 104 procs for 210 steps with 288751 atoms

99.9% CPU use with 104 MPI tasks x 1 OpenMP threads

Minimization stats:
  Stopping criterion = energy tolerance
  Energy initial, next-to-last, final = 
     -1152448.82763777  -1152448.82979485  -1152448.82979485
  Force two-norm initial, final = 0.20040085 9.8380598e-05
  Force max component initial, final = 0.08469392 3.2053038e-05
  Final line search alpha, max atom move = 1.0000000 3.2053038e-05
  Iterations, force evaluations = 210 420

MPI task timing breakdown:
Section |  min time  |  avg time  |  max time  |%varavg| %total
---------------------------------------------------------------
Pair    | 0.62997    | 1.7698     | 2.2988     |  36.1 | 71.99
Neigh   | 0          | 0          | 0          |   0.0 |  0.00
Comm    | 0.035897   | 0.40288    | 1.2216     |  52.7 | 16.39
Output  | 0          | 0          | 0          |   0.0 |  0.00
Modify  | 2.4827e-05 | 0.0034673  | 0.0073649  |   2.8 |  0.14
Other   |            | 0.2824     |            |       | 11.49

Nlocal:        2776.45 ave        3959 max           0 min
Histogram: 8 4 4 0 4 12 8 2 28 34
Nghost:        3879.16 ave        5425 max         232 min
Histogram: 8 0 8 0 16 0 8 8 16 40
Neighs:        79213.4 ave      115403 max           0 min
Histogram: 8 4 4 0 10 6 8 8 24 32

Total # of neighbors = 8238191
Ave neighs/atom = 28.530433
Neighbor list builds = 0
Dangerous builds = 0
The dot product: -2.802887257734e-07
Setting atom values ...
  1 settings made for x
  1 settings made for y
  1 settings made for z
Setting up cg style minimization ...
  Unit style    : metal
  Current step  : 4649
Per MPI rank memory allocation (min/avg/max) = 5.441 | 5.816 | 6.074 Mbytes
Step PotEng KinEng TotEng v_fx v_fy v_fz 
    4649   -1152448.8            0   -1152448.8 -0.024568872 -0.058323134 0.0053338897 
    4828   -1152448.8            0   -1152448.8 1.4006474e-05 4.140443e-05 -3.249807e-06 
Loop time of 2.08829 on 104 procs for 179 steps with 288751 atoms

99.9% CPU use with 104 MPI tasks x 1 OpenMP threads

Minimization stats:
  Stopping criterion = energy tolerance
  Energy initial, next-to-last, final = 
     -1152448.81042265  -1152448.81244792  -1152448.81244792
  Force two-norm initial, final = 0.20265314 0.00015347471
  Force max component initial, final = 0.088265556 4.1404430e-05
  Final line search alpha, max atom move = 1.0000000 4.1404430e-05
  Iterations, force evaluations = 179 358

MPI task timing breakdown:
Section |  min time  |  avg time  |  max time  |%varavg| %total
---------------------------------------------------------------
Pair    | 0.53803    | 1.5016     | 1.9591     |  33.2 | 71.90
Neigh   | 0          | 0          | 0          |   0.0 |  0.00
Comm    | 0.032499   | 0.34106    | 1.0194     |  48.3 | 16.33
Output  | 0          | 0          | 0          |   0.0 |  0.00
Modify  | 2.1517e-05 | 0.0029574  | 0.0063255  |   2.6 |  0.14
Other   |            | 0.2427     |            |       | 11.62

Nlocal:        2776.45 ave        3958 max           0 min
Histogram: 8 4 4 0 4 12 8 2 28 34
Nghost:        3879.14 ave        5425 max         232 min
Histogram: 8 0 8 0 16 0 8 8 16 40
Neighs:        79213.4 ave      115363 max           0 min
Histogram: 8 4 4 0 10 6 8 8 24 32

Total # of neighbors = 8238192
Ave neighs/atom = 28.530436
Neighbor list builds = 0
Dangerous builds = 0
The dot product: 2.42614554720916e-07
Setting atom values ...
  1 settings made for x
  1 settings made for y
  1 settings made for z
Setting up cg style minimization ...
  Unit style    : metal
  Current step  : 4828
Per MPI rank memory allocation (min/avg/max) = 5.441 | 5.816 | 6.074 Mbytes
Step PotEng KinEng TotEng v_fx v_fy v_fz 
    4828   -1152448.8            0   -1152448.8  -0.02834852 -0.065893779 0.0069448192 
    4997   -1152448.8            0   -1152448.8 2.7404411e-06 1.1631653e-05 -8.6847472e-07 
Loop time of 1.97062 on 104 procs for 169 steps with 288751 atoms

99.9% CPU use with 104 MPI tasks x 1 OpenMP threads

Minimization stats:
  Stopping criterion = energy tolerance
  Energy initial, next-to-last, final = 
     -1152448.79168729  -1152448.79366908  -1152448.79366908
  Force two-norm initial, final = 0.20625321 0.00013817576
  Force max component initial, final = 0.090100004 2.8258426e-05
  Final line search alpha, max atom move = 1.0000000 2.8258426e-05
  Iterations, force evaluations = 169 338

MPI task timing breakdown:
Section |  min time  |  avg time  |  max time  |%varavg| %total
---------------------------------------------------------------
Pair    | 0.50739    | 1.429      | 1.8487     |  32.4 | 72.52
Neigh   | 0          | 0          | 0          |   0.0 |  0.00
Comm    | 0.030028   | 0.32029    | 0.97176    |  48.1 | 16.25
Output  | 0          | 0          | 0          |   0.0 |  0.00
Modify  | 2.0612e-05 | 0.0028004  | 0.0059659  |   2.5 |  0.14
Other   |            | 0.2185     |            |       | 11.09

Nlocal:        2776.45 ave        3957 max           0 min
Histogram: 8 4 4 0 4 12 8 2 28 34
Nghost:        3879.14 ave        5425 max         232 min
Histogram: 8 0 8 0 16 0 8 8 16 40
Neighs:        79213.4 ave      115315 max           0 min
Histogram: 8 4 4 0 10 6 8 8 24 32

Total # of neighbors = 8238190
Ave neighs/atom = 28.530429
Neighbor list builds = 0
Dangerous builds = 0
The dot product: 2.78455862733267e-08
Setting atom values ...
  1 settings made for x
  1 settings made for y
  1 settings made for z
Setting up cg style minimization ...
  Unit style    : metal
  Current step  : 4997
Per MPI rank memory allocation (min/avg/max) = 5.441 | 5.816 | 6.074 Mbytes
Step PotEng KinEng TotEng v_fx v_fy v_fz 
    4997   -1152448.8            0   -1152448.8  -0.03148411 -0.071768666 0.0079912668 
    5000   -1152448.8            0   -1152448.8 -0.00024145513 0.0030746381 -9.3155955e-05 
    5174   -1152448.8            0   -1152448.8 1.1691203e-06 2.8295573e-06 -3.037544e-07 
Loop time of 2.06974 on 104 procs for 177 steps with 288751 atoms

99.9% CPU use with 104 MPI tasks x 1 OpenMP threads

Minimization stats:
  Stopping criterion = energy tolerance
  Energy initial, next-to-last, final = 
     -1152448.77149758  -1152448.77338917  -1152448.77338917
  Force two-norm initial, final = 0.20877186 8.0021595e-05
  Force max component initial, final = 0.090775348 8.8303492e-06
  Final line search alpha, max atom move = 1.0000000 8.8303492e-06
  Iterations, force evaluations = 177 354

MPI task timing breakdown:
Section |  min time  |  avg time  |  max time  |%varavg| %total
---------------------------------------------------------------
Pair    | 0.53413    | 1.4847     | 1.9284     |  33.0 | 71.73
Neigh   | 0          | 0          | 0          |   0.0 |  0.00
Comm    | 0.037158   | 0.33807    | 1.0213     |  48.2 | 16.33
Output  | 0.0001317  | 0.0001394  | 0.00020773 |   0.0 |  0.01
Modify  | 2.1675e-05 | 0.0029286  | 0.0062176  |   2.5 |  0.14
Other   |            | 0.2439     |            |       | 11.78

Nlocal:        2776.45 ave        3957 max           0 min
Histogram: 8 4 4 0 4 12 8 2 28 34
Nghost:        3879.11 ave        5425 max         232 min
Histogram: 8 0 8 0 16 0 8 8 16 40
Neighs:        79213.4 ave      115314 max           0 min
Histogram: 8 4 4 0 10 6 8 8 24 32

Total # of neighbors = 8238189
Ave neighs/atom = 28.530426
Neighbor list builds = 0
Dangerous builds = 0
The dot product: -4.41491327881318e-09
Setting atom values ...
  1 settings made for x
  1 settings made for y
  1 settings made for z
Setting up cg style minimization ...
  Unit style    : metal
  Current step  : 5174
Per MPI rank memory allocation (min/avg/max) = 5.441 | 5.816 | 6.074 Mbytes
Step PotEng KinEng TotEng v_fx v_fy v_fz 
    5174   -1152448.7            0   -1152448.7 -0.035141327 -0.077516741 0.0085585786 
    5320   -1152448.8            0   -1152448.8 -2.1241821e-05 -4.9397561e-05 5.2789272e-06 
Loop time of 1.69521 on 104 procs for 146 steps with 288751 atoms

99.9% CPU use with 104 MPI tasks x 1 OpenMP threads

Minimization stats:
  Stopping criterion = energy tolerance
  Energy initial, next-to-last, final = 
     -1152448.74971795  -1152448.75158076  -1152448.75158076
  Force two-norm initial, final = 0.21074686 0.00022097672
  Force max component initial, final = 0.090247707 4.9397561e-05
  Final line search alpha, max atom move = 1.0000000 4.9397561e-05
  Iterations, force evaluations = 146 292

MPI task timing breakdown:
Section |  min time  |  avg time  |  max time  |%varavg| %total
---------------------------------------------------------------
Pair    | 0.43795    | 1.2321     | 1.5933     |  30.0 | 72.68
Neigh   | 0          | 0          | 0          |   0.0 |  0.00
Comm    | 0.025127   | 0.27879    | 0.84823    |  44.1 | 16.45
Output  | 0          | 0          | 0          |   0.0 |  0.00
Modify  | 1.7164e-05 | 0.0024154  | 0.0051262  |   2.3 |  0.14
Other   |            | 0.1819     |            |       | 10.73

Nlocal:        2776.45 ave        3957 max           0 min
Histogram: 8 4 4 0 4 12 8 2 28 34
Nghost:        3879.12 ave        5424 max         232 min
Histogram: 8 0 8 0 16 0 8 8 16 40
Neighs:        79213.3 ave      115314 max           0 min
Histogram: 8 4 4 0 10 6 8 8 24 32

Total # of neighbors = 8238188
Ave neighs/atom = 28.530422
Neighbor list builds = 0
Dangerous builds = 0
The dot product: 2.02956494532543e-07
Setting atom values ...
  1 settings made for x
  1 settings made for y
  1 settings made for z
Setting up cg style minimization ...
  Unit style    : metal
  Current step  : 5320
Per MPI rank memory allocation (min/avg/max) = 5.441 | 5.816 | 6.074 Mbytes
Step PotEng KinEng TotEng v_fx v_fy v_fz 
    5320   -1152448.7            0   -1152448.7 -0.037339673 -0.081193966 0.0084027646 
    5485   -1152448.7            0   -1152448.7 7.7239938e-06 1.8665153e-05 -1.8070405e-06 
Loop time of 1.9343 on 104 procs for 165 steps with 288751 atoms

99.9% CPU use with 104 MPI tasks x 1 OpenMP threads

Minimization stats:
  Stopping criterion = energy tolerance
  Energy initial, next-to-last, final = 
     -1152448.72641089  -1152448.72825187  -1152448.72825187
  Force two-norm initial, final = 0.21140834 0.00010202731
  Force max component initial, final = 0.088930676 1.8665153e-05
  Final line search alpha, max atom move = 1.0000000 1.8665153e-05
  Iterations, force evaluations = 165 330

MPI task timing breakdown:
Section |  min time  |  avg time  |  max time  |%varavg| %total
---------------------------------------------------------------
Pair    | 0.4948     | 1.3886     | 1.8111     |  32.0 | 71.79
Neigh   | 0          | 0          | 0          |   0.0 |  0.00
Comm    | 0.029358   | 0.31513    | 0.93608    |  46.5 | 16.29
Output  | 0          | 0          | 0          |   0.0 |  0.00
Modify  | 2.0433e-05 | 0.0027249  | 0.005797   |   2.5 |  0.14
Other   |            | 0.2279     |            |       | 11.78

Nlocal:        2776.45 ave        3957 max           0 min
Histogram: 8 4 4 0 4 12 8 2 28 34
Nghost:        3879.12 ave        5424 max         232 min
Histogram: 8 0 8 0 16 0 8 8 16 40
Neighs:        79213.3 ave      115303 max           0 min
Histogram: 8 4 4 0 10 6 8 8 24 32

Total # of neighbors = 8238186
Ave neighs/atom = 28.530415
Neighbor list builds = 0
Dangerous builds = 0
The dot product: -1.0451537880882e-07
Setting atom values ...
  1 settings made for x
  1 settings made for y
  1 settings made for z
Setting up cg style minimization ...
  Unit style    : metal
  Current step  : 5485
Per MPI rank memory allocation (min/avg/max) = 5.441 | 5.816 | 6.074 Mbytes
Step PotEng KinEng TotEng v_fx v_fy v_fz 
    5485   -1152448.7            0   -1152448.7 -0.037925328 -0.083371067 0.0076969283 
    5709   -1152448.7            0   -1152448.7 2.5927101e-06 5.9668964e-06 -5.3423775e-07 
Loop time of 2.6021 on 104 procs for 224 steps with 288751 atoms

99.9% CPU use with 104 MPI tasks x 1 OpenMP threads

Minimization stats:
  Stopping criterion = energy tolerance
  Energy initial, next-to-last, final = 
     -1152448.70160546  -1152448.70341772  -1152448.70341772
  Force two-norm initial, final = 0.2109147 2.3086903e-05
  Force max component initial, final = 0.086966634 6.9278704e-06
  Final line search alpha, max atom move = 1.0000000 6.9278704e-06
  Iterations, force evaluations = 224 448

MPI task timing breakdown:
Section |  min time  |  avg time  |  max time  |%varavg| %total
---------------------------------------------------------------
Pair    | 0.67136    | 1.8856     | 2.4514     |  37.1 | 72.46
Neigh   | 0          | 0          | 0          |   0.0 |  0.00
Comm    | 0.040906   | 0.43143    | 1.3107     |  54.5 | 16.58
Output  | 0          | 0          | 0          |   0.0 |  0.00
Modify  | 2.6468e-05 | 0.0036969  | 0.0079011  |   2.9 |  0.14
Other   |            | 0.2814     |            |       | 10.81

Nlocal:        2776.45 ave        3956 max           0 min
Histogram: 8 4 4 0 4 12 8 0 30 34
Nghost:        3879.14 ave        5424 max         232 min
Histogram: 8 0 8 0 16 0 8 8 16 40
Neighs:        79213.3 ave      115271 max           0 min
Histogram: 8 4 4 0 10 6 8 8 24 32

Total # of neighbors = 8238188
Ave neighs/atom = 28.530422
Neighbor list builds = 0
Dangerous builds = 0
The dot product: -3.99977737847786e-08
Setting atom values ...
  1 settings made for x
  1 settings made for y
  1 settings made for z
Setting up cg style minimization ...
  Unit style    : metal
  Current step  : 5709
Per MPI rank memory allocation (min/avg/max) = 5.441 | 5.816 | 6.074 Mbytes
Step PotEng KinEng TotEng v_fx v_fy v_fz 
    5709   -1152448.7            0   -1152448.7 -0.037055543 -0.084809322 0.0066298078 
    5961   -1152448.7            0   -1152448.7 -1.0269383e-06 -2.4916158e-06 1.868686e-07 
Loop time of 2.91872 on 104 procs for 252 steps with 288751 atoms

99.9% CPU use with 104 MPI tasks x 1 OpenMP threads

Minimization stats:
  Stopping criterion = energy tolerance
  Energy initial, next-to-last, final = 
     -1152448.67532283  -1152448.67709983  -1152448.67709983
  Force two-norm initial, final = 0.20981885 8.6825215e-06
  Force max component initial, final = 0.084809322 2.6160309e-06
  Final line search alpha, max atom move = 1.0000000 2.6160309e-06
  Iterations, force evaluations = 252 504

MPI task timing breakdown:
Section |  min time  |  avg time  |  max time  |%varavg| %total
---------------------------------------------------------------
Pair    | 0.7552     | 2.1139     | 2.7534     |  39.4 | 72.43
Neigh   | 0          | 0          | 0          |   0.0 |  0.00
Comm    | 0.044387   | 0.47832    | 1.4415     |  58.0 | 16.39
Output  | 0          | 0          | 0          |   0.0 |  0.00
Modify  | 2.916e-05  | 0.0041621  | 0.0088383  |   3.0 |  0.14
Other   |            | 0.3223     |            |       | 11.04

Nlocal:        2776.45 ave        3956 max           0 min
Histogram: 8 4 4 0 4 12 8 2 28 34
Nghost:        3879.15 ave        5424 max         232 min
Histogram: 8 0 8 0 16 0 8 8 16 40
Neighs:        79213.3 ave      115269 max           0 min
Histogram: 8 4 4 0 10 6 8 8 24 32

Total # of neighbors = 8238186
Ave neighs/atom = 28.530415
Neighbor list builds = 0
Dangerous builds = 0
The dot product: 1.81628051204288e-08
Setting atom values ...
  1 settings made for x
  1 settings made for y
  1 settings made for z
Setting up cg style minimization ...
  Unit style    : metal
  Current step  : 5961
Per MPI rank memory allocation (min/avg/max) = 5.441 | 5.816 | 6.074 Mbytes
Step PotEng KinEng TotEng v_fx v_fy v_fz 
    5961   -1152448.6            0   -1152448.6 -0.034672966 -0.085722596 0.0053002073 
    6000   -1152448.6            0   -1152448.6 -0.00029897766 -0.00069634548 4.5125752e-05 
    6118   -1152448.6            0   -1152448.6 5.0714237e-07 -6.9584259e-07 -5.1261327e-08 
Loop time of 1.82493 on 104 procs for 157 steps with 288751 atoms

99.9% CPU use with 104 MPI tasks x 1 OpenMP threads

Minimization stats:
  Stopping criterion = energy tolerance
  Energy initial, next-to-last, final = 
     -1152448.64759023  -1152448.64932588  -1152448.64932588
  Force two-norm initial, final = 0.20826253 0.00015165737
  Force max component initial, final = 0.085722596 5.5504935e-06
  Final line search alpha, max atom move = 1.0000000 5.5504935e-06
  Iterations, force evaluations = 157 314

MPI task timing breakdown:
Section |  min time  |  avg time  |  max time  |%varavg| %total
---------------------------------------------------------------
Pair    | 0.47107    | 1.3216     | 1.7157     |  31.0 | 72.42
Neigh   | 0          | 0          | 0          |   0.0 |  0.00
Comm    | 0.026736   | 0.30021    | 0.90964    |  45.8 | 16.45
Output  | 0.00015283 | 0.00016156 | 0.00028271 |   0.0 |  0.01
Modify  | 1.873e-05  | 0.0025928  | 0.0055341  |   2.4 |  0.14
Other   |            | 0.2004     |            |       | 10.98

Nlocal:        2776.45 ave        3956 max           0 min
Histogram: 8 4 4 0 4 12 8 2 28 34
Nghost:        3879.16 ave        5424 max         232 min
Histogram: 8 0 8 0 16 0 8 8 16 40
Neighs:        79213.3 ave      115271 max           0 min
Histogram: 8 4 4 0 10 6 8 8 24 32

Total # of neighbors = 8238188
Ave neighs/atom = 28.530422
Neighbor list builds = 0
Dangerous builds = 0
The dot product: 1.49535964273514e-09
Setting atom values ...
  1 settings made for x
  1 settings made for y
  1 settings made for z
Setting up cg style minimization ...
  Unit style    : metal
  Current step  : 6118
Per MPI rank memory allocation (min/avg/max) = 5.441 | 5.816 | 6.074 Mbytes
Step PotEng KinEng TotEng v_fx v_fy v_fz 
    6118   -1152448.6            0   -1152448.6 -0.030573807 -0.086299083 0.0037626993 
    6269   -1152448.6            0   -1152448.6 6.7939578e-06 1.7207198e-05 -8.2805128e-07 
Loop time of 1.74677 on 104 procs for 151 steps with 288751 atoms

99.9% CPU use with 104 MPI tasks x 1 OpenMP threads

Minimization stats:
  Stopping criterion = energy tolerance
  Energy initial, next-to-last, final = 
     -1152448.61843971  -1152448.62013138  -1152448.62013138
  Force two-norm initial, final = 0.20642877 0.0002020288
  Force max component initial, final = 0.086299083 6.6610669e-05
  Final line search alpha, max atom move = 1.0000000 6.6610669e-05
  Iterations, force evaluations = 151 302

MPI task timing breakdown:
Section |  min time  |  avg time  |  max time  |%varavg| %total
---------------------------------------------------------------
Pair    | 0.45347    | 1.2644     | 1.6464     |  30.4 | 72.38
Neigh   | 0          | 0          | 0          |   0.0 |  0.00
Comm    | 0.026579   | 0.28572    | 0.8586     |  44.6 | 16.36
Output  | 0          | 0          | 0          |   0.0 |  0.00
Modify  | 1.8382e-05 | 0.0024945  | 0.0053142  |   2.4 |  0.14
Other   |            | 0.1942     |            |       | 11.12

Nlocal:        2776.45 ave        3956 max           0 min
Histogram: 8 4 4 0 4 12 8 2 28 34
Nghost:        3879.14 ave        5424 max         232 min
Histogram: 8 0 8 0 16 0 8 8 16 40
Neighs:        79213.3 ave      115271 max           0 min
Histogram: 8 4 4 0 10 6 8 8 24 32

Total # of neighbors = 8238188
Ave neighs/atom = 28.530422
Neighbor list builds = 0
Dangerous builds = 0
The dot product: -1.40690953623037e-07
Setting atom values ...
  1 settings made for x
  1 settings made for y
  1 settings made for z
Setting up cg style minimization ...
  Unit style    : metal
  Current step  : 6269
Per MPI rank memory allocation (min/avg/max) = 5.441 | 5.816 | 6.074 Mbytes
Step PotEng KinEng TotEng v_fx v_fy v_fz 
    6269   -1152448.6            0   -1152448.6 -0.024809928 -0.086541224 0.0020738248 
    6445   -1152448.6            0   -1152448.6 7.335818e-06 1.9039709e-05 -6.5245101e-07 
Loop time of 2.05278 on 104 procs for 176 steps with 288751 atoms

99.9% CPU use with 104 MPI tasks x 1 OpenMP threads

Minimization stats:
  Stopping criterion = energy tolerance
  Energy initial, next-to-last, final = 
     -1152448.58791671  -1152448.58956552  -1152448.58956552
  Force two-norm initial, final = 0.20446276 8.5178157e-05
  Force max component initial, final = 0.086541224 2.3338803e-05
  Final line search alpha, max atom move = 1.0000000 2.3338803e-05
  Iterations, force evaluations = 176 352

MPI task timing breakdown:
Section |  min time  |  avg time  |  max time  |%varavg| %total
---------------------------------------------------------------
Pair    | 0.52803    | 1.4884     | 1.9257     |  33.1 | 72.50
Neigh   | 0          | 0          | 0          |   0.0 |  0.00
Comm    | 0.031828   | 0.33901    | 1.034      |  48.6 | 16.51
Output  | 0          | 0          | 0          |   0.0 |  0.00
Modify  | 2.0955e-05 | 0.0029067  | 0.0061823  |   2.5 |  0.14
Other   |            | 0.2225     |            |       | 10.84

Nlocal:        2776.45 ave        3956 max           0 min
Histogram: 8 4 4 0 4 12 8 2 28 34
Nghost:        3879.11 ave        5424 max         232 min
Histogram: 8 0 8 0 16 0 8 8 16 40
Neighs:        79213.3 ave      115281 max           0 min
Histogram: 8 4 4 0 10 6 8 8 24 32

Total # of neighbors = 8238187
Ave neighs/atom = 28.530419
Neighbor list builds = 0
Dangerous builds = 0
The dot product: -1.64548899653946e-07
Setting atom values ...
  1 settings made for x
  1 settings made for y
  1 settings made for z
Setting up cg style minimization ...
  Unit style    : metal
  Current step  : 6445
Per MPI rank memory allocation (min/avg/max) = 5.441 | 5.816 | 6.074 Mbytes
Step PotEng KinEng TotEng v_fx v_fy v_fz 
    6445   -1152448.6            0   -1152448.6 -0.017545571 -0.086449658 0.0002566268 
    6649   -1152448.6            0   -1152448.6 -5.5207896e-06 -1.0547201e-05 3.6736023e-07 
Loop time of 2.36632 on 104 procs for 204 steps with 288751 atoms

99.9% CPU use with 104 MPI tasks x 1 OpenMP threads

Minimization stats:
  Stopping criterion = energy tolerance
  Energy initial, next-to-last, final = 
     -1152448.55612504   -1152448.5577393   -1152448.5577393
  Force two-norm initial, final = 0.20239338 5.4081018e-05
  Force max component initial, final = 0.087711551 1.0547201e-05
  Final line search alpha, max atom move = 1.0000000 1.0547201e-05
  Iterations, force evaluations = 204 408

MPI task timing breakdown:
Section |  min time  |  avg time  |  max time  |%varavg| %total
---------------------------------------------------------------
Pair    | 0.61227    | 1.7091     | 2.2266     |  35.4 | 72.23
Neigh   | 0          | 0          | 0          |   0.0 |  0.00
Comm    | 0.038106   | 0.38569    | 1.1585     |  52.0 | 16.30
Output  | 0          | 0          | 0          |   0.0 |  0.00
Modify  | 2.3543e-05 | 0.0033657  | 0.0071642  |   2.7 |  0.14
Other   |            | 0.2682     |            |       | 11.33

Nlocal:        2776.45 ave        3955 max           0 min
Histogram: 8 4 4 0 4 12 8 2 28 34
Nghost:        3879.04 ave        5424 max         232 min
Histogram: 8 0 8 0 16 0 8 8 16 40
Neighs:        79213.4 ave      115250 max           0 min
Histogram: 8 4 4 0 10 6 8 8 24 32

Total # of neighbors = 8238192
Ave neighs/atom = 28.530436
Neighbor list builds = 0
Dangerous builds = 0
The dot product: 1.04400982526258e-07
Setting atom values ...
  1 settings made for x
  1 settings made for y
  1 settings made for z
Setting up cg style minimization ...
  Unit style    : metal
  Current step  : 6649
Per MPI rank memory allocation (min/avg/max) = 5.441 | 5.816 | 6.074 Mbytes
Step PotEng KinEng TotEng v_fx v_fy v_fz 
    6649   -1152448.5            0   -1152448.5 0.00040822226 -0.091811809 -0.0029304353 
    6933   -1152448.6            0   -1152448.6 7.1632595e-06 2.1095452e-05 -4.2964419e-08 
Loop time of 3.30916 on 104 procs for 284 steps with 288751 atoms

99.9% CPU use with 104 MPI tasks x 1 OpenMP threads

Minimization stats:
  Stopping criterion = energy tolerance
  Energy initial, next-to-last, final = 
     -1152448.52335997   -1152448.6139143   -1152448.6139143
  Force two-norm initial, final = 0.20356915 7.1401844e-05
  Force max component initial, final = 0.091811809 2.1095452e-05
  Final line search alpha, max atom move = 1.0000000 2.1095452e-05
  Iterations, force evaluations = 284 567

MPI task timing breakdown:
Section |  min time  |  avg time  |  max time  |%varavg| %total
---------------------------------------------------------------
Pair    | 0.86213    | 2.3958     | 3.0954     |  41.6 | 72.40
Neigh   | 3.0452e-05 | 0.0088064  | 0.01277    |   3.9 |  0.27
Comm    | 0.049224   | 0.5411     | 1.6433     |  61.6 | 16.35
Output  | 0          | 0          | 0          |   0.0 |  0.00
Modify  | 3.2926e-05 | 0.004681   | 0.0099335  |   3.2 |  0.14
Other   |            | 0.3588     |            |       | 10.84

Nlocal:        2776.45 ave        3956 max           0 min
Histogram: 8 4 4 0 4 12 8 2 28 34
Nghost:        3879.03 ave        5424 max         232 min
Histogram: 8 0 8 0 16 0 8 8 16 40
Neighs:        79213.4 ave      115311 max           0 min
Histogram: 8 4 4 0 10 6 8 8 24 32

Total # of neighbors = 8238196
Ave neighs/atom = 28.530450
Neighbor list builds = 3
Dangerous builds = 0
The dot product: -2.2499949747213e-06
Setting atom values ...
  1 settings made for x
  1 settings made for y
  1 settings made for z
Setting up cg style minimization ...
  Unit style    : metal
  Current step  : 6933
Per MPI rank memory allocation (min/avg/max) = 5.441 | 5.816 | 6.074 Mbytes
Step PotEng KinEng TotEng v_fx v_fy v_fz 
    6933   -1152448.6            0   -1152448.6  0.079200358  -0.14211387 -0.084805037 
    7000     -1152449            0     -1152449 -0.013586834 0.0047261957 0.0081724203 
    7209     -1152449            0     -1152449 5.7224023e-05 -1.803457e-05 -3.3813055e-05 
Loop time of 3.24155 on 104 procs for 276 steps with 288751 atoms

99.9% CPU use with 104 MPI tasks x 1 OpenMP threads

Minimization stats:
  Stopping criterion = energy tolerance
  Energy initial, next-to-last, final = 
     -1152448.60728216  -1152448.99928886  -1152448.99928886
  Force two-norm initial, final = 0.23127016 0.00024952513
  Force max component initial, final = 0.14211387 6.7170120e-05
  Final line search alpha, max atom move = 1.0000000 6.7170120e-05
  Iterations, force evaluations = 276 550

MPI task timing breakdown:
Section |  min time  |  avg time  |  max time  |%varavg| %total
---------------------------------------------------------------
Pair    | 0.85933    | 2.3167     | 3.0142     |  40.5 | 71.47
Neigh   | 8.0785e-05 | 0.023523   | 0.034102   |   6.3 |  0.73
Comm    | 0.04979    | 0.52682    | 1.5711     |  59.9 | 16.25
Output  | 0.00015212 | 0.00016307 | 0.00031313 |   0.0 |  0.01
Modify  | 3.3585e-05 | 0.0045448  | 0.0096902  |   3.2 |  0.14
Other   |            | 0.3698     |            |       | 11.41

Nlocal:        2776.45 ave        3960 max           0 min
Histogram: 8 4 4 0 4 12 8 2 28 34
Nghost:        3879.10 ave        5425 max         232 min
Histogram: 8 0 8 0 16 0 8 8 16 40
Neighs:        79213.7 ave      115432 max           0 min
Histogram: 8 4 4 0 10 6 8 8 24 32

Total # of neighbors = 8238221
Ave neighs/atom = 28.530537
Neighbor list builds = 8
Dangerous builds = 0
The dot product: 2.00736171591796e-05
Setting atom values ...
  1 settings made for x
  1 settings made for y
  1 settings made for z
Setting up cg style minimization ...
  Unit style    : metal
  Current step  : 7209
Per MPI rank memory allocation (min/avg/max) = 5.441 | 5.816 | 6.074 Mbytes
Step PotEng KinEng TotEng v_fx v_fy v_fz 
    7209     -1152449            0     -1152449   0.19853406   0.56175026   0.80930718 
    7479   -1152449.2            0   -1152449.2 -3.6550497e-06 4.8913692e-06 1.1319461e-05 
Loop time of 3.16055 on 104 procs for 270 steps with 288751 atoms

99.9% CPU use with 104 MPI tasks x 1 OpenMP threads

Minimization stats:
  Stopping criterion = energy tolerance
  Energy initial, next-to-last, final = 
      -1152449.0228564  -1152449.18273375  -1152449.18273375
  Force two-norm initial, final = 1.0166327 0.00010752402
  Force max component initial, final = 0.80930718 2.9771986e-05
  Final line search alpha, max atom move = 1.0000000 2.9771986e-05
  Iterations, force evaluations = 270 540

MPI task timing breakdown:
Section |  min time  |  avg time  |  max time  |%varavg| %total
---------------------------------------------------------------
Pair    | 0.81825    | 2.2727     | 2.9633     |  40.5 | 71.91
Neigh   | 2.0691e-05 | 0.0058766  | 0.0085227  |   3.2 |  0.19
Comm    | 0.049427   | 0.51276    | 1.5419     |  59.9 | 16.22
Output  | 0          | 0          | 0          |   0.0 |  0.00
Modify  | 3.2204e-05 | 0.0044589  | 0.0094775  |   3.2 |  0.14
Other   |            | 0.3647     |            |       | 11.54

Nlocal:        2776.45 ave        3961 max           0 min
Histogram: 8 4 4 0 6 10 8 4 26 34
Nghost:        3879.06 ave        5426 max         232 min
Histogram: 8 0 8 0 16 0 8 8 16 40
Neighs:        79213.5 ave      115476 max           0 min
Histogram: 8 4 4 0 10 6 8 8 24 32

Total # of neighbors = 8238205
Ave neighs/atom = 28.530481
Neighbor list builds = 2
Dangerous builds = 0
The dot product: 3.15866613561496e-06
Setting atom values ...
  1 settings made for x
  1 settings made for y
  1 settings made for z
Setting up cg style minimization ...
  Unit style    : metal
  Current step  : 7479
Per MPI rank memory allocation (min/avg/max) = 5.441 | 5.816 | 6.074 Mbytes
Step PotEng KinEng TotEng v_fx v_fy v_fz 
    7479   -1152449.2            0   -1152449.2   -0.1037703   -0.3570128  -0.24566751 
    7742   -1152449.2            0   -1152449.2 -4.7978452e-06 -1.6739546e-06 1.8490787e-06 
Loop time of 3.07083 on 104 procs for 263 steps with 288751 atoms

99.9% CPU use with 104 MPI tasks x 1 OpenMP threads

Minimization stats:
  Stopping criterion = energy tolerance
  Energy initial, next-to-last, final = 
     -1152449.20665138    -1152449.232445    -1152449.232445
  Force two-norm initial, final = 0.47638576 3.4164798e-05
  Force max component initial, final = 0.3570128 7.3910290e-06
  Final line search alpha, max atom move = 1.0000000 7.3910290e-06
  Iterations, force evaluations = 263 526

MPI task timing breakdown:
Section |  min time  |  avg time  |  max time  |%varavg| %total
---------------------------------------------------------------
Pair    | 0.792      | 2.2064     | 2.8821     |  40.3 | 71.85
Neigh   | 1.0192e-05 | 0.0029334  | 0.0042779  |   2.2 |  0.10
Comm    | 0.056626   | 0.50284    | 1.5145     |  58.8 | 16.37
Output  | 0          | 0          | 0          |   0.0 |  0.00
Modify  | 3.0922e-05 | 0.0043437  | 0.0092321  |   3.1 |  0.14
Other   |            | 0.3543     |            |       | 11.54

Nlocal:        2776.45 ave        3961 max           0 min
Histogram: 8 4 4 0 6 10 8 4 26 34
Nghost:        3879.06 ave        5426 max         232 min
Histogram: 8 0 8 0 16 0 8 8 16 40
Neighs:        79213.4 ave      115452 max           0 min
Histogram: 8 4 4 0 10 6 8 8 24 32

Total # of neighbors = 8238197
Ave neighs/atom = 28.530454
Neighbor list builds = 1
Dangerous builds = 0
The dot product: 2.38838407900396e-07
Setting atom values ...
  1 settings made for x
  1 settings made for y
  1 settings made for z
Setting up cg style minimization ...
  Unit style    : metal
  Current step  : 7742
Per MPI rank memory allocation (min/avg/max) = 5.441 | 5.816 | 6.074 Mbytes
Step PotEng KinEng TotEng v_fx v_fy v_fz 
    7742   -1152449.3            0   -1152449.3  0.039180074  0.071798138  0.052528922 
    7940   -1152449.3            0   -1152449.3 5.0752264e-05 3.3409815e-06 -3.1776819e-05 
Loop time of 2.30369 on 104 procs for 198 steps with 288751 atoms

99.9% CPU use with 104 MPI tasks x 1 OpenMP threads

Minimization stats:
  Stopping criterion = energy tolerance
  Energy initial, next-to-last, final = 
     -1152449.25385805  -1152449.25827044  -1152449.25827044
  Force two-norm initial, final = 0.18603629 0.00020764345
  Force max component initial, final = 0.088032623 5.0752264e-05
  Final line search alpha, max atom move = 1.0000000 5.0752264e-05
  Iterations, force evaluations = 198 396

MPI task timing breakdown:
Section |  min time  |  avg time  |  max time  |%varavg| %total
---------------------------------------------------------------
Pair    | 0.59402    | 1.6705     | 2.1671     |  35.1 | 72.51
Neigh   | 0          | 0          | 0          |   0.0 |  0.00
Comm    | 0.033902   | 0.38235    | 1.1599     |  51.3 | 16.60
Output  | 0          | 0          | 0          |   0.0 |  0.00
Modify  | 2.3137e-05 | 0.0032642  | 0.0069525  |   2.7 |  0.14
Other   |            | 0.2476     |            |       | 10.75

Nlocal:        2776.45 ave        3961 max           0 min
Histogram: 8 4 4 0 6 10 8 4 26 34
Nghost:        3879.03 ave        5425 max         232 min
Histogram: 8 0 8 0 16 0 8 8 16 40
Neighs:        79213.5 ave      115501 max           0 min
Histogram: 8 4 4 0 10 6 8 8 24 32

Total # of neighbors = 8238205
Ave neighs/atom = 28.530481
Neighbor list builds = 0
Dangerous builds = 0
The dot product: 3.27549935775031e-07
Setting atom values ...
  1 settings made for x
  1 settings made for y
  1 settings made for z
Setting up cg style minimization ...
  Unit style    : metal
  Current step  : 7940
Per MPI rank memory allocation (min/avg/max) = 5.441 | 5.816 | 6.074 Mbytes
Step PotEng KinEng TotEng v_fx v_fy v_fz 
    7940   -1152449.3            0   -1152449.3 -0.025652321 -0.058893905 -0.042850336 
    8000   -1152449.3            0   -1152449.3 0.00033238172 -7.4256092e-05 -0.0003105606 
[...]
Histogram: 8 4 4 0 4 12 8 0 28 36
Nghost:        3878.32 ave        5425 max         232 min
Histogram: 8 0 8 0 16 0 8 8 16 40
Neighs:        79213.4 ave      114580 max           0 min
Histogram: 8 4 4 0 8 8 8 6 22 36

Total # of neighbors = 8238194
Ave neighs/atom = 28.530443
Neighbor list builds = 0
Dangerous builds = 0
The dot product: 2.90274342488552e-08
Setting atom values ...
  1 settings made for x
  1 settings made for y
  1 settings made for z
Setting up cg style minimization ...
  Unit style    : metal
  Current step  : 28255
Per MPI rank memory allocation (min/avg/max) = 5.441 | 5.816 | 6.074 Mbytes
Step PotEng KinEng TotEng v_fx v_fy v_fz 
   28255   -1152449.4            0   -1152449.4 -0.027200109  0.013797906  0.030706187 
   28428   -1152449.4            0   -1152449.4 -3.5589387e-05 -2.9868143e-05 -1.2199131e-05 
Loop time of 2.02068 on 104 procs for 173 steps with 288751 atoms

99.9% CPU use with 104 MPI tasks x 1 OpenMP threads

Minimization stats:
  Stopping criterion = energy tolerance
  Energy initial, next-to-last, final = 
       -1152449.411793  -1152449.41329545  -1152449.41329545
  Force two-norm initial, final = 0.17760205 0.00020322912
  Force max component initial, final = 0.081744028 3.7074777e-05
  Final line search alpha, max atom move = 1.0000000 3.7074777e-05
  Iterations, force evaluations = 173 346

MPI task timing breakdown:
Section |  min time  |  avg time  |  max time  |%varavg| %total
---------------------------------------------------------------
Pair    | 0.52252    | 1.4524     | 1.8974     |  32.7 | 71.88
Neigh   | 0          | 0          | 0          |   0.0 |  0.00
Comm    | 0.036784   | 0.33332    | 0.99324    |  47.6 | 16.50
Output  | 0          | 0          | 0          |   0.0 |  0.00
Modify  | 2.0793e-05 | 0.0028696  | 0.0061345  |   2.5 |  0.14
Other   |            | 0.2321     |            |       | 11.49

Nlocal:        2776.45 ave        3930 max           0 min
Histogram: 8 4 4 0 4 12 8 0 28 36
Nghost:        3878.32 ave        5425 max         232 min
Histogram: 8 0 8 0 16 0 8 8 16 40
Neighs:        79213.4 ave      114580 max           0 min
Histogram: 8 4 4 0 8 8 8 6 22 36

Total # of neighbors = 8238197
Ave neighs/atom = 28.530454
Neighbor list builds = 0
Dangerous builds = 0
The dot product: 2.84345208718869e-08
Setting atom values ...
  1 settings made for x
  1 settings made for y
  1 settings made for z
Setting up cg style minimization ...
  Unit style    : metal
  Current step  : 28428
Per MPI rank memory allocation (min/avg/max) = 5.441 | 5.816 | 6.074 Mbytes
Step PotEng KinEng TotEng v_fx v_fy v_fz 
   28428   -1152449.4            0   -1152449.4 -0.023443898  0.020024861  0.035386742 
   28614   -1152449.4            0   -1152449.4 -1.1688253e-05 1.5519348e-05 2.3695931e-05 
Loop time of 2.17233 on 104 procs for 186 steps with 288751 atoms

99.9% CPU use with 104 MPI tasks x 1 OpenMP threads

Minimization stats:
  Stopping criterion = energy tolerance
  Energy initial, next-to-last, final = 
     -1152449.41332336  -1152449.41485031  -1152449.41485031
  Force two-norm initial, final = 0.17864015 0.00014149299
  Force max component initial, final = 0.08115518 2.7450785e-05
  Final line search alpha, max atom move = 1.0000000 2.7450785e-05
  Iterations, force evaluations = 186 372

MPI task timing breakdown:
Section |  min time  |  avg time  |  max time  |%varavg| %total
---------------------------------------------------------------
Pair    | 0.56357    | 1.5658     | 2.0416     |  33.9 | 72.08
Neigh   | 0          | 0          | 0          |   0.0 |  0.00
Comm    | 0.033656   | 0.35817    | 1.0598     |  49.4 | 16.49
Output  | 0          | 0          | 0          |   0.0 |  0.00
Modify  | 2.1261e-05 | 0.0030808  | 0.0066083  |   2.6 |  0.14
Other   |            | 0.2453     |            |       | 11.29

Nlocal:        2776.45 ave        3930 max           0 min
Histogram: 8 4 4 0 4 12 8 0 28 36
Nghost:        3878.32 ave        5425 max         232 min
Histogram: 8 0 8 0 16 0 8 8 16 40
Neighs:        79213.4 ave      114583 max           0 min
Histogram: 8 4 4 0 8 8 8 6 22 36

Total # of neighbors = 8238197
Ave neighs/atom = 28.530454
Neighbor list builds = 0
Dangerous builds = 0
The dot product: 5.60137842246509e-08
Setting atom values ...
  1 settings made for x
  1 settings made for y
  1 settings made for z
Setting up cg style minimization ...
  Unit style    : metal
  Current step  : 28614
Per MPI rank memory allocation (min/avg/max) = 5.441 | 5.816 | 6.074 Mbytes
Step PotEng KinEng TotEng v_fx v_fy v_fz 
   28614   -1152449.4            0   -1152449.4 -0.020423034  0.027513091  0.041888636 
   28809   -1152449.4            0   -1152449.4 -7.5023734e-08 9.3748426e-07 1.069625e-06 
Loop time of 2.27307 on 104 procs for 195 steps with 288751 atoms

99.9% CPU use with 104 MPI tasks x 1 OpenMP threads

Minimization stats:
  Stopping criterion = energy tolerance
  Energy initial, next-to-last, final = 
     -1152449.41305162  -1152449.41460853  -1152449.41460853
  Force two-norm initial, final = 0.18087455 0.00011215168
  Force max component initial, final = 0.080415904 2.1847572e-05
  Final line search alpha, max atom move = 1.0000000 2.1847572e-05
  Iterations, force evaluations = 195 390

MPI task timing breakdown:
Section |  min time  |  avg time  |  max time  |%varavg| %total
---------------------------------------------------------------
Pair    | 0.58774    | 1.6376     | 2.1432     |  34.7 | 72.04
Neigh   | 0          | 0          | 0          |   0.0 |  0.00
Comm    | 0.041096   | 0.3741     | 1.1184     |  50.6 | 16.46
Output  | 0          | 0          | 0          |   0.0 |  0.00
Modify  | 2.2412e-05 | 0.0032337  | 0.0069328  |   2.7 |  0.14
Other   |            | 0.2581     |            |       | 11.36

Nlocal:        2776.45 ave        3930 max           0 min
Histogram: 8 4 4 0 4 12 8 0 28 36
Nghost:        3878.34 ave        5425 max         232 min
Histogram: 8 0 8 0 16 0 8 8 16 40
Neighs:        79213.5 ave      114581 max           0 min
Histogram: 8 4 4 0 8 8 8 6 22 36

Total # of neighbors = 8238199
Ave neighs/atom = 28.530461
Neighbor list builds = 0
Dangerous builds = 0
The dot product: 5.04514072596336e-09
Setting atom values ...
  1 settings made for x
  1 settings made for y
  1 settings made for z
Setting up cg style minimization ...
  Unit style    : metal
  Current step  : 28809
Per MPI rank memory allocation (min/avg/max) = 5.441 | 5.816 | 6.074 Mbytes
Step PotEng KinEng TotEng v_fx v_fy v_fz 
   28809   -1152449.4            0   -1152449.4 -0.020734989  0.028890418  0.043671963 
   29000   -1152449.4            0   -1152449.4 -2.1964088e-05 -9.7543601e-06 1.965764e-06 
   29012   -1152449.4            0   -1152449.4 -1.093603e-06 -8.9144195e-06 -9.1532526e-06 
Loop time of 2.37303 on 104 procs for 203 steps with 288751 atoms

99.9% CPU use with 104 MPI tasks x 1 OpenMP threads

Minimization stats:
  Stopping criterion = energy tolerance
  Energy initial, next-to-last, final = 
     -1152449.41113003   -1152449.4126824   -1152449.4126824
  Force two-norm initial, final = 0.18078492 7.9649140e-05
  Force max component initial, final = 0.079455441 1.2497969e-05
  Final line search alpha, max atom move = 1.0000000 1.2497969e-05
  Iterations, force evaluations = 203 406

MPI task timing breakdown:
Section |  min time  |  avg time  |  max time  |%varavg| %total
---------------------------------------------------------------
Pair    | 0.61378    | 1.7068     | 2.2314     |  35.4 | 71.93
Neigh   | 0          | 0          | 0          |   0.0 |  0.00
Comm    | 0.042293   | 0.39401    | 1.1809     |  51.6 | 16.60
Output  | 0.0001716  | 0.00017496 | 0.00035524 |   0.0 |  0.01
Modify  | 2.3421e-05 | 0.0033667  | 0.0071898  |   2.7 |  0.14
Other   |            | 0.2687     |            |       | 11.32

Nlocal:        2776.45 ave        3930 max           0 min
Histogram: 8 4 4 0 4 12 8 0 28 36
Nghost:        3878.34 ave        5425 max         232 min
Histogram: 8 0 8 0 16 0 8 8 16 40
Neighs:        79213.5 ave      114580 max           0 min
Histogram: 8 4 4 0 8 8 8 6 22 36

Total # of neighbors = 8238203
Ave neighs/atom = 28.530474
Neighbor list builds = 0
Dangerous builds = 0
The dot product: -5.25900555333463e-08
Setting atom values ...
  1 settings made for x
  1 settings made for y
  1 settings made for z
Setting up cg style minimization ...
  Unit style    : metal
  Current step  : 29012
Per MPI rank memory allocation (min/avg/max) = 5.441 | 5.816 | 6.074 Mbytes
Step PotEng KinEng TotEng v_fx v_fy v_fz 
   29012   -1152449.4            0   -1152449.4 -0.022632756  0.026831512  0.042612938 
   29217   -1152449.4            0   -1152449.4 2.5879829e-06 -1.1690771e-05 -1.4363835e-05 
Loop time of 2.41022 on 104 procs for 205 steps with 288751 atoms

99.9% CPU use with 104 MPI tasks x 1 OpenMP threads

Minimization stats:
  Stopping criterion = energy tolerance
  Energy initial, next-to-last, final = 
     -1152449.40756289  -1152449.40907948  -1152449.40907948
  Force two-norm initial, final = 0.17871825 8.0513537e-05
  Force max component initial, final = 0.078490172 1.9258030e-05
  Final line search alpha, max atom move = 1.0000000 1.9258030e-05
  Iterations, force evaluations = 205 410

MPI task timing breakdown:
Section |  min time  |  avg time  |  max time  |%varavg| %total
---------------------------------------------------------------
Pair    | 0.61989    | 1.725      | 2.2552     |  35.6 | 71.57
Neigh   | 0          | 0          | 0          |   0.0 |  0.00
Comm    | 0.034899   | 0.39475    | 1.1701     |  51.5 | 16.38
Output  | 0          | 0          | 0          |   0.0 |  0.00
Modify  | 2.3716e-05 | 0.0033986  | 0.0072738  |   2.7 |  0.14
Other   |            | 0.2871     |            |       | 11.91

Nlocal:        2776.45 ave        3930 max           0 min
Histogram: 8 4 4 0 4 12 8 0 28 36
Nghost:        3878.34 ave        5425 max         232 min
Histogram: 8 0 8 0 16 0 8 8 16 40
Neighs:        79213.5 ave      114587 max           0 min
Histogram: 8 4 4 0 8 8 8 6 22 36

Total # of neighbors = 8238200
Ave neighs/atom = 28.530464
Neighbor list builds = 0
Dangerous builds = 0
The dot product: -7.1712063940231e-08
Setting atom values ...
  1 settings made for x
  1 settings made for y
  1 settings made for z
Setting up cg style minimization ...
  Unit style    : metal
  Current step  : 29217
Per MPI rank memory allocation (min/avg/max) = 5.441 | 5.816 | 6.074 Mbytes
Step PotEng KinEng TotEng v_fx v_fy v_fz 
   29217   -1152449.4            0   -1152449.4 -0.025255799  0.024153667  0.041276862 
   29436   -1152449.4            0   -1152449.4 -9.3625041e-07 -4.2465032e-07 7.3296696e-08 
Loop time of 2.5656 on 104 procs for 219 steps with 288751 atoms

99.9% CPU use with 104 MPI tasks x 1 OpenMP threads

Minimization stats:
  Stopping criterion = energy tolerance
  Energy initial, next-to-last, final = 
     -1152449.40232755  -1152449.40379791  -1152449.40379791
  Force two-norm initial, final = 0.1762542 3.6253185e-05
  Force max component initial, final = 0.077484479 5.3825303e-06
  Final line search alpha, max atom move = 1.0000000 5.3825303e-06
  Iterations, force evaluations = 219 438

MPI task timing breakdown:
Section |  min time  |  avg time  |  max time  |%varavg| %total
---------------------------------------------------------------
Pair    | 0.66169    | 1.8424     | 2.4159     |  36.8 | 71.81
Neigh   | 0          | 0          | 0          |   0.0 |  0.00
Comm    | 0.041189   | 0.42201    | 1.2445     |  53.3 | 16.45
Output  | 0          | 0          | 0          |   0.0 |  0.00
Modify  | 2.5322e-05 | 0.0036323  | 0.0077649  |   2.8 |  0.14
Other   |            | 0.2976     |            |       | 11.60

Nlocal:        2776.45 ave        3930 max           0 min
Histogram: 8 4 4 0 4 12 8 0 28 36
Nghost:        3878.34 ave        5425 max         232 min
Histogram: 8 0 8 0 16 0 8 8 16 40
Neighs:        79213.5 ave      114587 max           0 min
Histogram: 8 4 4 0 8 8 8 6 22 36

Total # of neighbors = 8238203
Ave neighs/atom = 28.530474
Neighbor list builds = 0
Dangerous builds = 0
The dot product: -2.53693961261423e-10
Setting atom values ...
  1 settings made for x
  1 settings made for y
  1 settings made for z
Setting up cg style minimization ...
  Unit style    : metal
  Current step  : 29436
Per MPI rank memory allocation (min/avg/max) = 5.441 | 5.816 | 6.074 Mbytes
Step PotEng KinEng TotEng v_fx v_fy v_fz 
   29436   -1152449.4            0   -1152449.4 -0.028615399   0.02086842  0.039682837 
   29671   -1152449.4            0   -1152449.4 -7.9788887e-07 -4.6677294e-06 -4.7013473e-06 
Loop time of 2.7661 on 104 procs for 235 steps with 288751 atoms

99.9% CPU use with 104 MPI tasks x 1 OpenMP threads

Minimization stats:
  Stopping criterion = energy tolerance
  Energy initial, next-to-last, final = 
      -1152449.3954487  -1152449.39686626  -1152449.39686626
  Force two-norm initial, final = 0.1737401 1.9695238e-05
  Force max component initial, final = 0.076485074 4.7013473e-06
  Final line search alpha, max atom move = 1.0000000 4.7013473e-06
  Iterations, force evaluations = 235 470

MPI task timing breakdown:
Section |  min time  |  avg time  |  max time  |%varavg| %total
---------------------------------------------------------------
Pair    | 0.71071    | 1.9771     | 2.5898     |  38.1 | 71.48
Neigh   | 0          | 0          | 0          |   0.0 |  0.00
Comm    | 0.049319   | 0.45706    | 1.358      |  55.0 | 16.52
Output  | 0          | 0          | 0          |   0.0 |  0.00
Modify  | 2.6675e-05 | 0.0038898  | 0.0083166  |   2.9 |  0.14
Other   |            | 0.328      |            |       | 11.86

Nlocal:        2776.45 ave        3930 max           0 min
Histogram: 8 4 4 0 4 12 8 0 28 36
Nghost:        3878.30 ave        5424 max         232 min
Histogram: 8 0 8 0 16 0 8 8 16 40
Neighs:        79213.5 ave      114587 max           0 min
Histogram: 8 4 4 0 8 8 8 6 22 36

Total # of neighbors = 8238201
Ave neighs/atom = 28.530467
Neighbor list builds = 0
Dangerous builds = 0
The dot product: -2.03793923011275e-08
Setting atom values ...
  1 settings made for x
  1 settings made for y
  1 settings made for z
Setting up cg style minimization ...
  Unit style    : metal
  Current step  : 29671
Per MPI rank memory allocation (min/avg/max) = 5.441 | 5.816 | 6.074 Mbytes
Step PotEng KinEng TotEng v_fx v_fy v_fz 
   29671   -1152449.4            0   -1152449.4 -0.032857873  0.016813499  0.037738254 
   29834   -1152449.4            0   -1152449.4 -4.4849254e-05 -5.0265654e-05 -2.9667536e-05 
Loop time of 1.92249 on 104 procs for 163 steps with 288751 atoms

99.9% CPU use with 104 MPI tasks x 1 OpenMP threads

Minimization stats:
  Stopping criterion = energy tolerance
  Energy initial, next-to-last, final = 
     -1152449.38698545  -1152449.38834821  -1152449.38834821
  Force two-norm initial, final = 0.17150358 0.00028132537
  Force max component initial, final = 0.076843251 6.3524647e-05
  Final line search alpha, max atom move = 1.0000000 6.3524647e-05
  Iterations, force evaluations = 163 326

MPI task timing breakdown:
Section |  min time  |  avg time  |  max time  |%varavg| %total
---------------------------------------------------------------
Pair    | 0.49315    | 1.3736     | 1.8062     |  31.7 | 71.45
Neigh   | 0          | 0          | 0          |   0.0 |  0.00
Comm    | 0.035656   | 0.31607    | 0.9325     |  45.9 | 16.44
Output  | 0          | 0          | 0          |   0.0 |  0.00
Modify  | 1.9554e-05 | 0.0027025  | 0.0058005  |   2.4 |  0.14
Other   |            | 0.2301     |            |       | 11.97

Nlocal:        2776.45 ave        3930 max           0 min
Histogram: 8 4 4 0 4 12 8 0 28 36
Nghost:        3878.31 ave        5424 max         232 min
Histogram: 8 0 8 0 16 0 8 8 16 40
Neighs:        79213.5 ave      114579 max           0 min
Histogram: 8 4 4 0 8 8 8 6 22 36

Total # of neighbors = 8238201
Ave neighs/atom = 28.530467
Neighbor list builds = 0
Dangerous builds = 0
The dot product: -8.08898983583372e-08
Setting atom values ...
  1 settings made for x
  1 settings made for y
  1 settings made for z
Setting up cg style minimization ...
  Unit style    : metal
  Current step  : 29834
Per MPI rank memory allocation (min/avg/max) = 5.441 | 5.816 | 6.074 Mbytes
Step PotEng KinEng TotEng v_fx v_fy v_fz 
   29834   -1152449.4            0   -1152449.4 -0.039542888  0.010539362  0.034747815 
   30000   -1152449.4            0   -1152449.4 2.0611417e-05 3.915307e-05 3.1485675e-05 
Loop time of 1.93382 on 104 procs for 166 steps with 288751 atoms

99.9% CPU use with 104 MPI tasks x 1 OpenMP threads

Minimization stats:
  Stopping criterion = energy tolerance
  Energy initial, next-to-last, final = 
     -1152449.37708224  -1152449.37839858  -1152449.37839858
  Force two-norm initial, final = 0.17021476 0.00021421298
  Force max component initial, final = 0.077258761 4.1243924e-05
  Final line search alpha, max atom move = 1.0000000 4.1243924e-05
  Iterations, force evaluations = 166 332

MPI task timing breakdown:
Section |  min time  |  avg time  |  max time  |%varavg| %total
---------------------------------------------------------------
Pair    | 0.50224    | 1.3945     | 1.8221     |  32.0 | 72.11
Neigh   | 0          | 0          | 0          |   0.0 |  0.00
Comm    | 0.035961   | 0.3198     | 0.95278    |  46.7 | 16.54
Output  | 0          | 0          | 0          |   0.0 |  0.00
Modify  | 2.0561e-05 | 0.0027576  | 0.0058865  |   2.5 |  0.14
Other   |            | 0.2168     |            |       | 11.21

Nlocal:        2776.45 ave        3930 max           0 min
Histogram: 8 4 4 0 4 12 8 0 27 37
Nghost:        3878.28 ave        5424 max         232 min
Histogram: 8 0 8 0 16 0 8 8 16 40
Neighs:        79213.5 ave      114580 max           0 min
Histogram: 8 4 4 0 8 8 8 6 22 36

Total # of neighbors = 8238199
Ave neighs/atom = 28.530461
Neighbor list builds = 0
Dangerous builds = 0
The dot product: 2.75980652476805e-08
Setting atom values ...
  1 settings made for x
  1 settings made for y
  1 settings made for z
Setting up cg style minimization ...
  Unit style    : metal
  Current step  : 30000
Per MPI rank memory allocation (min/avg/max) = 5.441 | 5.816 | 6.074 Mbytes
Step PotEng KinEng TotEng v_fx v_fy v_fz 
   30000   -1152449.4            0   -1152449.4 -0.047947519 0.0027047818  0.031048058 
   30136   -1152449.4            0   -1152449.4 1.3022657e-06 2.689868e-05 2.9159891e-05 
Loop time of 1.60379 on 104 procs for 136 steps with 288751 atoms

99.9% CPU use with 104 MPI tasks x 1 OpenMP threads

Minimization stats:
  Stopping criterion = energy tolerance
  Energy initial, next-to-last, final = 
     -1152449.36608757  -1152449.36754371  -1152449.36754371
  Force two-norm initial, final = 0.17211498 0.00012747359
  Force max component initial, final = 0.077245069 2.9159891e-05
  Final line search alpha, max atom move = 1.0000000 2.9159891e-05
  Iterations, force evaluations = 136 272

MPI task timing breakdown:
Section |  min time  |  avg time  |  max time  |%varavg| %total
---------------------------------------------------------------
Pair    | 0.41498    | 1.148      | 1.5023     |  29.0 | 71.58
Neigh   | 0          | 0          | 0          |   0.0 |  0.00
Comm    | 0.033623   | 0.26686    | 0.79643    |  42.2 | 16.64
Output  | 0          | 0          | 0          |   0.0 |  0.00
Modify  | 1.6029e-05 | 0.0022614  | 0.0048529  |   2.2 |  0.14
Other   |            | 0.1867     |            |       | 11.64

Nlocal:        2776.45 ave        3930 max           0 min
Histogram: 8 4 4 0 4 12 8 0 26 38
Nghost:        3878.24 ave        5424 max         232 min
Histogram: 8 0 8 0 16 0 8 8 16 40
Neighs:        79213.4 ave      114607 max           0 min
Histogram: 8 4 4 0 8 8 8 6 22 36

Total # of neighbors = 8238197
Ave neighs/atom = 28.530454
Neighbor list builds = 0
Dangerous builds = 0
The dot product: -2.64346015641848e-08
