LAMMPS (29 Oct 2020)
OMP_NUM_THREADS environment is not set. Defaulting to 1 thread. (../comm.cpp:94)
  using 1 OpenMP thread(s) per MPI task
OMP_NUM_THREADS environment is not set. Defaulting to 1 thread. (../comm.cpp:94)
  using 1 OpenMP thread(s) per MPI task
Reading data file ...
  orthogonal box = (-122.39241 -121.13707 -37.090501) to (122.39241 121.13707 37.090501)
  13 by 6 by 2 MPI processor grid
  reading atoms ...
  288751 atoms
  read_data CPU = 0.420 seconds
199981 atoms in group inner
88770 atoms in group outer
1 atoms in group carbon
Neighbor list info ...
  update every 1 steps, delay 0 steps, check yes
  max neighbors/atom: 2000, page size: 100000
  master list distance cutoff = 5.6
  ghost atom cutoff = 5.6
  binsize = 2.8, bins = 88 87 27
  1 neighbor lists, perpetual/occasional/extra = 1 0 0
  (1) pair eam/alloy, perpetual
      attributes: half, newton on
      pair build: half/bin/atomonly/newton
      stencil: half/bin/3d/newton
      bin: standard
Setting up cg style minimization ...
  Unit style    : metal
  Current step  : 0
Per MPI rank memory allocation (min/avg/max) = 5.428 | 5.555 | 5.600 Mbytes
Step v_fx v_fy v_fz PotEng KinEng TotEng 
       0   -25.409511    15.059185      49.9568   -1152433.5            0   -1152433.5 
     163 -2.3077815e-05 3.2197384e-05 -1.6449941e-05   -1152449.5            0   -1152449.5 
Loop time of 1.34907 on 156 procs for 163 steps with 288751 atoms

99.8% CPU use with 156 MPI tasks x 1 OpenMP threads

Minimization stats:
  Stopping criterion = energy tolerance
  Energy initial, next-to-last, final = 
     -1152433.47074209  -1152449.45035263  -1152449.45035263
  Force two-norm initial, final = 87.079027 0.0001508673
  Force max component initial, final = 57.190163 3.4773851e-05
  Final line search alpha, max atom move = 1.0000000 3.4773851e-05
  Iterations, force evaluations = 163 317

MPI task timing breakdown:
Section |  min time  |  avg time  |  max time  |%varavg| %total
---------------------------------------------------------------
Pair    | 4.582e-05  | 0.9103     | 1.2283     |  32.3 | 67.48
Neigh   | 2.7312e-05 | 0.010193   | 0.015102   |   4.6 |  0.76
Comm    | 0.0010499  | 0.21348    | 0.8058     |  45.4 | 15.82
Output  | 0          | 0          | 0          |   0.0 |  0.00
Modify  | 1.2981e-05 | 0.0011325  | 0.0025833  |   2.4 |  0.08
Other   |            | 0.214      |            |       | 15.86

Nlocal:        1850.97 ave        2683 max           0 min
Histogram: 16 8 4 4 0 8 4 20 58 34
Nghost:        2926.96 ave        4075 max           0 min
Histogram: 8 8 8 8 0 16 12 4 18 74
Neighs:        52809.0 ave       78467 max           0 min
Histogram: 18 6 8 0 0 8 16 12 59 29

Total # of neighbors = 8238206
Ave neighs/atom = 28.530485
Neighbor list builds = 5
Dangerous builds = 0
Setting atom values ...
  1 settings made for x
  1 settings made for y
  1 settings made for z
Setting up cg style minimization ...
  Unit style    : metal
  Current step  : 163
Per MPI rank memory allocation (min/avg/max) = 5.428 | 5.555 | 5.600 Mbytes
Step PotEng KinEng TotEng v_fx v_fy v_fz 
     163   -1152449.4            0   -1152449.4  0.015524235 0.0058813924  -0.01939862 
     327   -1152449.5            0   -1152449.5 -1.5657369e-05 1.4354911e-05 3.6919337e-05 
Loop time of 1.35475 on 156 procs for 164 steps with 288751 atoms

99.9% CPU use with 156 MPI tasks x 1 OpenMP threads

Minimization stats:
  Stopping criterion = energy tolerance
  Energy initial, next-to-last, final = 
     -1152449.44949148  -1152449.45006458  -1152449.45006458
  Force two-norm initial, final = 0.11253422 0.00016603539
  Force max component initial, final = 0.050080886 3.9673216e-05
  Final line search alpha, max atom move = 1.0000000 3.9673216e-05
  Iterations, force evaluations = 164 328

MPI task timing breakdown:
Section |  min time  |  avg time  |  max time  |%varavg| %total
---------------------------------------------------------------
Pair    | 4.4153e-05 | 0.93996    | 1.2817     |  33.4 | 69.38
Neigh   | 0          | 0          | 0          |   0.0 |  0.00
Comm    | 5.9039e-05 | 0.2181     | 0.84149    |  47.6 | 16.10
Output  | 0          | 0          | 0          |   0.0 |  0.00
Modify  | 1.5396e-05 | 0.0017986  | 0.0035089  |   2.3 |  0.13
Other   |            | 0.1949     |            |       | 14.39

Nlocal:        1850.97 ave        2685 max           0 min
Histogram: 16 8 4 4 0 8 4 20 63 29
Nghost:        2926.96 ave        4075 max           0 min
Histogram: 8 8 8 8 0 16 12 4 18 74
Neighs:        52809.0 ave       78529 max           0 min
Histogram: 18 6 8 0 0 8 16 12 59 29

Total # of neighbors = 8238197
Ave neighs/atom = 28.530454
Neighbor list builds = 0
Dangerous builds = 0
Setting atom values ...
  1 settings made for x
  1 settings made for y
  1 settings made for z
Setting up cg style minimization ...
  Unit style    : metal
  Current step  : 327
Per MPI rank memory allocation (min/avg/max) = 5.428 | 5.555 | 5.600 Mbytes
Step PotEng KinEng TotEng v_fx v_fy v_fz 
     327   -1152449.4            0   -1152449.4  0.027280431 0.0091422063 -0.042664836 
     498   -1152449.4            0   -1152449.4 -9.4395669e-06 -4.5650633e-06 1.308801e-05 
Loop time of 1.40091 on 156 procs for 171 steps with 288751 atoms

99.9% CPU use with 156 MPI tasks x 1 OpenMP threads

Minimization stats:
  Stopping criterion = energy tolerance
  Energy initial, next-to-last, final = 
     -1152449.44631862  -1152449.44814991  -1152449.44814991
  Force two-norm initial, final = 0.20345019 0.00017871733
  Force max component initial, final = 0.09029618 1.3088010e-05
  Final line search alpha, max atom move = 1.0000000 1.3088010e-05
  Iterations, force evaluations = 171 342

MPI task timing breakdown:
Section |  min time  |  avg time  |  max time  |%varavg| %total
---------------------------------------------------------------
Pair    | 4.7318e-05 | 0.97066    | 1.3193     |  33.9 | 69.29
Neigh   | 0          | 0          | 0          |   0.0 |  0.00
Comm    | 5.681e-05  | 0.22315    | 0.86427    |  48.1 | 15.93
Output  | 0          | 0          | 0          |   0.0 |  0.00
Modify  | 1.437e-05  | 0.0018684  | 0.0036385  |   2.3 |  0.13
Other   |            | 0.2052     |            |       | 14.65

Nlocal:        1850.97 ave        2685 max           0 min
Histogram: 16 8 4 4 0 8 4 20 63 29
Nghost:        2926.96 ave        4075 max           0 min
Histogram: 8 8 8 8 0 16 12 4 18 74
Neighs:        52809.0 ave       78529 max           0 min
Histogram: 18 6 8 0 0 8 16 12 59 29

Total # of neighbors = 8238197
Ave neighs/atom = 28.530454
Neighbor list builds = 0
Dangerous builds = 0
The dot product: -1.24424637887134e-06
Setting atom values ...
  1 settings made for x
  1 settings made for y
  1 settings made for z
Setting up cg style minimization ...
  Unit style    : metal
  Current step  : 498
Per MPI rank memory allocation (min/avg/max) = 5.428 | 5.555 | 5.600 Mbytes
Step PotEng KinEng TotEng v_fx v_fy v_fz 
     498   -1152449.4            0   -1152449.4  0.027295334  0.011874714 -0.052149336 
     645   -1152449.4            0   -1152449.4 -2.6131035e-06 6.6841967e-07 8.128536e-06 
Loop time of 1.23243 on 156 procs for 147 steps with 288751 atoms

99.8% CPU use with 156 MPI tasks x 1 OpenMP threads

Minimization stats:
  Stopping criterion = energy tolerance
  Energy initial, next-to-last, final = 
     -1152449.44288523  -1152449.44469002  -1152449.44469002
  Force two-norm initial, final = 0.20376929 9.4343240e-05
  Force max component initial, final = 0.089281577 2.1107413e-05
  Final line search alpha, max atom move = 1.0000000 2.1107413e-05
  Iterations, force evaluations = 147 294

MPI task timing breakdown:
Section |  min time  |  avg time  |  max time  |%varavg| %total
---------------------------------------------------------------
Pair    | 3.9766e-05 | 0.8455     | 1.1605     |  31.7 | 68.60
Neigh   | 0          | 0          | 0          |   0.0 |  0.00
Comm    | 4.9356e-05 | 0.19973    | 0.77097    |  44.9 | 16.21
Output  | 0          | 0          | 0          |   0.0 |  0.00
Modify  | 1.2658e-05 | 0.0016157  | 0.0031505  |   2.2 |  0.13
Other   |            | 0.1856     |            |       | 15.06

Nlocal:        1850.97 ave        2685 max           0 min
Histogram: 16 8 4 4 0 8 4 20 63 29
Nghost:        2926.96 ave        4075 max           0 min
Histogram: 8 8 8 8 0 16 12 4 18 74
Neighs:        52808.9 ave       78530 max           0 min
Histogram: 18 6 8 0 0 8 16 12 59 29

Total # of neighbors = 8238196
Ave neighs/atom = 28.530450
Neighbor list builds = 0
Dangerous builds = 0
The dot product: -9.18846564421683e-07
Setting atom values ...
  1 settings made for x
  1 settings made for y
  1 settings made for z
Setting up cg style minimization ...
  Unit style    : metal
  Current step  : 645
Per MPI rank memory allocation (min/avg/max) = 5.428 | 5.555 | 5.600 Mbytes
Step PotEng KinEng TotEng v_fx v_fy v_fz 
     645   -1152449.4            0   -1152449.4   0.02633862  0.020439673 -0.054756402 
     767   -1152449.4            0   -1152449.4 5.018624e-06 -9.063394e-07 -2.3619885e-05 
Loop time of 0.986287 on 156 procs for 122 steps with 288751 atoms

99.9% CPU use with 156 MPI tasks x 1 OpenMP threads

Minimization stats:
  Stopping criterion = energy tolerance
  Energy initial, next-to-last, final = 
     -1152449.43813047  -1152449.43991276  -1152449.43991276
  Force two-norm initial, final = 0.20170601 0.00012911576
  Force max component initial, final = 0.085674233 2.6909676e-05
  Final line search alpha, max atom move = 1.0000000 2.6909676e-05
  Iterations, force evaluations = 122 244

MPI task timing breakdown:
Section |  min time  |  avg time  |  max time  |%varavg| %total
---------------------------------------------------------------
Pair    | 3.3486e-05 | 0.6883     | 0.93751    |  28.5 | 69.79
Neigh   | 0          | 0          | 0          |   0.0 |  0.00
Comm    | 4.7298e-05 | 0.15621    | 0.61004    |  41.0 | 15.84
Output  | 0          | 0          | 0          |   0.0 |  0.00
Modify  | 1.0769e-05 | 0.0013333  | 0.0025935  |   2.0 |  0.14
Other   |            | 0.1404     |            |       | 14.24

Nlocal:        1850.97 ave        2685 max           0 min
Histogram: 16 8 4 4 0 8 4 20 63 29
Nghost:        2926.96 ave        4075 max           0 min
Histogram: 8 8 8 8 0 16 12 4 18 74
Neighs:        52809.0 ave       78531 max           0 min
Histogram: 18 6 8 0 0 8 16 12 59 29

Total # of neighbors = 8238201
Ave neighs/atom = 28.530467
Neighbor list builds = 0
Dangerous builds = 0
The dot product: 2.22000160528483e-06
Setting atom values ...
  1 settings made for x
  1 settings made for y
  1 settings made for z
Setting up cg style minimization ...
  Unit style    : metal
  Current step  : 767
Per MPI rank memory allocation (min/avg/max) = 5.428 | 5.555 | 5.600 Mbytes
Step PotEng KinEng TotEng v_fx v_fy v_fz 
     767   -1152449.4            0   -1152449.4  0.023539976  0.027381303 -0.051106094 
     959   -1152449.4            0   -1152449.4 2.402567e-06 -6.200407e-07 -2.2330662e-05 
Loop time of 1.6286 on 156 procs for 192 steps with 288751 atoms

99.8% CPU use with 156 MPI tasks x 1 OpenMP threads

Minimization stats:
  Stopping criterion = energy tolerance
  Energy initial, next-to-last, final = 
     -1152449.43206541  -1152449.43380089  -1152449.43380089
  Force two-norm initial, final = 0.19751445 6.6303588e-05
  Force max component initial, final = 0.080749575 2.2330662e-05
  Final line search alpha, max atom move = 1.0000000 2.2330662e-05
  Iterations, force evaluations = 192 384

MPI task timing breakdown:
Section |  min time  |  avg time  |  max time  |%varavg| %total
---------------------------------------------------------------
Pair    | 5.3684e-05 | 1.0998     | 1.4951     |  36.1 | 67.53
Neigh   | 0          | 0          | 0          |   0.0 |  0.00
Comm    | 6.2213e-05 | 0.26093    | 0.98277    |  50.4 | 16.02
Output  | 0          | 0          | 0          |   0.0 |  0.00
Modify  | 1.6416e-05 | 0.0021011  | 0.0040691  |   2.5 |  0.13
Other   |            | 0.2658     |            |       | 16.32

Nlocal:        1850.97 ave        2685 max           0 min
Histogram: 16 8 4 4 0 8 4 20 63 29
Nghost:        2926.96 ave        4075 max           0 min
Histogram: 8 8 8 8 0 16 12 4 18 74
Neighs:        52809.0 ave       78531 max           0 min
Histogram: 18 6 8 0 0 8 16 12 59 29

Total # of neighbors = 8238198
Ave neighs/atom = 28.530457
Neighbor list builds = 0
Dangerous builds = 0
The dot product: 1.59321481291102e-06
Setting atom values ...
  1 settings made for x
  1 settings made for y
  1 settings made for z
Setting up cg style minimization ...
  Unit style    : metal
  Current step  : 959
Per MPI rank memory allocation (min/avg/max) = 5.428 | 5.555 | 5.600 Mbytes
Step PotEng KinEng TotEng v_fx v_fy v_fz 
     959   -1152449.4            0   -1152449.4  0.019981623  0.030487548 -0.044560043 
    1000   -1152449.4            0   -1152449.4 -1.5734067e-05 -2.513285e-05 1.8747531e-05 
    1142   -1152449.4            0   -1152449.4 -4.6201181e-07 5.5463729e-07 1.9306625e-05 
Loop time of 1.51575 on 156 procs for 183 steps with 288751 atoms

99.9% CPU use with 156 MPI tasks x 1 OpenMP threads

Minimization stats:
  Stopping criterion = energy tolerance
  Energy initial, next-to-last, final = 
     -1152449.42463118  -1152449.42631099  -1152449.42631099
  Force two-norm initial, final = 0.19281299 0.00010058946
  Force max component initial, final = 0.075886947 1.9306625e-05
  Final line search alpha, max atom move = 1.0000000 1.9306625e-05
  Iterations, force evaluations = 183 366

MPI task timing breakdown:
Section |  min time  |  avg time  |  max time  |%varavg| %total
---------------------------------------------------------------
Pair    | 4.9814e-05 | 1.0396     | 1.4201     |  35.0 | 68.59
Neigh   | 0          | 0          | 0          |   0.0 |  0.00
Comm    | 6.0498e-05 | 0.24244    | 0.93266    |  49.4 | 15.99
Output  | 0.00011359 | 0.00011608 | 0.00017526 |   0.0 |  0.01
Modify  | 1.5478e-05 | 0.0020053  | 0.0038758  |   2.4 |  0.13
Other   |            | 0.2316     |            |       | 15.28

Nlocal:        1850.97 ave        2686 max           0 min
Histogram: 16 8 4 4 0 8 4 20 63 29
Nghost:        2926.96 ave        4075 max           0 min
Histogram: 8 8 8 8 0 16 12 4 18 74
Neighs:        52809.0 ave       78563 max           0 min
Histogram: 18 6 8 0 0 8 16 12 59 29

Total # of neighbors = 8238199
Ave neighs/atom = 28.530461
Neighbor list builds = 0
Dangerous builds = 0
The dot product: -1.01499853555268e-06
Setting atom values ...
  1 settings made for x
  1 settings made for y
  1 settings made for z
Setting up cg style minimization ...
  Unit style    : metal
  Current step  : 1142
Per MPI rank memory allocation (min/avg/max) = 5.428 | 5.555 | 5.600 Mbytes
Step PotEng KinEng TotEng v_fx v_fy v_fz 
    1142   -1152449.4            0   -1152449.4  0.016452078  0.030180849 -0.037432991 
    1322   -1152449.4            0   -1152449.4 2.0052924e-06 4.5543905e-06 -2.9261599e-05 
Loop time of 1.49167 on 156 procs for 180 steps with 288751 atoms

99.9% CPU use with 156 MPI tasks x 1 OpenMP threads

Minimization stats:
  Stopping criterion = energy tolerance
  Energy initial, next-to-last, final = 
     -1152449.41577705   -1152449.4174047   -1152449.4174047
  Force two-norm initial, final = 0.18843394 0.00012639343
  Force max component initial, final = 0.071656188 2.9261599e-05
  Final line search alpha, max atom move = 1.0000000 2.9261599e-05
  Iterations, force evaluations = 180 360

MPI task timing breakdown:
Section |  min time  |  avg time  |  max time  |%varavg| %total
---------------------------------------------------------------
Pair    | 4.8446e-05 | 1.0295     | 1.4071     |  34.9 | 69.02
Neigh   | 0          | 0          | 0          |   0.0 |  0.00
Comm    | 5.8049e-05 | 0.23987    | 0.92275    |  49.7 | 16.08
Output  | 0          | 0          | 0          |   0.0 |  0.00
Modify  | 1.5614e-05 | 0.0019745  | 0.0038107  |   2.4 |  0.13
Other   |            | 0.2203     |            |       | 14.77

Nlocal:        1850.97 ave        2686 max           0 min
Histogram: 16 8 4 4 0 8 4 20 63 29
Nghost:        2926.96 ave        4075 max           0 min
Histogram: 8 8 8 8 0 16 12 4 18 74
Neighs:        52809.0 ave       78552 max           0 min
Histogram: 18 6 8 0 0 8 16 12 59 29

Total # of neighbors = 8238200
Ave neighs/atom = 28.530464
Neighbor list builds = 0
Dangerous builds = 0
The dot product: 1.22749951415487e-06
Setting atom values ...
  1 settings made for x
  1 settings made for y
  1 settings made for z
Setting up cg style minimization ...
  Unit style    : metal
  Current step  : 1322
Per MPI rank memory allocation (min/avg/max) = 5.428 | 5.555 | 5.600 Mbytes
Step PotEng KinEng TotEng v_fx v_fy v_fz 
    1322   -1152449.4            0   -1152449.4  0.012867757  0.026904661 -0.031353817 
    1516   -1152449.4            0   -1152449.4 -6.618084e-07 1.1117653e-06 -1.9399546e-05 
Loop time of 1.56556 on 156 procs for 194 steps with 288751 atoms

99.9% CPU use with 156 MPI tasks x 1 OpenMP threads

Minimization stats:
  Stopping criterion = energy tolerance
  Energy initial, next-to-last, final = 
     -1152449.40546828  -1152449.40706331  -1152449.40706331
  Force two-norm initial, final = 0.18475801 7.7819136e-05
  Force max component initial, final = 0.068337869 1.9399546e-05
  Final line search alpha, max atom move = 1.0000000 1.9399546e-05
  Iterations, force evaluations = 194 388

MPI task timing breakdown:
Section |  min time  |  avg time  |  max time  |%varavg| %total
---------------------------------------------------------------
Pair    | 5.1992e-05 | 1.0941     | 1.49       |  36.0 | 69.88
Neigh   | 0          | 0          | 0          |   0.0 |  0.00
Comm    | 6.8632e-05 | 0.24798    | 0.97208    |  51.8 | 15.84
Output  | 0          | 0          | 0          |   0.0 |  0.00
Modify  | 1.7006e-05 | 0.0021148  | 0.004112   |   2.5 |  0.14
Other   |            | 0.2214     |            |       | 14.14

Nlocal:        1850.97 ave        2686 max           0 min
Histogram: 16 8 4 4 0 8 4 20 63 29
Nghost:        2926.96 ave        4075 max           0 min
Histogram: 8 8 8 8 0 16 12 4 18 74
Neighs:        52809.0 ave       78555 max           0 min
Histogram: 18 6 8 0 0 8 16 12 59 29

Total # of neighbors = 8238204
Ave neighs/atom = 28.530478
Neighbor list builds = 0
Dangerous builds = 0
The dot product: 6.21070330134022e-07
Setting atom values ...
  1 settings made for x
  1 settings made for y
  1 settings made for z
Setting up cg style minimization ...
  Unit style    : metal
  Current step  : 1516
Per MPI rank memory allocation (min/avg/max) = 5.428 | 5.555 | 5.600 Mbytes
Step PotEng KinEng TotEng v_fx v_fy v_fz 
    1516   -1152449.4            0   -1152449.4  0.008527802  0.020377769 -0.027008151 
    1708   -1152449.4            0   -1152449.4 1.0483663e-06 3.989286e-06 -1.1337925e-05 
Loop time of 1.58245 on 156 procs for 192 steps with 288751 atoms

99.9% CPU use with 156 MPI tasks x 1 OpenMP threads

Minimization stats:
  Stopping criterion = energy tolerance
  Energy initial, next-to-last, final = 
     -1152449.39371112   -1152449.3953083   -1152449.3953083
  Force two-norm initial, final = 0.18184866 7.7843391e-05
  Force max component initial, final = 0.070904879 1.1337925e-05
  Final line search alpha, max atom move = 1.0000000 1.1337925e-05
  Iterations, force evaluations = 192 384

MPI task timing breakdown:
Section |  min time  |  avg time  |  max time  |%varavg| %total
---------------------------------------------------------------
Pair    | 5.1227e-05 | 1.0997     | 1.5124     |  36.1 | 69.49
Neigh   | 0          | 0          | 0          |   0.0 |  0.00
Comm    | 5.8587e-05 | 0.25799    | 0.99655    |  51.4 | 16.30
Output  | 0          | 0          | 0          |   0.0 |  0.00
Modify  | 1.7261e-05 | 0.0021022  | 0.0040895  |   2.5 |  0.13
Other   |            | 0.2227     |            |       | 14.07

Nlocal:        1850.97 ave        2686 max           0 min
Histogram: 16 8 4 4 0 8 4 20 63 29
Nghost:        2926.96 ave        4075 max           0 min
Histogram: 8 8 8 8 0 16 12 4 18 74
Neighs:        52809.0 ave       78554 max           0 min
Histogram: 18 6 8 0 0 8 16 12 59 29

Total # of neighbors = 8238203
Ave neighs/atom = 28.530474
Neighbor list builds = 0
Dangerous builds = 0
The dot product: 2.65746125383523e-07
Setting atom values ...
  1 settings made for x
  1 settings made for y
  1 settings made for z
Setting up cg style minimization ...
  Unit style    : metal
  Current step  : 1708
Per MPI rank memory allocation (min/avg/max) = 5.428 | 5.555 | 5.600 Mbytes
Step PotEng KinEng TotEng v_fx v_fy v_fz 
    1708   -1152449.4            0   -1152449.4 0.0033770989  0.011794046 -0.024783107 
    1912   -1152449.4            0   -1152449.4 8.5430365e-07 1.0265844e-06 1.9594653e-06 
Loop time of 1.65717 on 156 procs for 204 steps with 288751 atoms

99.9% CPU use with 156 MPI tasks x 1 OpenMP threads

Minimization stats:
  Stopping criterion = energy tolerance
  Energy initial, next-to-last, final = 
      -1152449.3805487  -1152449.38219914  -1152449.38219914
  Force two-norm initial, final = 0.18001806 6.7903072e-05
  Force max component initial, final = 0.074597168 8.5246709e-06
  Final line search alpha, max atom move = 1.0000000 8.5246709e-06
  Iterations, force evaluations = 204 408

MPI task timing breakdown:
Section |  min time  |  avg time  |  max time  |%varavg| %total
---------------------------------------------------------------
Pair    | 5.7034e-05 | 1.1562     | 1.5751     |  37.0 | 69.77
Neigh   | 0          | 0          | 0          |   0.0 |  0.00
Comm    | 6.5094e-05 | 0.2663     | 1.0394     |  52.9 | 16.07
Output  | 0          | 0          | 0          |   0.0 |  0.00
Modify  | 1.7326e-05 | 0.0022275  | 0.004338   |   2.6 |  0.13
Other   |            | 0.2325     |            |       | 14.03

Nlocal:        1850.97 ave        2682 max           0 min
Histogram: 16 8 4 4 0 8 4 20 58 34
Nghost:        2926.96 ave        4075 max           0 min
Histogram: 8 8 8 8 0 16 12 4 18 74
Neighs:        52809.0 ave       78427 max           0 min
Histogram: 18 6 8 0 0 8 16 12 59 29

Total # of neighbors = 8238203
Ave neighs/atom = 28.530474
Neighbor list builds = 0
Dangerous builds = 0
The dot product: -9.30978888718902e-08
Setting atom values ...
  1 settings made for x
  1 settings made for y
  1 settings made for z
Setting up cg style minimization ...
  Unit style    : metal
  Current step  : 1912
Per MPI rank memory allocation (min/avg/max) = 5.428 | 5.555 | 5.600 Mbytes
Step PotEng KinEng TotEng v_fx v_fy v_fz 
    1912   -1152449.4            0   -1152449.4 -0.0036439347  0.001342685 -0.025801556 
    2000   -1152449.4            0   -1152449.4 -4.842537e-06 -3.8509578e-05 0.0001077025 
    2107   -1152449.4            0   -1152449.4 -4.428024e-07 -2.3011621e-06 5.5486344e-06 
Loop time of 1.62459 on 156 procs for 195 steps with 288751 atoms

99.9% CPU use with 156 MPI tasks x 1 OpenMP threads

Minimization stats:
  Stopping criterion = energy tolerance
  Energy initial, next-to-last, final = 
     -1152449.36608182  -1152449.36799911  -1152449.36799911
  Force two-norm initial, final = 0.17952833 8.7773114e-05
  Force max component initial, final = 0.078988363 1.3203804e-05
  Final line search alpha, max atom move = 1.0000000 1.3203804e-05
  Iterations, force evaluations = 195 390

MPI task timing breakdown:
Section |  min time  |  avg time  |  max time  |%varavg| %total
---------------------------------------------------------------
Pair    | 5.2289e-05 | 1.1163     | 1.5238     |  36.4 | 68.71
Neigh   | 0          | 0          | 0          |   0.0 |  0.00
Comm    | 6.6469e-05 | 0.26145    | 1.0069     |  51.4 | 16.09
Output  | 0.00013702 | 0.00015314 | 0.00026363 |   0.0 |  0.01
Modify  | 1.6531e-05 | 0.0021388  | 0.004158   |   2.5 |  0.13
Other   |            | 0.2446     |            |       | 15.05

Nlocal:        1850.97 ave        2681 max           0 min
Histogram: 16 8 4 4 0 8 4 20 58 34
Nghost:        2926.94 ave        4075 max           0 min
Histogram: 8 8 8 8 0 16 12 4 18 74
Neighs:        52809.0 ave       78393 max           0 min
Histogram: 18 6 8 0 0 8 16 12 59 29

Total # of neighbors = 8238202
Ave neighs/atom = 28.530471
Neighbor list builds = 0
Dangerous builds = 0
The dot product: -1.49861599423148e-07
Setting atom values ...
  1 settings made for x
  1 settings made for y
  1 settings made for z
Setting up cg style minimization ...
  Unit style    : metal
  Current step  : 2107
Per MPI rank memory allocation (min/avg/max) = 5.428 | 5.555 | 5.600 Mbytes
Step PotEng KinEng TotEng v_fx v_fy v_fz 
    2107   -1152449.4            0   -1152449.4 -0.017403131 -0.013034689  -0.03671353 
    2297   -1152449.4            0   -1152449.4 -2.892195e-06 5.5174982e-06 -2.8319047e-05 
Loop time of 1.56846 on 156 procs for 190 steps with 288751 atoms

99.8% CPU use with 156 MPI tasks x 1 OpenMP threads

Minimization stats:
  Stopping criterion = energy tolerance
  Energy initial, next-to-last, final = 
     -1152449.35079398  -1152449.35297923  -1152449.35297923
  Force two-norm initial, final = 0.1820771 0.00014479221
  Force max component initial, final = 0.085082003 3.0997921e-05
  Final line search alpha, max atom move = 1.0000000 3.0997921e-05
  Iterations, force evaluations = 190 380

MPI task timing breakdown:
Section |  min time  |  avg time  |  max time  |%varavg| %total
---------------------------------------------------------------
Pair    | 5.0871e-05 | 1.0763     | 1.4638     |  35.5 | 68.62
Neigh   | 0          | 0          | 0          |   0.0 |  0.00
Comm    | 6.4165e-05 | 0.25067    | 0.9566     |  50.5 | 15.98
Output  | 0          | 0          | 0          |   0.0 |  0.00
Modify  | 1.6127e-05 | 0.002073   | 0.0040285  |   2.5 |  0.13
Other   |            | 0.2395     |            |       | 15.27

Nlocal:        1850.97 ave        2680 max           0 min
Histogram: 16 8 4 4 0 8 4 20 58 34
Nghost:        2926.93 ave        4075 max           0 min
Histogram: 8 8 8 8 0 16 12 4 18 74
Neighs:        52809.0 ave       78370 max           0 min
Histogram: 18 6 8 0 0 8 16 12 59 29

Total # of neighbors = 8238203
Ave neighs/atom = 28.530474
Neighbor list builds = 0
Dangerous builds = 0
The dot product: 1.36267197942346e-06
Setting atom values ...
  1 settings made for x
  1 settings made for y
  1 settings made for z
Setting up cg style minimization ...
  Unit style    : metal
  Current step  : 2297
Per MPI rank memory allocation (min/avg/max) = 5.428 | 5.555 | 5.600 Mbytes
Step PotEng KinEng TotEng v_fx v_fy v_fz 
    2297   -1152449.3            0   -1152449.3 -0.029499242 -0.021493232 -0.041555921 
    2516   -1152449.3            0   -1152449.3 2.6336554e-06 -3.552082e-06 1.7061731e-05 
Loop time of 1.80127 on 156 procs for 219 steps with 288751 atoms

99.9% CPU use with 156 MPI tasks x 1 OpenMP threads

Minimization stats:
  Stopping criterion = energy tolerance
  Energy initial, next-to-last, final = 
     -1152449.33479629  -1152449.33715753  -1152449.33715753
  Force two-norm initial, final = 0.18491442 6.6022494e-05
  Force max component initial, final = 0.092360973 1.7061731e-05
  Final line search alpha, max atom move = 1.0000000 1.7061731e-05
  Iterations, force evaluations = 219 438

MPI task timing breakdown:
Section |  min time  |  avg time  |  max time  |%varavg| %total
---------------------------------------------------------------
Pair    | 5.8404e-05 | 1.2485     | 1.7061     |  38.5 | 69.31
Neigh   | 0          | 0          | 0          |   0.0 |  0.00
Comm    | 7.3967e-05 | 0.29082    | 1.1275     |  54.8 | 16.15
Output  | 0          | 0          | 0          |   0.0 |  0.00
Modify  | 1.8591e-05 | 0.0023969  | 0.0046625  |   2.7 |  0.13
Other   |            | 0.2595     |            |       | 14.41

Nlocal:        1850.97 ave        2679 max           0 min
Histogram: 16 8 4 4 0 8 4 20 58 34
Nghost:        2926.96 ave        4075 max           0 min
Histogram: 8 8 8 8 0 16 12 4 18 74
Neighs:        52809.0 ave       78335 max           0 min
Histogram: 18 6 8 0 0 8 16 12 59 29

Total # of neighbors = 8238205
Ave neighs/atom = 28.530481
Neighbor list builds = 0
Dangerous builds = 0
The dot product: -7.88406544099976e-07
Setting atom values ...
  1 settings made for x
  1 settings made for y
  1 settings made for z
Setting up cg style minimization ...
  Unit style    : metal
  Current step  : 2516
Per MPI rank memory allocation (min/avg/max) = 5.428 | 5.555 | 5.600 Mbytes
Step PotEng KinEng TotEng v_fx v_fy v_fz 
    2516   -1152449.3            0   -1152449.3 -0.033885633 -0.022460198 -0.036497859 
    2735   -1152449.3            0   -1152449.3 1.4249925e-06 -4.9643424e-06 1.4351072e-05 
Loop time of 1.76389 on 156 procs for 219 steps with 288751 atoms

99.9% CPU use with 156 MPI tasks x 1 OpenMP threads

Minimization stats:
  Stopping criterion = energy tolerance
  Energy initial, next-to-last, final = 
     -1152449.31792695  -1152449.32013868  -1152449.32013868
  Force two-norm initial, final = 0.18420669 6.6431335e-05
  Force max component initial, final = 0.099182949 1.4439831e-05
  Final line search alpha, max atom move = 1.0000000 1.4439831e-05
  Iterations, force evaluations = 219 438

MPI task timing breakdown:
Section |  min time  |  avg time  |  max time  |%varavg| %total
---------------------------------------------------------------
Pair    | 5.9024e-05 | 1.2346     | 1.6814     |  38.2 | 69.99
Neigh   | 0          | 0          | 0          |   0.0 |  0.00
Comm    | 7.8545e-05 | 0.27863    | 1.0967     |  55.1 | 15.80
Output  | 0          | 0          | 0          |   0.0 |  0.00
Modify  | 1.8788e-05 | 0.0023838  | 0.0046432  |   2.6 |  0.14
Other   |            | 0.2483     |            |       | 14.08

Nlocal:        1850.97 ave        2678 max           0 min
Histogram: 16 8 4 4 0 8 4 20 58 34
Nghost:        2927.01 ave        4074 max           0 min
Histogram: 8 8 8 8 0 16 12 4 18 74
Neighs:        52809.0 ave       78294 max           0 min
Histogram: 18 6 8 0 0 8 16 12 58 30

Total # of neighbors = 8238204
Ave neighs/atom = 28.530478
Neighbor list builds = 0
Dangerous builds = 0
The dot product: -4.47309391517104e-07
Setting atom values ...
  1 settings made for x
  1 settings made for y
  1 settings made for z
Setting up cg style minimization ...
  Unit style    : metal
  Current step  : 2735
Per MPI rank memory allocation (min/avg/max) = 5.428 | 5.555 | 5.600 Mbytes
Step PotEng KinEng TotEng v_fx v_fy v_fz 
    2735   -1152449.3            0   -1152449.3 -0.031657249 -0.019578513 -0.027356344 
    2920   -1152449.3            0   -1152449.3 7.2469985e-06 -5.183893e-06 2.5679528e-05 
Loop time of 1.5054 on 156 procs for 185 steps with 288751 atoms

99.9% CPU use with 156 MPI tasks x 1 OpenMP threads

Minimization stats:
  Stopping criterion = energy tolerance
  Energy initial, next-to-last, final = 
     -1152449.29972646  -1152449.30179334  -1152449.30179334
  Force two-norm initial, final = 0.18143083 0.00017258689
  Force max component initial, final = 0.10482019 3.1554603e-05
  Final line search alpha, max atom move = 1.0000000 3.1554603e-05
  Iterations, force evaluations = 185 370

MPI task timing breakdown:
Section |  min time  |  avg time  |  max time  |%varavg| %total
---------------------------------------------------------------
Pair    | 4.956e-05  | 1.0544     | 1.4374     |  35.3 | 70.04
Neigh   | 0          | 0          | 0          |   0.0 |  0.00
Comm    | 6.1271e-05 | 0.24392    | 0.9541     |  50.6 | 16.20
Output  | 0          | 0          | 0          |   0.0 |  0.00
Modify  | 1.6269e-05 | 0.0020203  | 0.0039151  |   2.4 |  0.13
Other   |            | 0.205      |            |       | 13.62

Nlocal:        1850.97 ave        2677 max           0 min
Histogram: 16 8 4 4 0 8 4 20 58 34
Nghost:        2927.01 ave        4072 max           0 min
Histogram: 8 8 8 8 0 16 12 4 18 74
Neighs:        52809.0 ave       78240 max           0 min
Histogram: 18 6 8 0 0 8 16 12 58 30

Total # of neighbors = 8238208
Ave neighs/atom = 28.530492
Neighbor list builds = 0
Dangerous builds = 0
The dot product: -9.0196141443734e-07
Setting atom values ...
  1 settings made for x
  1 settings made for y
  1 settings made for z
Setting up cg style minimization ...
  Unit style    : metal
  Current step  : 2920
Per MPI rank memory allocation (min/avg/max) = 5.428 | 5.555 | 5.600 Mbytes
Step PotEng KinEng TotEng v_fx v_fy v_fz 
    2920   -1152449.3            0   -1152449.3 -0.027469129 -0.015695382 -0.020620512 
    3000   -1152449.3            0   -1152449.3 -1.0886096e-05 -2.3985581e-05 2.5537676e-05 
    3108   -1152449.3            0   -1152449.3 -4.5173076e-07 -3.2411337e-07 -2.1386685e-07 
Loop time of 1.51911 on 156 procs for 188 steps with 288751 atoms

99.9% CPU use with 156 MPI tasks x 1 OpenMP threads

Minimization stats:
  Stopping criterion = energy tolerance
  Energy initial, next-to-last, final = 
     -1152449.28017902  -1152449.28218178  -1152449.28218178
  Force two-norm initial, final = 0.1788235 0.00015012283
  Force max component initial, final = 0.10920173 1.8933994e-05
  Final line search alpha, max atom move = 1.0000000 1.8933994e-05
  Iterations, force evaluations = 188 376

MPI task timing breakdown:
Section |  min time  |  avg time  |  max time  |%varavg| %total
---------------------------------------------------------------
Pair    | 5.0285e-05 | 1.0585     | 1.4445     |  35.4 | 69.68
Neigh   | 0          | 0          | 0          |   0.0 |  0.00
Comm    | 6.4413e-05 | 0.24086    | 0.95137    |  50.8 | 15.86
Output  | 9.6758e-05 | 9.8994e-05 | 0.00016371 |   0.0 |  0.01
Modify  | 1.6129e-05 | 0.0020469  | 0.0039498  |   2.4 |  0.13
Other   |            | 0.2176     |            |       | 14.32

Nlocal:        1850.97 ave        2674 max           0 min
Histogram: 16 8 4 4 0 8 4 20 58 34
Nghost:        2927.07 ave        4072 max           0 min
Histogram: 8 8 8 8 0 16 12 4 18 74
Neighs:        52809.1 ave       78157 max           0 min
Histogram: 18 6 8 0 0 8 16 12 58 30

Total # of neighbors = 8238213
Ave neighs/atom = 28.530509
Neighbor list builds = 0
Dangerous builds = 0
The dot product: 2.27798523112347e-08
Setting atom values ...
  1 settings made for x
  1 settings made for y
  1 settings made for z
Setting up cg style minimization ...
  Unit style    : metal
  Current step  : 3108
Per MPI rank memory allocation (min/avg/max) = 5.428 | 5.555 | 5.600 Mbytes
Step PotEng KinEng TotEng v_fx v_fy v_fz 
    3108   -1152449.3            0   -1152449.3 -0.023528393 -0.011474606 -0.017755471 
    3296   -1152449.3            0   -1152449.3 3.6564501e-06 -4.4620072e-06 1.4003215e-05 
Loop time of 1.54593 on 156 procs for 188 steps with 288751 atoms

99.9% CPU use with 156 MPI tasks x 1 OpenMP threads

Minimization stats:
  Stopping criterion = energy tolerance
  Energy initial, next-to-last, final = 
     -1152449.25943584  -1152449.26135432  -1152449.26135432
  Force two-norm initial, final = 0.17673938 0.00014343202
  Force max component initial, final = 0.11270781 1.9235964e-05
  Final line search alpha, max atom move = 1.0000000 1.9235964e-05
  Iterations, force evaluations = 188 376

MPI task timing breakdown:
Section |  min time  |  avg time  |  max time  |%varavg| %total
---------------------------------------------------------------
Pair    | 5.198e-05  | 1.0762     | 1.4765     |  35.7 | 69.62
Neigh   | 0          | 0          | 0          |   0.0 |  0.00
Comm    | 6.1401e-05 | 0.25108    | 0.97325    |  50.8 | 16.24
Output  | 0          | 0          | 0          |   0.0 |  0.00
Modify  | 1.6283e-05 | 0.0020578  | 0.0039703  |   2.5 |  0.13
Other   |            | 0.2166     |            |       | 14.01

Nlocal:        1850.97 ave        2667 max           0 min
Histogram: 16 8 4 4 0 8 4 20 58 34
Nghost:        2927.07 ave        4070 max           0 min
Histogram: 8 8 8 8 0 16 12 4 18 74
Neighs:        52809.1 ave       77938 max           0 min
Histogram: 18 6 8 0 0 8 16 12 58 30

Total # of neighbors = 8238216
Ave neighs/atom = 28.530519
Neighbor list builds = 0
Dangerous builds = 0
The dot product: -3.83113267190755e-07
Setting atom values ...
  1 settings made for x
  1 settings made for y
  1 settings made for z
Setting up cg style minimization ...
  Unit style    : metal
  Current step  : 3296
Per MPI rank memory allocation (min/avg/max) = 5.428 | 5.555 | 5.600 Mbytes
Step PotEng KinEng TotEng v_fx v_fy v_fz 
    3296   -1152449.2            0   -1152449.2 -0.020015738 -0.0079317163 -0.016002279 
    3498   -1152449.2            0   -1152449.2 -4.3839227e-06 4.9982427e-06 -1.5049962e-05 
Loop time of 1.65279 on 156 procs for 202 steps with 288751 atoms

99.9% CPU use with 156 MPI tasks x 1 OpenMP threads

Minimization stats:
  Stopping criterion = energy tolerance
  Energy initial, next-to-last, final = 
      -1152449.2374459  -1152449.23933176  -1152449.23933176
  Force two-norm initial, final = 0.17513108 0.00010243329
  Force max component initial, final = 0.11583645 1.5049962e-05
  Final line search alpha, max atom move = 1.0000000 1.5049962e-05
  Iterations, force evaluations = 202 404

MPI task timing breakdown:
Section |  min time  |  avg time  |  max time  |%varavg| %total
---------------------------------------------------------------
Pair    | 5.3938e-05 | 1.145      | 1.5696     |  36.9 | 69.28
Neigh   | 0          | 0          | 0          |   0.0 |  0.00
Comm    | 6.6215e-05 | 0.26616    | 1.0212     |  51.8 | 16.10
Output  | 0          | 0          | 0          |   0.0 |  0.00
Modify  | 1.6607e-05 | 0.002206   | 0.0042986  |   2.5 |  0.13
Other   |            | 0.2394     |            |       | 14.49

Nlocal:        1850.97 ave        2664 max           0 min
Histogram: 16 8 4 4 0 8 4 20 32 60
Nghost:        2927.06 ave        4070 max           0 min
Histogram: 8 8 8 8 0 16 12 4 18 74
Neighs:        52809.1 ave       77823 max           0 min
Histogram: 18 6 8 0 0 8 16 12 58 30

Total # of neighbors = 8238212
Ave neighs/atom = 28.530506
Neighbor list builds = 0
Dangerous builds = 0
The dot product: 4.2328731987088e-07
Setting atom values ...
  1 settings made for x
  1 settings made for y
  1 settings made for z
Setting up cg style minimization ...
  Unit style    : metal
  Current step  : 3498
Per MPI rank memory allocation (min/avg/max) = 5.428 | 5.555 | 5.600 Mbytes
Step PotEng KinEng TotEng v_fx v_fy v_fz 
    3498   -1152449.2            0   -1152449.2 -0.018865774 -0.0050684703 -0.017199419 
    3718   -1152449.2            0   -1152449.2 -3.5604324e-06 7.3617714e-06 -1.6799205e-05 
Loop time of 1.84273 on 156 procs for 220 steps with 288751 atoms

99.9% CPU use with 156 MPI tasks x 1 OpenMP threads

Minimization stats:
  Stopping criterion = energy tolerance
  Energy initial, next-to-last, final = 
     -1152449.21431806   -1152449.2163579   -1152449.2163579
  Force two-norm initial, final = 0.17421429 6.4865679e-05
  Force max component initial, final = 0.11867923 1.6799205e-05
  Final line search alpha, max atom move = 1.0000000 1.6799205e-05
  Iterations, force evaluations = 220 440

MPI task timing breakdown:
Section |  min time  |  avg time  |  max time  |%varavg| %total
---------------------------------------------------------------
Pair    | 5.8705e-05 | 1.2636     | 1.7311     |  38.7 | 68.57
Neigh   | 0          | 0          | 0          |   0.0 |  0.00
Comm    | 6.9436e-05 | 0.29955    | 1.1441     |  54.5 | 16.26
Output  | 0          | 0          | 0          |   0.0 |  0.00
Modify  | 2.0479e-05 | 0.0024107  | 0.0047052  |   2.7 |  0.13
Other   |            | 0.2772     |            |       | 15.04

Nlocal:        1850.97 ave        2663 max           0 min
Histogram: 16 8 4 4 0 8 4 20 32 60
Nghost:        2927.08 ave        4069 max           0 min
Histogram: 8 8 8 8 0 16 12 4 18 74
Neighs:        52809.0 ave       77799 max           0 min
Histogram: 18 6 8 0 0 8 16 12 58 30

Total # of neighbors = 8238211
Ave neighs/atom = 28.530502
Neighbor list builds = 0
Dangerous builds = 0
The dot product: 5.46722486489124e-07
Setting atom values ...
  1 settings made for x
  1 settings made for y
  1 settings made for z
Setting up cg style minimization ...
  Unit style    : metal
  Current step  : 3718
Per MPI rank memory allocation (min/avg/max) = 5.428 | 5.555 | 5.600 Mbytes
Step PotEng KinEng TotEng v_fx v_fy v_fz 
    3718   -1152449.2            0   -1152449.2 -0.023099775 -0.0023772878 -0.024482695 
    3901   -1152449.2            0   -1152449.2 -9.1781186e-06 1.458652e-05 -3.349174e-05 
Loop time of 1.50453 on 156 procs for 183 steps with 288751 atoms

99.9% CPU use with 156 MPI tasks x 1 OpenMP threads

Minimization stats:
  Stopping criterion = energy tolerance
  Energy initial, next-to-last, final = 
     -1152449.19054684   -1152449.1927838   -1152449.1927838
  Force two-norm initial, final = 0.17446096 0.00015975881
  Force max component initial, final = 0.12126855 4.4615326e-05
  Final line search alpha, max atom move = 1.0000000 4.4615326e-05
  Iterations, force evaluations = 183 366

MPI task timing breakdown:
Section |  min time  |  avg time  |  max time  |%varavg| %total
---------------------------------------------------------------
Pair    | 4.9854e-05 | 1.04       | 1.4086     |  35.0 | 69.13
Neigh   | 0          | 0          | 0          |   0.0 |  0.00
Comm    | 5.7688e-05 | 0.23831    | 0.94654    |  50.6 | 15.84
Output  | 0          | 0          | 0          |   0.0 |  0.00
Modify  | 1.5673e-05 | 0.001996   | 0.003898   |   2.4 |  0.13
Other   |            | 0.2242     |            |       | 14.90

Nlocal:        1850.97 ave        2664 max           0 min
Histogram: 16 8 4 4 0 8 4 20 32 60
Nghost:        2927.08 ave        4068 max           0 min
Histogram: 8 8 8 8 0 16 12 4 18 74
Neighs:        52809.0 ave       77815 max           0 min
Histogram: 18 6 8 0 0 8 16 12 58 30

Total # of neighbors = 8238211
Ave neighs/atom = 28.530502
Neighbor list builds = 0
Dangerous builds = 0
The dot product: 1.35430997189321e-06
Setting atom values ...
  1 settings made for x
  1 settings made for y
  1 settings made for z
Setting up cg style minimization ...
  Unit style    : metal
  Current step  : 3901
Per MPI rank memory allocation (min/avg/max) = 5.428 | 5.555 | 5.600 Mbytes
Step PotEng KinEng TotEng v_fx v_fy v_fz 
    3901   -1152449.2            0   -1152449.2 -0.028205117 -3.6596563e-05 -0.030511727 
    4000   -1152449.2            0   -1152449.2 5.0317374e-05 -0.00012063276 0.00022629621 
    4074   -1152449.2            0   -1152449.2 7.7948135e-06 -2.0266011e-05 3.7303772e-05 
Loop time of 1.39905 on 156 procs for 173 steps with 288751 atoms

99.9% CPU use with 156 MPI tasks x 1 OpenMP threads

Minimization stats:
  Stopping criterion = energy tolerance
  Energy initial, next-to-last, final = 
     -1152449.16633373  -1152449.16851522  -1152449.16851522
  Force two-norm initial, final = 0.17524737 0.00019331919
  Force max component initial, final = 0.12402597 3.7303772e-05
  Final line search alpha, max atom move = 1.0000000 3.7303772e-05
  Iterations, force evaluations = 173 346

MPI task timing breakdown:
Section |  min time  |  avg time  |  max time  |%varavg| %total
---------------------------------------------------------------
Pair    | 4.648e-05  | 0.97903    | 1.3354     |  34.0 | 69.98
Neigh   | 0          | 0          | 0          |   0.0 |  0.00
Comm    | 5.6688e-05 | 0.22699    | 0.88165    |  48.6 | 16.22
Output  | 0.00011178 | 0.00011381 | 0.00018587 |   0.0 |  0.01
Modify  | 1.474e-05  | 0.0018909  | 0.0036823  |   2.4 |  0.14
Other   |            | 0.191      |            |       | 13.65

Nlocal:        1850.97 ave        2664 max           0 min
Histogram: 16 8 4 4 0 8 4 20 32 60
Nghost:        2927.07 ave        4067 max           0 min
Histogram: 8 8 8 8 0 16 12 4 18 74
Neighs:        52809.1 ave       77807 max           0 min
Histogram: 18 6 8 0 0 8 16 12 58 30

Total # of neighbors = 8238215
Ave neighs/atom = 28.530516
Neighbor list builds = 0
Dangerous builds = 0
The dot product: -1.38555139353619e-06
Setting atom values ...
  1 settings made for x
  1 settings made for y
  1 settings made for z
Setting up cg style minimization ...
  Unit style    : metal
  Current step  : 4074
Per MPI rank memory allocation (min/avg/max) = 5.428 | 5.555 | 5.600 Mbytes
Step PotEng KinEng TotEng v_fx v_fy v_fz 
    4074   -1152449.1            0   -1152449.1 -0.027492892 0.0011715851 -0.028333435 
    4259   -1152449.1            0   -1152449.1 -7.196067e-07 -4.8568457e-06 5.7792188e-06 
Loop time of 1.49457 on 156 procs for 185 steps with 288751 atoms

99.9% CPU use with 156 MPI tasks x 1 OpenMP threads

Minimization stats:
  Stopping criterion = energy tolerance
  Energy initial, next-to-last, final = 
         -1152449.1412  -1152449.14325191  -1152449.14325191
  Force two-norm initial, final = 0.17466052 0.00013213396
  Force max component initial, final = 0.12713411 1.8754617e-05
  Final line search alpha, max atom move = 1.0000000 1.8754617e-05
  Iterations, force evaluations = 185 370

MPI task timing breakdown:
Section |  min time  |  avg time  |  max time  |%varavg| %total
---------------------------------------------------------------
Pair    | 4.9738e-05 | 1.0425     | 1.422      |  35.1 | 69.75
Neigh   | 0          | 0          | 0          |   0.0 |  0.00
Comm    | 5.8715e-05 | 0.2362     | 0.939      |  50.6 | 15.80
Output  | 0          | 0          | 0          |   0.0 |  0.00
Modify  | 1.5706e-05 | 0.0020158  | 0.0039758  |   2.4 |  0.13
Other   |            | 0.2139     |            |       | 14.31

Nlocal:        1850.97 ave        2665 max           0 min
Histogram: 16 8 4 4 0 8 4 20 32 60
Nghost:        2927.07 ave        4067 max           0 min
Histogram: 8 8 8 8 0 16 12 4 18 74
Neighs:        52809.1 ave       77841 max           0 min
Histogram: 18 6 8 0 0 8 16 12 58 30

Total # of neighbors = 8238215
Ave neighs/atom = 28.530516
Neighbor list builds = 0
Dangerous builds = 0
The dot product: -1.56110900796288e-07
Setting atom values ...
  1 settings made for x
  1 settings made for y
  1 settings made for z
Setting up cg style minimization ...
  Unit style    : metal
  Current step  : 4259
Per MPI rank memory allocation (min/avg/max) = 5.428 | 5.555 | 5.600 Mbytes
Step PotEng KinEng TotEng v_fx v_fy v_fz 
    4259   -1152449.1            0   -1152449.1 -0.023937245 0.0018929988 -0.023675479 
    4451   -1152449.1            0   -1152449.1 2.636819e-06 -9.2144302e-06 1.3978191e-05 
Loop time of 1.55281 on 156 procs for 192 steps with 288751 atoms

99.9% CPU use with 156 MPI tasks x 1 OpenMP threads

Minimization stats:
  Stopping criterion = energy tolerance
  Energy initial, next-to-last, final = 
     -1152449.11494251  -1152449.11680157  -1152449.11680157
  Force two-norm initial, final = 0.17380981 0.00010676662
  Force max component initial, final = 0.13010959 1.3978191e-05
  Final line search alpha, max atom move = 1.0000000 1.3978191e-05
  Iterations, force evaluations = 192 384

MPI task timing breakdown:
Section |  min time  |  avg time  |  max time  |%varavg| %total
---------------------------------------------------------------
Pair    | 5.1582e-05 | 1.0884     | 1.4788     |  35.9 | 70.09
Neigh   | 0          | 0          | 0          |   0.0 |  0.00
Comm    | 6.7839e-05 | 0.24951    | 0.97731    |  51.6 | 16.07
Output  | 0          | 0          | 0          |   0.0 |  0.00
Modify  | 1.7681e-05 | 0.0020958  | 0.0040401  |   2.5 |  0.13
Other   |            | 0.2128     |            |       | 13.71

Nlocal:        1850.97 ave        2665 max           0 min
Histogram: 16 8 4 4 0 8 4 20 32 60
Nghost:        2927.07 ave        4066 max           0 min
Histogram: 8 8 8 8 0 16 12 4 18 74
Neighs:        52809.1 ave       77843 max           0 min
Histogram: 18 6 8 0 0 8 16 12 58 30

Total # of neighbors = 8238214
Ave neighs/atom = 28.530512
Neighbor list builds = 0
Dangerous builds = 0
The dot product: -3.74921145141928e-07
Setting atom values ...
  1 settings made for x
  1 settings made for y
  1 settings made for z
Setting up cg style minimization ...
  Unit style    : metal
  Current step  : 4451
Per MPI rank memory allocation (min/avg/max) = 5.428 | 5.555 | 5.600 Mbytes
Step PotEng KinEng TotEng v_fx v_fy v_fz 
    4451   -1152449.1            0   -1152449.1 -0.018784224 0.0017292082 -0.017634924 
    4691   -1152449.1            0   -1152449.1 1.2369605e-06 -3.3384091e-06 5.0565528e-06 
Loop time of 1.92952 on 156 procs for 240 steps with 288751 atoms

99.9% CPU use with 156 MPI tasks x 1 OpenMP threads

Minimization stats:
  Stopping criterion = energy tolerance
  Energy initial, next-to-last, final = 
      -1152449.0873369  -1152449.08906732  -1152449.08906732
  Force two-norm initial, final = 0.17327323 1.7145067e-05
  Force max component initial, final = 0.13298299 5.0565528e-06
  Final line search alpha, max atom move = 1.0000000 5.0565528e-06
  Iterations, force evaluations = 240 480

MPI task timing breakdown:
Section |  min time  |  avg time  |  max time  |%varavg| %total
---------------------------------------------------------------
Pair    | 6.413e-05  | 1.3496     | 1.8426     |  40.0 | 69.95
Neigh   | 0          | 0          | 0          |   0.0 |  0.00
Comm    | 8.146e-05  | 0.30571    | 1.2011     |  57.4 | 15.84
Output  | 0          | 0          | 0          |   0.0 |  0.00
Modify  | 2.0367e-05 | 0.0026105  | 0.0050329  |   2.8 |  0.14
Other   |            | 0.2716     |            |       | 14.08

Nlocal:        1850.97 ave        2665 max           0 min
Histogram: 16 8 4 4 0 8 4 20 32 60
Nghost:        2927.08 ave        4065 max           0 min
Histogram: 8 8 8 8 0 16 12 4 18 74
Neighs:        52809.1 ave       77837 max           0 min
Histogram: 18 6 8 0 0 8 16 12 58 30

Total # of neighbors = 8238213
Ave neighs/atom = 28.530509
Neighbor list builds = 0
Dangerous builds = 0
The dot product: -1.13079664725209e-07
Setting atom values ...
  1 settings made for x
  1 settings made for y
  1 settings made for z
Setting up cg style minimization ...
  Unit style    : metal
  Current step  : 4691
Per MPI rank memory allocation (min/avg/max) = 5.428 | 5.555 | 5.600 Mbytes
Step PotEng KinEng TotEng v_fx v_fy v_fz 
    4691   -1152449.1            0   -1152449.1 -0.013520077   0.00145262 -0.012283505 
    4874   -1152449.1            0   -1152449.1 -6.6999001e-06 2.2234488e-05 -3.1174016e-05 
Loop time of 1.51812 on 156 procs for 183 steps with 288751 atoms

99.9% CPU use with 156 MPI tasks x 1 OpenMP threads

Minimization stats:
  Stopping criterion = energy tolerance
  Energy initial, next-to-last, final = 
     -1152449.05839081  -1152449.06004656  -1152449.06004656
  Force two-norm initial, final = 0.17334559 0.00014188631
  Force max component initial, final = 0.13563192 3.1174016e-05
  Final line search alpha, max atom move = 1.0000000 3.1174016e-05
  Iterations, force evaluations = 183 366

MPI task timing breakdown:
Section |  min time  |  avg time  |  max time  |%varavg| %total
---------------------------------------------------------------
Pair    | 4.8906e-05 | 1.0498     | 1.4327     |  35.3 | 69.15
Neigh   | 0          | 0          | 0          |   0.0 |  0.00
Comm    | 5.9399e-05 | 0.24759    | 0.95434    |  50.0 | 16.31
Output  | 0          | 0          | 0          |   0.0 |  0.00
Modify  | 1.6433e-05 | 0.002002   | 0.0038693  |   2.4 |  0.13
Other   |            | 0.2188     |            |       | 14.41

Nlocal:        1850.97 ave        2665 max           0 min
Histogram: 16 8 4 4 0 8 4 20 32 60
Nghost:        2927.08 ave        4066 max           0 min
Histogram: 8 8 8 8 0 16 12 4 18 74
Neighs:        52809.1 ave       77838 max           0 min
Histogram: 18 6 8 0 0 8 16 12 58 30

Total # of neighbors = 8238214
Ave neighs/atom = 28.530512
Neighbor list builds = 0
Dangerous builds = 0
The dot product: 5.65233635109915e-07
Setting atom values ...
  1 settings made for x
  1 settings made for y
  1 settings made for z
Setting up cg style minimization ...
  Unit style    : metal
  Current step  : 4874
Per MPI rank memory allocation (min/avg/max) = 5.428 | 5.555 | 5.600 Mbytes
Step PotEng KinEng TotEng v_fx v_fy v_fz 
    4874     -1152449            0     -1152449 -0.0089557838 0.0011332675 -0.008010568 
    5000     -1152449            0     -1152449 1.2379732e-05 -2.541665e-05 3.8091233e-05 
    5059     -1152449            0     -1152449 4.1251619e-07 5.0993616e-06 -5.4668573e-06 
Loop time of 1.50162 on 156 procs for 185 steps with 288751 atoms

99.9% CPU use with 156 MPI tasks x 1 OpenMP threads

Minimization stats:
  Stopping criterion = energy tolerance
  Energy initial, next-to-last, final = 
     -1152449.02815752  -1152449.02980123  -1152449.02980123
  Force two-norm initial, final = 0.17389226 0.00013971585
  Force max component initial, final = 0.13802405 1.9572799e-05
  Final line search alpha, max atom move = 1.0000000 1.9572799e-05
  Iterations, force evaluations = 185 370

MPI task timing breakdown:
Section |  min time  |  avg time  |  max time  |%varavg| %total
---------------------------------------------------------------
Pair    | 4.9193e-05 | 1.0454     | 1.4206     |  35.2 | 69.62
Neigh   | 0          | 0          | 0          |   0.0 |  0.00
Comm    | 5.6582e-05 | 0.23586    | 0.92836    |  50.6 | 15.71
Output  | 0.00011109 | 0.00011311 | 0.00018651 |   0.0 |  0.01
Modify  | 1.5802e-05 | 0.0020143  | 0.0039048  |   2.4 |  0.13
Other   |            | 0.2182     |            |       | 14.53

Nlocal:        1850.97 ave        2665 max           0 min
Histogram: 16 8 4 4 0 8 4 20 32 60
Nghost:        2927.07 ave        4066 max           0 min
Histogram: 8 8 8 8 0 16 12 4 18 74
Neighs:        52809.1 ave       77839 max           0 min
Histogram: 18 6 8 0 0 8 16 12 58 30

Total # of neighbors = 8238218
Ave neighs/atom = 28.530526
Neighbor list builds = 0
Dangerous builds = 0
The dot product: 8.01691220061627e-08
Setting atom values ...
  1 settings made for x
  1 settings made for y
  1 settings made for z
Setting up cg style minimization ...
  Unit style    : metal
  Current step  : 5059
Per MPI rank memory allocation (min/avg/max) = 5.428 | 5.555 | 5.600 Mbytes
Step PotEng KinEng TotEng v_fx v_fy v_fz 
    5059     -1152449            0     -1152449 -0.0055725571 0.00090988364 -0.005054656 
    5260     -1152449            0     -1152449 -4.0927532e-06 1.0424467e-05 -1.4490913e-05 
Loop time of 1.66234 on 156 procs for 201 steps with 288751 atoms

99.9% CPU use with 156 MPI tasks x 1 OpenMP threads

Minimization stats:
  Stopping criterion = energy tolerance
  Energy initial, next-to-last, final = 
     -1152448.99679551    -1152448.998443    -1152448.998443
  Force two-norm initial, final = 0.17463564 9.3803691e-05
  Force max component initial, final = 0.14012656 1.4490913e-05
  Final line search alpha, max atom move = 1.0000000 1.4490913e-05
  Iterations, force evaluations = 201 402

MPI task timing breakdown:
Section |  min time  |  avg time  |  max time  |%varavg| %total
---------------------------------------------------------------
Pair    | 5.3831e-05 | 1.1492     | 1.5887     |  36.9 | 69.13
Neigh   | 0          | 0          | 0          |   0.0 |  0.00
Comm    | 6.7563e-05 | 0.27004    | 1.0404     |  52.3 | 16.24
Output  | 0          | 0          | 0          |   0.0 |  0.00
Modify  | 1.7223e-05 | 0.0021992  | 0.004305   |   2.5 |  0.13
Other   |            | 0.2409     |            |       | 14.49

Nlocal:        1850.97 ave        2665 max           0 min
Histogram: 16 8 4 4 0 8 4 20 32 60
Nghost:        2927.07 ave        4066 max           0 min
Histogram: 8 8 8 8 0 16 12 4 18 74
Neighs:        52809.1 ave       77834 max           0 min
Histogram: 18 6 8 0 0 8 16 12 58 30

Total # of neighbors = 8238215
Ave neighs/atom = 28.530516
Neighbor list builds = 0
Dangerous builds = 0
The dot product: 2.01189489007366e-07
Setting atom values ...
  1 settings made for x
  1 settings made for y
  1 settings made for z
Setting up cg style minimization ...
  Unit style    : metal
  Current step  : 5260
Per MPI rank memory allocation (min/avg/max) = 5.428 | 5.555 | 5.600 Mbytes
Step PotEng KinEng TotEng v_fx v_fy v_fz 
    5260     -1152449            0     -1152449 -0.0029979656 0.00034409305 -0.0024935679 
    5436     -1152449            0     -1152449 1.1151959e-05 -2.7895263e-05 3.8038866e-05 
Loop time of 1.42498 on 156 procs for 176 steps with 288751 atoms

99.9% CPU use with 156 MPI tasks x 1 OpenMP threads

Minimization stats:
  Stopping criterion = energy tolerance
  Energy initial, next-to-last, final = 
     -1152448.96437125  -1152448.96603363  -1152448.96603363
  Force two-norm initial, final = 0.17552 0.00019945813
  Force max component initial, final = 0.14206314 3.8038866e-05
  Final line search alpha, max atom move = 1.0000000 3.8038866e-05
  Iterations, force evaluations = 176 352

MPI task timing breakdown:
Section |  min time  |  avg time  |  max time  |%varavg| %total
---------------------------------------------------------------
Pair    | 4.7054e-05 | 0.99292    | 1.3549     |  34.3 | 69.68
Neigh   | 0          | 0          | 0          |   0.0 |  0.00
Comm    | 5.4965e-05 | 0.2281     | 0.89514    |  49.0 | 16.01
Output  | 0          | 0          | 0          |   0.0 |  0.00
Modify  | 1.4727e-05 | 0.0019216  | 0.0037481  |   2.4 |  0.13
Other   |            | 0.202      |            |       | 14.18

Nlocal:        1850.97 ave        2665 max           0 min
Histogram: 16 8 4 4 0 8 4 20 32 60
Nghost:        2927.08 ave        4066 max           0 min
Histogram: 8 8 8 8 0 16 12 4 18 74
Neighs:        52809.1 ave       77837 max           0 min
Histogram: 18 6 8 0 0 8 16 12 58 30

Total # of neighbors = 8238219
Ave neighs/atom = 28.530530
Neighbor list builds = 0
Dangerous builds = 0
The dot product: -4.76475814644914e-07
Setting atom values ...
  1 settings made for x
  1 settings made for y
  1 settings made for z
Setting up cg style minimization ...
  Unit style    : metal
  Current step  : 5436
Per MPI rank memory allocation (min/avg/max) = 5.428 | 5.555 | 5.600 Mbytes
Step PotEng KinEng TotEng v_fx v_fy v_fz 
    5436   -1152448.9            0   -1152448.9 -0.0012288079 -0.00040599326 -0.00042066954 
    5627   -1152448.9            0   -1152448.9 -1.0953196e-05 2.8112718e-05 -3.73631e-05 
Loop time of 1.54167 on 156 procs for 191 steps with 288751 atoms

99.9% CPU use with 156 MPI tasks x 1 OpenMP threads

Minimization stats:
  Stopping criterion = energy tolerance
  Energy initial, next-to-last, final = 
     -1152448.93100232  -1152448.93271309  -1152448.93271309
  Force two-norm initial, final = 0.17635744 0.00014398753
  Force max component initial, final = 0.14374918 3.7363100e-05
  Final line search alpha, max atom move = 1.0000000 3.7363100e-05
  Iterations, force evaluations = 191 382

MPI task timing breakdown:
Section |  min time  |  avg time  |  max time  |%varavg| %total
---------------------------------------------------------------
Pair    | 5.4497e-05 | 1.0826     | 1.4722     |  35.8 | 70.22
Neigh   | 0          | 0          | 0          |   0.0 |  0.00
Comm    | 6.5456e-05 | 0.24933    | 0.96486    |  51.3 | 16.17
Output  | 0          | 0          | 0          |   0.0 |  0.00
Modify  | 1.6456e-05 | 0.0020842  | 0.004034   |   2.5 |  0.14
Other   |            | 0.2077     |            |       | 13.47

Nlocal:        1850.97 ave        2666 max           0 min
Histogram: 16 8 4 4 0 8 4 20 32 60
Nghost:        2927.08 ave        4066 max           0 min
Histogram: 8 8 8 8 0 16 12 4 18 74
Neighs:        52809.1 ave       77862 max           0 min
Histogram: 18 6 8 0 0 8 16 12 58 30

Total # of neighbors = 8238215
Ave neighs/atom = 28.530516
Neighbor list builds = 0
Dangerous builds = 0
The dot product: 4.283136894913e-07
Setting atom values ...
  1 settings made for x
  1 settings made for y
  1 settings made for z
Setting up cg style minimization ...
  Unit style    : metal
  Current step  : 5627
Per MPI rank memory allocation (min/avg/max) = 5.428 | 5.555 | 5.600 Mbytes
Step PotEng KinEng TotEng v_fx v_fy v_fz 
    5627   -1152448.9            0   -1152448.9 2.8866833e-05 -0.0012913572 0.0013626423 
    5834   -1152448.9            0   -1152448.9 -5.9879171e-06 1.3985322e-05 -1.8613568e-05 
Loop time of 1.66463 on 156 procs for 207 steps with 288751 atoms

99.9% CPU use with 156 MPI tasks x 1 OpenMP threads

Minimization stats:
  Stopping criterion = energy tolerance
  Energy initial, next-to-last, final = 
     -1152448.89680316  -1152448.89843417  -1152448.89843417
  Force two-norm initial, final = 0.1770873 8.8207066e-05
  Force max component initial, final = 0.14515746 2.0010000e-05
  Final line search alpha, max atom move = 1.0000000 2.0010000e-05
  Iterations, force evaluations = 207 414

MPI task timing breakdown:
Section |  min time  |  avg time  |  max time  |%varavg| %total
---------------------------------------------------------------
Pair    | 5.7276e-05 | 1.1696     | 1.5879     |  37.2 | 70.26
Neigh   | 0          | 0          | 0          |   0.0 |  0.00
Comm    | 6.9863e-05 | 0.2638     | 1.0382     |  53.7 | 15.85
Output  | 0          | 0          | 0          |   0.0 |  0.00
Modify  | 1.7126e-05 | 0.0022528  | 0.0043796  |   2.6 |  0.14
Other   |            | 0.229      |            |       | 13.75

Nlocal:        1850.97 ave        2666 max           0 min
Histogram: 16 8 4 4 0 8 4 20 32 60
Nghost:        2927.08 ave        4066 max           0 min
Histogram: 8 8 8 8 0 16 12 4 18 74
Neighs:        52809.1 ave       77860 max           0 min
Histogram: 18 6 8 0 0 8 16 12 58 30

Total # of neighbors = 8238216
Ave neighs/atom = 28.530519
Neighbor list builds = 0
Dangerous builds = 0
The dot product: 1.7333675735204e-07
Setting atom values ...
  1 settings made for x
  1 settings made for y
  1 settings made for z
Setting up cg style minimization ...
  Unit style    : metal
  Current step  : 5834
Per MPI rank memory allocation (min/avg/max) = 5.428 | 5.555 | 5.600 Mbytes
Step PotEng KinEng TotEng v_fx v_fy v_fz 
    5834   -1152448.9            0   -1152448.9 0.0016024055 -0.0032953896 0.0044496491 
    6000   -1152448.9            0   -1152448.9 1.0783254e-05 -2.1359023e-05 2.9106473e-05 
    6015   -1152448.9            0   -1152448.9 1.3042362e-06 2.1499411e-06 -1.3290025e-06 
Loop time of 1.47635 on 156 procs for 181 steps with 288751 atoms

99.9% CPU use with 156 MPI tasks x 1 OpenMP threads

Minimization stats:
  Stopping criterion = energy tolerance
  Energy initial, next-to-last, final = 
     -1152448.86148963  -1152448.86310069  -1152448.86310069
  Force two-norm initial, final = 0.17835468 0.00017238348
  Force max component initial, final = 0.14686876 1.8150491e-05
  Final line search alpha, max atom move = 1.0000000 1.8150491e-05
  Iterations, force evaluations = 181 362

MPI task timing breakdown:
Section |  min time  |  avg time  |  max time  |%varavg| %total
---------------------------------------------------------------
Pair    | 4.9244e-05 | 1.0294     | 1.402      |  34.9 | 69.73
Neigh   | 0          | 0          | 0          |   0.0 |  0.00
Comm    | 6.1851e-05 | 0.23782    | 0.92086    |  49.8 | 16.11
Output  | 0.00012303 | 0.00012993 | 0.00024362 |   0.0 |  0.01
Modify  | 1.5629e-05 | 0.0019805  | 0.003817   |   2.4 |  0.13
Other   |            | 0.207      |            |       | 14.02

Nlocal:        1850.97 ave        2666 max           0 min
Histogram: 16 8 4 4 0 8 4 20 32 60
Nghost:        2927.08 ave        4066 max           0 min
Histogram: 8 8 8 8 0 16 12 4 18 74
Neighs:        52809.1 ave       77879 max           0 min
Histogram: 18 6 8 0 0 8 16 12 58 30

Total # of neighbors = 8238215
Ave neighs/atom = 28.530516
Neighbor list builds = 0
Dangerous builds = 0
The dot product: 1.09080029912699e-08
Setting atom values ...
  1 settings made for x
  1 settings made for y
  1 settings made for z
Setting up cg style minimization ...
  Unit style    : metal
  Current step  : 6015
Per MPI rank memory allocation (min/avg/max) = 5.428 | 5.555 | 5.600 Mbytes
Step PotEng KinEng TotEng v_fx v_fy v_fz 
    6015   -1152448.8            0   -1152448.8 0.0029062398 -0.0054862659  0.007480596 
    6241   -1152448.8            0   -1152448.8 2.4930945e-07 -3.0953889e-07 4.7863217e-07 
Loop time of 1.85816 on 156 procs for 226 steps with 288751 atoms

99.9% CPU use with 156 MPI tasks x 1 OpenMP threads

Minimization stats:
  Stopping criterion = energy tolerance
  Energy initial, next-to-last, final = 
     -1152448.82511545  -1152448.82683944  -1152448.82683944
  Force two-norm initial, final = 0.17963883 4.9743548e-05
  Force max component initial, final = 0.14845247 9.9206090e-07
  Final line search alpha, max atom move = 1.0000000 9.9206090e-07
  Iterations, force evaluations = 226 452

MPI task timing breakdown:
Section |  min time  |  avg time  |  max time  |%varavg| %total
---------------------------------------------------------------
Pair    | 6.1439e-05 | 1.2837     | 1.7403     |  38.9 | 69.09
Neigh   | 0          | 0          | 0          |   0.0 |  0.00
Comm    | 7.3097e-05 | 0.29285    | 1.1361     |  55.6 | 15.76
Output  | 0          | 0          | 0          |   0.0 |  0.00
Modify  | 1.9159e-05 | 0.0024673  | 0.0047572  |   2.7 |  0.13
Other   |            | 0.2791     |            |       | 15.02

Nlocal:        1850.97 ave        2666 max           0 min
Histogram: 16 8 4 4 0 8 4 20 32 60
Nghost:        2927.07 ave        4066 max           0 min
Histogram: 8 8 8 8 0 16 12 4 18 74
Neighs:        52809.1 ave       77870 max           0 min
Histogram: 18 6 8 0 0 8 16 12 58 30

Total # of neighbors = 8238217
Ave neighs/atom = 28.530523
Neighbor list builds = 0
Dangerous builds = 0
The dot product: -3.06321490828543e-09
Setting atom values ...
  1 settings made for x
  1 settings made for y
  1 settings made for z
Setting up cg style minimization ...
  Unit style    : metal
  Current step  : 6241
Per MPI rank memory allocation (min/avg/max) = 5.428 | 5.555 | 5.600 Mbytes
Step PotEng KinEng TotEng v_fx v_fy v_fz 
    6241   -1152448.8            0   -1152448.8 0.0035521089 -0.0071389838 0.0094841528 
    6437   -1152448.8            0   -1152448.8 -3.8952768e-06 1.5811254e-05 -1.8394885e-05 
Loop time of 1.61453 on 156 procs for 196 steps with 288751 atoms

99.9% CPU use with 156 MPI tasks x 1 OpenMP threads

Minimization stats:
  Stopping criterion = energy tolerance
  Energy initial, next-to-last, final = 
     -1152448.78803875   -1152448.7896598   -1152448.7896598
  Force two-norm initial, final = 0.18020785 0.00011216462
  Force max component initial, final = 0.14950027 2.2687186e-05
  Final line search alpha, max atom move = 1.0000000 2.2687186e-05
  Iterations, force evaluations = 196 392

MPI task timing breakdown:
Section |  min time  |  avg time  |  max time  |%varavg| %total
---------------------------------------------------------------
Pair    | 5.2335e-05 | 1.1199     | 1.5275     |  36.4 | 69.37
Neigh   | 0          | 0          | 0          |   0.0 |  0.00
Comm    | 6.6118e-05 | 0.25905    | 1.0088     |  52.2 | 16.04
Output  | 0          | 0          | 0          |   0.0 |  0.00
Modify  | 1.7818e-05 | 0.0021451  | 0.0041597  |   2.5 |  0.13
Other   |            | 0.2334     |            |       | 14.46

Nlocal:        1850.97 ave        2667 max           0 min
Histogram: 16 8 4 4 0 8 4 20 56 36
Nghost:        2927.10 ave        4066 max           0 min
Histogram: 8 8 8 8 0 16 12 4 18 74
Neighs:        52809.1 ave       77914 max           0 min
Histogram: 18 6 8 0 0 8 16 12 58 30

Total # of neighbors = 8238213
Ave neighs/atom = 28.530509
Neighbor list builds = 0
Dangerous builds = 0
The dot product: 8.25150320976383e-08
Setting atom values ...
  1 settings made for x
  1 settings made for y
  1 settings made for z
Setting up cg style minimization ...
  Unit style    : metal
  Current step  : 6437
Per MPI rank memory allocation (min/avg/max) = 5.428 | 5.555 | 5.600 Mbytes
Step PotEng KinEng TotEng v_fx v_fy v_fz 
    6437   -1152448.7            0   -1152448.7 0.0045734083 -0.010057592  0.012989939 
    6614   -1152448.8            0   -1152448.8 -3.5736218e-06 5.6964752e-06 -8.0003735e-06 
Loop time of 1.43142 on 156 procs for 177 steps with 288751 atoms

99.9% CPU use with 156 MPI tasks x 1 OpenMP threads

Minimization stats:
  Stopping criterion = energy tolerance
  Energy initial, next-to-last, final = 
     -1152448.74984101  -1152448.75147245  -1152448.75147245
  Force two-norm initial, final = 0.18121194 0.00019012873
  Force max component initial, final = 0.15083705 9.9405404e-06
  Final line search alpha, max atom move = 1.0000000 9.9405404e-06
  Iterations, force evaluations = 177 354

MPI task timing breakdown:
Section |  min time  |  avg time  |  max time  |%varavg| %total
---------------------------------------------------------------
Pair    | 4.7665e-05 | 0.99995    | 1.3646     |  34.4 | 69.86
Neigh   | 0          | 0          | 0          |   0.0 |  0.00
Comm    | 5.5198e-05 | 0.22891    | 0.8934     |  49.2 | 15.99
Output  | 0          | 0          | 0          |   0.0 |  0.00
Modify  | 1.5656e-05 | 0.0019316  | 0.0037298  |   2.4 |  0.13
Other   |            | 0.2006     |            |       | 14.02

Nlocal:        1850.97 ave        2667 max           0 min
Histogram: 16 8 4 4 0 8 4 20 56 36
Nghost:        2927.11 ave        4066 max           0 min
Histogram: 8 8 8 8 0 16 12 4 18 74
Neighs:        52809.1 ave       77908 max           0 min
Histogram: 18 6 8 0 0 8 16 12 58 30

Total # of neighbors = 8238213
Ave neighs/atom = 28.530509
Neighbor list builds = 0
Dangerous builds = 0
The dot product: 1.89926740166879e-08
Setting atom values ...
  1 settings made for x
  1 settings made for y
  1 settings made for z
Setting up cg style minimization ...
  Unit style    : metal
  Current step  : 6614
Per MPI rank memory allocation (min/avg/max) = 5.428 | 5.555 | 5.600 Mbytes
Step PotEng KinEng TotEng v_fx v_fy v_fz 
    6614   -1152448.7            0   -1152448.7 0.0052134957 -0.012920194  0.016191203 
    6830   -1152448.7            0   -1152448.7 -1.4461073e-06 3.5293165e-06 -4.4371781e-06 
Loop time of 1.77457 on 156 procs for 216 steps with 288751 atoms

99.9% CPU use with 156 MPI tasks x 1 OpenMP threads

Minimization stats:
  Stopping criterion = energy tolerance
  Energy initial, next-to-last, final = 
      -1152448.7107267  -1152448.71253494  -1152448.71253494
  Force two-norm initial, final = 0.18168933 7.9933714e-05
  Force max component initial, final = 0.1519369 4.5008461e-06
  Final line search alpha, max atom move = 1.0000000 4.5008461e-06
  Iterations, force evaluations = 216 432

MPI task timing breakdown:
Section |  min time  |  avg time  |  max time  |%varavg| %total
---------------------------------------------------------------
Pair    | 5.7764e-05 | 1.2359     | 1.6867     |  38.3 | 69.64
Neigh   | 0          | 0          | 0          |   0.0 |  0.00
Comm    | 6.9858e-05 | 0.2873     | 1.12       |  54.7 | 16.19
Output  | 0          | 0          | 0          |   0.0 |  0.00
Modify  | 1.9318e-05 | 0.0023642  | 0.0045599  |   2.6 |  0.13
Other   |            | 0.249      |            |       | 14.03

Nlocal:        1850.97 ave        2667 max           0 min
Histogram: 16 8 4 4 0 8 4 20 56 36
Nghost:        2927.12 ave        4066 max           0 min
Histogram: 8 8 8 8 0 16 12 4 18 74
Neighs:        52809.1 ave       77907 max           0 min
Histogram: 18 6 8 0 0 8 16 12 58 30

Total # of neighbors = 8238212
Ave neighs/atom = 28.530506
Neighbor list builds = 0
Dangerous builds = 0
The dot product: 7.16316402907007e-09
Setting atom values ...
  1 settings made for x
  1 settings made for y
  1 settings made for z
Setting up cg style minimization ...
  Unit style    : metal
  Current step  : 6830
Per MPI rank memory allocation (min/avg/max) = 5.428 | 5.555 | 5.600 Mbytes
Step PotEng KinEng TotEng v_fx v_fy v_fz 
    6830   -1152448.7            0   -1152448.7 0.0055790435 -0.014901398  0.018343792 
    6977   -1152448.7            0   -1152448.7 -8.0497272e-06 2.6143723e-05 -3.1048082e-05 
Loop time of 1.18339 on 156 procs for 147 steps with 288751 atoms

99.9% CPU use with 156 MPI tasks x 1 OpenMP threads

Minimization stats:
  Stopping criterion = energy tolerance
  Energy initial, next-to-last, final = 
     -1152448.67133679  -1152448.67308612  -1152448.67308612
  Force two-norm initial, final = 0.18052277 0.00015072255
  Force max component initial, final = 0.15191634 3.6569811e-05
  Final line search alpha, max atom move = 1.0000000 3.6569811e-05
  Iterations, force evaluations = 147 294

MPI task timing breakdown:
Section |  min time  |  avg time  |  max time  |%varavg| %total
---------------------------------------------------------------
Pair    | 3.9364e-05 | 0.83156    | 1.1301     |  31.3 | 70.27
Neigh   | 0          | 0          | 0          |   0.0 |  0.00
Comm    | 4.8966e-05 | 0.18761    | 0.73788    |  45.2 | 15.85
Output  | 0          | 0          | 0          |   0.0 |  0.00
Modify  | 1.2395e-05 | 0.0016003  | 0.0030873  |   2.2 |  0.14
Other   |            | 0.1626     |            |       | 13.74

Nlocal:        1850.97 ave        2668 max           0 min
Histogram: 16 8 4 4 0 8 4 20 56 36
Nghost:        2927.12 ave        4066 max           0 min
Histogram: 8 8 8 8 0 16 12 4 18 74
Neighs:        52809.0 ave       77925 max           0 min
Histogram: 18 6 8 0 0 8 16 12 58 30

Total # of neighbors = 8238206
Ave neighs/atom = 28.530485
Neighbor list builds = 0
Dangerous builds = 0
The dot product: -1.21543976619928e-08
Setting atom values ...
  1 settings made for x
  1 settings made for y
  1 settings made for z
Setting up cg style minimization ...
  Unit style    : metal
  Current step  : 6977
Per MPI rank memory allocation (min/avg/max) = 5.428 | 5.555 | 5.600 Mbytes
Step PotEng KinEng TotEng v_fx v_fy v_fz 
    6977   -1152448.6            0   -1152448.6 0.0059635831 -0.017866776  0.021534491 
    7000   -1152448.6            0   -1152448.6 0.00070237042 -0.0011416241 0.0015866712 
    7161   -1152448.6            0   -1152448.6 -1.286138e-05 3.1804687e-05 -3.980606e-05 
Loop time of 1.51553 on 156 procs for 184 steps with 288751 atoms

99.9% CPU use with 156 MPI tasks x 1 OpenMP threads

Minimization stats:
  Stopping criterion = energy tolerance
  Energy initial, next-to-last, final = 
      -1152448.6315933  -1152448.63361132  -1152448.63361132
  Force two-norm initial, final = 0.17955132 0.00015639003
  Force max component initial, final = 0.15160777 3.9806060e-05
  Final line search alpha, max atom move = 1.0000000 3.9806060e-05
  Iterations, force evaluations = 184 368

MPI task timing breakdown:
Section |  min time  |  avg time  |  max time  |%varavg| %total
---------------------------------------------------------------
Pair    | 4.9213e-05 | 1.0515     | 1.4462     |  35.3 | 69.38
Neigh   | 0          | 0          | 0          |   0.0 |  0.00
Comm    | 6.0954e-05 | 0.24579    | 0.95273    |  50.1 | 16.22
Output  | 0.00010167 | 0.00010971 | 0.00016355 |   0.0 |  0.01
Modify  | 1.5592e-05 | 0.0020132  | 0.0038929  |   2.4 |  0.13
Other   |            | 0.2161     |            |       | 14.26

Nlocal:        1850.97 ave        2668 max           0 min
Histogram: 16 8 4 4 0 8 4 20 56 36
Nghost:        2927.13 ave        4066 max           0 min
Histogram: 8 8 8 8 0 16 12 4 18 74
Neighs:        52809.0 ave       77922 max           0 min
Histogram: 18 6 8 0 0 8 16 12 58 30

Total # of neighbors = 8238199
Ave neighs/atom = 28.530461
Neighbor list builds = 0
Dangerous builds = 0
The dot product: -4.10734544835863e-08
Setting atom values ...
  1 settings made for x
  1 settings made for y
  1 settings made for z
Setting up cg style minimization ...
  Unit style    : metal
  Current step  : 7161
Per MPI rank memory allocation (min/avg/max) = 5.428 | 5.555 | 5.600 Mbytes
Step PotEng KinEng TotEng v_fx v_fy v_fz 
    7161   -1152448.6            0   -1152448.6 0.0094260782 -0.018872057  0.024841648 
    7380   -1152448.6            0   -1152448.6 -7.8513638e-06 1.5276006e-05 -2.0254183e-05 
Loop time of 1.77968 on 156 procs for 219 steps with 288751 atoms

99.9% CPU use with 156 MPI tasks x 1 OpenMP threads

Minimization stats:
  Stopping criterion = energy tolerance
  Energy initial, next-to-last, final = 
     -1152448.59290002  -1152448.59507523  -1152448.59507523
  Force two-norm initial, final = 0.17781904 9.1728395e-05
  Force max component initial, final = 0.14904369 2.0254183e-05
  Final line search alpha, max atom move = 1.0000000 2.0254183e-05
  Iterations, force evaluations = 219 438

MPI task timing breakdown:
Section |  min time  |  avg time  |  max time  |%varavg| %total
---------------------------------------------------------------
Pair    | 5.8982e-05 | 1.2393     | 1.6832     |  38.3 | 69.64
Neigh   | 0          | 0          | 0          |   0.0 |  0.00
Comm    | 7.776e-05  | 0.28199    | 1.1011     |  54.9 | 15.84
Output  | 0          | 0          | 0          |   0.0 |  0.00
Modify  | 1.933e-05  | 0.0023855  | 0.0046269  |   2.6 |  0.13
Other   |            | 0.256      |            |       | 14.38

Nlocal:        1850.97 ave        2668 max           0 min
Histogram: 16 8 4 4 0 8 4 20 56 36
Nghost:        2927.13 ave        4066 max           0 min
Histogram: 8 8 8 8 0 16 12 4 18 74
Neighs:        52809.0 ave       77931 max           0 min
Histogram: 18 6 8 0 0 8 16 12 58 30

Total # of neighbors = 8238205
Ave neighs/atom = 28.530481
Neighbor list builds = 0
Dangerous builds = 0
The dot product: -1.59145542956511e-08
Setting atom values ...
  1 settings made for x
  1 settings made for y
  1 settings made for z
Setting up cg style minimization ...
  Unit style    : metal
  Current step  : 7380
Per MPI rank memory allocation (min/avg/max) = 5.428 | 5.555 | 5.600 Mbytes
Step PotEng KinEng TotEng v_fx v_fy v_fz 
    7380   -1152448.6            0   -1152448.6  0.011435615 -0.018592781  0.025930095 
    7622   -1152448.6            0   -1152448.6 3.5215108e-06 -4.4963919e-06 6.7728426e-06 
Loop time of 1.96015 on 156 procs for 242 steps with 288751 atoms

99.9% CPU use with 156 MPI tasks x 1 OpenMP threads

Minimization stats:
  Stopping criterion = energy tolerance
  Energy initial, next-to-last, final = 
      -1152448.5561955  -1152448.56858293  -1152448.56858293
  Force two-norm initial, final = 0.18585266 8.5231460e-05
  Force max component initial, final = 0.14651306 6.7728426e-06
  Final line search alpha, max atom move = 1.0000000 6.7728426e-06
  Iterations, force evaluations = 242 484

MPI task timing breakdown:
Section |  min time  |  avg time  |  max time  |%varavg| %total
---------------------------------------------------------------
Pair    | 6.4795e-05 | 1.3755     | 1.8683     |  40.3 | 70.17
Neigh   | 5.4999e-06 | 0.002058   | 0.0030446  |   2.1 |  0.10
Comm    | 0.0002104  | 0.31572    | 1.2269     |  57.9 | 16.11
Output  | 0          | 0          | 0          |   0.0 |  0.00
Modify  | 2.0058e-05 | 0.002641   | 0.0051092  |   2.8 |  0.13
Other   |            | 0.2642     |            |       | 13.48

Nlocal:        1850.97 ave        2667 max           0 min
Histogram: 16 8 4 4 0 8 4 20 56 36
Nghost:        2927.13 ave        4066 max           0 min
Histogram: 8 8 8 8 0 16 12 4 18 74
Neighs:        52808.9 ave       77899 max           0 min
Histogram: 18 6 8 0 0 8 16 12 58 30

Total # of neighbors = 8238192
Ave neighs/atom = 28.530436
Neighbor list builds = 1
Dangerous builds = 0
The dot product: -1.57021237870668e-07
Setting atom values ...
  1 settings made for x
  1 settings made for y
  1 settings made for z
Setting up cg style minimization ...
  Unit style    : metal
  Current step  : 7622
Per MPI rank memory allocation (min/avg/max) = 5.428 | 5.555 | 5.600 Mbytes
Step PotEng KinEng TotEng v_fx v_fy v_fz 
[...]
Histogram: 16 8 4 4 0 8 4 20 63 29
Nghost:        2927.00 ave        4076 max           0 min
Histogram: 8 8 8 8 0 16 12 4 18 74
Neighs:        52809.0 ave       78528 max           0 min
Histogram: 18 6 8 0 0 8 16 12 59 29

Total # of neighbors = 8238205
Ave neighs/atom = 28.530481
Neighbor list builds = 0
Dangerous builds = 0
The dot product: 2.19351009023751e-08
Setting atom values ...
  1 settings made for x
  1 settings made for y
  1 settings made for z
Setting up cg style minimization ...
  Unit style    : metal
  Current step  : 24292
Per MPI rank memory allocation (min/avg/max) = 5.428 | 5.555 | 5.600 Mbytes
Step PotEng KinEng TotEng v_fx v_fy v_fz 
   24292     -1152449            0     -1152449 0.0023558452 0.00021005453 -0.0024263968 
   24477     -1152449            0     -1152449 -8.9038703e-06 2.1180607e-05 -2.2096419e-05 
Loop time of 1.51091 on 156 procs for 185 steps with 288751 atoms

99.9% CPU use with 156 MPI tasks x 1 OpenMP threads

Minimization stats:
  Stopping criterion = energy tolerance
  Energy initial, next-to-last, final = 
     -1152448.97061813  -1152448.97171758  -1152448.97171758
  Force two-norm initial, final = 0.13863959 0.00014500425
  Force max component initial, final = 0.060974517 2.2096419e-05
  Final line search alpha, max atom move = 1.0000000 2.2096419e-05
  Iterations, force evaluations = 185 370

MPI task timing breakdown:
Section |  min time  |  avg time  |  max time  |%varavg| %total
---------------------------------------------------------------
Pair    | 5.7218e-05 | 1.0519     | 1.4213     |  35.2 | 69.62
Neigh   | 0          | 0          | 0          |   0.0 |  0.00
Comm    | 5.9634e-05 | 0.24578    | 0.94405    |  50.0 | 16.27
Output  | 0          | 0          | 0          |   0.0 |  0.00
Modify  | 1.8099e-05 | 0.0020157  | 0.0039305  |   2.4 |  0.13
Other   |            | 0.2112     |            |       | 13.98

Nlocal:        1850.97 ave        2685 max           0 min
Histogram: 16 8 4 4 0 8 4 20 63 29
Nghost:        2927.01 ave        4076 max           0 min
Histogram: 8 8 8 8 0 16 12 4 18 74
Neighs:        52809.0 ave       78529 max           0 min
Histogram: 18 6 8 0 0 8 16 12 59 29

Total # of neighbors = 8238200
Ave neighs/atom = 28.530464
Neighbor list builds = 0
Dangerous builds = 0
The dot product: -4.77176730231482e-08
Setting atom values ...
  1 settings made for x
  1 settings made for y
  1 settings made for z
Setting up cg style minimization ...
  Unit style    : metal
  Current step  : 24477
Per MPI rank memory allocation (min/avg/max) = 5.428 | 5.555 | 5.600 Mbytes
Step PotEng KinEng TotEng v_fx v_fy v_fz 
   24477     -1152449            0     -1152449 0.0020854698 0.0013051032 -0.003721895 
   24667     -1152449            0     -1152449 -5.4523319e-06 1.3317367e-05 -1.3965747e-05 
Loop time of 1.5446 on 156 procs for 190 steps with 288751 atoms

99.9% CPU use with 156 MPI tasks x 1 OpenMP threads

Minimization stats:
  Stopping criterion = energy tolerance
  Energy initial, next-to-last, final = 
     -1152448.97094747   -1152448.9721861   -1152448.9721861
  Force two-norm initial, final = 0.13986616 0.00014639329
  Force max component initial, final = 0.060419785 2.6877663e-05
  Final line search alpha, max atom move = 1.0000000 2.6877663e-05
  Iterations, force evaluations = 190 380

MPI task timing breakdown:
Section |  min time  |  avg time  |  max time  |%varavg| %total
---------------------------------------------------------------
Pair    | 5.3565e-05 | 1.0796     | 1.4579     |  35.6 | 69.89
Neigh   | 0          | 0          | 0          |   0.0 |  0.00
Comm    | 5.9688e-05 | 0.25157    | 0.97083    |  50.8 | 16.29
Output  | 0          | 0          | 0          |   0.0 |  0.00
Modify  | 1.8572e-05 | 0.0020683  | 0.004039   |   2.5 |  0.13
Other   |            | 0.2114     |            |       | 13.69

Nlocal:        1850.97 ave        2685 max           0 min
Histogram: 16 8 4 4 0 8 4 20 63 29
Nghost:        2927.01 ave        4076 max           0 min
Histogram: 8 8 8 8 0 16 12 4 18 74
Neighs:        52809.0 ave       78529 max           0 min
Histogram: 18 6 8 0 0 8 16 12 59 29

Total # of neighbors = 8238200
Ave neighs/atom = 28.530464
Neighbor list builds = 0
Dangerous builds = 0
The dot product: -4.91708031252003e-08
Setting atom values ...
  1 settings made for x
  1 settings made for y
  1 settings made for z
Setting up cg style minimization ...
  Unit style    : metal
  Current step  : 24667
Per MPI rank memory allocation (min/avg/max) = 5.428 | 5.555 | 5.600 Mbytes
Step PotEng KinEng TotEng v_fx v_fy v_fz 
   24667     -1152449            0     -1152449 0.00071635453 0.0047306819 -0.0072905683 
   24854     -1152449            0     -1152449 1.3892298e-05 -3.7417659e-05 4.0242366e-05 
Loop time of 1.60863 on 156 procs for 187 steps with 288751 atoms

99.8% CPU use with 156 MPI tasks x 1 OpenMP threads

Minimization stats:
  Stopping criterion = energy tolerance
  Energy initial, next-to-last, final = 
     -1152448.97042885  -1152448.97160257  -1152448.97160257
  Force two-norm initial, final = 0.14123775 0.00016482772
  Force max component initial, final = 0.060341688 5.2088372e-05
  Final line search alpha, max atom move = 1.0000000 5.2088372e-05
  Iterations, force evaluations = 187 374

MPI task timing breakdown:
Section |  min time  |  avg time  |  max time  |%varavg| %total
---------------------------------------------------------------
Pair    | 4.9928e-05 | 1.0735     | 1.4467     |  35.4 | 66.74
Neigh   | 0          | 0          | 0          |   0.0 |  0.00
Comm    | 6.045e-05  | 0.25854    | 0.96758    |  49.1 | 16.07
Output  | 0          | 0          | 0          |   0.0 |  0.00
Modify  | 1.8498e-05 | 0.0020406  | 0.0039415  |   2.4 |  0.13
Other   |            | 0.2745     |            |       | 17.06

Nlocal:        1850.97 ave        2685 max           0 min
Histogram: 16 8 4 4 0 8 4 20 63 29
Nghost:        2927.01 ave        4076 max           0 min
Histogram: 8 8 8 8 0 16 12 4 18 74
Neighs:        52809.0 ave       78536 max           0 min
Histogram: 18 6 8 0 0 8 16 12 59 29

Total # of neighbors = 8238205
Ave neighs/atom = 28.530481
Neighbor list builds = 0
Dangerous builds = 0
The dot product: 5.93220132751355e-08
Setting atom values ...
  1 settings made for x
  1 settings made for y
  1 settings made for z
Setting up cg style minimization ...
  Unit style    : metal
  Current step  : 24854
Per MPI rank memory allocation (min/avg/max) = 5.428 | 5.555 | 5.600 Mbytes
Step PotEng KinEng TotEng v_fx v_fy v_fz 
   24854     -1152449            0     -1152449 -0.0021637097  0.010730569 -0.013118002 
   25000     -1152449            0     -1152449 -2.3529477e-05 6.0568899e-05 -6.4034004e-05 
   25046     -1152449            0     -1152449 -1.3254019e-05 3.4836972e-05 -3.7077011e-05 
Loop time of 1.54556 on 156 procs for 192 steps with 288751 atoms

99.9% CPU use with 156 MPI tasks x 1 OpenMP threads

Minimization stats:
  Stopping criterion = energy tolerance
  Energy initial, next-to-last, final = 
     -1152448.96866203  -1152448.96996058  -1152448.96996058
  Force two-norm initial, final = 0.14358295 0.00017565138
  Force max component initial, final = 0.060169664 3.7077011e-05
  Final line search alpha, max atom move = 1.0000000 3.7077011e-05
  Iterations, force evaluations = 192 384

MPI task timing breakdown:
Section |  min time  |  avg time  |  max time  |%varavg| %total
---------------------------------------------------------------
Pair    | 5.1284e-05 | 1.0894     | 1.4717     |  35.8 | 70.49
Neigh   | 0          | 0          | 0          |   0.0 |  0.00
Comm    | 6.0399e-05 | 0.25002    | 0.97862    |  51.3 | 16.18
Output  | 0.00011409 | 0.00011669 | 0.00022201 |   0.0 |  0.01
Modify  | 1.7463e-05 | 0.0020915  | 0.0040494  |   2.5 |  0.14
Other   |            | 0.2039     |            |       | 13.19

Nlocal:        1850.97 ave        2685 max           0 min
Histogram: 16 8 4 4 0 8 4 20 63 29
Nghost:        2926.98 ave        4076 max           0 min
Histogram: 8 8 8 8 0 16 12 4 18 74
Neighs:        52809.0 ave       78529 max           0 min
Histogram: 18 6 8 0 0 8 16 12 59 29

Total # of neighbors = 8238198
Ave neighs/atom = 28.530457
Neighbor list builds = 0
Dangerous builds = 0
The dot product: -4.83910918415122e-08
Setting atom values ...
  1 settings made for x
  1 settings made for y
  1 settings made for z
Setting up cg style minimization ...
  Unit style    : metal
  Current step  : 25046
Per MPI rank memory allocation (min/avg/max) = 5.428 | 5.555 | 5.600 Mbytes
Step PotEng KinEng TotEng v_fx v_fy v_fz 
   25046     -1152449            0     -1152449 -0.0038544638  0.015249222 -0.017894528 
   25392     -1152449            0     -1152449 1.9343476e-06 1.1732749e-05 -1.8059951e-05 
Loop time of 2.79976 on 156 procs for 346 steps with 288751 atoms

99.9% CPU use with 156 MPI tasks x 1 OpenMP threads

Minimization stats:
  Stopping criterion = energy tolerance
  Energy initial, next-to-last, final = 
     -1152448.96589228  -1152448.96802045  -1152448.96802045
  Force two-norm initial, final = 0.14707406 0.00015675359
  Force max component initial, final = 0.06025202 2.4622399e-05
  Final line search alpha, max atom move = 1.0000000 2.4622399e-05
  Iterations, force evaluations = 346 692

MPI task timing breakdown:
Section |  min time  |  avg time  |  max time  |%varavg| %total
---------------------------------------------------------------
Pair    | 9.1536e-05 | 1.9766     | 2.665      |  48.3 | 70.60
Neigh   | 0          | 0          | 0          |   0.0 |  0.00
Comm    | 0.000109   | 0.45864    | 1.7718     |  69.3 | 16.38
Output  | 0          | 0          | 0          |   0.0 |  0.00
Modify  | 3.2585e-05 | 0.0037779  | 0.0074388  |   3.3 |  0.13
Other   |            | 0.3607     |            |       | 12.88

Nlocal:        1850.97 ave        2685 max           0 min
Histogram: 16 8 4 4 0 8 4 20 63 29
Nghost:        2926.98 ave        4076 max           0 min
Histogram: 8 8 8 8 0 16 12 4 18 74
Neighs:        52809.0 ave       78539 max           0 min
Histogram: 18 6 8 0 0 8 16 12 59 29

Total # of neighbors = 8238203
Ave neighs/atom = 28.530474
Neighbor list builds = 0
Dangerous builds = 0
The dot product: -1.96369619790242e-07
Setting atom values ...
  1 settings made for x
  1 settings made for y
  1 settings made for z
Setting up cg style minimization ...
  Unit style    : metal
  Current step  : 25392
Per MPI rank memory allocation (min/avg/max) = 5.428 | 5.555 | 5.600 Mbytes
Step PotEng KinEng TotEng v_fx v_fy v_fz 
   25392     -1152449            0     -1152449 -0.0034018822  0.019038639  -0.02314096 
   25607     -1152449            0     -1152449 3.3497145e-06 -8.5695445e-06 8.8700125e-06 
Loop time of 1.73768 on 156 procs for 215 steps with 288751 atoms

99.9% CPU use with 156 MPI tasks x 1 OpenMP threads

Minimization stats:
  Stopping criterion = energy tolerance
  Energy initial, next-to-last, final = 
     -1152448.96362016  -1152448.96497983  -1152448.96497983
  Force two-norm initial, final = 0.15151047 7.4942400e-05
  Force max component initial, final = 0.062182544 1.0753348e-05
  Final line search alpha, max atom move = 1.0000000 1.0753348e-05
  Iterations, force evaluations = 215 430

MPI task timing breakdown:
Section |  min time  |  avg time  |  max time  |%varavg| %total
---------------------------------------------------------------
Pair    | 5.7254e-05 | 1.2284     | 1.6571     |  38.0 | 70.69
Neigh   | 0          | 0          | 0          |   0.0 |  0.00
Comm    | 7.2375e-05 | 0.28066    | 1.1049     |  55.0 | 16.15
Output  | 0          | 0          | 0          |   0.0 |  0.00
Modify  | 1.9899e-05 | 0.0023512  | 0.0046144  |   2.6 |  0.14
Other   |            | 0.2263     |            |       | 13.02

Nlocal:        1850.97 ave        2683 max           0 min
Histogram: 16 8 4 4 0 8 4 20 57 35
Nghost:        2926.96 ave        4076 max           0 min
Histogram: 8 8 8 8 0 16 12 4 18 74
Neighs:        52809.0 ave       78485 max           0 min
Histogram: 18 6 8 0 0 8 16 12 59 29

Total # of neighbors = 8238211
Ave neighs/atom = 28.530502
Neighbor list builds = 0
Dangerous builds = 0
The dot product: -2.29051365995615e-09
Setting atom values ...
  1 settings made for x
  1 settings made for y
  1 settings made for z
Setting up cg style minimization ...
  Unit style    : metal
  Current step  : 25607
Per MPI rank memory allocation (min/avg/max) = 5.428 | 5.555 | 5.600 Mbytes
Step PotEng KinEng TotEng v_fx v_fy v_fz 
   25607     -1152449            0     -1152449 -0.0035648269  0.020588212 -0.025111047 
   26000   -1152449.4            0   -1152449.4 0.00037468167 -0.0015609223 0.0018155409 
   26186   -1152449.4            0   -1152449.4 -1.4999864e-07 -9.2102354e-06 1.2708855e-05 
Loop time of 4.72928 on 156 procs for 579 steps with 288751 atoms

99.9% CPU use with 156 MPI tasks x 1 OpenMP threads

Minimization stats:
  Stopping criterion = energy tolerance
  Energy initial, next-to-last, final = 
     -1152448.95924918  -1152449.42693124  -1152449.42693124
  Force two-norm initial, final = 0.15270236 5.9387832e-05
  Force max component initial, final = 0.061813756 1.2708855e-05
  Final line search alpha, max atom move = 1.0000000 1.2708855e-05
  Iterations, force evaluations = 579 1158

MPI task timing breakdown:
Section |  min time  |  avg time  |  max time  |%varavg| %total
---------------------------------------------------------------
Pair    | 0.00015829 | 3.3029     | 4.4408     |  61.9 | 69.84
Neigh   | 8.081e-05  | 0.030664   | 0.045427   |   8.0 |  0.65
Comm    | 0.0022125  | 0.76394    | 2.9592     |  89.2 | 16.15
Output  | 0.00013295 | 0.00013611 | 0.0003573  |   0.0 |  0.00
Modify  | 5.5402e-05 | 0.0063075  | 0.012224   |   4.3 |  0.13
Other   |            | 0.6254     |            |       | 13.22

Nlocal:        1850.97 ave        2671 max           0 min
Histogram: 16 8 4 4 0 8 4 20 56 36
Nghost:        2926.67 ave        4066 max           0 min
Histogram: 8 8 8 8 0 16 12 4 18 74
Neighs:        52808.8 ave       78129 max           0 min
Histogram: 18 6 8 0 0 8 16 12 57 31

Total # of neighbors = 8238180
Ave neighs/atom = 28.530395
Neighbor list builds = 15
Dangerous builds = 0
The dot product: 8.22165644158673e-07
Setting atom values ...
  1 settings made for x
  1 settings made for y
  1 settings made for z
Setting up cg style minimization ...
  Unit style    : metal
  Current step  : 26186
Per MPI rank memory allocation (min/avg/max) = 5.428 | 5.555 | 5.600 Mbytes
Step PotEng KinEng TotEng v_fx v_fy v_fz 
   26186   -1152449.4            0   -1152449.4  0.037710339   0.02125729 -0.052208563 
   26358   -1152449.4            0   -1152449.4 -2.6128007e-05 1.4831119e-05 2.6586072e-07 
Loop time of 1.38601 on 156 procs for 172 steps with 288751 atoms

99.9% CPU use with 156 MPI tasks x 1 OpenMP threads

Minimization stats:
  Stopping criterion = energy tolerance
  Energy initial, next-to-last, final = 
     -1152449.43136974  -1152449.43288021  -1152449.43288021
  Force two-norm initial, final = 0.18015768 0.0001411651
  Force max component initial, final = 0.077675405 2.6128007e-05
  Final line search alpha, max atom move = 1.0000000 2.6128007e-05
  Iterations, force evaluations = 172 344

MPI task timing breakdown:
Section |  min time  |  avg time  |  max time  |%varavg| %total
---------------------------------------------------------------
Pair    | 4.5788e-05 | 0.98148    | 1.3228     |  34.0 | 70.81
Neigh   | 0          | 0          | 0          |   0.0 |  0.00
Comm    | 5.3786e-05 | 0.22742    | 0.88119    |  48.8 | 16.41
Output  | 0          | 0          | 0          |   0.0 |  0.00
Modify  | 1.5619e-05 | 0.0018756  | 0.0036398  |   2.3 |  0.14
Other   |            | 0.1752     |            |       | 12.64

Nlocal:        1850.97 ave        2670 max           0 min
Histogram: 16 8 4 4 0 8 4 20 56 36
Nghost:        2926.69 ave        4068 max           0 min
Histogram: 8 8 8 8 0 16 12 4 18 74
Neighs:        52809.0 ave       78119 max           0 min
Histogram: 18 6 8 0 0 8 16 12 58 30

Total # of neighbors = 8238197
Ave neighs/atom = 28.530454
Neighbor list builds = 0
Dangerous builds = 0
The dot product: -1.60193819266683e-08
Setting atom values ...
  1 settings made for x
  1 settings made for y
  1 settings made for z
Setting up cg style minimization ...
  Unit style    : metal
  Current step  : 26358
Per MPI rank memory allocation (min/avg/max) = 5.428 | 5.555 | 5.600 Mbytes
Step PotEng KinEng TotEng v_fx v_fy v_fz 
   26358   -1152449.4            0   -1152449.4   0.02498787  0.012158371 -0.032437726 
   26556   -1152449.4            0   -1152449.4 1.1170861e-05 -8.7653646e-06 2.8340673e-06 
Loop time of 1.6337 on 156 procs for 198 steps with 288751 atoms

99.9% CPU use with 156 MPI tasks x 1 OpenMP threads

Minimization stats:
  Stopping criterion = energy tolerance
  Energy initial, next-to-last, final = 
     -1152449.43599467  -1152449.43741603  -1152449.43741603
  Force two-norm initial, final = 0.17315533 8.5835535e-05
  Force max component initial, final = 0.077400484 2.0171117e-05
  Final line search alpha, max atom move = 1.0000000 2.0171117e-05
  Iterations, force evaluations = 198 396

MPI task timing breakdown:
Section |  min time  |  avg time  |  max time  |%varavg| %total
---------------------------------------------------------------
Pair    | 5.2856e-05 | 1.127      | 1.5206     |  36.4 | 68.98
Neigh   | 0          | 0          | 0          |   0.0 |  0.00
Comm    | 7.0018e-05 | 0.26307    | 1.0094     |  51.9 | 16.10
Output  | 0          | 0          | 0          |   0.0 |  0.00
Modify  | 1.9069e-05 | 0.0021604  | 0.0041653  |   2.5 |  0.13
Other   |            | 0.2415     |            |       | 14.78

Nlocal:        1850.97 ave        2670 max           0 min
Histogram: 16 8 4 4 0 8 4 20 56 36
Nghost:        2926.74 ave        4068 max           0 min
Histogram: 8 8 8 8 0 16 12 4 18 74
Neighs:        52809.0 ave       78119 max           0 min
Histogram: 18 6 8 0 0 8 16 12 58 30

Total # of neighbors = 8238197
Ave neighs/atom = 28.530454
Neighbor list builds = 0
Dangerous builds = 0
The dot product: -6.24653306445091e-11
Setting up cg style minimization ...
  Unit style    : metal
  Current step  : 26556
Per MPI rank memory allocation (min/avg/max) = 5.428 | 5.555 | 5.600 Mbytes
Step PotEng KinEng TotEng v_fx v_fy v_fz 
   26556   -1152449.4            0   -1152449.4  0.077321717   0.13401634    0.1097933 
   26793   -1152449.4            0   -1152449.4 1.6690166e-06 -3.2595279e-06 -5.0916647e-06 
Loop time of 1.93899 on 156 procs for 237 steps with 288751 atoms

99.9% CPU use with 156 MPI tasks x 1 OpenMP threads

Minimization stats:
  Stopping criterion = energy tolerance
  Energy initial, next-to-last, final = 
     -1152449.43741603  -1152449.44165036  -1152449.44165036
  Force two-norm initial, final = 0.1897198 5.0763414e-05
  Force max component initial, final = 0.13401634 6.3558855e-06
  Final line search alpha, max atom move = 1.0000000 6.3558855e-06
  Iterations, force evaluations = 237 474

MPI task timing breakdown:
Section |  min time  |  avg time  |  max time  |%varavg| %total
---------------------------------------------------------------
Pair    | 6.3095e-05 | 1.3486     | 1.8225     |  39.9 | 69.55
Neigh   | 5.4962e-06 | 0.0020473  | 0.0030531  |   2.0 |  0.11
Comm    | 0.00021151 | 0.31459    | 1.2122     |  56.5 | 16.22
Output  | 0          | 0          | 0          |   0.0 |  0.00
Modify  | 1.8491e-05 | 0.0016763  | 0.0037861  |   2.9 |  0.09
Other   |            | 0.272      |            |       | 14.03

Nlocal:        1850.97 ave        2670 max           0 min
Histogram: 16 8 4 4 0 8 4 20 56 36
Nghost:        2926.79 ave        4068 max           0 min
Histogram: 8 8 8 8 0 16 12 4 18 74
Neighs:        52809.0 ave       78119 max           0 min
Histogram: 18 6 8 0 0 8 16 12 58 30

Total # of neighbors = 8238197
Ave neighs/atom = 28.530454
Neighbor list builds = 1
Dangerous builds = 0
