LAMMPS (29 Oct 2020)
OMP_NUM_THREADS environment is not set. Defaulting to 1 thread. (../comm.cpp:94)
  using 1 OpenMP thread(s) per MPI task
OMP_NUM_THREADS environment is not set. Defaulting to 1 thread. (../comm.cpp:94)
  using 1 OpenMP thread(s) per MPI task
Reading data file ...
  orthogonal box = (-122.39241 -121.13707 -37.090501) to (122.39241 121.13707 37.090501)
  13 by 4 by 2 MPI processor grid
  reading atoms ...
  288751 atoms
  read_data CPU = 0.456 seconds
199981 atoms in group inner
88770 atoms in group outer
1 atoms in group carbon
Neighbor list info ...
  update every 1 steps, delay 0 steps, check yes
  max neighbors/atom: 2000, page size: 100000
  master list distance cutoff = 5.6
  ghost atom cutoff = 5.6
  binsize = 2.8, bins = 88 87 27
  1 neighbor lists, perpetual/occasional/extra = 1 0 0
  (1) pair eam/alloy, perpetual
      attributes: half, newton on
      pair build: half/bin/atomonly/newton
      stencil: half/bin/3d/newton
      bin: standard
Setting up cg style minimization ...
  Unit style    : metal
  Current step  : 0
Per MPI rank memory allocation (min/avg/max) = 5.441 | 5.816 | 6.074 Mbytes
Step v_fx v_fy v_fz PotEng KinEng TotEng 
       0    26.082511     14.74212    49.858948   -1152433.5            0   -1152433.5 
     160 3.2454277e-05 3.7965601e-06 -2.5402059e-06   -1152449.5            0   -1152449.5 
Loop time of 1.84687 on 104 procs for 160 steps with 288751 atoms

99.8% CPU use with 104 MPI tasks x 1 OpenMP threads

Minimization stats:
  Stopping criterion = energy tolerance
  Energy initial, next-to-last, final = 
     -1152433.48125007  -1152449.45035282  -1152449.45035282
  Force two-norm initial, final = 87.185113 0.00024633199
  Force max component initial, final = 56.954474 5.8343500e-05
  Final line search alpha, max atom move = 1.0000000 5.8343500e-05
  Iterations, force evaluations = 160 312

MPI task timing breakdown:
Section |  min time  |  avg time  |  max time  |%varavg| %total
---------------------------------------------------------------
Pair    | 0.50277    | 1.3252     | 1.7034     |  30.3 | 71.75
Neigh   | 5.1743e-05 | 0.016166   | 0.024399   |   5.3 |  0.88
Comm    | 0.03369    | 0.30297    | 0.90997    |  45.1 | 16.40
Output  | 0          | 0          | 0          |   0.0 |  0.00
Modify  | 1.8941e-05 | 0.0016991  | 0.0043808  |   2.6 |  0.09
Other   |            | 0.2009     |            |       | 10.88

Nlocal:        2776.45 ave        3960 max           0 min
Histogram: 8 4 4 0 4 12 8 2 28 34
Nghost:        3879.01 ave        5424 max         232 min
Histogram: 8 0 8 0 16 0 8 8 16 40
Neighs:        79213.6 ave      115432 max           0 min
Histogram: 8 4 4 0 10 6 8 8 24 32

Total # of neighbors = 8238212
Ave neighs/atom = 28.530506
Neighbor list builds = 5
Dangerous builds = 0
Setting atom values ...
  1 settings made for x
  1 settings made for y
  1 settings made for z
Setting up cg style minimization ...
  Unit style    : metal
  Current step  : 160
Per MPI rank memory allocation (min/avg/max) = 5.441 | 5.816 | 6.074 Mbytes
Step PotEng KinEng TotEng v_fx v_fy v_fz 
     160   -1152449.4            0   -1152449.4  0.012448311 -0.016224129 -0.020762057 
     294   -1152449.5            0   -1152449.5 2.6471833e-05 -2.5185406e-05 -1.4408091e-05 
Loop time of 1.54995 on 104 procs for 134 steps with 288751 atoms

99.9% CPU use with 104 MPI tasks x 1 OpenMP threads

Minimization stats:
  Stopping criterion = energy tolerance
  Energy initial, next-to-last, final = 
     -1152449.44946995  -1152449.45002041  -1152449.45002041
  Force two-norm initial, final = 0.10824785 0.00015921186
  Force max component initial, final = 0.047601221 2.6617424e-05
  Final line search alpha, max atom move = 1.0000000 2.6617424e-05
  Iterations, force evaluations = 134 268

MPI task timing breakdown:
Section |  min time  |  avg time  |  max time  |%varavg| %total
---------------------------------------------------------------
Pair    | 0.40579    | 1.1286     | 1.46       |  28.7 | 72.82
Neigh   | 0          | 0          | 0          |   0.0 |  0.00
Comm    | 0.027473   | 0.24989    | 0.76071    |  43.0 | 16.12
Output  | 0          | 0          | 0          |   0.0 |  0.00
Modify  | 1.758e-05  | 0.0022101  | 0.0047226  |   2.2 |  0.14
Other   |            | 0.1692     |            |       | 10.92

Nlocal:        2776.45 ave        3961 max           0 min
Histogram: 8 4 4 0 6 10 8 2 28 34
Nghost:        3879.01 ave        5424 max         232 min
Histogram: 8 0 8 0 16 0 8 8 16 40
Neighs:        79213.4 ave      115455 max           0 min
Histogram: 8 4 4 0 10 6 8 8 24 32

Total # of neighbors = 8238197
Ave neighs/atom = 28.530454
Neighbor list builds = 0
Dangerous builds = 0
Setting atom values ...
  1 settings made for x
  1 settings made for y
  1 settings made for z
Setting up cg style minimization ...
  Unit style    : metal
  Current step  : 294
Per MPI rank memory allocation (min/avg/max) = 5.441 | 5.816 | 6.074 Mbytes
Step PotEng KinEng TotEng v_fx v_fy v_fz 
     294   -1152449.4            0   -1152449.4  0.021679916 -0.023292021 -0.033931702 
     425   -1152449.4            0   -1152449.4 -1.8775782e-05 1.7850688e-05 1.7909742e-05 
Loop time of 1.5151 on 104 procs for 131 steps with 288751 atoms

99.9% CPU use with 104 MPI tasks x 1 OpenMP threads

Minimization stats:
  Stopping criterion = energy tolerance
  Energy initial, next-to-last, final = 
     -1152449.44665727  -1152449.44808476  -1152449.44808476
  Force two-norm initial, final = 0.17478336 0.00015304209
  Force max component initial, final = 0.079493348 3.0817473e-05
  Final line search alpha, max atom move = 1.0000000 3.0817473e-05
  Iterations, force evaluations = 131 262

MPI task timing breakdown:
Section |  min time  |  avg time  |  max time  |%varavg| %total
---------------------------------------------------------------
Pair    | 0.39824    | 1.0995     | 1.4256     |  28.3 | 72.57
Neigh   | 0          | 0          | 0          |   0.0 |  0.00
Comm    | 0.026507   | 0.24483    | 0.74353    |  42.1 | 16.16
Output  | 0          | 0          | 0          |   0.0 |  0.00
Modify  | 1.6335e-05 | 0.0021637  | 0.004623   |   2.2 |  0.14
Other   |            | 0.1687     |            |       | 11.13

Nlocal:        2776.45 ave        3961 max           0 min
Histogram: 8 4 4 0 6 10 8 2 28 34
Nghost:        3879.01 ave        5424 max         232 min
Histogram: 8 0 8 0 16 0 8 8 16 40
Neighs:        79213.5 ave      115455 max           0 min
Histogram: 8 4 4 0 10 6 8 8 24 32

Total # of neighbors = 8238199
Ave neighs/atom = 28.530461
Neighbor list builds = 0
Dangerous builds = 0
The dot product: -4.98500901108759e-08
Setting atom values ...
  1 settings made for x
  1 settings made for y
  1 settings made for z
Setting up cg style minimization ...
  Unit style    : metal
  Current step  : 425
Per MPI rank memory allocation (min/avg/max) = 5.441 | 5.816 | 6.074 Mbytes
Step PotEng KinEng TotEng v_fx v_fy v_fz 
     425   -1152449.4            0   -1152449.4  0.021002869 -0.019046168 -0.031962874 
     622   -1152449.4            0   -1152449.4 -8.5308698e-07 6.3636566e-07 -1.3633889e-08 
Loop time of 2.30097 on 104 procs for 197 steps with 288751 atoms

99.9% CPU use with 104 MPI tasks x 1 OpenMP threads

Minimization stats:
  Stopping criterion = energy tolerance
  Energy initial, next-to-last, final = 
     -1152449.44327965  -1152449.44465994  -1152449.44465994
  Force two-norm initial, final = 0.17150298 5.0596732e-06
  Force max component initial, final = 0.079138221 8.5308698e-07
  Final line search alpha, max atom move = 1.0000000 8.5308698e-07
  Iterations, force evaluations = 197 394

MPI task timing breakdown:
Section |  min time  |  avg time  |  max time  |%varavg| %total
---------------------------------------------------------------
Pair    | 0.59688    | 1.6603     | 2.1648     |  34.8 | 72.15
Neigh   | 0          | 0          | 0          |   0.0 |  0.00
Comm    | 0.043257   | 0.37632    | 1.1297     |  50.9 | 16.35
Output  | 0          | 0          | 0          |   0.0 |  0.00
Modify  | 2.56e-05   | 0.0032502  | 0.0069728  |   2.7 |  0.14
Other   |            | 0.2612     |            |       | 11.35

Nlocal:        2776.45 ave        3961 max           0 min
Histogram: 8 4 4 0 6 10 8 2 28 34
Nghost:        3879.01 ave        5424 max         232 min
Histogram: 8 0 8 0 16 0 8 8 16 40
Neighs:        79213.5 ave      115455 max           0 min
Histogram: 8 4 4 0 10 6 8 8 24 32

Total # of neighbors = 8238199
Ave neighs/atom = 28.530461
Neighbor list builds = 0
Dangerous builds = 0
The dot product: 5.99711490099627e-10
Setting atom values ...
  1 settings made for x
  1 settings made for y
  1 settings made for z
Setting up cg style minimization ...
  Unit style    : metal
  Current step  : 622
Per MPI rank memory allocation (min/avg/max) = 5.441 | 5.816 | 6.074 Mbytes
Step PotEng KinEng TotEng v_fx v_fy v_fz 
     622   -1152449.4            0   -1152449.4  0.019610253 -0.015604325 -0.026251871 
     756   -1152449.4            0   -1152449.4 1.7164251e-06 -2.5283299e-06 -5.0227163e-05 
Loop time of 1.53575 on 104 procs for 134 steps with 288751 atoms

99.9% CPU use with 104 MPI tasks x 1 OpenMP threads

Minimization stats:
  Stopping criterion = energy tolerance
  Energy initial, next-to-last, final = 
     -1152449.43854548   -1152449.4399092   -1152449.4399092
  Force two-norm initial, final = 0.16885711 0.00014674944
  Force max component initial, final = 0.077235386 5.0227163e-05
  Final line search alpha, max atom move = 1.0000000 5.0227163e-05
  Iterations, force evaluations = 134 268

MPI task timing breakdown:
Section |  min time  |  avg time  |  max time  |%varavg| %total
---------------------------------------------------------------
Pair    | 0.41226    | 1.1229     | 1.4498     |  28.3 | 73.12
Neigh   | 0          | 0          | 0          |   0.0 |  0.00
Comm    | 0.024927   | 0.24782    | 0.75523    |  42.8 | 16.14
Output  | 0          | 0          | 0          |   0.0 |  0.00
Modify  | 1.6109e-05 | 0.0022059  | 0.0047149  |   2.2 |  0.14
Other   |            | 0.1628     |            |       | 10.60

Nlocal:        2776.45 ave        3961 max           0 min
Histogram: 8 4 4 0 6 10 8 2 28 34
Nghost:        3879.01 ave        5424 max         232 min
Histogram: 8 0 8 0 16 0 8 8 16 40
Neighs:        79213.5 ave      115455 max           0 min
Histogram: 8 4 4 0 10 6 8 8 24 32

Total # of neighbors = 8238201
Ave neighs/atom = 28.530467
Neighbor list builds = 0
Dangerous builds = 0
The dot product: 1.67049748390008e-07
Setting atom values ...
  1 settings made for x
  1 settings made for y
  1 settings made for z
Setting up cg style minimization ...
  Unit style    : metal
  Current step  : 756
Per MPI rank memory allocation (min/avg/max) = 5.441 | 5.816 | 6.074 Mbytes
Step PotEng KinEng TotEng v_fx v_fy v_fz 
     756   -1152449.4            0   -1152449.4  0.017883864 -0.013500414 -0.019542759 
     875   -1152449.4            0   -1152449.4 -2.1482052e-06 4.8700406e-07 3.4355791e-05 
Loop time of 1.37952 on 104 procs for 119 steps with 288751 atoms

99.9% CPU use with 104 MPI tasks x 1 OpenMP threads

Minimization stats:
  Stopping criterion = energy tolerance
  Energy initial, next-to-last, final = 
     -1152449.43244089   -1152449.4337968   -1152449.4337968
  Force two-norm initial, final = 0.16730425 0.00026198645
  Force max component initial, final = 0.074591674 3.4355791e-05
  Final line search alpha, max atom move = 1.0000000 3.4355791e-05
  Iterations, force evaluations = 119 238

MPI task timing breakdown:
Section |  min time  |  avg time  |  max time  |%varavg| %total
---------------------------------------------------------------
Pair    | 0.36254    | 1.0021     | 1.3045     |  27.0 | 72.64
Neigh   | 0          | 0          | 0          |   0.0 |  0.00
Comm    | 0.023494   | 0.22218    | 0.67147    |  40.1 | 16.11
Output  | 0          | 0          | 0          |   0.0 |  0.00
Modify  | 1.431e-05  | 0.0019645  | 0.0041906  |   2.1 |  0.14
Other   |            | 0.1533     |            |       | 11.11

Nlocal:        2776.45 ave        3961 max           0 min
Histogram: 8 4 4 0 6 10 8 2 28 34
Nghost:        3879.01 ave        5424 max         232 min
Histogram: 8 0 8 0 16 0 8 8 16 40
Neighs:        79213.5 ave      115455 max           0 min
Histogram: 8 4 4 0 10 6 8 8 24 32

Total # of neighbors = 8238202
Ave neighs/atom = 28.530471
Neighbor list builds = 0
Dangerous builds = 0
The dot product: -9.9412878415997e-08
Setting atom values ...
  1 settings made for x
  1 settings made for y
  1 settings made for z
Setting up cg style minimization ...
  Unit style    : metal
  Current step  : 875
Per MPI rank memory allocation (min/avg/max) = 5.441 | 5.816 | 6.074 Mbytes
Step PotEng KinEng TotEng v_fx v_fy v_fz 
     875   -1152449.4            0   -1152449.4  0.016170186 -0.012386926 -0.013396161 
    1000   -1152449.4            0   -1152449.4 -5.1974147e-06 -1.2283954e-06 7.0627575e-05 
Loop time of 1.44295 on 104 procs for 125 steps with 288751 atoms

99.9% CPU use with 104 MPI tasks x 1 OpenMP threads

Minimization stats:
  Stopping criterion = energy tolerance
  Energy initial, next-to-last, final = 
     -1152449.42492605  -1152449.42628274  -1152449.42628274
  Force two-norm initial, final = 0.16675071 0.00029328771
  Force max component initial, final = 0.074382989 7.1462134e-05
  Final line search alpha, max atom move = 1.0000000 7.1462134e-05
  Iterations, force evaluations = 125 250

MPI task timing breakdown:
Section |  min time  |  avg time  |  max time  |%varavg| %total
---------------------------------------------------------------
Pair    | 0.37996    | 1.0468     | 1.3568     |  27.6 | 72.54
Neigh   | 0          | 0          | 0          |   0.0 |  0.00
Comm    | 0.022717   | 0.23324    | 0.70508    |  40.9 | 16.16
Output  | 0          | 0          | 0          |   0.0 |  0.00
Modify  | 1.6768e-05 | 0.0020578  | 0.0043902  |   2.1 |  0.14
Other   |            | 0.1609     |            |       | 11.15

Nlocal:        2776.45 ave        3961 max           0 min
Histogram: 8 4 4 0 6 10 8 2 28 34
Nghost:        3879.01 ave        5424 max         232 min
Histogram: 8 0 8 0 16 0 8 8 16 40
Neighs:        79213.5 ave      115455 max           0 min
Histogram: 8 4 4 0 10 6 8 8 24 32

Total # of neighbors = 8238201
Ave neighs/atom = 28.530467
Neighbor list builds = 0
Dangerous builds = 0
The dot product: -1.70641694009861e-07
Setting atom values ...
  1 settings made for x
  1 settings made for y
  1 settings made for z
Setting up cg style minimization ...
  Unit style    : metal
  Current step  : 1000
Per MPI rank memory allocation (min/avg/max) = 5.441 | 5.816 | 6.074 Mbytes
Step PotEng KinEng TotEng v_fx v_fy v_fz 
    1000   -1152449.4            0   -1152449.4  0.014776174 -0.011935046 -0.0085704225 
    1191   -1152449.4            0   -1152449.4 5.0033483e-06 -3.2150816e-06 -1.0405776e-05 
Loop time of 2.19226 on 104 procs for 191 steps with 288751 atoms

99.9% CPU use with 104 MPI tasks x 1 OpenMP threads

Minimization stats:
  Stopping criterion = energy tolerance
  Energy initial, next-to-last, final = 
     -1152449.41597222  -1152449.41733604  -1152449.41733604
  Force two-norm initial, final = 0.16679025 6.8826712e-05
  Force max component initial, final = 0.074687305 1.7919052e-05
  Final line search alpha, max atom move = 1.0000000 1.7919052e-05
  Iterations, force evaluations = 191 382

MPI task timing breakdown:
Section |  min time  |  avg time  |  max time  |%varavg| %total
---------------------------------------------------------------
Pair    | 0.57727    | 1.6032     | 2.0708     |  34.1 | 73.13
Neigh   | 0          | 0          | 0          |   0.0 |  0.00
Comm    | 0.03459    | 0.35382    | 1.079      |  51.2 | 16.14
Output  | 0          | 0          | 0          |   0.0 |  0.00
Modify  | 2.2641e-05 | 0.0031418  | 0.0067594  |   2.7 |  0.14
Other   |            | 0.2321     |            |       | 10.59

Nlocal:        2776.45 ave        3961 max           0 min
Histogram: 8 4 4 0 6 10 8 2 28 34
Nghost:        3879.01 ave        5424 max         232 min
Histogram: 8 0 8 0 16 0 8 8 16 40
Neighs:        79213.5 ave      115455 max           0 min
Histogram: 8 4 4 0 10 6 8 8 24 32

Total # of neighbors = 8238203
Ave neighs/atom = 28.530474
Neighbor list builds = 0
Dangerous builds = 0
The dot product: 4.94911112998425e-09
Setting atom values ...
  1 settings made for x
  1 settings made for y
  1 settings made for z
Setting up cg style minimization ...
  Unit style    : metal
  Current step  : 1191
Per MPI rank memory allocation (min/avg/max) = 5.441 | 5.816 | 6.074 Mbytes
Step PotEng KinEng TotEng v_fx v_fy v_fz 
    1191   -1152449.4            0   -1152449.4  0.013954406 -0.012028885 -0.0051921858 
    1332   -1152449.4            0   -1152449.4 -7.7048296e-06 6.8735907e-06 1.1416737e-06 
Loop time of 1.61775 on 104 procs for 141 steps with 288751 atoms

99.9% CPU use with 104 MPI tasks x 1 OpenMP threads

Minimization stats:
  Stopping criterion = energy tolerance
  Energy initial, next-to-last, final = 
     -1152449.40555852  -1152449.40693033  -1152449.40693033
  Force two-norm initial, final = 0.16713555 0.00017120517
  Force max component initial, final = 0.074670611 4.0818327e-05
  Final line search alpha, max atom move = 1.0000000 4.0818327e-05
  Iterations, force evaluations = 141 282

MPI task timing breakdown:
Section |  min time  |  avg time  |  max time  |%varavg| %total
---------------------------------------------------------------
Pair    | 0.4328     | 1.1825     | 1.5266     |  29.1 | 73.10
Neigh   | 0          | 0          | 0          |   0.0 |  0.00
Comm    | 0.026139   | 0.26167    | 0.79493    |  43.8 | 16.18
Output  | 0          | 0          | 0          |   0.0 |  0.00
Modify  | 1.6852e-05 | 0.0023213  | 0.0049603  |   2.3 |  0.14
Other   |            | 0.1712     |            |       | 10.59

Nlocal:        2776.45 ave        3960 max           0 min
Histogram: 8 4 4 0 4 12 8 2 28 34
Nghost:        3879.01 ave        5424 max         232 min
Histogram: 8 0 8 0 16 0 8 8 16 40
Neighs:        79213.5 ave      115412 max           0 min
Histogram: 8 4 4 0 10 6 8 8 24 32

Total # of neighbors = 8238201
Ave neighs/atom = 28.530467
Neighbor list builds = 0
Dangerous builds = 0
The dot product: 2.93529502209222e-08
Setting atom values ...
  1 settings made for x
  1 settings made for y
  1 settings made for z
Setting up cg style minimization ...
  Unit style    : metal
  Current step  : 1332
Per MPI rank memory allocation (min/avg/max) = 5.441 | 5.816 | 6.074 Mbytes
Step PotEng KinEng TotEng v_fx v_fy v_fz 
    1332   -1152449.4            0   -1152449.4  0.013873992 -0.012794071 -0.0024705458 
    1512   -1152449.4            0   -1152449.4 -8.0256845e-06 8.5547713e-06 -6.0953334e-06 
Loop time of 2.0951 on 104 procs for 180 steps with 288751 atoms

99.9% CPU use with 104 MPI tasks x 1 OpenMP threads

Minimization stats:
  Stopping criterion = energy tolerance
  Energy initial, next-to-last, final = 
      -1152449.3936644  -1152449.39504306  -1152449.39504306
  Force two-norm initial, final = 0.16756843 0.00012113811
  Force max component initial, final = 0.074546441 2.4476683e-05
  Final line search alpha, max atom move = 1.0000000 2.4476683e-05
  Iterations, force evaluations = 180 360

MPI task timing breakdown:
Section |  min time  |  avg time  |  max time  |%varavg| %total
---------------------------------------------------------------
Pair    | 0.54521    | 1.5165     | 1.9639     |  33.2 | 72.38
Neigh   | 0          | 0          | 0          |   0.0 |  0.00
Comm    | 0.039388   | 0.34138    | 1.0289     |  49.3 | 16.29
Output  | 0          | 0          | 0          |   0.0 |  0.00
Modify  | 2.1464e-05 | 0.0029652  | 0.0063768  |   2.6 |  0.14
Other   |            | 0.2343     |            |       | 11.18

Nlocal:        2776.45 ave        3957 max           0 min
Histogram: 8 4 4 0 4 12 8 2 28 34
Nghost:        3879.01 ave        5424 max         232 min
Histogram: 8 0 8 0 16 0 8 8 16 40
Neighs:        79213.5 ave      115331 max           0 min
Histogram: 8 4 4 0 10 6 8 8 24 32

Total # of neighbors = 8238202
Ave neighs/atom = 28.530471
Neighbor list builds = 0
Dangerous builds = 0
The dot product: 4.34023550277042e-08
Setting atom values ...
  1 settings made for x
  1 settings made for y
  1 settings made for z
Setting up cg style minimization ...
  Unit style    : metal
  Current step  : 1512
Per MPI rank memory allocation (min/avg/max) = 5.441 | 5.816 | 6.074 Mbytes
Step PotEng KinEng TotEng v_fx v_fy v_fz 
    1512   -1152449.4            0   -1152449.4  0.014549292 -0.014151201 -0.00077626761 
    1651   -1152449.4            0   -1152449.4 1.2850297e-05 -1.2974453e-05 2.1269363e-06 
Loop time of 1.60612 on 104 procs for 139 steps with 288751 atoms

99.9% CPU use with 104 MPI tasks x 1 OpenMP threads

Minimization stats:
  Stopping criterion = energy tolerance
  Energy initial, next-to-last, final = 
     -1152449.38027085  -1152449.38165438  -1152449.38165438
  Force two-norm initial, final = 0.16798982 0.00017257561
  Force max component initial, final = 0.074375289 3.4542800e-05
  Final line search alpha, max atom move = 1.0000000 3.4542800e-05
  Iterations, force evaluations = 139 278

MPI task timing breakdown:
Section |  min time  |  avg time  |  max time  |%varavg| %total
---------------------------------------------------------------
Pair    | 0.4236     | 1.1676     | 1.5101     |  29.2 | 72.70
Neigh   | 0          | 0          | 0          |   0.0 |  0.00
Comm    | 0.025386   | 0.25953    | 0.78979    |  43.7 | 16.16
Output  | 0          | 0          | 0          |   0.0 |  0.00
Modify  | 1.8018e-05 | 0.0022908  | 0.0049329  |   2.3 |  0.14
Other   |            | 0.1767     |            |       | 11.00

Nlocal:        2776.45 ave        3955 max           0 min
Histogram: 8 4 4 0 4 12 8 2 28 34
Nghost:        3879.01 ave        5424 max         232 min
Histogram: 8 0 8 0 16 0 8 8 16 40
Neighs:        79213.5 ave      115270 max           0 min
Histogram: 8 4 4 0 10 6 8 8 24 32

Total # of neighbors = 8238203
Ave neighs/atom = 28.530474
Neighbor list builds = 0
Dangerous builds = 0
The dot product: -4.90991926280515e-08
Setting atom values ...
  1 settings made for x
  1 settings made for y
  1 settings made for z
Setting up cg style minimization ...
  Unit style    : metal
  Current step  : 1651
Per MPI rank memory allocation (min/avg/max) = 5.441 | 5.816 | 6.074 Mbytes
Step PotEng KinEng TotEng v_fx v_fy v_fz 
    1651   -1152449.4            0   -1152449.4  0.015585013 -0.015776644 0.0003838487 
    1814   -1152449.4            0   -1152449.4 1.8197146e-05 -5.895058e-06 -6.8080657e-05 
Loop time of 1.87392 on 104 procs for 163 steps with 288751 atoms

99.9% CPU use with 104 MPI tasks x 1 OpenMP threads

Minimization stats:
  Stopping criterion = energy tolerance
  Energy initial, next-to-last, final = 
     -1152449.36535975  -1152449.36674801  -1152449.36674801
  Force two-norm initial, final = 0.16837119 0.00022558392
  Force max component initial, final = 0.074277421 6.8080657e-05
  Final line search alpha, max atom move = 1.0000000 6.8080657e-05
  Iterations, force evaluations = 163 326

MPI task timing breakdown:
Section |  min time  |  avg time  |  max time  |%varavg| %total
---------------------------------------------------------------
Pair    | 0.49544    | 1.3702     | 1.7718     |  31.6 | 73.12
Neigh   | 0          | 0          | 0          |   0.0 |  0.00
Comm    | 0.032607   | 0.30379    | 0.92574    |  47.1 | 16.21
Output  | 0          | 0          | 0          |   0.0 |  0.00
Modify  | 1.9334e-05 | 0.0026819  | 0.005735   |   2.4 |  0.14
Other   |            | 0.1973     |            |       | 10.53

Nlocal:        2776.45 ave        3951 max           0 min
Histogram: 8 4 4 0 4 12 8 2 28 34
Nghost:        3879.01 ave        5424 max         232 min
Histogram: 8 0 8 0 16 0 8 8 16 40
Neighs:        79213.5 ave      115155 max           0 min
Histogram: 8 4 4 0 10 6 8 8 24 32

Total # of neighbors = 8238204
Ave neighs/atom = 28.530478
Neighbor list builds = 0
Dangerous builds = 0
The dot product: 7.31624088625629e-08
Setting atom values ...
  1 settings made for x
  1 settings made for y
  1 settings made for z
Setting up cg style minimization ...
  Unit style    : metal
  Current step  : 1814
Per MPI rank memory allocation (min/avg/max) = 5.441 | 5.816 | 6.074 Mbytes
Step PotEng KinEng TotEng v_fx v_fy v_fz 
    1814   -1152449.3            0   -1152449.3  0.016284347 -0.016858317 0.00052016312 
    1976   -1152449.4            0   -1152449.4 -3.4697124e-06 -5.1450849e-06 4.4519679e-05 
Loop time of 1.85279 on 104 procs for 162 steps with 288751 atoms

99.9% CPU use with 104 MPI tasks x 1 OpenMP threads

Minimization stats:
  Stopping criterion = energy tolerance
  Energy initial, next-to-last, final = 
     -1152449.34890899  -1152449.35030154  -1152449.35030154
  Force two-norm initial, final = 0.16863011 0.00022094986
  Force max component initial, final = 0.074373063 5.6091667e-05
  Final line search alpha, max atom move = 1.0000000 5.6091667e-05
  Iterations, force evaluations = 162 324

MPI task timing breakdown:
Section |  min time  |  avg time  |  max time  |%varavg| %total
---------------------------------------------------------------
Pair    | 0.49229    | 1.3549     | 1.75       |  31.4 | 73.13
Neigh   | 0          | 0          | 0          |   0.0 |  0.00
Comm    | 0.031377   | 0.30049    | 0.91429    |  46.9 | 16.22
Output  | 0          | 0          | 0          |   0.0 |  0.00
Modify  | 1.9269e-05 | 0.002668   | 0.0056926  |   2.4 |  0.14
Other   |            | 0.1947     |            |       | 10.51

Nlocal:        2776.45 ave        3947 max           0 min
Histogram: 8 4 4 0 4 12 8 2 26 36
Nghost:        3879.05 ave        5424 max         232 min
Histogram: 8 0 8 0 16 0 8 8 16 40
Neighs:        79213.5 ave      115022 max           0 min
Histogram: 8 4 4 0 10 6 8 8 24 32

Total # of neighbors = 8238204
Ave neighs/atom = 28.530478
Neighbor list builds = 0
Dangerous builds = 0
The dot product: -8.89148045674988e-08
Setting atom values ...
  1 settings made for x
  1 settings made for y
  1 settings made for z
Setting up cg style minimization ...
  Unit style    : metal
  Current step  : 1976
Per MPI rank memory allocation (min/avg/max) = 5.441 | 5.816 | 6.074 Mbytes
Step PotEng KinEng TotEng v_fx v_fy v_fz 
    1976   -1152449.3            0   -1152449.3  0.016148441  -0.01690048 -0.0001213782 
    2000   -1152449.3            0   -1152449.3 -0.00038258291 0.00020781824 0.00092071736 
    2146   -1152449.3            0   -1152449.3 -2.197199e-05 7.7068279e-06 7.3029484e-05 
Loop time of 1.96546 on 104 procs for 170 steps with 288751 atoms

99.9% CPU use with 104 MPI tasks x 1 OpenMP threads

Minimization stats:
  Stopping criterion = energy tolerance
  Energy initial, next-to-last, final = 
     -1152449.33089022  -1152449.33230217  -1152449.33230217
  Force two-norm initial, final = 0.16876503 0.0002221036
  Force max component initial, final = 0.074523377 7.3029484e-05
  Final line search alpha, max atom move = 1.0000000 7.3029484e-05
  Iterations, force evaluations = 170 340

MPI task timing breakdown:
Section |  min time  |  avg time  |  max time  |%varavg| %total
---------------------------------------------------------------
Pair    | 0.51425    | 1.4271     | 1.8536     |  32.2 | 72.61
Neigh   | 0          | 0          | 0          |   0.0 |  0.00
Comm    | 0.031249   | 0.31779    | 0.95702    |  47.7 | 16.17
Output  | 9.5682e-05 | 9.9734e-05 | 0.00018067 |   0.0 |  0.01
Modify  | 2.02e-05   | 0.0027967  | 0.0059655  |   2.5 |  0.14
Other   |            | 0.2176     |            |       | 11.07

Nlocal:        2776.45 ave        3943 max           0 min
Histogram: 8 4 4 0 4 12 8 2 26 36
Nghost:        3879.05 ave        5424 max         232 min
Histogram: 8 0 8 0 16 0 8 8 16 40
Neighs:        79213.5 ave      114867 max           0 min
Histogram: 8 4 4 0 10 6 8 8 22 34

Total # of neighbors = 8238202
Ave neighs/atom = 28.530471
Neighbor list builds = 0
Dangerous builds = 0
The dot product: -1.63747812185462e-07
Setting atom values ...
  1 settings made for x
  1 settings made for y
  1 settings made for z
Setting up cg style minimization ...
  Unit style    : metal
  Current step  : 2146
Per MPI rank memory allocation (min/avg/max) = 5.441 | 5.816 | 6.074 Mbytes
Step PotEng KinEng TotEng v_fx v_fy v_fz 
    2146   -1152449.3            0   -1152449.3  0.013846323 -0.013874663 -0.0042337255 
    2329   -1152449.3            0   -1152449.3 -5.5334065e-07 1.7547928e-06 -5.0426871e-06 
Loop time of 2.08928 on 104 procs for 183 steps with 288751 atoms

99.9% CPU use with 104 MPI tasks x 1 OpenMP threads

Minimization stats:
  Stopping criterion = energy tolerance
  Energy initial, next-to-last, final = 
     -1152449.31130179  -1152449.31286933  -1152449.31286933
  Force two-norm initial, final = 0.16865119 0.00017122894
  Force max component initial, final = 0.074357347 2.4324371e-05
  Final line search alpha, max atom move = 1.0000000 2.4324371e-05
  Iterations, force evaluations = 183 366

MPI task timing breakdown:
Section |  min time  |  avg time  |  max time  |%varavg| %total
---------------------------------------------------------------
Pair    | 0.55258    | 1.5279     | 1.9744     |  33.3 | 73.13
Neigh   | 0          | 0          | 0          |   0.0 |  0.00
Comm    | 0.032282   | 0.33674    | 1.0302     |  50.2 | 16.12
Output  | 0          | 0          | 0          |   0.0 |  0.00
Modify  | 2.1892e-05 | 0.0030039  | 0.006418   |   2.6 |  0.14
Other   |            | 0.2217     |            |       | 10.61

Nlocal:        2776.45 ave        3936 max           0 min
Histogram: 8 4 4 0 4 12 8 0 28 36
Nghost:        3879.05 ave        5424 max         232 min
Histogram: 8 0 8 0 16 0 8 8 16 40
Neighs:        79213.4 ave      114624 max           0 min
Histogram: 8 4 4 0 8 8 8 8 20 36

Total # of neighbors = 8238196
Ave neighs/atom = 28.530450
Neighbor list builds = 0
Dangerous builds = 0
The dot product: 5.90963768915362e-08
Setting atom values ...
  1 settings made for x
  1 settings made for y
  1 settings made for z
Setting up cg style minimization ...
  Unit style    : metal
  Current step  : 2329
Per MPI rank memory allocation (min/avg/max) = 5.441 | 5.816 | 6.074 Mbytes
Step PotEng KinEng TotEng v_fx v_fy v_fz 
    2329   -1152449.3            0   -1152449.3 -0.0018766803  0.010108188 -0.027565129 
    2533   -1152449.3            0   -1152449.3 9.0367017e-06 -2.7982397e-07 -3.4918862e-05 
Loop time of 2.3413 on 104 procs for 204 steps with 288751 atoms

99.9% CPU use with 104 MPI tasks x 1 OpenMP threads

Minimization stats:
  Stopping criterion = energy tolerance
  Energy initial, next-to-last, final = 
     -1152449.29038962  -1152449.29271039  -1152449.29271039
  Force two-norm initial, final = 0.17083484 0.00011622353
  Force max component initial, final = 0.071996185 3.4918862e-05
  Final line search alpha, max atom move = 1.0000000 3.4918862e-05
  Iterations, force evaluations = 204 408

MPI task timing breakdown:
Section |  min time  |  avg time  |  max time  |%varavg| %total
---------------------------------------------------------------
Pair    | 0.6186     | 1.7129     | 2.2144     |  35.3 | 73.16
Neigh   | 0          | 0          | 0          |   0.0 |  0.00
Comm    | 0.037448   | 0.38068    | 1.1571     |  52.7 | 16.26
Output  | 0          | 0          | 0          |   0.0 |  0.00
Modify  | 2.4054e-05 | 0.0033509  | 0.0071994  |   2.7 |  0.14
Other   |            | 0.2444     |            |       | 10.44

Nlocal:        2776.45 ave        3930 max           0 min
Histogram: 8 4 4 0 4 12 8 0 26 38
Nghost:        3879.05 ave        5424 max         232 min
Histogram: 8 0 8 0 16 0 8 8 16 40
Neighs:        79213.5 ave      114457 max           0 min
Histogram: 8 4 4 0 8 8 8 8 20 36

Total # of neighbors = 8238199
Ave neighs/atom = 28.530461
Neighbor list builds = 0
Dangerous builds = 0
The dot product: 4.79788326958503e-07
Setting atom values ...
  1 settings made for x
  1 settings made for y
  1 settings made for z
Setting up cg style minimization ...
  Unit style    : metal
  Current step  : 2533
Per MPI rank memory allocation (min/avg/max) = 5.441 | 5.816 | 6.074 Mbytes
Step PotEng KinEng TotEng v_fx v_fy v_fz 
    2533   -1152449.3            0   -1152449.3 -0.025303964  0.058395526 -0.059047894 
    2747   -1152449.3            0   -1152449.3 1.0947071e-05 2.3114244e-07 -3.5535326e-05 
Loop time of 2.46595 on 104 procs for 214 steps with 288751 atoms

99.9% CPU use with 104 MPI tasks x 1 OpenMP threads

Minimization stats:
  Stopping criterion = energy tolerance
  Energy initial, next-to-last, final = 
     -1152449.26908356  -1152449.27260152  -1152449.27260152
  Force two-norm initial, final = 0.19069485 0.00012703895
  Force max component initial, final = 0.078931764 3.5535326e-05
  Final line search alpha, max atom move = 1.0000000 3.5535326e-05
  Iterations, force evaluations = 214 428

MPI task timing breakdown:
Section |  min time  |  avg time  |  max time  |%varavg| %total
---------------------------------------------------------------
Pair    | 0.64655    | 1.7921     | 2.3103     |  36.1 | 72.67
Neigh   | 0          | 0          | 0          |   0.0 |  0.00
Comm    | 0.052106   | 0.39986    | 1.2085     |  53.3 | 16.22
Output  | 0          | 0          | 0          |   0.0 |  0.00
Modify  | 2.7739e-05 | 0.0035209  | 0.0075291  |   2.8 |  0.14
Other   |            | 0.2705     |            |       | 10.97

Nlocal:        2776.45 ave        3930 max           0 min
Histogram: 8 4 4 0 4 12 8 0 26 38
Nghost:        3879.09 ave        5425 max         232 min
Histogram: 8 0 8 0 16 0 8 8 16 40
Neighs:        79213.4 ave      114453 max           0 min
Histogram: 8 4 4 0 8 8 8 8 20 36

Total # of neighbors = 8238195
Ave neighs/atom = 28.530447
Neighbor list builds = 0
Dangerous builds = 0
The dot product: 5.42820665535617e-07
Setting atom values ...
  1 settings made for x
  1 settings made for y
  1 settings made for z
Setting up cg style minimization ...
  Unit style    : metal
  Current step  : 2747
Per MPI rank memory allocation (min/avg/max) = 5.441 | 5.816 | 6.074 Mbytes
Step PotEng KinEng TotEng v_fx v_fy v_fz 
    2747   -1152449.2            0   -1152449.2 -0.031719709  0.091158191  -0.06446469 
    2967   -1152449.3            0   -1152449.3 1.1069884e-05 1.5146958e-06 -3.2295238e-05 
Loop time of 2.56252 on 104 procs for 220 steps with 288751 atoms

99.9% CPU use with 104 MPI tasks x 1 OpenMP threads

Minimization stats:
  Stopping criterion = energy tolerance
  Energy initial, next-to-last, final = 
     -1152449.24798655  -1152449.25211181  -1152449.25211181
  Force two-norm initial, final = 0.20678895 9.4340393e-05
  Force max component initial, final = 0.091158191 3.2295238e-05
  Final line search alpha, max atom move = 1.0000000 3.2295238e-05
  Iterations, force evaluations = 220 440

MPI task timing breakdown:
Section |  min time  |  avg time  |  max time  |%varavg| %total
---------------------------------------------------------------
Pair    | 0.66399    | 1.8562     | 2.4078     |  37.0 | 72.44
Neigh   | 0          | 0          | 0          |   0.0 |  0.00
Comm    | 0.046623   | 0.41756    | 1.2638     |  54.2 | 16.29
Output  | 0          | 0          | 0          |   0.0 |  0.00
Modify  | 2.6452e-05 | 0.0036146  | 0.0077073  |   2.8 |  0.14
Other   |            | 0.2851     |            |       | 11.13

Nlocal:        2776.45 ave        3936 max           0 min
Histogram: 8 4 4 0 4 12 8 0 28 36
Nghost:        3879.12 ave        5425 max         232 min
Histogram: 8 0 8 0 16 0 8 8 16 40
Neighs:        79213.4 ave      114620 max           0 min
Histogram: 8 4 4 0 8 8 8 8 20 36

Total # of neighbors = 8238198
Ave neighs/atom = 28.530457
Neighbor list builds = 0
Dangerous builds = 0
The dot product: 5.30315793292385e-07
Setting atom values ...
  1 settings made for x
  1 settings made for y
  1 settings made for z
Setting up cg style minimization ...
  Unit style    : metal
  Current step  : 2967
Per MPI rank memory allocation (min/avg/max) = 5.441 | 5.816 | 6.074 Mbytes
Step PotEng KinEng TotEng v_fx v_fy v_fz 
    2967   -1152449.2            0   -1152449.2 -0.025492317   0.10294499 -0.057010698 
    3000   -1152449.2            0   -1152449.2 2.0876407e-05 4.3858966e-05 -9.9309912e-05 
    3201   -1152449.2            0   -1152449.2 1.337223e-06 -9.9129388e-07 -2.0317148e-06 
Loop time of 2.68576 on 104 procs for 234 steps with 288751 atoms

99.9% CPU use with 104 MPI tasks x 1 OpenMP threads

Minimization stats:
  Stopping criterion = energy tolerance
  Energy initial, next-to-last, final = 
     -1152449.22677746  -1152449.23080038  -1152449.23080038
  Force two-norm initial, final = 0.2096079 4.8452854e-05
  Force max component initial, final = 0.10294499 1.0317236e-05
  Final line search alpha, max atom move = 1.0000000 1.0317236e-05
  Iterations, force evaluations = 234 468

MPI task timing breakdown:
Section |  min time  |  avg time  |  max time  |%varavg| %total
---------------------------------------------------------------
Pair    | 0.70637    | 1.9581     | 2.5357     |  37.9 | 72.91
Neigh   | 0          | 0          | 0          |   0.0 |  0.00
Comm    | 0.045131   | 0.43671    | 1.3231     |  56.4 | 16.26
Output  | 9.5178e-05 | 0.00010132 | 0.00018694 |   0.0 |  0.00
Modify  | 2.7612e-05 | 0.0038535  | 0.0082248  |   2.9 |  0.14
Other   |            | 0.287      |            |       | 10.68

Nlocal:        2776.45 ave        3946 max           0 min
Histogram: 8 4 4 0 4 12 8 2 26 36
Nghost:        3879.07 ave        5425 max         232 min
Histogram: 8 0 8 0 16 0 8 8 16 40
Neighs:        79213.5 ave      114972 max           0 min
Histogram: 8 4 4 0 10 6 8 8 24 32

Total # of neighbors = 8238203
Ave neighs/atom = 28.530474
Neighbor list builds = 0
Dangerous builds = 0
The dot product: -4.74925593764915e-09
Setting atom values ...
  1 settings made for x
  1 settings made for y
  1 settings made for z
Setting up cg style minimization ...
  Unit style    : metal
  Current step  : 3201
Per MPI rank memory allocation (min/avg/max) = 5.441 | 5.816 | 6.074 Mbytes
Step PotEng KinEng TotEng v_fx v_fy v_fz 
    3201   -1152449.2            0   -1152449.2 -0.015405382    0.0940172 -0.043235813 
    3395   -1152449.2            0   -1152449.2 1.6013157e-05 -5.3333412e-06 -3.0029821e-05 
Loop time of 2.24834 on 104 procs for 194 steps with 288751 atoms

99.9% CPU use with 104 MPI tasks x 1 OpenMP threads

Minimization stats:
  Stopping criterion = energy tolerance
  Energy initial, next-to-last, final = 
     -1152449.20475788  -1152449.20820362  -1152449.20820362
  Force two-norm initial, final = 0.20086839 0.00019595396
  Force max component initial, final = 0.11009917 4.8449735e-05
  Final line search alpha, max atom move = 1.0000000 4.8449735e-05
  Iterations, force evaluations = 194 388

MPI task timing breakdown:
Section |  min time  |  avg time  |  max time  |%varavg| %total
---------------------------------------------------------------
Pair    | 0.5885     | 1.6337     | 2.1235     |  34.5 | 72.66
Neigh   | 0          | 0          | 0          |   0.0 |  0.00
Comm    | 0.045974   | 0.36812    | 1.1046     |  50.8 | 16.37
Output  | 0          | 0          | 0          |   0.0 |  0.00
Modify  | 2.3074e-05 | 0.0031939  | 0.0067862  |   2.7 |  0.14
Other   |            | 0.2434     |            |       | 10.82

Nlocal:        2776.45 ave        3954 max           0 min
Histogram: 8 4 4 0 4 12 8 2 28 34
Nghost:        3879.03 ave        5425 max         232 min
Histogram: 8 0 8 0 16 0 8 8 16 40
Neighs:        79213.5 ave      115235 max           0 min
Histogram: 8 4 4 0 10 6 8 8 24 32

Total # of neighbors = 8238207
Ave neighs/atom = 28.530488
Neighbor list builds = 0
Dangerous builds = 0
The dot product: 2.52587404921855e-07
Setting atom values ...
  1 settings made for x
  1 settings made for y
  1 settings made for z
Setting up cg style minimization ...
  Unit style    : metal
  Current step  : 3395
Per MPI rank memory allocation (min/avg/max) = 5.441 | 5.816 | 6.074 Mbytes
Step PotEng KinEng TotEng v_fx v_fy v_fz 
    3395   -1152449.2            0   -1152449.2 -0.0059772726  0.077677406 -0.034123518 
    3585   -1152449.2            0   -1152449.2 9.0140826e-06 1.2792779e-06 -1.858056e-05 
Loop time of 2.18508 on 104 procs for 190 steps with 288751 atoms

99.9% CPU use with 104 MPI tasks x 1 OpenMP threads

Minimization stats:
  Stopping criterion = energy tolerance
  Energy initial, next-to-last, final = 
     -1152449.18155597  -1152449.18464666  -1152449.18464666
  Force two-norm initial, final = 0.19071104 0.00017334912
  Force max component initial, final = 0.11586209 2.7497001e-05
  Final line search alpha, max atom move = 1.0000000 2.7497001e-05
  Iterations, force evaluations = 190 380

MPI task timing breakdown:
Section |  min time  |  avg time  |  max time  |%varavg| %total
---------------------------------------------------------------
Pair    | 0.57407    | 1.5945     | 2.0695     |  34.2 | 72.97
Neigh   | 0          | 0          | 0          |   0.0 |  0.00
Comm    | 0.032695   | 0.35534    | 1.0915     |  51.1 | 16.26
Output  | 0          | 0          | 0          |   0.0 |  0.00
Modify  | 2.2925e-05 | 0.0031252  | 0.00667    |   2.6 |  0.14
Other   |            | 0.2322     |            |       | 10.62

Nlocal:        2776.45 ave        3956 max           0 min
Histogram: 8 4 4 0 4 12 8 2 28 34
Nghost:        3878.96 ave        5425 max         232 min
Histogram: 8 0 8 0 16 0 8 8 16 40
Neighs:        79213.5 ave      115298 max           0 min
Histogram: 8 4 4 0 10 6 8 8 24 32

Total # of neighbors = 8238206
Ave neighs/atom = 28.530485
Neighbor list builds = 0
Dangerous builds = 0
The dot product: 2.9537845140491e-07
Setting atom values ...
  1 settings made for x
  1 settings made for y
  1 settings made for z
Setting up cg style minimization ...
  Unit style    : metal
  Current step  : 3585
Per MPI rank memory allocation (min/avg/max) = 5.441 | 5.816 | 6.074 Mbytes
Step PotEng KinEng TotEng v_fx v_fy v_fz 
    3585   -1152449.2            0   -1152449.2 0.0025234445   0.06389343 -0.032451207 
    3773   -1152449.2            0   -1152449.2 3.7297456e-06 -2.7917257e-06 -5.5937013e-06 
Loop time of 2.15783 on 104 procs for 188 steps with 288751 atoms

99.9% CPU use with 104 MPI tasks x 1 OpenMP threads

Minimization stats:
  Stopping criterion = energy tolerance
  Energy initial, next-to-last, final = 
     -1152449.15753542  -1152449.16027044  -1152449.16027044
  Force two-norm initial, final = 0.18405774 0.00016431315
  Force max component initial, final = 0.12003172 1.4576311e-05
  Final line search alpha, max atom move = 1.0000000 1.4576311e-05
  Iterations, force evaluations = 188 376

MPI task timing breakdown:
Section |  min time  |  avg time  |  max time  |%varavg| %total
---------------------------------------------------------------
Pair    | 0.56819    | 1.5748     | 2.0464     |  33.9 | 72.98
Neigh   | 0          | 0          | 0          |   0.0 |  0.00
Comm    | 0.03273    | 0.34898    | 1.0527     |  50.5 | 16.17
Output  | 0          | 0          | 0          |   0.0 |  0.00
Modify  | 2.2656e-05 | 0.0030907  | 0.0066203  |   2.6 |  0.14
Other   |            | 0.2309     |            |       | 10.70

Nlocal:        2776.45 ave        3956 max           0 min
Histogram: 8 4 4 0 4 12 8 2 28 34
Nghost:        3878.97 ave        5425 max         232 min
Histogram: 8 0 8 0 16 0 8 8 16 40
Neighs:        79213.6 ave      115300 max           0 min
Histogram: 8 4 4 0 10 6 8 8 24 32

Total # of neighbors = 8238211
Ave neighs/atom = 28.530502
Neighbor list builds = 0
Dangerous builds = 0
The dot product: 3.9999033346147e-08
Setting atom values ...
  1 settings made for x
  1 settings made for y
  1 settings made for z
Setting up cg style minimization ...
  Unit style    : metal
  Current step  : 3773
Per MPI rank memory allocation (min/avg/max) = 5.441 | 5.816 | 6.074 Mbytes
Step PotEng KinEng TotEng v_fx v_fy v_fz 
    3773   -1152449.1            0   -1152449.1 0.0087382161  0.056026846 -0.032685794 
    3942   -1152449.1            0   -1152449.1 -4.8732211e-05 9.4184244e-06 7.9284379e-05 
Loop time of 1.94715 on 104 procs for 169 steps with 288751 atoms

99.9% CPU use with 104 MPI tasks x 1 OpenMP threads

Minimization stats:
  Stopping criterion = energy tolerance
  Energy initial, next-to-last, final = 
     -1152449.13243878  -1152449.13490724  -1152449.13490724
  Force two-norm initial, final = 0.18139515 0.00029850792
  Force max component initial, final = 0.12420279 7.9284379e-05
  Final line search alpha, max atom move = 1.0000000 7.9284379e-05
  Iterations, force evaluations = 169 338

MPI task timing breakdown:
Section |  min time  |  avg time  |  max time  |%varavg| %total
---------------------------------------------------------------
Pair    | 0.51064    | 1.4149     | 1.8381     |  32.0 | 72.67
Neigh   | 0          | 0          | 0          |   0.0 |  0.00
Comm    | 0.03596    | 0.31555    | 0.95933    |  47.7 | 16.21
Output  | 0          | 0          | 0          |   0.0 |  0.00
Modify  | 2.0081e-05 | 0.0027815  | 0.0059331  |   2.5 |  0.14
Other   |            | 0.2139     |            |       | 10.99

Nlocal:        2776.45 ave        3957 max           0 min
Histogram: 8 4 4 0 4 12 8 2 28 34
Nghost:        3878.98 ave        5425 max         232 min
Histogram: 8 0 8 0 16 0 8 8 16 40
Neighs:        79213.6 ave      115339 max           0 min
Histogram: 8 4 4 0 10 6 8 8 24 32

Total # of neighbors = 8238214
Ave neighs/atom = 28.530512
Neighbor list builds = 0
Dangerous builds = 0
The dot product: -1.12812028969452e-06
Setting atom values ...
  1 settings made for x
  1 settings made for y
  1 settings made for z
Setting up cg style minimization ...
  Unit style    : metal
  Current step  : 3942
Per MPI rank memory allocation (min/avg/max) = 5.441 | 5.816 | 6.074 Mbytes
Step PotEng KinEng TotEng v_fx v_fy v_fz 
    3942   -1152449.1            0   -1152449.1  0.011324224   0.04656791 -0.028841402 
    4000   -1152449.1            0   -1152449.1 -0.00030970417 7.8055206e-05 0.00046913029 
    4138   -1152449.1            0   -1152449.1 1.1816869e-06 1.2331931e-06 -2.152053e-06 
Loop time of 2.26687 on 104 procs for 196 steps with 288751 atoms

99.9% CPU use with 104 MPI tasks x 1 OpenMP threads

Minimization stats:
  Stopping criterion = energy tolerance
  Energy initial, next-to-last, final = 
     -1152449.10615461  -1152449.10829269  -1152449.10829269
  Force two-norm initial, final = 0.1785946 0.00011801209
  Force max component initial, final = 0.128239 2.0551873e-05
  Final line search alpha, max atom move = 1.0000000 2.0551873e-05
  Iterations, force evaluations = 196 392

MPI task timing breakdown:
Section |  min time  |  avg time  |  max time  |%varavg| %total
---------------------------------------------------------------
Pair    | 0.59373    | 1.649      | 2.1428     |  34.5 | 72.75
Neigh   | 0          | 0          | 0          |   0.0 |  0.00
Comm    | 0.040445   | 0.36555    | 1.1054     |  51.8 | 16.13
Output  | 9.3998e-05 | 0.00010255 | 0.0002228  |   0.0 |  0.00
Modify  | 2.3272e-05 | 0.0032281  | 0.0068824  |   2.7 |  0.14
Other   |            | 0.249      |            |       | 10.98

Nlocal:        2776.45 ave        3957 max           0 min
Histogram: 8 4 4 0 4 12 8 2 28 34
Nghost:        3879.02 ave        5426 max         232 min
Histogram: 8 0 8 0 16 0 8 8 16 40
Neighs:        79213.6 ave      115336 max           0 min
Histogram: 8 4 4 0 10 6 8 8 24 32

Total # of neighbors = 8238213
Ave neighs/atom = 28.530509
Neighbor list builds = 0
Dangerous builds = 0
The dot product: 4.48795337901407e-08
Setting atom values ...
  1 settings made for x
  1 settings made for y
  1 settings made for z
Setting up cg style minimization ...
  Unit style    : metal
  Current step  : 4138
Per MPI rank memory allocation (min/avg/max) = 5.441 | 5.816 | 6.074 Mbytes
Step PotEng KinEng TotEng v_fx v_fy v_fz 
    4138   -1152449.1            0   -1152449.1  0.010861859  0.035973946 -0.022597594 
    4324   -1152449.1            0   -1152449.1 -2.6517855e-05 2.7164393e-06 3.8927321e-05 
Loop time of 2.13664 on 104 procs for 186 steps with 288751 atoms

99.9% CPU use with 104 MPI tasks x 1 OpenMP threads

Minimization stats:
  Stopping criterion = energy tolerance
  Energy initial, next-to-last, final = 
     -1152449.07842275  -1152449.08032416  -1152449.08032416
  Force two-norm initial, final = 0.1761265 0.00013873002
  Force max component initial, final = 0.13181065 3.8927321e-05
  Final line search alpha, max atom move = 1.0000000 3.8927321e-05
  Iterations, force evaluations = 186 372

MPI task timing breakdown:
Section |  min time  |  avg time  |  max time  |%varavg| %total
---------------------------------------------------------------
Pair    | 0.56236    | 1.555      | 2.025      |  33.7 | 72.78
Neigh   | 0          | 0          | 0          |   0.0 |  0.00
Comm    | 0.035121   | 0.34552    | 1.0493     |  50.0 | 16.17
Output  | 0          | 0          | 0          |   0.0 |  0.00
Modify  | 2.2088e-05 | 0.0030655  | 0.0065358  |   2.6 |  0.14
Other   |            | 0.233      |            |       | 10.91

Nlocal:        2776.45 ave        3957 max           0 min
Histogram: 8 4 4 0 4 12 8 2 28 34
Nghost:        3878.99 ave        5426 max         232 min
Histogram: 8 0 8 0 16 0 8 8 16 40
Neighs:        79213.6 ave      115337 max           0 min
Histogram: 8 4 4 0 10 6 8 8 24 32

Total # of neighbors = 8238212
Ave neighs/atom = 28.530506
Neighbor list builds = 0
Dangerous builds = 0
The dot product: -4.60811308803273e-07
Setting atom values ...
  1 settings made for x
  1 settings made for y
  1 settings made for z
Setting up cg style minimization ...
  Unit style    : metal
  Current step  : 4324
Per MPI rank memory allocation (min/avg/max) = 5.441 | 5.816 | 6.074 Mbytes
Step PotEng KinEng TotEng v_fx v_fy v_fz 
    4324     -1152449            0     -1152449 0.0089046182  0.026446355 -0.016374712 
    4552   -1152449.1            0   -1152449.1 -1.7095085e-06 7.543286e-07 2.3206858e-06 
Loop time of 2.65869 on 104 procs for 228 steps with 288751 atoms

99.9% CPU use with 104 MPI tasks x 1 OpenMP threads

Minimization stats:
  Stopping criterion = energy tolerance
  Energy initial, next-to-last, final = 
     -1152449.04926346  -1152449.05101925  -1152449.05101925
  Force two-norm initial, final = 0.17482902 2.7994689e-05
  Force max component initial, final = 0.13496424 4.9104213e-06
  Final line search alpha, max atom move = 1.0000000 4.9104213e-06
  Iterations, force evaluations = 228 456

MPI task timing breakdown:
Section |  min time  |  avg time  |  max time  |%varavg| %total
---------------------------------------------------------------
Pair    | 0.69038    | 1.9248     | 2.5141     |  37.6 | 72.40
Neigh   | 0          | 0          | 0          |   0.0 |  0.00
Comm    | 0.042975   | 0.43444    | 1.3012     |  55.2 | 16.34
Output  | 0          | 0          | 0          |   0.0 |  0.00
Modify  | 2.7377e-05 | 0.0037478  | 0.0080153  |   2.9 |  0.14
Other   |            | 0.2957     |            |       | 11.12

Nlocal:        2776.45 ave        3957 max           0 min
Histogram: 8 4 4 0 4 12 8 2 28 34
Nghost:        3879.01 ave        5426 max         232 min
Histogram: 8 0 8 0 16 0 8 8 16 40
Neighs:        79213.6 ave      115337 max           0 min
Histogram: 8 4 4 0 10 6 8 8 24 32

Total # of neighbors = 8238215
Ave neighs/atom = 28.530516
Neighbor list builds = 0
Dangerous builds = 0
The dot product: -2.01827806087387e-08
Setting atom values ...
  1 settings made for x
  1 settings made for y
  1 settings made for z
Setting up cg style minimization ...
  Unit style    : metal
  Current step  : 4552
Per MPI rank memory allocation (min/avg/max) = 5.441 | 5.816 | 6.074 Mbytes
Step PotEng KinEng TotEng v_fx v_fy v_fz 
    4552     -1152449            0     -1152449 0.0066705195  0.018736405 -0.011297205 
    4745     -1152449            0     -1152449 1.2157079e-05 -1.3283314e-06 -1.6485928e-05 
Loop time of 2.22307 on 104 procs for 193 steps with 288751 atoms

99.9% CPU use with 104 MPI tasks x 1 OpenMP threads

Minimization stats:
  Stopping criterion = energy tolerance
  Energy initial, next-to-last, final = 
     -1152449.01876514  -1152449.02048415  -1152449.02048415
  Force two-norm initial, final = 0.17461307 0.0001159806
  Force max component initial, final = 0.13772377 1.6485928e-05
  Final line search alpha, max atom move = 1.0000000 1.6485928e-05
  Iterations, force evaluations = 193 386

MPI task timing breakdown:
Section |  min time  |  avg time  |  max time  |%varavg| %total
---------------------------------------------------------------
Pair    | 0.58487    | 1.6127     | 2.099      |  34.3 | 72.54
Neigh   | 0          | 0          | 0          |   0.0 |  0.00
Comm    | 0.036313   | 0.35937    | 1.0895     |  51.0 | 16.17
Output  | 0          | 0          | 0          |   0.0 |  0.00
Modify  | 2.5159e-05 | 0.0031791  | 0.0067998  |   2.7 |  0.14
Other   |            | 0.2478     |            |       | 11.15

Nlocal:        2776.45 ave        3957 max           0 min
Histogram: 8 4 4 0 4 12 8 2 28 34
Nghost:        3879.03 ave        5426 max         232 min
Histogram: 8 0 8 0 16 0 8 8 16 40
Neighs:        79213.6 ave      115339 max           0 min
Histogram: 8 4 4 0 10 6 8 8 24 32

Total # of neighbors = 8238218
Ave neighs/atom = 28.530526
Neighbor list builds = 0
Dangerous builds = 0
The dot product: 1.50917681914053e-07
Setting atom values ...
  1 settings made for x
  1 settings made for y
  1 settings made for z
Setting up cg style minimization ...
  Unit style    : metal
  Current step  : 4745
Per MPI rank memory allocation (min/avg/max) = 5.441 | 5.816 | 6.074 Mbytes
Step PotEng KinEng TotEng v_fx v_fy v_fz 
    4745     -1152449            0     -1152449   0.00481841  0.012978662 -0.007676271 
    4935     -1152449            0     -1152449 -2.1731377e-05 3.7898404e-06 2.8471957e-05 
Loop time of 2.22816 on 104 procs for 190 steps with 288751 atoms

99.9% CPU use with 104 MPI tasks x 1 OpenMP threads

Minimization stats:
  Stopping criterion = energy tolerance
  Energy initial, next-to-last, final = 
      -1152448.9871471  -1152448.98883002  -1152448.98883002
  Force two-norm initial, final = 0.17494391 0.00012356249
  Force max component initial, final = 0.14001663 2.8471957e-05
  Final line search alpha, max atom move = 1.0000000 2.8471957e-05
  Iterations, force evaluations = 190 380

MPI task timing breakdown:
Section |  min time  |  avg time  |  max time  |%varavg| %total
---------------------------------------------------------------
Pair    | 0.57354    | 1.6014     | 2.09       |  34.3 | 71.87
Neigh   | 0          | 0          | 0          |   0.0 |  0.00
Comm    | 0.037621   | 0.36478    | 1.0808     |  49.4 | 16.37
Output  | 0          | 0          | 0          |   0.0 |  0.00
Modify  | 2.2332e-05 | 0.0031257  | 0.0066838  |   2.6 |  0.14
Other   |            | 0.2588     |            |       | 11.62

Nlocal:        2776.45 ave        3957 max           0 min
Histogram: 8 4 4 0 4 12 8 2 28 34
Nghost:        3879.05 ave        5426 max         232 min
Histogram: 8 0 8 0 16 0 8 8 16 40
Neighs:        79213.6 ave      115340 max           0 min
Histogram: 8 4 4 0 10 6 8 8 24 32

Total # of neighbors = 8238215
Ave neighs/atom = 28.530516
Neighbor list builds = 0
Dangerous builds = 0
The dot product: -2.29416646860072e-07
Setting atom values ...
  1 settings made for x
  1 settings made for y
  1 settings made for z
Setting up cg style minimization ...
  Unit style    : metal
  Current step  : 4935
Per MPI rank memory allocation (min/avg/max) = 5.441 | 5.816 | 6.074 Mbytes
Step PotEng KinEng TotEng v_fx v_fy v_fz 
    4935     -1152449            0     -1152449 0.0027550525 0.0087839366 -0.0043321539 
    5000     -1152449            0     -1152449 0.00023598475 -2.6817646e-05 -0.00030293175 
    5119     -1152449            0     -1152449 -1.9728987e-05 4.1458677e-06 2.5159457e-05 
Loop time of 2.12295 on 104 procs for 184 steps with 288751 atoms

99.9% CPU use with 104 MPI tasks x 1 OpenMP threads

Minimization stats:
  Stopping criterion = energy tolerance
  Energy initial, next-to-last, final = 
     -1152448.95444447   -1152448.9561521   -1152448.9561521
  Force two-norm initial, final = 0.17566286 0.0001642092
  Force max component initial, final = 0.1421156 2.5159457e-05
  Final line search alpha, max atom move = 1.0000000 2.5159457e-05
  Iterations, force evaluations = 184 368

MPI task timing breakdown:
Section |  min time  |  avg time  |  max time  |%varavg| %total
---------------------------------------------------------------
Pair    | 0.55512    | 1.5432     | 2.0086     |  33.7 | 72.69
Neigh   | 0          | 0          | 0          |   0.0 |  0.00
Comm    | 0.036284   | 0.34476    | 1.0544     |  50.0 | 16.24
Output  | 9.7082e-05 | 0.00010373 | 0.00021154 |   0.0 |  0.00
Modify  | 2.1904e-05 | 0.0030277  | 0.0064534  |   2.6 |  0.14
Other   |            | 0.2319     |            |       | 10.92

Nlocal:        2776.45 ave        3956 max           0 min
Histogram: 8 4 4 0 4 12 8 0 30 34
Nghost:        3878.99 ave        5426 max         232 min
Histogram: 8 0 8 0 16 0 8 8 16 40
Neighs:        79213.6 ave      115346 max           0 min
Histogram: 8 4 4 0 10 6 8 8 24 32

Total # of neighbors = 8238219
Ave neighs/atom = 28.530530
Neighbor list builds = 0
Dangerous builds = 0
The dot product: -1.89159059022719e-07
Setting atom values ...
  1 settings made for x
  1 settings made for y
  1 settings made for z
Setting up cg style minimization ...
  Unit style    : metal
  Current step  : 5119
Per MPI rank memory allocation (min/avg/max) = 5.441 | 5.816 | 6.074 Mbytes
Step PotEng KinEng TotEng v_fx v_fy v_fz 
    5119   -1152448.9            0   -1152448.9 0.0011574526 0.0059349831 -0.0019387604 
    5311   -1152448.9            0   -1152448.9 -2.1392806e-05 2.7696626e-06 2.6831986e-05 
Loop time of 2.22574 on 104 procs for 192 steps with 288751 atoms

99.9% CPU use with 104 MPI tasks x 1 OpenMP threads

Minimization stats:
  Stopping criterion = energy tolerance
  Energy initial, next-to-last, final = 
     -1152448.92085806   -1152448.9225684   -1152448.9225684
  Force two-norm initial, final = 0.17635581 0.00013934447
  Force max component initial, final = 0.14380478 3.0584509e-05
  Final line search alpha, max atom move = 1.0000000 3.0584509e-05
  Iterations, force evaluations = 192 384

MPI task timing breakdown:
Section |  min time  |  avg time  |  max time  |%varavg| %total
---------------------------------------------------------------
Pair    | 0.58333    | 1.6147     | 2.0988     |  34.2 | 72.54
Neigh   | 0          | 0          | 0          |   0.0 |  0.00
Comm    | 0.036129   | 0.35922    | 1.0907     |  51.0 | 16.14
Output  | 0          | 0          | 0          |   0.0 |  0.00
Modify  | 2.2976e-05 | 0.0031554  | 0.0067219  |   2.7 |  0.14
Other   |            | 0.2487     |            |       | 11.17

Nlocal:        2776.45 ave        3956 max           0 min
Histogram: 8 4 4 0 4 12 8 0 30 34
Nghost:        3879.03 ave        5426 max         232 min
Histogram: 8 0 8 0 16 0 8 8 16 40
Neighs:        79213.6 ave      115324 max           0 min
Histogram: 8 4 4 0 10 6 8 8 24 32

Total # of neighbors = 8238214
Ave neighs/atom = 28.530512
Neighbor list builds = 0
Dangerous builds = 0
The dot product: -1.85724479590679e-07
Setting atom values ...
  1 settings made for x
  1 settings made for y
  1 settings made for z
Setting up cg style minimization ...
  Unit style    : metal
  Current step  : 5311
Per MPI rank memory allocation (min/avg/max) = 5.441 | 5.816 | 6.074 Mbytes
Step PotEng KinEng TotEng v_fx v_fy v_fz 
    5311   -1152448.9            0   -1152448.9 -0.0008721345 0.0039476819 0.00078429633 
    5490   -1152448.9            0   -1152448.9 2.2689172e-05 -3.5327484e-06 -2.7874847e-05 
Loop time of 2.07022 on 104 procs for 179 steps with 288751 atoms

99.9% CPU use with 104 MPI tasks x 1 OpenMP threads

Minimization stats:
  Stopping criterion = energy tolerance
  Energy initial, next-to-last, final = 
     -1152448.88635974  -1152448.88798201  -1152448.88798201
  Force two-norm initial, final = 0.17722269 0.00017695357
  Force max component initial, final = 0.14539768 2.7874847e-05
  Final line search alpha, max atom move = 1.0000000 2.7874847e-05
  Iterations, force evaluations = 179 358

MPI task timing breakdown:
Section |  min time  |  avg time  |  max time  |%varavg| %total
---------------------------------------------------------------
Pair    | 0.5402     | 1.4993     | 1.951      |  33.1 | 72.42
Neigh   | 0          | 0          | 0          |   0.0 |  0.00
Comm    | 0.031787   | 0.33271    | 1.0152     |  49.5 | 16.07
Output  | 0          | 0          | 0          |   0.0 |  0.00
Modify  | 2.1223e-05 | 0.0029419  | 0.0062795  |   2.6 |  0.14
Other   |            | 0.2353     |            |       | 11.37

Nlocal:        2776.45 ave        3956 max           0 min
Histogram: 8 4 4 0 4 12 8 0 30 34
Nghost:        3879.03 ave        5426 max         232 min
Histogram: 8 0 8 0 16 0 8 8 16 40
Neighs:        79213.6 ave      115348 max           0 min
Histogram: 8 4 4 0 10 6 8 8 24 32

Total # of neighbors = 8238216
Ave neighs/atom = 28.530519
Neighbor list builds = 0
Dangerous builds = 0
The dot product: 1.57511364859984e-07
Setting atom values ...
  1 settings made for x
  1 settings made for y
  1 settings made for z
Setting up cg style minimization ...
  Unit style    : metal
  Current step  : 5490
Per MPI rank memory allocation (min/avg/max) = 5.441 | 5.816 | 6.074 Mbytes
Step PotEng KinEng TotEng v_fx v_fy v_fz 
    5490   -1152448.9            0   -1152448.9 -0.0036863705 0.0026151994 0.0043136691 
    5642   -1152448.9            0   -1152448.9 -6.2119883e-05 1.0703868e-05 7.5113682e-05 
Loop time of 1.76003 on 104 procs for 152 steps with 288751 atoms

99.9% CPU use with 104 MPI tasks x 1 OpenMP threads

Minimization stats:
  Stopping criterion = energy tolerance
  Energy initial, next-to-last, final = 
      -1152448.8507212   -1152448.8523456   -1152448.8523456
  Force two-norm initial, final = 0.17854554 0.00033470311
  Force max component initial, final = 0.1471614 7.6971541e-05
  Final line search alpha, max atom move = 1.0000000 7.6971541e-05
  Iterations, force evaluations = 152 304

MPI task timing breakdown:
Section |  min time  |  avg time  |  max time  |%varavg| %total
---------------------------------------------------------------
Pair    | 0.46621    | 1.2796     | 1.661      |  30.3 | 72.71
Neigh   | 0          | 0          | 0          |   0.0 |  0.00
Comm    | 0.028045   | 0.28347    | 0.85852    |  45.5 | 16.11
Output  | 0          | 0          | 0          |   0.0 |  0.00
Modify  | 1.8157e-05 | 0.0025053  | 0.0053423  |   2.4 |  0.14
Other   |            | 0.1944     |            |       | 11.05

Nlocal:        2776.45 ave        3956 max           0 min
Histogram: 8 4 4 0 4 12 8 0 30 34
Nghost:        3879.02 ave        5426 max         232 min
Histogram: 8 0 8 0 16 0 8 8 16 40
Neighs:        79213.6 ave      115349 max           0 min
Histogram: 8 4 4 0 10 6 8 8 24 32

Total # of neighbors = 8238215
Ave neighs/atom = 28.530516
Neighbor list builds = 0
Dangerous builds = 0
The dot product: -3.49908320187548e-07
Setting atom values ...
  1 settings made for x
  1 settings made for y
  1 settings made for z
Setting up cg style minimization ...
  Unit style    : metal
  Current step  : 5642
Per MPI rank memory allocation (min/avg/max) = 5.441 | 5.816 | 6.074 Mbytes
Step PotEng KinEng TotEng v_fx v_fy v_fz 
    5642   -1152448.8            0   -1152448.8 -0.0063547209 0.0019486249 0.0075330754 
    5831   -1152448.8            0   -1152448.8 -4.3765091e-05 9.4530095e-06 5.2163103e-05 
Loop time of 2.16756 on 104 procs for 189 steps with 288751 atoms

99.9% CPU use with 104 MPI tasks x 1 OpenMP threads

Minimization stats:
  Stopping criterion = energy tolerance
  Energy initial, next-to-last, final = 
     -1152448.81407889  -1152448.81583959  -1152448.81583959
  Force two-norm initial, final = 0.17978374 0.0002136696
  Force max component initial, final = 0.14873412 5.2171076e-05
  Final line search alpha, max atom move = 1.0000000 5.2171076e-05
  Iterations, force evaluations = 189 378

MPI task timing breakdown:
Section |  min time  |  avg time  |  max time  |%varavg| %total
---------------------------------------------------------------
Pair    | 0.57169    | 1.578      | 2.0555     |  33.9 | 72.80
Neigh   | 0          | 0          | 0          |   0.0 |  0.00
Comm    | 0.033505   | 0.34877    | 1.0592     |  50.5 | 16.09
Output  | 0          | 0          | 0          |   0.0 |  0.00
Modify  | 2.259e-05  | 0.0031052  | 0.0066316  |   2.6 |  0.14
Other   |            | 0.2377     |            |       | 10.97

Nlocal:        2776.45 ave        3955 max           0 min
Histogram: 8 4 4 0 4 12 8 0 30 34
Nghost:        3879.01 ave        5426 max         232 min
Histogram: 8 0 8 0 16 0 8 8 16 40
Neighs:        79213.6 ave      115348 max           0 min
Histogram: 8 4 4 0 10 6 8 8 24 32

Total # of neighbors = 8238213
Ave neighs/atom = 28.530509
Neighbor list builds = 0
Dangerous builds = 0
The dot product: -2.14639775853387e-07
Setting atom values ...
  1 settings made for x
  1 settings made for y
  1 settings made for z
Setting up cg style minimization ...
  Unit style    : metal
  Current step  : 5831
Per MPI rank memory allocation (min/avg/max) = 5.441 | 5.816 | 6.074 Mbytes
Step PotEng KinEng TotEng v_fx v_fy v_fz 
    5831   -1152448.8            0   -1152448.8 -0.0084080982 0.0017502683 0.0099262408 
    6000   -1152448.8            0   -1152448.8 1.5544076e-05 -5.6237589e-06 -1.8181569e-05 
    6013   -1152448.8            0   -1152448.8 -2.4483462e-05 5.3764379e-06 2.888431e-05 
Loop time of 2.12095 on 104 procs for 182 steps with 288751 atoms

99.9% CPU use with 104 MPI tasks x 1 OpenMP threads

Minimization stats:
  Stopping criterion = energy tolerance
  Energy initial, next-to-last, final = 
     -1152448.77673668  -1152448.77835471  -1152448.77835471
  Force two-norm initial, final = 0.18041418 0.00017381385
  Force max component initial, final = 0.14984729 3.4312113e-05
  Final line search alpha, max atom move = 1.0000000 3.4312113e-05
  Iterations, force evaluations = 182 364

MPI task timing breakdown:
Section |  min time  |  avg time  |  max time  |%varavg| %total
---------------------------------------------------------------
Pair    | 0.55689    | 1.5361     | 2.0073     |  33.4 | 72.43
Neigh   | 0          | 0          | 0          |   0.0 |  0.00
Comm    | 0.035621   | 0.34362    | 1.0288     |  49.4 | 16.20
Output  | 0.00015242 | 0.00015529 | 0.0002949  |   0.0 |  0.01
Modify  | 2.1544e-05 | 0.0029961  | 0.0064307  |   2.6 |  0.14
Other   |            | 0.2381     |            |       | 11.22

Nlocal:        2776.45 ave        3956 max           0 min
Histogram: 8 4 4 0 4 12 8 0 30 34
Nghost:        3879.00 ave        5426 max         232 min
Histogram: 8 0 8 0 16 0 8 8 16 40
Neighs:        79213.6 ave      115347 max           0 min
Histogram: 8 4 4 0 10 6 8 8 24 32

Total # of neighbors = 8238215
Ave neighs/atom = 28.530516
Neighbor list builds = 0
Dangerous builds = 0
The dot product: -7.89402313507861e-08
Setting atom values ...
  1 settings made for x
  1 settings made for y
  1 settings made for z
Setting up cg style minimization ...
  Unit style    : metal
  Current step  : 6013
Per MPI rank memory allocation (min/avg/max) = 5.441 | 5.816 | 6.074 Mbytes
Step PotEng KinEng TotEng v_fx v_fy v_fz 
    6013   -1152448.7            0   -1152448.7 -0.011557502 0.0020610242  0.013581558 
    6228   -1152448.7            0   -1152448.7 8.0255415e-06 -1.5151672e-06 -9.4250809e-06 
Loop time of 2.46656 on 104 procs for 215 steps with 288751 atoms

99.9% CPU use with 104 MPI tasks x 1 OpenMP threads

Minimization stats:
  Stopping criterion = energy tolerance
  Energy initial, next-to-last, final = 
     -1152448.73824307  -1152448.73988972  -1152448.73988972
  Force two-norm initial, final = 0.18134702 6.5697324e-05
  Force max component initial, final = 0.15117018 1.1649429e-05
  Final line search alpha, max atom move = 1.0000000 1.1649429e-05
  Iterations, force evaluations = 215 430

MPI task timing breakdown:
Section |  min time  |  avg time  |  max time  |%varavg| %total
---------------------------------------------------------------
Pair    | 0.64982    | 1.7966     | 2.3381     |  36.3 | 72.84
Neigh   | 0          | 0          | 0          |   0.0 |  0.00
Comm    | 0.039642   | 0.39976    | 1.2141     |  53.9 | 16.21
Output  | 0          | 0          | 0          |   0.0 |  0.00
Modify  | 2.5588e-05 | 0.0035346  | 0.0076002  |   2.8 |  0.14
Other   |            | 0.2667     |            |       | 10.81

Nlocal:        2776.45 ave        3956 max           0 min
Histogram: 8 4 4 0 4 12 8 0 30 34
Nghost:        3878.96 ave        5425 max         232 min
Histogram: 8 0 8 0 16 0 8 8 16 40
Neighs:        79213.6 ave      115344 max           0 min
Histogram: 8 4 4 0 10 6 8 8 24 32

Total # of neighbors = 8238213
Ave neighs/atom = 28.530509
Neighbor list builds = 0
Dangerous builds = 0
The dot product: 1.50237281525434e-08
Setting atom values ...
  1 settings made for x
  1 settings made for y
  1 settings made for z
Setting up cg style minimization ...
  Unit style    : metal
  Current step  : 6228
Per MPI rank memory allocation (min/avg/max) = 5.441 | 5.816 | 6.074 Mbytes
Step PotEng KinEng TotEng v_fx v_fy v_fz 
    6228   -1152448.7            0   -1152448.7 -0.014245261 0.0027493365  0.016664625 
    6379   -1152448.7            0   -1152448.7 4.0287662e-05 -4.9490065e-06 -4.7333003e-05 
Loop time of 1.75285 on 104 procs for 151 steps with 288751 atoms

99.9% CPU use with 104 MPI tasks x 1 OpenMP threads

Minimization stats:
  Stopping criterion = energy tolerance
  Energy initial, next-to-last, final = 
     -1152448.69891882   -1152448.7008042   -1152448.7008042
  Force two-norm initial, final = 0.18150817 0.00018026351
  Force max component initial, final = 0.15206372 4.7333003e-05
  Final line search alpha, max atom move = 1.0000000 4.7333003e-05
  Iterations, force evaluations = 151 302

MPI task timing breakdown:
Section |  min time  |  avg time  |  max time  |%varavg| %total
---------------------------------------------------------------
Pair    | 0.4559     | 1.273      | 1.6626     |  30.5 | 72.62
Neigh   | 0          | 0          | 0          |   0.0 |  0.00
Comm    | 0.026752   | 0.28497    | 0.86038    |  45.1 | 16.26
Output  | 0          | 0          | 0          |   0.0 |  0.00
Modify  | 1.812e-05  | 0.0024845  | 0.0053249  |   2.4 |  0.14
Other   |            | 0.1924     |            |       | 10.98

Nlocal:        2776.45 ave        3955 max           0 min
Histogram: 8 4 4 0 4 12 8 0 30 34
Nghost:        3878.97 ave        5425 max         232 min
Histogram: 8 0 8 0 16 0 8 8 16 40
Neighs:        79213.6 ave      115307 max           0 min
Histogram: 8 4 4 0 10 6 8 8 24 32

Total # of neighbors = 8238215
Ave neighs/atom = 28.530516
Neighbor list builds = 0
Dangerous builds = 0
The dot product: 3.83674659412259e-08
Setting atom values ...
  1 settings made for x
  1 settings made for y
  1 settings made for z
Setting up cg style minimization ...
  Unit style    : metal
  Current step  : 6379
Per MPI rank memory allocation (min/avg/max) = 5.441 | 5.816 | 6.074 Mbytes
Step PotEng KinEng TotEng v_fx v_fy v_fz 
    6379   -1152448.7            0   -1152448.7 -0.016297923 0.0032940502  0.019018882 
    6554   -1152448.7            0   -1152448.7 -2.3080977e-05 5.5621717e-06 2.6868425e-05 
Loop time of 2.01769 on 104 procs for 175 steps with 288751 atoms

99.9% CPU use with 104 MPI tasks x 1 OpenMP threads

Minimization stats:
  Stopping criterion = energy tolerance
  Energy initial, next-to-last, final = 
      -1152448.6594613  -1152448.66125198  -1152448.66125198
  Force two-norm initial, final = 0.18016895 0.00013416527
  Force max component initial, final = 0.15187003 3.5964137e-05
  Final line search alpha, max atom move = 1.0000000 3.5964137e-05
  Iterations, force evaluations = 175 350

MPI task timing breakdown:
Section |  min time  |  avg time  |  max time  |%varavg| %total
---------------------------------------------------------------
Pair    | 0.53552    | 1.468      | 1.9058     |  32.5 | 72.76
Neigh   | 0          | 0          | 0          |   0.0 |  0.00
Comm    | 0.030053   | 0.32646    | 0.99664    |  48.7 | 16.18
Output  | 0          | 0          | 0          |   0.0 |  0.00
Modify  | 2.0784e-05 | 0.0028775  | 0.0061617  |   2.5 |  0.14
Other   |            | 0.2204     |            |       | 10.92

Nlocal:        2776.45 ave        3956 max           0 min
Histogram: 8 4 4 0 4 12 8 0 30 34
Nghost:        3878.92 ave        5425 max         232 min
Histogram: 8 0 8 0 16 0 8 8 16 40
Neighs:        79213.5 ave      115335 max           0 min
Histogram: 8 4 4 0 10 6 8 8 24 32

Total # of neighbors = 8238200
Ave neighs/atom = 28.530464
Neighbor list builds = 0
Dangerous builds = 0
The dot product: 1.47638832507046e-08
Setting atom values ...
  1 settings made for x
  1 settings made for y
  1 settings made for z
Setting up cg style minimization ...
  Unit style    : metal
  Current step  : 6554
Per MPI rank memory allocation (min/avg/max) = 5.441 | 5.816 | 6.074 Mbytes
Step PotEng KinEng TotEng v_fx v_fy v_fz 
    6554   -1152448.6            0   -1152448.6 -0.019221977 0.0037455072  0.022469994 
    6818   -1152448.6            0   -1152448.6 3.0408552e-06 -1.0107621e-07 -3.5920645e-06 
Loop time of 3.07293 on 104 procs for 264 steps with 288751 atoms

99.9% CPU use with 104 MPI tasks x 1 OpenMP threads

Minimization stats:
  Stopping criterion = energy tolerance
  Energy initial, next-to-last, final = 
     -1152448.61982571  -1152448.62197609  -1152448.62197609
  Force two-norm initial, final = 0.17915477 2.1199099e-05
  Force max component initial, final = 0.15124537 3.5920645e-06
  Final line search alpha, max atom move = 1.0000000 3.5920645e-06
  Iterations, force evaluations = 264 528

MPI task timing breakdown:
Section |  min time  |  avg time  |  max time  |%varavg| %total
---------------------------------------------------------------
Pair    | 0.80123    | 2.218      | 2.8825     |  40.2 | 72.18
Neigh   | 0          | 0          | 0          |   0.0 |  0.00
Comm    | 0.0519     | 0.49653    | 1.485      |  59.3 | 16.16
Output  | 0          | 0          | 0          |   0.0 |  0.00
Modify  | 3.0982e-05 | 0.0043329  | 0.0092327  |   3.1 |  0.14
Other   |            | 0.354      |            |       | 11.52

Nlocal:        2776.45 ave        3955 max           0 min
Histogram: 8 4 4 0 4 12 8 0 30 34
Nghost:        3878.91 ave        5425 max         232 min
Histogram: 8 0 8 0 16 0 8 8 16 40
Neighs:        79213.5 ave      115295 max           0 min
Histogram: 8 4 4 0 10 6 8 8 24 32

Total # of neighbors = 8238201
Ave neighs/atom = 28.530467
Neighbor list builds = 0
Dangerous builds = 0
The dot product: -3.07848392265097e-09
Setting atom values ...
  1 settings made for x
  1 settings made for y
  1 settings made for z
Setting up cg style minimization ...
  Unit style    : metal
  Current step  : 6818
Per MPI rank memory allocation (min/avg/max) = 5.441 | 5.816 | 6.074 Mbytes
Step PotEng KinEng TotEng v_fx v_fy v_fz 
    6818   -1152448.6            0   -1152448.6 -0.021542296 0.00085716858  0.025481572 
    7000   -1152448.6            0   -1152448.6 0.00014236029 -2.9832507e-05 -0.00016647447 
    7103   -1152448.6            0   -1152448.6 -3.1592576e-06 5.2737782e-07 3.7050872e-06 
Loop time of 3.27325 on 104 procs for 285 steps with 288751 atoms

99.9% CPU use with 104 MPI tasks x 1 OpenMP threads

Minimization stats:
  Stopping criterion = energy tolerance
  Energy initial, next-to-last, final = 
      -1152448.5815862  -1152448.58609489  -1152448.58609489
  Force two-norm initial, final = 0.17845103 2.8665640e-05
  Force max component initial, final = 0.1482978 4.3968889e-06
  Final line search alpha, max atom move = 1.0000000 4.3968889e-06
  Iterations, force evaluations = 285 570

MPI task timing breakdown:
Section |  min time  |  avg time  |  max time  |%varavg| %total
---------------------------------------------------------------
Pair    | 0.86284    | 2.3846     | 3.0971     |  41.7 | 72.85
Neigh   | 1.0479e-05 | 0.0029622  | 0.0045944  |   2.2 |  0.09
Comm    | 0.05035    | 0.52846    | 1.6064     |  62.3 | 16.14
Output  | 0.00010501 | 0.00011376 | 0.00027161 |   0.0 |  0.00
Modify  | 3.3932e-05 | 0.0046824  | 0.010024   |   3.2 |  0.14
Other   |            | 0.3524     |            |       | 10.77

Nlocal:        2776.45 ave        3956 max           0 min
Histogram: 8 4 4 0 4 12 8 0 30 34
Nghost:        3878.95 ave        5425 max         232 min
Histogram: 8 0 8 0 16 0 8 8 16 40
Neighs:        79213.4 ave      115316 max           0 min
Histogram: 8 4 4 0 10 6 8 8 24 32

Total # of neighbors = 8238195
Ave neighs/atom = 28.530447
Neighbor list builds = 1
Dangerous builds = 0
The dot product: -6.15847223351235e-08
Setting atom values ...
  1 settings made for x
  1 settings made for y
  1 settings made for z
Setting up cg style minimization ...
  Unit style    : metal
  Current step  : 7103
Per MPI rank memory allocation (min/avg/max) = 5.441 | 5.816 | 6.074 Mbytes
Step PotEng KinEng TotEng v_fx v_fy v_fz 
    7103   -1152448.6            0   -1152448.6 -0.011692083 -0.0012434247   0.01352626 
    7330   -1152448.6            0   -1152448.6 6.5827558e-06 -8.0593469e-07 -7.4885904e-06 
Loop time of 2.627 on 104 procs for 227 steps with 288751 atoms

99.9% CPU use with 104 MPI tasks x 1 OpenMP threads

Minimization stats:
  Stopping criterion = energy tolerance
  Energy initial, next-to-last, final = 
     -1152448.55848117  -1152448.56157907  -1152448.56157907
  Force two-norm initial, final = 0.18440571 5.5044559e-05
  Force max component initial, final = 0.14846812 9.2050714e-06
  Final line search alpha, max atom move = 1.0000000 9.2050714e-06
  Iterations, force evaluations = 227 454

MPI task timing breakdown:
Section |  min time  |  avg time  |  max time  |%varavg| %total
---------------------------------------------------------------
Pair    | 0.68824    | 1.9106     | 2.4773     |  37.3 | 72.73
Neigh   | 0          | 0          | 0          |   0.0 |  0.00
Comm    | 0.048661   | 0.42378    | 1.2894     |  55.7 | 16.13
Output  | 0          | 0          | 0          |   0.0 |  0.00
Modify  | 2.7002e-05 | 0.0037377  | 0.0079652  |   2.9 |  0.14
Other   |            | 0.2889     |            |       | 11.00

Nlocal:        2776.45 ave        3956 max           0 min
Histogram: 8 4 4 0 4 12 8 0 30 34
Nghost:        3879.03 ave        5426 max         232 min
Histogram: 8 0 8 0 16 0 8 8 16 40
Neighs:        79213.4 ave      115331 max           0 min
Histogram: 8 4 4 0 10 6 8 8 24 32

Total # of neighbors = 8238198
Ave neighs/atom = 28.530457
Neighbor list builds = 0
Dangerous builds = 0
The dot product: 6.11451521644485e-08
Setting atom values ...
  1 settings made for x
  1 settings made for y
  1 settings made for z
Setting up cg style minimization ...
  Unit style    : metal
  Current step  : 7330
Per MPI rank memory allocation (min/avg/max) = 5.441 | 5.816 | 6.074 Mbytes
Step PotEng KinEng TotEng v_fx v_fy v_fz 
    7330   -1152448.5            0   -1152448.5 -0.024675644 0.0041734843  0.027530333 
    7636   -1152448.5            0   -1152448.5 1.1096726e-06 -1.9650634e-07 -1.237292e-06 
Loop time of 3.53024 on 104 procs for 306 steps with 288751 atoms

99.9% CPU use with 104 MPI tasks x 1 OpenMP threads

[...]
Histogram: 8 0 8 0 16 0 8 8 16 40
Neighs:        79213.2 ave      115484 max           0 min
Histogram: 8 4 4 0 10 6 8 8 24 32

Total # of neighbors = 8238174
Ave neighs/atom = 28.530374
Neighbor list builds = 0
Dangerous builds = 0
The dot product: -2.60577542816835e-09
Setting atom values ...
  1 settings made for x
  1 settings made for y
  1 settings made for z
Setting up cg style minimization ...
  Unit style    : metal
  Current step  : 27740
Per MPI rank memory allocation (min/avg/max) = 5.441 | 5.816 | 6.074 Mbytes
Step PotEng KinEng TotEng v_fx v_fy v_fz 
   27740   -1152449.1            0   -1152449.1 0.00074978633  0.008328999 -0.010854437 
   27883   -1152449.1            0   -1152449.1 -8.894462e-06 -3.7780534e-06 1.1067116e-05 
Loop time of 1.65548 on 104 procs for 143 steps with 288751 atoms

99.9% CPU use with 104 MPI tasks x 1 OpenMP threads

Minimization stats:
  Stopping criterion = energy tolerance
  Energy initial, next-to-last, final = 
     -1152449.12556185  -1152449.12690989  -1152449.12690989
  Force two-norm initial, final = 0.16244019 0.00024718652
  Force max component initial, final = 0.09363797 4.6262945e-05
  Final line search alpha, max atom move = 1.0000000 4.6262945e-05
  Iterations, force evaluations = 143 286

MPI task timing breakdown:
Section |  min time  |  avg time  |  max time  |%varavg| %total
---------------------------------------------------------------
Pair    | 0.43795    | 1.1996     | 1.5677     |  29.5 | 72.46
Neigh   | 0          | 0          | 0          |   0.0 |  0.00
Comm    | 0.024693   | 0.27146    | 0.81973    |  43.6 | 16.40
Output  | 0          | 0          | 0          |   0.0 |  0.00
Modify  | 1.7349e-05 | 0.0023634  | 0.0050416  |   2.3 |  0.14
Other   |            | 0.1821     |            |       | 11.00

Nlocal:        2776.45 ave        3961 max           0 min
Histogram: 8 4 4 0 6 10 8 4 26 34
Nghost:        3879.09 ave        5424 max         232 min
Histogram: 8 0 8 0 16 0 8 8 16 40
Neighs:        79213.2 ave      115483 max           0 min
Histogram: 8 4 4 0 10 6 8 8 24 32

Total # of neighbors = 8238174
Ave neighs/atom = 28.530374
Neighbor list builds = 0
Dangerous builds = 0
The dot product: -9.63171992433598e-09
Setting atom values ...
  1 settings made for x
  1 settings made for y
  1 settings made for z
Setting up cg style minimization ...
  Unit style    : metal
  Current step  : 27883
Per MPI rank memory allocation (min/avg/max) = 5.441 | 5.816 | 6.074 Mbytes
Step PotEng KinEng TotEng v_fx v_fy v_fz 
   27883   -1152449.1            0   -1152449.1 0.0009106369 0.0072765556 -0.0096788577 
   28000   -1152449.1            0   -1152449.1 4.3141788e-06 -1.5887976e-05 1.6607788e-05 
   28092   -1152449.1            0   -1152449.1 7.0746843e-07 -9.3520745e-07  6.51926e-07 
Loop time of 2.43118 on 104 procs for 209 steps with 288751 atoms

99.9% CPU use with 104 MPI tasks x 1 OpenMP threads

Minimization stats:
  Stopping criterion = energy tolerance
  Energy initial, next-to-last, final = 
     -1152449.10682286  -1152449.10818247  -1152449.10818247
  Force two-norm initial, final = 0.16204627 3.4569023e-05
  Force max component initial, final = 0.094580918 7.6094240e-06
  Final line search alpha, max atom move = 1.0000000 7.6094240e-06
  Iterations, force evaluations = 209 418

MPI task timing breakdown:
Section |  min time  |  avg time  |  max time  |%varavg| %total
---------------------------------------------------------------
Pair    | 0.63586    | 1.7543     | 2.2993     |  35.7 | 72.16
Neigh   | 0          | 0          | 0          |   0.0 |  0.00
Comm    | 0.039148   | 0.39801    | 1.2049     |  52.7 | 16.37
Output  | 0.00014165 | 0.00015188 | 0.00033146 |   0.0 |  0.01
Modify  | 2.5534e-05 | 0.0034408  | 0.0073081  |   2.8 |  0.14
Other   |            | 0.2753     |            |       | 11.32

Nlocal:        2776.45 ave        3961 max           0 min
Histogram: 8 4 4 0 6 10 8 4 26 34
Nghost:        3879.12 ave        5425 max         232 min
Histogram: 8 0 8 0 16 0 8 8 16 40
Neighs:        79213.2 ave      115486 max           0 min
Histogram: 8 4 4 0 10 6 8 8 24 32

Total # of neighbors = 8238172
Ave neighs/atom = 28.530367
Neighbor list builds = 0
Dangerous builds = 0
The dot product: -2.83641285556421e-09
Setting atom values ...
  1 settings made for x
  1 settings made for y
  1 settings made for z
Setting up cg style minimization ...
  Unit style    : metal
  Current step  : 28092
Per MPI rank memory allocation (min/avg/max) = 5.441 | 5.816 | 6.074 Mbytes
Step PotEng KinEng TotEng v_fx v_fy v_fz 
   28092   -1152449.1            0   -1152449.1  0.001064206 0.0061317508 -0.0083781293 
   28241   -1152449.1            0   -1152449.1 2.6622796e-05 -8.517124e-07 -1.8052139e-05 
Loop time of 1.7245 on 104 procs for 149 steps with 288751 atoms

99.9% CPU use with 104 MPI tasks x 1 OpenMP threads

Minimization stats:
  Stopping criterion = energy tolerance
  Energy initial, next-to-last, final = 
     -1152449.08703209  -1152449.08842842  -1152449.08842842
  Force two-norm initial, final = 0.16179871 0.00024390985
  Force max component initial, final = 0.095361138 4.5207208e-05
  Final line search alpha, max atom move = 1.0000000 4.5207208e-05
  Iterations, force evaluations = 149 298

MPI task timing breakdown:
Section |  min time  |  avg time  |  max time  |%varavg| %total
---------------------------------------------------------------
Pair    | 0.45359    | 1.2485     | 1.6348     |  30.1 | 72.40
Neigh   | 0          | 0          | 0          |   0.0 |  0.00
Comm    | 0.025558   | 0.2826     | 0.85693    |  44.5 | 16.39
Output  | 0          | 0          | 0          |   0.0 |  0.00
Modify  | 1.8172e-05 | 0.002456   | 0.0052198  |   2.3 |  0.14
Other   |            | 0.191      |            |       | 11.07

Nlocal:        2776.45 ave        3961 max           0 min
Histogram: 8 4 4 0 6 10 8 4 26 34
Nghost:        3879.12 ave        5425 max         232 min
Histogram: 8 0 8 0 16 0 8 8 16 40
Neighs:        79213.2 ave      115486 max           0 min
Histogram: 8 4 4 0 10 6 8 8 24 32

Total # of neighbors = 8238172
Ave neighs/atom = 28.530367
Neighbor list builds = 0
Dangerous builds = 0
The dot product: -1.81636714972525e-08
Setting atom values ...
  1 settings made for x
  1 settings made for y
  1 settings made for z
Setting up cg style minimization ...
  Unit style    : metal
  Current step  : 28241
Per MPI rank memory allocation (min/avg/max) = 5.441 | 5.816 | 6.074 Mbytes
Step PotEng KinEng TotEng v_fx v_fy v_fz 
   28241   -1152449.1            0   -1152449.1 0.0012127801 0.0051966933 -0.007331307 
   28406   -1152449.1            0   -1152449.1 -1.8127536e-05 2.484881e-06 9.9164755e-06 
Loop time of 1.92285 on 104 procs for 165 steps with 288751 atoms

99.9% CPU use with 104 MPI tasks x 1 OpenMP threads

Minimization stats:
  Stopping criterion = energy tolerance
  Energy initial, next-to-last, final = 
     -1152449.06623331  -1152449.06761973  -1152449.06761973
  Force two-norm initial, final = 0.16183323 0.0001902187
  Force max component initial, final = 0.096138722 2.6742359e-05
  Final line search alpha, max atom move = 1.0000000 2.6742359e-05
  Iterations, force evaluations = 165 330

MPI task timing breakdown:
Section |  min time  |  avg time  |  max time  |%varavg| %total
---------------------------------------------------------------
Pair    | 0.50336    | 1.3864     | 1.8177     |  31.8 | 72.10
Neigh   | 0          | 0          | 0          |   0.0 |  0.00
Comm    | 0.028011   | 0.3142     | 0.95186    |  46.8 | 16.34
Output  | 0          | 0          | 0          |   0.0 |  0.00
Modify  | 2.0035e-05 | 0.0027218  | 0.0058022  |   2.5 |  0.14
Other   |            | 0.2196     |            |       | 11.42

Nlocal:        2776.45 ave        3961 max           0 min
Histogram: 8 4 4 0 6 10 8 4 26 34
Nghost:        3879.16 ave        5425 max         232 min
Histogram: 8 0 8 0 16 0 8 8 16 40
Neighs:        79213.2 ave      115483 max           0 min
Histogram: 8 4 4 0 10 6 8 8 24 32

Total # of neighbors = 8238171
Ave neighs/atom = 28.530364
Neighbor list builds = 0
Dangerous builds = 0
The dot product: 1.6266843873398e-08
Setting atom values ...
  1 settings made for x
  1 settings made for y
  1 settings made for z
Setting up cg style minimization ...
  Unit style    : metal
  Current step  : 28406
Per MPI rank memory allocation (min/avg/max) = 5.441 | 5.816 | 6.074 Mbytes
Step PotEng KinEng TotEng v_fx v_fy v_fz 
   28406     -1152449            0     -1152449 0.0011430874 0.0043040236 -0.0061768677 
   28606     -1152449            0     -1152449 9.2493317e-06 9.8408585e-07 -7.8581541e-06 
Loop time of 2.30971 on 104 procs for 200 steps with 288751 atoms

99.9% CPU use with 104 MPI tasks x 1 OpenMP threads

Minimization stats:
  Stopping criterion = energy tolerance
  Energy initial, next-to-last, final = 
     -1152449.04427513  -1152449.04562816  -1152449.04562816
  Force two-norm initial, final = 0.16192305 7.2561023e-05
  Force max component initial, final = 0.096784792 1.8340263e-05
  Final line search alpha, max atom move = 1.0000000 1.8340263e-05
  Iterations, force evaluations = 200 400

MPI task timing breakdown:
Section |  min time  |  avg time  |  max time  |%varavg| %total
---------------------------------------------------------------
Pair    | 0.60935    | 1.6746     | 2.1899     |  34.9 | 72.50
Neigh   | 0          | 0          | 0          |   0.0 |  0.00
Comm    | 0.033153   | 0.37761    | 1.1482     |  51.6 | 16.35
Output  | 0          | 0          | 0          |   0.0 |  0.00
Modify  | 2.4466e-05 | 0.0032991  | 0.0070493  |   2.7 |  0.14
Other   |            | 0.2542     |            |       | 11.01

Nlocal:        2776.45 ave        3960 max           0 min
Histogram: 8 4 4 0 4 12 8 4 26 34
Nghost:        3879.16 ave        5425 max         232 min
Histogram: 8 0 8 0 16 0 8 8 16 40
Neighs:        79213.2 ave      115457 max           0 min
Histogram: 8 4 4 0 10 6 8 8 24 32

Total # of neighbors = 8238170
Ave neighs/atom = 28.530360
Neighbor list builds = 0
Dangerous builds = 0
The dot product: -2.88031746522106e-09
Setting atom values ...
  1 settings made for x
  1 settings made for y
  1 settings made for z
Setting up cg style minimization ...
  Unit style    : metal
  Current step  : 28606
Per MPI rank memory allocation (min/avg/max) = 5.441 | 5.816 | 6.074 Mbytes
Step PotEng KinEng TotEng v_fx v_fy v_fz 
   28606     -1152449            0     -1152449 0.00085507008 0.0035223468 -0.0050009996 
   28799     -1152449            0     -1152449 -6.9696709e-06 7.2512102e-07 4.093076e-06 
Loop time of 2.25331 on 104 procs for 193 steps with 288751 atoms

99.9% CPU use with 104 MPI tasks x 1 OpenMP threads

Minimization stats:
  Stopping criterion = energy tolerance
  Energy initial, next-to-last, final = 
     -1152449.02101337  -1152449.02234594  -1152449.02234594
  Force two-norm initial, final = 0.16219369 8.7511989e-05
  Force max component initial, final = 0.097479804 1.1473292e-05
  Final line search alpha, max atom move = 1.0000000 1.1473292e-05
  Iterations, force evaluations = 193 386

MPI task timing breakdown:
Section |  min time  |  avg time  |  max time  |%varavg| %total
---------------------------------------------------------------
Pair    | 0.59072    | 1.6234     | 2.1163     |  34.4 | 72.04
Neigh   | 0          | 0          | 0          |   0.0 |  0.00
Comm    | 0.032557   | 0.37057    | 1.1301     |  50.7 | 16.45
Output  | 0          | 0          | 0          |   0.0 |  0.00
Modify  | 2.3337e-05 | 0.0031843  | 0.0067947  |   2.7 |  0.14
Other   |            | 0.2562     |            |       | 11.37

Nlocal:        2776.45 ave        3960 max           0 min
Histogram: 8 4 4 0 4 12 8 4 26 34
Nghost:        3879.16 ave        5425 max         232 min
Histogram: 8 0 8 0 16 0 8 8 16 40
Neighs:        79213.2 ave      115458 max           0 min
Histogram: 8 4 4 0 10 6 8 8 24 32

Total # of neighbors = 8238171
Ave neighs/atom = 28.530364
Neighbor list builds = 0
Dangerous builds = 0
The dot product: 5.23110685664967e-09
Setting atom values ...
  1 settings made for x
  1 settings made for y
  1 settings made for z
Setting up cg style minimization ...
  Unit style    : metal
  Current step  : 28799
Per MPI rank memory allocation (min/avg/max) = 5.441 | 5.816 | 6.074 Mbytes
Step PotEng KinEng TotEng v_fx v_fy v_fz 
   28799     -1152449            0     -1152449 0.00023303663 0.0028489582 -0.0037187157 
   28981     -1152449            0     -1152449 2.7966655e-05 -8.2381975e-06 -9.7696188e-06 
Loop time of 2.13359 on 104 procs for 182 steps with 288751 atoms

99.9% CPU use with 104 MPI tasks x 1 OpenMP threads

Minimization stats:
  Stopping criterion = energy tolerance
  Energy initial, next-to-last, final = 
     -1152448.99635979  -1152448.99767427  -1152448.99767427
  Force two-norm initial, final = 0.16262884 0.00012706255
  Force max component initial, final = 0.098099977 2.7966655e-05
  Final line search alpha, max atom move = 1.0000000 2.7966655e-05
  Iterations, force evaluations = 182 364

MPI task timing breakdown:
Section |  min time  |  avg time  |  max time  |%varavg| %total
---------------------------------------------------------------
Pair    | 0.55378    | 1.5326     | 2.0134     |  33.6 | 71.83
Neigh   | 0          | 0          | 0          |   0.0 |  0.00
Comm    | 0.030495   | 0.34867    | 1.0455     |  48.6 | 16.34
Output  | 0          | 0          | 0          |   0.0 |  0.00
Modify  | 2.2221e-05 | 0.0030035  | 0.0064261  |   2.6 |  0.14
Other   |            | 0.2493     |            |       | 11.69

Nlocal:        2776.45 ave        3960 max           0 min
Histogram: 8 4 4 0 4 12 8 4 26 34
Nghost:        3879.16 ave        5425 max         232 min
Histogram: 8 0 8 0 16 0 8 8 16 40
Neighs:        79213.2 ave      115460 max           0 min
Histogram: 8 4 4 0 10 6 8 8 24 32

Total # of neighbors = 8238173
Ave neighs/atom = 28.530370
Neighbor list builds = 0
Dangerous builds = 0
The dot product: -3.2320868729887e-08
Setting atom values ...
  1 settings made for x
  1 settings made for y
  1 settings made for z
Setting up cg style minimization ...
  Unit style    : metal
  Current step  : 28981
Per MPI rank memory allocation (min/avg/max) = 5.441 | 5.816 | 6.074 Mbytes
Step PotEng KinEng TotEng v_fx v_fy v_fz 
   28981     -1152449            0     -1152449 -0.0005444584 0.0022453542 -0.0024108169 
   29000     -1152449            0     -1152449 -0.00011266268 0.00016421278 -0.00012414716 
   29165     -1152449            0     -1152449 2.0524572e-05 2.6957797e-06 -1.8061068e-05 
Loop time of 2.13047 on 104 procs for 184 steps with 288751 atoms

99.9% CPU use with 104 MPI tasks x 1 OpenMP threads

Minimization stats:
  Stopping criterion = energy tolerance
  Energy initial, next-to-last, final = 
     -1152448.97021376  -1152448.97151368  -1152448.97151368
  Force two-norm initial, final = 0.16327036 0.00012087667
  Force max component initial, final = 0.09867984 2.9643063e-05
  Final line search alpha, max atom move = 1.0000000 2.9643063e-05
  Iterations, force evaluations = 184 368

MPI task timing breakdown:
Section |  min time  |  avg time  |  max time  |%varavg| %total
---------------------------------------------------------------
Pair    | 0.56068    | 1.5439     | 2.0138     |  33.6 | 72.47
Neigh   | 0          | 0          | 0          |   0.0 |  0.00
Comm    | 0.030299   | 0.34801    | 1.0697     |  49.7 | 16.34
Output  | 8.6636e-05 | 8.9725e-05 | 0.00018597 |   0.0 |  0.00
Modify  | 2.2633e-05 | 0.003051   | 0.0065405  |   2.6 |  0.14
Other   |            | 0.2355     |            |       | 11.05

Nlocal:        2776.45 ave        3960 max           0 min
Histogram: 8 4 4 0 4 12 8 4 26 34
Nghost:        3879.16 ave        5425 max         232 min
Histogram: 8 0 8 0 16 0 8 8 16 40
Neighs:        79213.2 ave      115457 max           0 min
Histogram: 8 4 4 0 10 6 8 8 24 32

Total # of neighbors = 8238171
Ave neighs/atom = 28.530364
Neighbor list builds = 0
Dangerous builds = 0
The dot product: -1.95650189125041e-08
Setting atom values ...
  1 settings made for x
  1 settings made for y
  1 settings made for z
Setting up cg style minimization ...
  Unit style    : metal
  Current step  : 29165
Per MPI rank memory allocation (min/avg/max) = 5.441 | 5.816 | 6.074 Mbytes
Step PotEng KinEng TotEng v_fx v_fy v_fz 
   29165   -1152448.9            0   -1152448.9 -0.0013996269 0.0017412921 -0.0011711632 
   29332   -1152448.9            0   -1152448.9 8.3364175e-05 2.5408666e-07 -5.9970629e-05 
Loop time of 1.93071 on 104 procs for 167 steps with 288751 atoms

99.9% CPU use with 104 MPI tasks x 1 OpenMP threads

Minimization stats:
  Stopping criterion = energy tolerance
  Energy initial, next-to-last, final = 
     -1152448.94248404  -1152448.94377811  -1152448.94377811
  Force two-norm initial, final = 0.16416333 0.00026433868
  Force max component initial, final = 0.09925792 8.3364175e-05
  Final line search alpha, max atom move = 1.0000000 8.3364175e-05
  Iterations, force evaluations = 167 334

MPI task timing breakdown:
Section |  min time  |  avg time  |  max time  |%varavg| %total
---------------------------------------------------------------
Pair    | 0.50846    | 1.3992     | 1.8305     |  31.9 | 72.47
Neigh   | 0          | 0          | 0          |   0.0 |  0.00
Comm    | 0.028069   | 0.31684    | 0.95531    |  46.9 | 16.41
Output  | 0          | 0          | 0          |   0.0 |  0.00
Modify  | 2.0541e-05 | 0.0027497  | 0.0058578  |   2.5 |  0.14
Other   |            | 0.2119     |            |       | 10.98

Nlocal:        2776.45 ave        3960 max           0 min
Histogram: 8 4 4 0 4 12 8 4 26 34
Nghost:        3879.09 ave        5425 max         232 min
Histogram: 8 0 8 0 16 0 8 8 16 40
Neighs:        79213.2 ave      115458 max           0 min
Histogram: 8 4 4 0 10 6 8 8 24 32

Total # of neighbors = 8238172
Ave neighs/atom = 28.530367
Neighbor list builds = 0
Dangerous builds = 0
The dot product: -1.05988929784552e-07
Setting atom values ...
  1 settings made for x
  1 settings made for y
  1 settings made for z
Setting up cg style minimization ...
  Unit style    : metal
  Current step  : 29332
Per MPI rank memory allocation (min/avg/max) = 5.441 | 5.816 | 6.074 Mbytes
Step PotEng KinEng TotEng v_fx v_fy v_fz 
   29332   -1152448.9            0   -1152448.9 -0.0020011264 0.0012951759 -0.00018574892 
   29514   -1152448.9            0   -1152448.9 6.2518619e-06 -1.2043496e-05 1.0560618e-05 
Loop time of 2.10363 on 104 procs for 182 steps with 288751 atoms

99.9% CPU use with 104 MPI tasks x 1 OpenMP threads

Minimization stats:
  Stopping criterion = energy tolerance
  Energy initial, next-to-last, final = 
     -1152448.91310097  -1152448.91439479  -1152448.91439479
  Force two-norm initial, final = 0.16519963 0.00013698725
  Force max component initial, final = 0.099756668 2.2759140e-05
  Final line search alpha, max atom move = 1.0000000 2.2759140e-05
  Iterations, force evaluations = 182 364

MPI task timing breakdown:
Section |  min time  |  avg time  |  max time  |%varavg| %total
---------------------------------------------------------------
Pair    | 0.5537     | 1.5285     | 1.9941     |  33.4 | 72.66
Neigh   | 0          | 0          | 0          |   0.0 |  0.00
Comm    | 0.030684   | 0.34453    | 1.05       |  49.4 | 16.38
Output  | 0          | 0          | 0          |   0.0 |  0.00
Modify  | 2.2323e-05 | 0.003003   | 0.0064207  |   2.6 |  0.14
Other   |            | 0.2276     |            |       | 10.82

Nlocal:        2776.45 ave        3960 max           0 min
Histogram: 8 4 4 0 4 12 8 4 26 34
Nghost:        3879.08 ave        5425 max         232 min
Histogram: 8 0 8 0 16 0 8 8 16 40
Neighs:        79213.2 ave      115460 max           0 min
Histogram: 8 4 4 0 10 6 8 8 24 32

Total # of neighbors = 8238170
Ave neighs/atom = 28.530360
Neighbor list builds = 0
Dangerous builds = 0
The dot product: -1.08838760656964e-08
