LAMMPS (29 Oct 2020)
OMP_NUM_THREADS environment is not set. Defaulting to 1 thread. (../comm.cpp:94)
  using 1 OpenMP thread(s) per MPI task
OMP_NUM_THREADS environment is not set. Defaulting to 1 thread. (../comm.cpp:94)
  using 1 OpenMP thread(s) per MPI task
Reading data file ...
  orthogonal box = (-122.39241 -121.13707 -37.090501) to (122.39241 121.13707 37.090501)
  13 by 4 by 2 MPI processor grid
  reading atoms ...
  288751 atoms
  read_data CPU = 0.417 seconds
199981 atoms in group inner
88770 atoms in group outer
1 atoms in group carbon
Neighbor list info ...
  update every 1 steps, delay 0 steps, check yes
  max neighbors/atom: 2000, page size: 100000
  master list distance cutoff = 5.6
  ghost atom cutoff = 5.6
  binsize = 2.8, bins = 88 87 27
  1 neighbor lists, perpetual/occasional/extra = 1 0 0
  (1) pair eam/alloy, perpetual
      attributes: half, newton on
      pair build: half/bin/atomonly/newton
      stencil: half/bin/3d/newton
      bin: standard
Setting up cg style minimization ...
  Unit style    : metal
  Current step  : 0
Per MPI rank memory allocation (min/avg/max) = 5.441 | 5.816 | 6.074 Mbytes
Step v_fx v_fy v_fz PotEng KinEng TotEng 
       0   0.14244177   -30.624138    51.263183     -1152433            0     -1152433 
     169 5.1930234e-06 7.2002533e-06 1.9448331e-05   -1152449.5            0   -1152449.5 
Loop time of 1.99551 on 104 procs for 169 steps with 288751 atoms

99.8% CPU use with 104 MPI tasks x 1 OpenMP threads

Minimization stats:
  Stopping criterion = energy tolerance
  Energy initial, next-to-last, final = 
     -1152433.01290117  -1152449.45035271  -1152449.45035271
  Force two-norm initial, final = 89.321280 0.00010521241
  Force max component initial, final = 58.305018 1.9448331e-05
  Final line search alpha, max atom move = 1.0000000 1.9448331e-05
  Iterations, force evaluations = 169 330

MPI task timing breakdown:
Section |  min time  |  avg time  |  max time  |%varavg| %total
---------------------------------------------------------------
Pair    | 0.52929    | 1.3978     | 1.8224     |  31.2 | 70.05
Neigh   | 5.1765e-05 | 0.014657   | 0.021201   |   5.0 |  0.73
Comm    | 0.034268   | 0.32431    | 0.95943    |  45.6 | 16.25
Output  | 0          | 0          | 0          |   0.0 |  0.00
Modify  | 1.8284e-05 | 0.001785   | 0.0045653  |   2.6 |  0.09
Other   |            | 0.2569     |            |       | 12.88

Nlocal:        2776.45 ave        3959 max           0 min
Histogram: 8 4 4 0 4 12 8 2 28 34
Nghost:        3879.01 ave        5424 max         232 min
Histogram: 8 0 8 0 16 0 8 8 16 40
Neighs:        79213.5 ave      115392 max           0 min
Histogram: 8 4 4 0 10 6 8 8 24 32

Total # of neighbors = 8238208
Ave neighs/atom = 28.530492
Neighbor list builds = 5
Dangerous builds = 0
Setting atom values ...
  1 settings made for x
  1 settings made for y
  1 settings made for z
Setting up cg style minimization ...
  Unit style    : metal
  Current step  : 169
Per MPI rank memory allocation (min/avg/max) = 5.441 | 5.816 | 6.074 Mbytes
Step PotEng KinEng TotEng v_fx v_fy v_fz 
     169   -1152449.4            0   -1152449.4 -0.0077670995 0.0064537786 0.0012394715 
     297   -1152449.5            0   -1152449.5 -9.1902315e-07 8.4617029e-06 2.4724737e-05 
Loop time of 1.5521 on 104 procs for 128 steps with 288751 atoms

99.8% CPU use with 104 MPI tasks x 1 OpenMP threads

Minimization stats:
  Stopping criterion = energy tolerance
  Energy initial, next-to-last, final = 
     -1152449.44945345  -1152449.45006285  -1152449.45006285
  Force two-norm initial, final = 0.11541445 0.00015085873
  Force max component initial, final = 0.051730677 2.9424000e-05
  Final line search alpha, max atom move = 1.0000000 2.9424000e-05
  Iterations, force evaluations = 128 256

MPI task timing breakdown:
Section |  min time  |  avg time  |  max time  |%varavg| %total
---------------------------------------------------------------
Pair    | 0.3913     | 1.0867     | 1.4419     |  28.2 | 70.01
Neigh   | 0          | 0          | 0          |   0.0 |  0.00
Comm    | 0.030427   | 0.25476    | 0.7402     |  40.2 | 16.41
Output  | 0          | 0          | 0          |   0.0 |  0.00
Modify  | 1.6956e-05 | 0.0021356  | 0.0045398  |   2.2 |  0.14
Other   |            | 0.2085     |            |       | 13.43

Nlocal:        2776.45 ave        3959 max           0 min
Histogram: 8 4 4 0 4 12 8 2 28 34
Nghost:        3879.01 ave        5424 max         232 min
Histogram: 8 0 8 0 16 0 8 8 16 40
Neighs:        79213.4 ave      115390 max           0 min
Histogram: 8 4 4 0 10 6 8 8 24 32

Total # of neighbors = 8238198
Ave neighs/atom = 28.530457
Neighbor list builds = 0
Dangerous builds = 0
Setting atom values ...
  1 settings made for x
  1 settings made for y
  1 settings made for z
Setting up cg style minimization ...
  Unit style    : metal
  Current step  : 297
Per MPI rank memory allocation (min/avg/max) = 5.441 | 5.816 | 6.074 Mbytes
Step PotEng KinEng TotEng v_fx v_fy v_fz 
     297   -1152449.4            0   -1152449.4 -0.018705795  0.018078482 0.0027004946 
     524   -1152449.4            0   -1152449.4 1.9525992e-07 1.0243383e-06 4.7345049e-06 
Loop time of 2.70817 on 104 procs for 227 steps with 288751 atoms

99.9% CPU use with 104 MPI tasks x 1 OpenMP threads

Minimization stats:
  Stopping criterion = energy tolerance
  Energy initial, next-to-last, final = 
     -1152449.44670604  -1152449.44838215  -1152449.44838215
  Force two-norm initial, final = 0.19212915 1.8296018e-05
  Force max component initial, final = 0.080040042 4.7345049e-06
  Final line search alpha, max atom move = 1.0000000 4.7345049e-06
  Iterations, force evaluations = 227 454

MPI task timing breakdown:
Section |  min time  |  avg time  |  max time  |%varavg| %total
---------------------------------------------------------------
Pair    | 0.69821    | 1.9125     | 2.5147     |  37.3 | 70.62
Neigh   | 0          | 0          | 0          |   0.0 |  0.00
Comm    | 0.046123   | 0.444      | 1.3127     |  53.7 | 16.39
Output  | 0          | 0          | 0          |   0.0 |  0.00
Modify  | 2.8064e-05 | 0.0037655  | 0.0080599  |   2.9 |  0.14
Other   |            | 0.3479     |            |       | 12.85

Nlocal:        2776.45 ave        3959 max           0 min
Histogram: 8 4 4 0 4 12 8 2 28 34
Nghost:        3879.01 ave        5426 max         232 min
Histogram: 8 0 8 0 16 0 8 8 16 40
Neighs:        79213.5 ave      115390 max           0 min
Histogram: 8 4 4 0 10 6 8 8 24 32

Total # of neighbors = 8238199
Ave neighs/atom = 28.530461
Neighbor list builds = 0
Dangerous builds = 0
The dot product: -5.72268058264394e-09
Setting atom values ...
  1 settings made for x
  1 settings made for y
  1 settings made for z
Setting up cg style minimization ...
  Unit style    : metal
  Current step  : 524
Per MPI rank memory allocation (min/avg/max) = 5.441 | 5.816 | 6.074 Mbytes
Step PotEng KinEng TotEng v_fx v_fy v_fz 
     524   -1152449.4            0   -1152449.4 -0.023594353   0.02676278 0.0027253693 
     644   -1152449.4            0   -1152449.4 9.2445904e-08 -2.4159284e-06 -1.1246737e-05 
Loop time of 1.40905 on 104 procs for 120 steps with 288751 atoms

99.9% CPU use with 104 MPI tasks x 1 OpenMP threads

Minimization stats:
  Stopping criterion = energy tolerance
  Energy initial, next-to-last, final = 
     -1152449.44354975  -1152449.44522674  -1152449.44522674
  Force two-norm initial, final = 0.19231042 0.00012197473
  Force max component initial, final = 0.076233634 1.1246737e-05
  Final line search alpha, max atom move = 1.0000000 1.1246737e-05
  Iterations, force evaluations = 120 240

MPI task timing breakdown:
Section |  min time  |  avg time  |  max time  |%varavg| %total
---------------------------------------------------------------
Pair    | 0.36935    | 1.0163     | 1.3218     |  27.1 | 72.13
Neigh   | 0          | 0          | 0          |   0.0 |  0.00
Comm    | 0.023061   | 0.23045    | 0.69266    |  39.9 | 16.36
Output  | 0          | 0          | 0          |   0.0 |  0.00
Modify  | 1.4686e-05 | 0.0019898  | 0.004266   |   2.1 |  0.14
Other   |            | 0.1603     |            |       | 11.38

Nlocal:        2776.45 ave        3958 max           0 min
Histogram: 8 4 4 0 4 12 8 2 28 34
Nghost:        3879.01 ave        5424 max         232 min
Histogram: 8 0 8 0 16 0 8 8 16 40
Neighs:        79213.5 ave      115353 max           0 min
Histogram: 8 4 4 0 10 6 8 8 24 32

Total # of neighbors = 8238201
Ave neighs/atom = 28.530467
Neighbor list builds = 0
Dangerous builds = 0
The dot product: 1.47533845460938e-08
Setting atom values ...
  1 settings made for x
  1 settings made for y
  1 settings made for z
Setting up cg style minimization ...
  Unit style    : metal
  Current step  : 644
Per MPI rank memory allocation (min/avg/max) = 5.441 | 5.816 | 6.074 Mbytes
Step PotEng KinEng TotEng v_fx v_fy v_fz 
     644   -1152449.4            0   -1152449.4 -0.025603023  0.033895345 0.0038568774 
     805   -1152449.4            0   -1152449.4 -2.0915654e-07 -4.7806381e-07 -4.6017361e-06 
Loop time of 1.93039 on 104 procs for 161 steps with 288751 atoms

99.9% CPU use with 104 MPI tasks x 1 OpenMP threads

Minimization stats:
  Stopping criterion = energy tolerance
  Energy initial, next-to-last, final = 
     -1152449.43890913  -1152449.44057812  -1152449.44057812
  Force two-norm initial, final = 0.1918831 2.2009970e-05
  Force max component initial, final = 0.073369078 5.4935825e-06
  Final line search alpha, max atom move = 1.0000000 5.4935825e-06
  Iterations, force evaluations = 161 322

MPI task timing breakdown:
Section |  min time  |  avg time  |  max time  |%varavg| %total
---------------------------------------------------------------
Pair    | 0.49448    | 1.3611     | 1.7938     |  31.6 | 70.51
Neigh   | 0          | 0          | 0          |   0.0 |  0.00
Comm    | 0.030955   | 0.31508    | 0.94016    |  45.1 | 16.32
Output  | 0          | 0          | 0          |   0.0 |  0.00
Modify  | 1.9107e-05 | 0.0026649  | 0.0056847  |   2.4 |  0.14
Other   |            | 0.2515     |            |       | 13.03

Nlocal:        2776.45 ave        3958 max           0 min
Histogram: 8 4 4 0 4 12 8 2 28 34
Nghost:        3879.01 ave        5425 max         232 min
Histogram: 8 0 8 0 16 0 8 8 16 40
Neighs:        79213.5 ave      115353 max           0 min
Histogram: 8 4 4 0 10 6 8 8 24 32

Total # of neighbors = 8238201
Ave neighs/atom = 28.530467
Neighbor list builds = 0
Dangerous builds = 0
The dot product: 8.27513265045677e-09
Setting atom values ...
  1 settings made for x
  1 settings made for y
  1 settings made for z
Setting up cg style minimization ...
  Unit style    : metal
  Current step  : 805
Per MPI rank memory allocation (min/avg/max) = 5.441 | 5.816 | 6.074 Mbytes
Step PotEng KinEng TotEng v_fx v_fy v_fz 
     805   -1152449.4            0   -1152449.4 -0.025935412  0.039448114 0.0060583994 
     916   -1152449.4            0   -1152449.4 -3.1436479e-07 -4.9666472e-06 -4.275796e-05 
Loop time of 1.32624 on 104 procs for 111 steps with 288751 atoms

99.9% CPU use with 104 MPI tasks x 1 OpenMP threads

Minimization stats:
  Stopping criterion = energy tolerance
  Energy initial, next-to-last, final = 
     -1152449.43275201  -1152449.43440565  -1152449.43440565
  Force two-norm initial, final = 0.19098584 0.00021014689
  Force max component initial, final = 0.07373277 4.2757960e-05
  Final line search alpha, max atom move = 1.0000000 4.2757960e-05
  Iterations, force evaluations = 111 222

MPI task timing breakdown:
Section |  min time  |  avg time  |  max time  |%varavg| %total
---------------------------------------------------------------
Pair    | 0.33903    | 0.93987    | 1.2327     |  26.2 | 70.87
Neigh   | 0          | 0          | 0          |   0.0 |  0.00
Comm    | 0.021967   | 0.2163     | 0.64375    |  37.8 | 16.31
Output  | 0          | 0          | 0          |   0.0 |  0.00
Modify  | 1.3686e-05 | 0.0018431  | 0.0039237  |   2.0 |  0.14
Other   |            | 0.1682     |            |       | 12.68

Nlocal:        2776.45 ave        3958 max           0 min
Histogram: 8 4 4 0 4 12 8 2 28 34
Nghost:        3879.01 ave        5426 max         232 min
Histogram: 8 0 8 0 16 0 8 8 16 40
Neighs:        79213.5 ave      115353 max           0 min
Histogram: 8 4 4 0 10 6 8 8 24 32

Total # of neighbors = 8238200
Ave neighs/atom = 28.530464
Neighbor list builds = 0
Dangerous builds = 0
The dot product: 6.08560778959057e-08
Setting atom values ...
  1 settings made for x
  1 settings made for y
  1 settings made for z
Setting up cg style minimization ...
  Unit style    : metal
  Current step  : 916
Per MPI rank memory allocation (min/avg/max) = 5.441 | 5.816 | 6.074 Mbytes
Step PotEng KinEng TotEng v_fx v_fy v_fz 
     916   -1152449.4            0   -1152449.4 -0.025539784  0.043945308 0.0089745728 
    1000   -1152449.4            0   -1152449.4 2.9522341e-06 7.2232385e-06 0.00012392019 
    1030   -1152449.4            0   -1152449.4 2.2783531e-06 -1.4129618e-06 2.466528e-05 
Loop time of 1.33338 on 104 procs for 114 steps with 288751 atoms

99.9% CPU use with 104 MPI tasks x 1 OpenMP threads

Minimization stats:
  Stopping criterion = energy tolerance
  Energy initial, next-to-last, final = 
      -1152449.4250434   -1152449.4266789   -1152449.4266789
  Force two-norm initial, final = 0.18985578 0.00020014002
  Force max component initial, final = 0.073382458 3.8451460e-05
  Final line search alpha, max atom move = 1.0000000 3.8451460e-05
  Iterations, force evaluations = 114 228

MPI task timing breakdown:
Section |  min time  |  avg time  |  max time  |%varavg| %total
---------------------------------------------------------------
Pair    | 0.35052    | 0.95931    | 1.25       |  26.4 | 71.95
Neigh   | 0          | 0          | 0          |   0.0 |  0.00
Comm    | 0.023448   | 0.21839    | 0.65633    |  38.6 | 16.38
Output  | 0.00023443 | 0.00024516 | 0.00037002 |   0.0 |  0.02
Modify  | 1.4835e-05 | 0.0018913  | 0.004008   |   2.0 |  0.14
Other   |            | 0.1535     |            |       | 11.52

Nlocal:        2776.45 ave        3957 max           0 min
Histogram: 8 4 4 0 4 12 8 2 28 34
Nghost:        3879.01 ave        5427 max         232 min
Histogram: 8 0 8 0 16 0 8 8 16 40
Neighs:        79213.5 ave      115314 max           0 min
Histogram: 8 4 4 0 10 6 8 8 24 32

Total # of neighbors = 8238202
Ave neighs/atom = 28.530471
Neighbor list builds = 0
Dangerous builds = 0
The dot product: -5.19913998573186e-08
Setting atom values ...
  1 settings made for x
  1 settings made for y
  1 settings made for z
Setting up cg style minimization ...
  Unit style    : metal
  Current step  : 1030
Per MPI rank memory allocation (min/avg/max) = 5.441 | 5.816 | 6.074 Mbytes
Step PotEng KinEng TotEng v_fx v_fy v_fz 
    1030   -1152449.4            0   -1152449.4 -0.024909292  0.047957887  0.012545141 
    1146   -1152449.4            0   -1152449.4 4.5869785e-06 -7.1450972e-06 1.9559783e-05 
Loop time of 1.36903 on 104 procs for 116 steps with 288751 atoms

99.9% CPU use with 104 MPI tasks x 1 OpenMP threads

Minimization stats:
  Stopping criterion = energy tolerance
  Energy initial, next-to-last, final = 
     -1152449.41575768  -1152449.41737471  -1152449.41737471
  Force two-norm initial, final = 0.18873491 0.00018695881
  Force max component initial, final = 0.072550445 2.1795403e-05
  Final line search alpha, max atom move = 1.0000000 2.1795403e-05
  Iterations, force evaluations = 116 232

MPI task timing breakdown:
Section |  min time  |  avg time  |  max time  |%varavg| %total
---------------------------------------------------------------
Pair    | 0.35668    | 0.9801     | 1.2832     |  26.6 | 71.59
Neigh   | 0          | 0          | 0          |   0.0 |  0.00
Comm    | 0.022548   | 0.2244     | 0.67387    |  39.1 | 16.39
Output  | 0          | 0          | 0          |   0.0 |  0.00
Modify  | 1.4045e-05 | 0.0019245  | 0.0041439  |   2.1 |  0.14
Other   |            | 0.1626     |            |       | 11.88

Nlocal:        2776.45 ave        3955 max           0 min
Histogram: 8 4 4 0 4 12 8 0 30 34
Nghost:        3879.01 ave        5427 max         232 min
Histogram: 8 0 8 0 16 0 8 8 16 40
Neighs:        79213.5 ave      115250 max           0 min
Histogram: 8 4 4 0 10 6 8 8 24 32

Total # of neighbors = 8238201
Ave neighs/atom = 28.530467
Neighbor list builds = 0
Dangerous builds = 0
The dot product: -7.0737387131459e-08
Setting atom values ...
  1 settings made for x
  1 settings made for y
  1 settings made for z
Setting up cg style minimization ...
  Unit style    : metal
  Current step  : 1146
Per MPI rank memory allocation (min/avg/max) = 5.441 | 5.816 | 6.074 Mbytes
Step PotEng KinEng TotEng v_fx v_fy v_fz 
    1146   -1152449.4            0   -1152449.4 -0.024298289  0.052059218  0.016629135 
    1279   -1152449.4            0   -1152449.4 -7.5694148e-07 1.3750181e-07 -2.2775736e-05 
Loop time of 1.57193 on 104 procs for 133 steps with 288751 atoms

99.9% CPU use with 104 MPI tasks x 1 OpenMP threads

Minimization stats:
  Stopping criterion = energy tolerance
  Energy initial, next-to-last, final = 
     -1152449.40488117  -1152449.40648202  -1152449.40648202
  Force two-norm initial, final = 0.1877381 9.3980804e-05
  Force max component initial, final = 0.071109696 2.2775736e-05
  Final line search alpha, max atom move = 1.0000000 2.2775736e-05
  Iterations, force evaluations = 133 266

MPI task timing breakdown:
Section |  min time  |  avg time  |  max time  |%varavg| %total
---------------------------------------------------------------
Pair    | 0.4061     | 1.1194     | 1.4653     |  28.5 | 71.21
Neigh   | 0          | 0          | 0          |   0.0 |  0.00
Comm    | 0.027087   | 0.25704    | 0.76648    |  41.6 | 16.35
Output  | 0          | 0          | 0          |   0.0 |  0.00
Modify  | 1.5979e-05 | 0.0022001  | 0.0046963  |   2.2 |  0.14
Other   |            | 0.1933     |            |       | 12.30

Nlocal:        2776.45 ave        3954 max           0 min
Histogram: 8 4 4 0 4 12 8 0 30 34
Nghost:        3878.99 ave        5426 max         232 min
Histogram: 8 0 8 0 16 0 8 8 16 40
Neighs:        79213.5 ave      115223 max           0 min
Histogram: 8 4 4 0 10 6 8 8 24 32

Total # of neighbors = 8238200
Ave neighs/atom = 28.530464
Neighbor list builds = 0
Dangerous builds = 0
The dot product: 1.58933084822489e-08
Setting atom values ...
  1 settings made for x
  1 settings made for y
  1 settings made for z
Setting up cg style minimization ...
  Unit style    : metal
  Current step  : 1279
Per MPI rank memory allocation (min/avg/max) = 5.441 | 5.816 | 6.074 Mbytes
Step PotEng KinEng TotEng v_fx v_fy v_fz 
    1279   -1152449.4            0   -1152449.4 -0.023821358  0.056920349  0.021453955 
    1400   -1152449.4            0   -1152449.4 4.812734e-06 -1.3250821e-05 -3.3514296e-05 
Loop time of 1.4253 on 104 procs for 121 steps with 288751 atoms

99.9% CPU use with 104 MPI tasks x 1 OpenMP threads

Minimization stats:
  Stopping criterion = energy tolerance
  Energy initial, next-to-last, final = 
     -1152449.39241358  -1152449.39400758  -1152449.39400758
  Force two-norm initial, final = 0.18714645 0.00015684388
  Force max component initial, final = 0.06906668 3.3774823e-05
  Final line search alpha, max atom move = 1.0000000 3.3774823e-05
  Iterations, force evaluations = 121 242

MPI task timing breakdown:
Section |  min time  |  avg time  |  max time  |%varavg| %total
---------------------------------------------------------------
Pair    | 0.37604    | 1.0266     | 1.3341     |  27.1 | 72.02
Neigh   | 0          | 0          | 0          |   0.0 |  0.00
Comm    | 0.02251    | 0.23436    | 0.70447    |  40.0 | 16.44
Output  | 0          | 0          | 0          |   0.0 |  0.00
Modify  | 1.4641e-05 | 0.0020055  | 0.0042965  |   2.1 |  0.14
Other   |            | 0.1624     |            |       | 11.39

Nlocal:        2776.45 ave        3954 max           0 min
Histogram: 8 4 4 0 4 12 8 1 29 34
Nghost:        3878.99 ave        5425 max         232 min
Histogram: 8 0 8 0 16 0 8 8 16 40
Neighs:        79213.4 ave      115223 max           0 min
Histogram: 8 4 4 0 10 6 8 8 24 32

Total # of neighbors = 8238198
Ave neighs/atom = 28.530457
Neighbor list builds = 0
Dangerous builds = 0
The dot product: -1.0389193261919e-07
Setting atom values ...
  1 settings made for x
  1 settings made for y
  1 settings made for z
Setting up cg style minimization ...
  Unit style    : metal
  Current step  : 1400
Per MPI rank memory allocation (min/avg/max) = 5.441 | 5.816 | 6.074 Mbytes
Step PotEng KinEng TotEng v_fx v_fy v_fz 
    1400   -1152449.4            0   -1152449.4 -0.023447857  0.063308939  0.027429861 
    1573   -1152449.4            0   -1152449.4 5.1392576e-07 -1.5699092e-06 -3.2257523e-06 
Loop time of 2.06139 on 104 procs for 173 steps with 288751 atoms

99.9% CPU use with 104 MPI tasks x 1 OpenMP threads

Minimization stats:
  Stopping criterion = energy tolerance
  Energy initial, next-to-last, final = 
     -1152449.37838086  -1152449.37998996  -1152449.37998996
  Force two-norm initial, final = 0.18734245 2.0767595e-05
  Force max component initial, final = 0.066259835 3.4585290e-06
  Final line search alpha, max atom move = 1.0000000 3.4585290e-06
  Iterations, force evaluations = 173 346

MPI task timing breakdown:
Section |  min time  |  avg time  |  max time  |%varavg| %total
---------------------------------------------------------------
Pair    | 0.52897    | 1.4593     | 1.9165     |  32.7 | 70.79
Neigh   | 0          | 0          | 0          |   0.0 |  0.00
Comm    | 0.031131   | 0.33874    | 1.0014     |  47.3 | 16.43
Output  | 0          | 0          | 0          |   0.0 |  0.00
Modify  | 2.0525e-05 | 0.0028653  | 0.006086   |   2.5 |  0.14
Other   |            | 0.2604     |            |       | 12.63

Nlocal:        2776.45 ave        3954 max           0 min
Histogram: 8 4 4 0 4 12 8 2 28 34
Nghost:        3878.99 ave        5425 max         232 min
Histogram: 8 0 8 0 16 0 8 8 16 40
Neighs:        79213.4 ave      115223 max           0 min
Histogram: 8 4 4 0 10 6 8 8 24 32

Total # of neighbors = 8238198
Ave neighs/atom = 28.530457
Neighbor list builds = 0
Dangerous builds = 0
The dot product: -1.83874943570209e-08
Setting atom values ...
  1 settings made for x
  1 settings made for y
  1 settings made for z
Setting up cg style minimization ...
  Unit style    : metal
  Current step  : 1573
Per MPI rank memory allocation (min/avg/max) = 5.441 | 5.816 | 6.074 Mbytes
Step PotEng KinEng TotEng v_fx v_fy v_fz 
    1573   -1152449.4            0   -1152449.4 -0.023606466  0.074686183  0.038000886 
    1690   -1152449.4            0   -1152449.4 1.4593314e-06 -6.4626127e-06 -2.0451984e-05 
Loop time of 1.39013 on 104 procs for 117 steps with 288751 atoms

99.9% CPU use with 104 MPI tasks x 1 OpenMP threads

Minimization stats:
  Stopping criterion = energy tolerance
  Energy initial, next-to-last, final = 
      -1152449.3628691  -1152449.36461531  -1152449.36461531
  Force two-norm initial, final = 0.19052081 0.00018948541
  Force max component initial, final = 0.074686183 2.3158654e-05
  Final line search alpha, max atom move = 1.0000000 2.3158654e-05
  Iterations, force evaluations = 117 234

MPI task timing breakdown:
Section |  min time  |  avg time  |  max time  |%varavg| %total
---------------------------------------------------------------
Pair    | 0.35737    | 0.98722    | 1.3049     |  26.8 | 71.02
Neigh   | 0          | 0          | 0          |   0.0 |  0.00
Comm    | 0.022141   | 0.22862    | 0.67574    |  38.9 | 16.45
Output  | 0          | 0          | 0          |   0.0 |  0.00
Modify  | 1.4164e-05 | 0.0019399  | 0.0041451  |   2.1 |  0.14
Other   |            | 0.1723     |            |       | 12.40

Nlocal:        2776.45 ave        3953 max           0 min
Histogram: 8 4 4 0 4 12 8 2 28 34
Nghost:        3878.99 ave        5425 max         232 min
Histogram: 8 0 8 0 16 0 8 8 16 40
Neighs:        79213.4 ave      115193 max           0 min
Histogram: 8 4 4 0 10 6 8 8 24 32

Total # of neighbors = 8238197
Ave neighs/atom = 28.530454
Neighbor list builds = 0
Dangerous builds = 0
The dot product: -1.98824854948271e-07
Setting atom values ...
  1 settings made for x
  1 settings made for y
  1 settings made for z
Setting up cg style minimization ...
  Unit style    : metal
  Current step  : 1690
Per MPI rank memory allocation (min/avg/max) = 5.441 | 5.816 | 6.074 Mbytes
Step PotEng KinEng TotEng v_fx v_fy v_fz 
    1690   -1152449.3            0   -1152449.3 -0.023557552   0.10251065   0.06260552 
    1852   -1152449.4            0   -1152449.4 3.7487945e-06 -8.7872655e-06 2.3498824e-05 
Loop time of 1.90032 on 104 procs for 162 steps with 288751 atoms

99.9% CPU use with 104 MPI tasks x 1 OpenMP threads

Minimization stats:
  Stopping criterion = energy tolerance
  Energy initial, next-to-last, final = 
      -1152449.3463601  -1152449.35089075  -1152449.35089075
  Force two-norm initial, final = 0.20592962 0.00020279605
  Force max component initial, final = 0.10251065 2.3498824e-05
  Final line search alpha, max atom move = 1.0000000 2.3498824e-05
  Iterations, force evaluations = 162 324

MPI task timing breakdown:
Section |  min time  |  avg time  |  max time  |%varavg| %total
---------------------------------------------------------------
Pair    | 0.49621    | 1.3604     | 1.781      |  31.4 | 71.59
Neigh   | 0          | 0          | 0          |   0.0 |  0.00
Comm    | 0.03491    | 0.31263    | 0.93065    |  45.7 | 16.45
Output  | 0          | 0          | 0          |   0.0 |  0.00
Modify  | 2.0424e-05 | 0.0026808  | 0.0057389  |   2.4 |  0.14
Other   |            | 0.2246     |            |       | 11.82

Nlocal:        2776.45 ave        3954 max           0 min
Histogram: 8 4 4 0 4 12 8 2 28 34
Nghost:        3878.99 ave        5428 max         232 min
Histogram: 8 0 8 0 16 0 8 8 16 40
Neighs:        79213.4 ave      115234 max           0 min
Histogram: 8 4 4 0 10 6 8 8 24 32

Total # of neighbors = 8238192
Ave neighs/atom = 28.530436
Neighbor list builds = 0
Dangerous builds = 0
The dot product: 4.1148482953253e-07
Setting atom values ...
  1 settings made for x
  1 settings made for y
  1 settings made for z
Setting up cg style minimization ...
  Unit style    : metal
  Current step  : 1852
Per MPI rank memory allocation (min/avg/max) = 5.441 | 5.816 | 6.074 Mbytes
Step PotEng KinEng TotEng v_fx v_fy v_fz 
    1852   -1152449.3            0   -1152449.3   0.02376511   0.21797437    0.1388239 
    2000   -1152449.3            0   -1152449.3 -4.6471401e-05 0.0001533733 -0.00018781563 
    2067   -1152449.3            0   -1152449.3 -6.8044349e-06 -2.0810374e-05 -3.3744545e-05 
Loop time of 2.52476 on 104 procs for 215 steps with 288751 atoms

99.9% CPU use with 104 MPI tasks x 1 OpenMP threads

Minimization stats:
  Stopping criterion = energy tolerance
  Energy initial, next-to-last, final = 
     -1152449.33555282   -1152449.3459216   -1152449.3459216
  Force two-norm initial, final = 0.29929355 0.00015437825
  Force max component initial, final = 0.21797437 3.6178346e-05
  Final line search alpha, max atom move = 1.0000000 3.6178346e-05
  Iterations, force evaluations = 215 430

MPI task timing breakdown:
Section |  min time  |  avg time  |  max time  |%varavg| %total
---------------------------------------------------------------
Pair    | 0.6593     | 1.8121     | 2.3688     |  36.2 | 71.77
Neigh   | 1.0148e-05 | 0.0029287  | 0.004277   |   2.2 |  0.12
Comm    | 0.042873   | 0.41382    | 1.2375     |  53.0 | 16.39
Output  | 0.00023803 | 0.00024175 | 0.00038616 |   0.0 |  0.01
Modify  | 2.565e-05  | 0.0035526  | 0.0075685  |   2.8 |  0.14
Other   |            | 0.2921     |            |       | 11.57

Nlocal:        2776.45 ave        3956 max           0 min
Histogram: 8 4 4 0 4 12 8 2 28 34
Nghost:        3879.03 ave        5427 max         232 min
Histogram: 8 0 8 0 16 0 8 8 16 40
Neighs:        79213.4 ave      115337 max           0 min
Histogram: 8 4 4 0 10 6 8 8 24 32

Total # of neighbors = 8238196
Ave neighs/atom = 28.530450
Neighbor list builds = 1
Dangerous builds = 0
The dot product: -2.63963057056602e-06
Setting atom values ...
  1 settings made for x
  1 settings made for y
  1 settings made for z
Setting up cg style minimization ...
  Unit style    : metal
  Current step  : 2067
Per MPI rank memory allocation (min/avg/max) = 5.441 | 5.816 | 6.074 Mbytes
Step PotEng KinEng TotEng v_fx v_fy v_fz 
    2067   -1152449.3            0   -1152449.3  0.070475254   0.17552614  0.080048275 
    2331   -1152449.3            0   -1152449.3 -1.0438501e-05 -1.0897974e-05 -2.1380164e-05 
Loop time of 3.10345 on 104 procs for 264 steps with 288751 atoms

99.9% CPU use with 104 MPI tasks x 1 OpenMP threads

Minimization stats:
  Stopping criterion = energy tolerance
  Energy initial, next-to-last, final = 
      -1152449.3332845   -1152449.3446831   -1152449.3446831
  Force two-norm initial, final = 0.24751898 8.7974420e-05
  Force max component initial, final = 0.17552614 2.1380164e-05
  Final line search alpha, max atom move = 1.0000000 2.1380164e-05
  Iterations, force evaluations = 264 528

MPI task timing breakdown:
Section |  min time  |  avg time  |  max time  |%varavg| %total
---------------------------------------------------------------
Pair    | 0.80718    | 2.2157     | 2.9129     |  40.1 | 71.39
Neigh   | 1.085e-05  | 0.0029392  | 0.0043103  |   2.2 |  0.09
Comm    | 0.05018    | 0.50853    | 1.5172     |  58.4 | 16.39
Output  | 0          | 0          | 0          |   0.0 |  0.00
Modify  | 3.1397e-05 | 0.0043596  | 0.0093233  |   3.1 |  0.14
Other   |            | 0.372      |            |       | 11.99

Nlocal:        2776.45 ave        3960 max           0 min
Histogram: 8 4 4 0 4 12 8 2 28 34
Nghost:        3879.05 ave        5424 max         232 min
Histogram: 8 0 8 0 16 0 8 8 16 40
Neighs:        79213.3 ave      115434 max           0 min
Histogram: 8 4 4 0 10 6 8 8 24 32

Total # of neighbors = 8238188
Ave neighs/atom = 28.530422
Neighbor list builds = 1
Dangerous builds = 0
The dot product: -2.42554571138959e-06
Setting atom values ...
  1 settings made for x
  1 settings made for y
  1 settings made for z
Setting up cg style minimization ...
  Unit style    : metal
  Current step  : 2331
Per MPI rank memory allocation (min/avg/max) = 5.441 | 5.816 | 6.074 Mbytes
Step PotEng KinEng TotEng v_fx v_fy v_fz 
    2331   -1152449.3            0   -1152449.3 -0.049993431 -0.030022519 -0.047968979 
    2450   -1152449.3            0   -1152449.3 3.7287524e-05 -8.5959923e-06 6.0192679e-05 
Loop time of 1.42458 on 104 procs for 119 steps with 288751 atoms

99.9% CPU use with 104 MPI tasks x 1 OpenMP threads

Minimization stats:
  Stopping criterion = energy tolerance
  Energy initial, next-to-last, final = 
     -1152449.34687974   -1152449.3481886   -1152449.3481886
  Force two-norm initial, final = 0.14641992 0.00019925142
  Force max component initial, final = 0.049993431 6.0192679e-05
  Final line search alpha, max atom move = 1.0000000 6.0192679e-05
  Iterations, force evaluations = 119 238

MPI task timing breakdown:
Section |  min time  |  avg time  |  max time  |%varavg| %total
---------------------------------------------------------------
Pair    | 0.36592    | 1.006      | 1.3052     |  27.0 | 70.62
Neigh   | 0          | 0          | 0          |   0.0 |  0.00
Comm    | 0.022311   | 0.23005    | 0.68557    |  39.8 | 16.15
Output  | 0          | 0          | 0          |   0.0 |  0.00
Modify  | 1.4517e-05 | 0.0019737  | 0.0041795  |   2.1 |  0.14
Other   |            | 0.1866     |            |       | 13.10

Nlocal:        2776.45 ave        3959 max           0 min
Histogram: 8 4 4 0 4 12 8 2 28 34
Nghost:        3879.03 ave        5424 max         232 min
Histogram: 8 0 8 0 16 0 8 8 16 40
Neighs:        79213.4 ave      115400 max           0 min
Histogram: 8 4 4 0 10 6 8 8 24 32

Total # of neighbors = 8238192
Ave neighs/atom = 28.530436
Neighbor list builds = 0
Dangerous builds = 0
The dot product: -5.02568738330492e-07
Setting atom values ...
  1 settings made for x
  1 settings made for y
  1 settings made for z
Setting up cg style minimization ...
  Unit style    : metal
  Current step  : 2450
Per MPI rank memory allocation (min/avg/max) = 5.441 | 5.816 | 6.074 Mbytes
Step PotEng KinEng TotEng v_fx v_fy v_fz 
    2450   -1152449.3            0   -1152449.3 -0.006640699 0.0096208108 -0.017472976 
    2608   -1152449.4            0   -1152449.4 -1.9771595e-05 -2.0374359e-05 -1.4349303e-05 
Loop time of 1.84839 on 104 procs for 158 steps with 288751 atoms

99.9% CPU use with 104 MPI tasks x 1 OpenMP threads

Minimization stats:
  Stopping criterion = energy tolerance
  Energy initial, next-to-last, final = 
     -1152449.34955097  -1152449.35045693  -1152449.35045693
  Force two-norm initial, final = 0.12491217 0.00020558332
  Force max component initial, final = 0.04766975 2.0374359e-05
  Final line search alpha, max atom move = 1.0000000 2.0374359e-05
  Iterations, force evaluations = 158 316

MPI task timing breakdown:
Section |  min time  |  avg time  |  max time  |%varavg| %total
---------------------------------------------------------------
Pair    | 0.48338    | 1.3245     | 1.7348     |  31.0 | 71.66
Neigh   | 0          | 0          | 0          |   0.0 |  0.00
Comm    | 0.030283   | 0.30308    | 0.90953    |  45.3 | 16.40
Output  | 0          | 0          | 0          |   0.0 |  0.00
Modify  | 1.9041e-05 | 0.0026114  | 0.0055952  |   2.4 |  0.14
Other   |            | 0.2182     |            |       | 11.81

Nlocal:        2776.45 ave        3958 max           0 min
Histogram: 8 4 4 0 4 12 8 2 28 34
Nghost:        3879.07 ave        5424 max         232 min
Histogram: 8 0 8 0 16 0 8 8 16 40
Neighs:        79213.4 ave      115359 max           0 min
Histogram: 8 4 4 0 10 6 8 8 24 32

Total # of neighbors = 8238193
Ave neighs/atom = 28.530440
Neighbor list builds = 0
Dangerous builds = 0
The dot product: -2.49819865761144e-08
Setting atom values ...
  1 settings made for x
  1 settings made for y
  1 settings made for z
Setting up cg style minimization ...
  Unit style    : metal
  Current step  : 2608
Per MPI rank memory allocation (min/avg/max) = 5.441 | 5.816 | 6.074 Mbytes
Step PotEng KinEng TotEng v_fx v_fy v_fz 
    2608   -1152449.4            0   -1152449.4 -0.010250709  0.006289488 -0.020397231 
    2805   -1152449.4            0   -1152449.4 1.5912256e-05 7.7597122e-06 1.8113749e-05 
Loop time of 2.32408 on 104 procs for 197 steps with 288751 atoms

99.9% CPU use with 104 MPI tasks x 1 OpenMP threads

Minimization stats:
  Stopping criterion = energy tolerance
  Energy initial, next-to-last, final = 
      -1152449.3506087  -1152449.35151109  -1152449.35151109
  Force two-norm initial, final = 0.12559926 8.3120869e-05
  Force max component initial, final = 0.047079709 1.8113749e-05
  Final line search alpha, max atom move = 1.0000000 1.8113749e-05
  Iterations, force evaluations = 197 394

MPI task timing breakdown:
Section |  min time  |  avg time  |  max time  |%varavg| %total
---------------------------------------------------------------
Pair    | 0.60254    | 1.6655     | 2.1821     |  34.8 | 71.66
Neigh   | 0          | 0          | 0          |   0.0 |  0.00
Comm    | 0.035709   | 0.38171    | 1.1425     |  50.9 | 16.42
Output  | 0          | 0          | 0          |   0.0 |  0.00
Modify  | 2.3816e-05 | 0.0032606  | 0.0069486  |   2.7 |  0.14
Other   |            | 0.2736     |            |       | 11.77

Nlocal:        2776.45 ave        3958 max           0 min
Histogram: 8 4 4 0 4 12 8 2 28 34
Nghost:        3879.07 ave        5424 max         232 min
Histogram: 8 0 8 0 16 0 8 8 16 40
Neighs:        79213.4 ave      115369 max           0 min
Histogram: 8 4 4 0 10 6 8 8 24 32

Total # of neighbors = 8238189
Ave neighs/atom = 28.530426
Neighbor list builds = 0
Dangerous builds = 0
The dot product: -8.61064061143736e-09
Setting atom values ...
  1 settings made for x
  1 settings made for y
  1 settings made for z
Setting up cg style minimization ...
  Unit style    : metal
  Current step  : 2805
Per MPI rank memory allocation (min/avg/max) = 5.441 | 5.816 | 6.074 Mbytes
Step PotEng KinEng TotEng v_fx v_fy v_fz 
    2805   -1152449.4            0   -1152449.4 -0.0094663706 0.0065727645 -0.019489395 
    2980   -1152449.4            0   -1152449.4 4.5260966e-05 2.7080099e-05 4.776602e-05 
Loop time of 2.06157 on 104 procs for 175 steps with 288751 atoms

99.9% CPU use with 104 MPI tasks x 1 OpenMP threads

Minimization stats:
  Stopping criterion = energy tolerance
  Energy initial, next-to-last, final = 
     -1152449.35035507  -1152449.35125037  -1152449.35125037
  Force two-norm initial, final = 0.12514836 0.00018317432
  Force max component initial, final = 0.046473643 5.2885382e-05
  Final line search alpha, max atom move = 1.0000000 5.2885382e-05
  Iterations, force evaluations = 175 350

MPI task timing breakdown:
Section |  min time  |  avg time  |  max time  |%varavg| %total
---------------------------------------------------------------
Pair    | 0.54245    | 1.4732     | 1.935      |  32.6 | 71.46
Neigh   | 0          | 0          | 0          |   0.0 |  0.00
Comm    | 0.032509   | 0.33908    | 1.0138     |  47.8 | 16.45
Output  | 0          | 0          | 0          |   0.0 |  0.00
Modify  | 2.1529e-05 | 0.0028985  | 0.0062203  |   2.5 |  0.14
Other   |            | 0.2464     |            |       | 11.95

Nlocal:        2776.45 ave        3959 max           0 min
Histogram: 8 4 4 0 4 12 8 2 28 34
Nghost:        3878.99 ave        5424 max         232 min
Histogram: 8 0 8 0 16 0 8 8 16 40
Neighs:        79213.4 ave      115403 max           0 min
Histogram: 8 4 4 0 10 6 8 8 24 32

Total # of neighbors = 8238191
Ave neighs/atom = 28.530433
Neighbor list builds = 0
Dangerous builds = 0
The dot product: -1.83776677349765e-08
Setting atom values ...
  1 settings made for x
  1 settings made for y
  1 settings made for z
Setting up cg style minimization ...
  Unit style    : metal
  Current step  : 2980
Per MPI rank memory allocation (min/avg/max) = 5.441 | 5.816 | 6.074 Mbytes
Step PotEng KinEng TotEng v_fx v_fy v_fz 
    2980   -1152449.3            0   -1152449.3 -0.0085207524 0.0064823543 -0.018040135 
    3000   -1152449.3            0   -1152449.3 0.00054921945 0.00042388544 0.00050645203 
    3152   -1152449.3            0   -1152449.3 3.5436442e-05 3.5858191e-05 2.6042264e-05 
Loop time of 2.03253 on 104 procs for 172 steps with 288751 atoms

99.9% CPU use with 104 MPI tasks x 1 OpenMP threads

Minimization stats:
  Stopping criterion = energy tolerance
  Energy initial, next-to-last, final = 
     -1152449.34875778  -1152449.34964104  -1152449.34964104
  Force two-norm initial, final = 0.12422881 0.0001980336
  Force max component initial, final = 0.045818795 4.1642004e-05
  Final line search alpha, max atom move = 1.0000000 4.1642004e-05
  Iterations, force evaluations = 172 344

MPI task timing breakdown:
Section |  min time  |  avg time  |  max time  |%varavg| %total
---------------------------------------------------------------
Pair    | 0.53041    | 1.4556     | 1.9041     |  32.3 | 71.61
Neigh   | 0          | 0          | 0          |   0.0 |  0.00
Comm    | 0.032824   | 0.33301    | 0.99702    |  47.4 | 16.38
Output  | 0.00027218 | 0.00028384 | 0.00036485 |   0.0 |  0.01
Modify  | 2.0985e-05 | 0.002847   | 0.0061004  |   2.5 |  0.14
Other   |            | 0.2408     |            |       | 11.85

Nlocal:        2776.45 ave        3959 max           0 min
Histogram: 8 4 4 0 4 12 8 2 28 34
Nghost:        3879.01 ave        5424 max         232 min
Histogram: 8 0 8 0 16 0 8 8 16 40
Neighs:        79213.4 ave      115403 max           0 min
Histogram: 8 4 4 0 10 6 8 8 24 32

Total # of neighbors = 8238191
Ave neighs/atom = 28.530433
Neighbor list builds = 0
Dangerous builds = 0
The dot product: -1.05495255690716e-09
Setting atom values ...
  1 settings made for x
  1 settings made for y
  1 settings made for z
Setting up cg style minimization ...
  Unit style    : metal
  Current step  : 3152
Per MPI rank memory allocation (min/avg/max) = 5.441 | 5.816 | 6.074 Mbytes
Step PotEng KinEng TotEng v_fx v_fy v_fz 
    3152   -1152449.3            0   -1152449.3 -0.0075711411 0.0061302263 -0.016364965 
    3345   -1152449.3            0   -1152449.3 2.2103788e-05 9.875497e-06 2.602902e-05 
Loop time of 2.26707 on 104 procs for 193 steps with 288751 atoms

99.9% CPU use with 104 MPI tasks x 1 OpenMP threads

Minimization stats:
  Stopping criterion = energy tolerance
  Energy initial, next-to-last, final = 
      -1152449.3458058  -1152449.34667515  -1152449.34667515
  Force two-norm initial, final = 0.12323855 9.4502685e-05
  Force max component initial, final = 0.045139662 2.6029020e-05
  Final line search alpha, max atom move = 1.0000000 2.6029020e-05
  Iterations, force evaluations = 193 386

MPI task timing breakdown:
Section |  min time  |  avg time  |  max time  |%varavg| %total
---------------------------------------------------------------
Pair    | 0.59007    | 1.6265     | 2.1339     |  34.5 | 71.74
Neigh   | 0          | 0          | 0          |   0.0 |  0.00
Comm    | 0.038515   | 0.37341    | 1.1155     |  50.5 | 16.47
Output  | 0          | 0          | 0          |   0.0 |  0.00
Modify  | 2.3526e-05 | 0.0031932  | 0.0067926  |   2.7 |  0.14
Other   |            | 0.264      |            |       | 11.65

Nlocal:        2776.45 ave        3959 max           0 min
Histogram: 8 4 4 0 4 12 8 2 28 34
Nghost:        3879.01 ave        5424 max         232 min
Histogram: 8 0 8 0 16 0 8 8 16 40
Neighs:        79213.4 ave      115403 max           0 min
Histogram: 8 4 4 0 10 6 8 8 24 32

Total # of neighbors = 8238190
Ave neighs/atom = 28.530429
Neighbor list builds = 0
Dangerous builds = 0
The dot product: -7.17012941044005e-09
Setting atom values ...
  1 settings made for x
  1 settings made for y
  1 settings made for z
Setting up cg style minimization ...
  Unit style    : metal
  Current step  : 3345
Per MPI rank memory allocation (min/avg/max) = 5.441 | 5.816 | 6.074 Mbytes
Step PotEng KinEng TotEng v_fx v_fy v_fz 
    3345   -1152449.3            0   -1152449.3 -0.0067594406 0.0054600328 -0.014635027 
    3561   -1152449.3            0   -1152449.3 4.2613996e-06 2.0776088e-06 4.8880156e-06 
Loop time of 2.53446 on 104 procs for 216 steps with 288751 atoms

99.9% CPU use with 104 MPI tasks x 1 OpenMP threads

Minimization stats:
  Stopping criterion = energy tolerance
  Energy initial, next-to-last, final = 
     -1152449.34149067  -1152449.34234715  -1152449.34234715
  Force two-norm initial, final = 0.12242934 3.8628078e-05
  Force max component initial, final = 0.04441801 7.4059514e-06
  Final line search alpha, max atom move = 1.0000000 7.4059514e-06
  Iterations, force evaluations = 216 432

MPI task timing breakdown:
Section |  min time  |  avg time  |  max time  |%varavg| %total
---------------------------------------------------------------
Pair    | 0.66746    | 1.818      | 2.3802     |  36.2 | 71.73
Neigh   | 0          | 0          | 0          |   0.0 |  0.00
Comm    | 0.04104    | 0.41671    | 1.2508     |  53.0 | 16.44
Output  | 0          | 0          | 0          |   0.0 |  0.00
Modify  | 2.5731e-05 | 0.0035719  | 0.0076367  |   2.8 |  0.14
Other   |            | 0.2962     |            |       | 11.69

Nlocal:        2776.45 ave        3959 max           0 min
Histogram: 8 4 4 0 4 12 8 2 28 34
Nghost:        3879.01 ave        5424 max         232 min
Histogram: 8 0 8 0 16 0 8 8 16 40
Neighs:        79213.4 ave      115403 max           0 min
Histogram: 8 4 4 0 10 6 8 8 24 32

Total # of neighbors = 8238191
Ave neighs/atom = 28.530433
Neighbor list builds = 0
Dangerous builds = 0
The dot product: -1.15250569572307e-09
Setting atom values ...
  1 settings made for x
  1 settings made for y
  1 settings made for z
Setting up cg style minimization ...
  Unit style    : metal
  Current step  : 3561
Per MPI rank memory allocation (min/avg/max) = 5.441 | 5.816 | 6.074 Mbytes
Step PotEng KinEng TotEng v_fx v_fy v_fz 
    3561   -1152449.3            0   -1152449.3 -0.0061703649 0.0045067324 -0.013010249 
    3765   -1152449.3            0   -1152449.3 5.9748617e-07 -6.5102185e-07 1.4290245e-06 
Loop time of 2.39523 on 104 procs for 204 steps with 288751 atoms

99.9% CPU use with 104 MPI tasks x 1 OpenMP threads

Minimization stats:
  Stopping criterion = energy tolerance
  Energy initial, next-to-last, final = 
     -1152449.33579777  -1152449.33664666  -1152449.33664666
  Force two-norm initial, final = 0.12195765 6.7366325e-05
  Force max component initial, final = 0.044183836 8.9024426e-06
  Final line search alpha, max atom move = 1.0000000 8.9024426e-06
  Iterations, force evaluations = 204 408

MPI task timing breakdown:
Section |  min time  |  avg time  |  max time  |%varavg| %total
---------------------------------------------------------------
Pair    | 0.62625    | 1.7119     | 2.2382     |  35.2 | 71.47
Neigh   | 0          | 0          | 0          |   0.0 |  0.00
Comm    | 0.037526   | 0.39167    | 1.1709     |  51.5 | 16.35
Output  | 0          | 0          | 0          |   0.0 |  0.00
Modify  | 2.4413e-05 | 0.0033702  | 0.0071659  |   2.7 |  0.14
Other   |            | 0.2883     |            |       | 12.04

Nlocal:        2776.45 ave        3959 max           0 min
Histogram: 8 4 4 0 4 12 8 2 28 34
Nghost:        3879.05 ave        5424 max         232 min
Histogram: 8 0 8 0 16 0 8 8 16 40
Neighs:        79213.4 ave      115403 max           0 min
Histogram: 8 4 4 0 10 6 8 8 24 32

Total # of neighbors = 8238192
Ave neighs/atom = 28.530436
Neighbor list builds = 0
Dangerous builds = 0
The dot product: -6.03543571619847e-10
Setting atom values ...
  1 settings made for x
  1 settings made for y
  1 settings made for z
Setting up cg style minimization ...
  Unit style    : metal
  Current step  : 3765
Per MPI rank memory allocation (min/avg/max) = 5.441 | 5.816 | 6.074 Mbytes
Step PotEng KinEng TotEng v_fx v_fy v_fz 
    3765   -1152449.3            0   -1152449.3 -0.0058141856 0.0032507871 -0.011492952 
    3958   -1152449.3            0   -1152449.3 -6.6644762e-06 -5.5687971e-06 -5.8267854e-06 
Loop time of 2.27318 on 104 procs for 193 steps with 288751 atoms

99.9% CPU use with 104 MPI tasks x 1 OpenMP threads

Minimization stats:
  Stopping criterion = energy tolerance
  Energy initial, next-to-last, final = 
     -1152449.32870836  -1152449.32955467  -1152449.32955467
  Force two-norm initial, final = 0.12186307 8.7534748e-05
  Force max component initial, final = 0.044035817 6.6644762e-06
  Final line search alpha, max atom move = 1.0000000 6.6644762e-06
  Iterations, force evaluations = 193 386

MPI task timing breakdown:
Section |  min time  |  avg time  |  max time  |%varavg| %total
---------------------------------------------------------------
Pair    | 0.59365    | 1.6302     | 2.1365     |  34.3 | 71.71
Neigh   | 0          | 0          | 0          |   0.0 |  0.00
Comm    | 0.037327   | 0.37214    | 1.1167     |  50.4 | 16.37
Output  | 0          | 0          | 0          |   0.0 |  0.00
Modify  | 2.3185e-05 | 0.0031973  | 0.0068083  |   2.7 |  0.14
Other   |            | 0.2677     |            |       | 11.77

Nlocal:        2776.45 ave        3960 max           0 min
Histogram: 8 4 4 0 4 12 8 2 28 34
Nghost:        3879.05 ave        5424 max         232 min
Histogram: 8 0 8 0 16 0 8 8 16 40
Neighs:        79213.4 ave      115434 max           0 min
Histogram: 8 4 4 0 10 6 8 8 24 32

Total # of neighbors = 8238190
Ave neighs/atom = 28.530429
Neighbor list builds = 0
Dangerous builds = 0
The dot product: 1.20466000921344e-09
Setting atom values ...
  1 settings made for x
  1 settings made for y
  1 settings made for z
Setting up cg style minimization ...
  Unit style    : metal
  Current step  : 3958
Per MPI rank memory allocation (min/avg/max) = 5.441 | 5.816 | 6.074 Mbytes
Step PotEng KinEng TotEng v_fx v_fy v_fz 
    3958   -1152449.3            0   -1152449.3 -0.0057496344 0.0017056721 -0.010186321 
    4000   -1152449.3            0   -1152449.3 0.00034841891 0.00014371005 0.00042162513 
    4157   -1152449.3            0   -1152449.3 1.7143021e-05 1.4957571e-05 1.4499634e-05 
Loop time of 2.31418 on 104 procs for 199 steps with 288751 atoms

99.9% CPU use with 104 MPI tasks x 1 OpenMP threads

Minimization stats:
  Stopping criterion = energy tolerance
  Energy initial, next-to-last, final = 
     -1152449.32019309  -1152449.32104297  -1152449.32104297
  Force two-norm initial, final = 0.12213352 8.0331174e-05
  Force max component initial, final = 0.043869062 1.7143021e-05
  Final line search alpha, max atom move = 1.0000000 1.7143021e-05
  Iterations, force evaluations = 199 398

MPI task timing breakdown:
Section |  min time  |  avg time  |  max time  |%varavg| %total
---------------------------------------------------------------
Pair    | 0.60783    | 1.6697     | 2.1801     |  34.8 | 72.15
Neigh   | 0          | 0          | 0          |   0.0 |  0.00
Comm    | 0.037474   | 0.3797     | 1.1455     |  51.0 | 16.41
Output  | 0.00015188 | 0.00015577 | 0.00025144 |   0.0 |  0.01
Modify  | 2.4136e-05 | 0.0032866  | 0.0069928  |   2.7 |  0.14
Other   |            | 0.2614     |            |       | 11.29

Nlocal:        2776.45 ave        3960 max           0 min
Histogram: 8 4 4 0 4 12 8 2 28 34
Nghost:        3879.03 ave        5424 max         232 min
Histogram: 8 0 8 0 16 0 8 8 16 40
Neighs:        79213.3 ave      115434 max           0 min
Histogram: 8 4 4 0 10 6 8 8 24 32

Total # of neighbors = 8238188
Ave neighs/atom = 28.530422
Neighbor list builds = 0
Dangerous builds = 0
The dot product: -4.80581121548682e-09
Setting atom values ...
  1 settings made for x
  1 settings made for y
  1 settings made for z
Setting up cg style minimization ...
  Unit style    : metal
  Current step  : 4157
Per MPI rank memory allocation (min/avg/max) = 5.441 | 5.816 | 6.074 Mbytes
Step PotEng KinEng TotEng v_fx v_fy v_fz 
    4157   -1152449.3            0   -1152449.3 -0.0059271439 -7.8888686e-05 -0.0090571072 
    4328   -1152449.3            0   -1152449.3 1.512297e-05 4.8653726e-05 -1.5303565e-05 
Loop time of 2.00348 on 104 procs for 171 steps with 288751 atoms

99.9% CPU use with 104 MPI tasks x 1 OpenMP threads

Minimization stats:
  Stopping criterion = energy tolerance
  Energy initial, next-to-last, final = 
     -1152449.31022074  -1152449.31107728  -1152449.31107728
  Force two-norm initial, final = 0.12265457 0.00018952275
  Force max component initial, final = 0.043714608 4.8653726e-05
  Final line search alpha, max atom move = 1.0000000 4.8653726e-05
  Iterations, force evaluations = 171 342

MPI task timing breakdown:
Section |  min time  |  avg time  |  max time  |%varavg| %total
---------------------------------------------------------------
Pair    | 0.5242     | 1.4481     | 1.8835     |  32.4 | 72.28
Neigh   | 0          | 0          | 0          |   0.0 |  0.00
Comm    | 0.033241   | 0.32911    | 0.98948    |  48.0 | 16.43
Output  | 0          | 0          | 0          |   0.0 |  0.00
Modify  | 2.0704e-05 | 0.0028346  | 0.0060099  |   2.5 |  0.14
Other   |            | 0.2235     |            |       | 11.15

Nlocal:        2776.45 ave        3960 max           0 min
Histogram: 8 4 4 0 4 12 8 2 28 34
Nghost:        3879.01 ave        5424 max         232 min
Histogram: 8 0 8 0 16 0 8 8 16 40
Neighs:        79213.4 ave      115435 max           0 min
Histogram: 8 4 4 0 10 6 8 8 24 32

Total # of neighbors = 8238189
Ave neighs/atom = 28.530426
Neighbor list builds = 0
Dangerous builds = 0
The dot product: -2.64592304229619e-09
Setting atom values ...
  1 settings made for x
  1 settings made for y
  1 settings made for z
Setting up cg style minimization ...
  Unit style    : metal
  Current step  : 4328
Per MPI rank memory allocation (min/avg/max) = 5.441 | 5.816 | 6.074 Mbytes
Step PotEng KinEng TotEng v_fx v_fy v_fz 
    4328   -1152449.3            0   -1152449.3 -0.0064468953 -0.0020494077 -0.0083067524 
    4531   -1152449.3            0   -1152449.3 -1.0472424e-05 -3.4676364e-06 -1.3383702e-05 
Loop time of 2.3815 on 104 procs for 203 steps with 288751 atoms

99.9% CPU use with 104 MPI tasks x 1 OpenMP threads

Minimization stats:
  Stopping criterion = energy tolerance
  Energy initial, next-to-last, final = 
      -1152449.2987625  -1152449.29962549  -1152449.29962549
  Force two-norm initial, final = 0.1233221 6.8565918e-05
  Force max component initial, final = 0.043508013 1.3383702e-05
  Final line search alpha, max atom move = 1.0000000 1.3383702e-05
  Iterations, force evaluations = 203 406

MPI task timing breakdown:
Section |  min time  |  avg time  |  max time  |%varavg| %total
---------------------------------------------------------------
Pair    | 0.62007    | 1.703      | 2.2443     |  35.2 | 71.51
Neigh   | 0          | 0          | 0          |   0.0 |  0.00
Comm    | 0.036801   | 0.3911     | 1.1631     |  51.1 | 16.42
Output  | 0          | 0          | 0          |   0.0 |  0.00
Modify  | 2.427e-05  | 0.0033575  | 0.0071573  |   2.7 |  0.14
Other   |            | 0.284      |            |       | 11.93

Nlocal:        2776.45 ave        3960 max           0 min
Histogram: 8 4 4 0 4 12 8 2 28 34
Nghost:        3879.07 ave        5424 max         232 min
Histogram: 8 0 8 0 16 0 8 8 16 40
Neighs:        79213.4 ave      115435 max           0 min
Histogram: 8 4 4 0 10 6 8 8 24 32

Total # of neighbors = 8238189
Ave neighs/atom = 28.530426
Neighbor list builds = 0
Dangerous builds = 0
The dot product: 6.21441792464036e-09
Setting atom values ...
  1 settings made for x
  1 settings made for y
  1 settings made for z
Setting up cg style minimization ...
  Unit style    : metal
  Current step  : 4531
Per MPI rank memory allocation (min/avg/max) = 5.441 | 5.816 | 6.074 Mbytes
Step PotEng KinEng TotEng v_fx v_fy v_fz 
    4531   -1152449.3            0   -1152449.3 -0.0073914781 -0.0042266949 -0.0080511032 
    4712   -1152449.3            0   -1152449.3 2.4817511e-05 4.1900704e-06 3.4964578e-05 
Loop time of 2.12487 on 104 procs for 181 steps with 288751 atoms

99.9% CPU use with 104 MPI tasks x 1 OpenMP threads

Minimization stats:
  Stopping criterion = energy tolerance
  Energy initial, next-to-last, final = 
     -1152449.28579814  -1152449.28666339  -1152449.28666339
  Force two-norm initial, final = 0.1239886 0.00012451839
  Force max component initial, final = 0.043329223 3.4964578e-05
  Final line search alpha, max atom move = 1.0000000 3.4964578e-05
  Iterations, force evaluations = 181 362

MPI task timing breakdown:
Section |  min time  |  avg time  |  max time  |%varavg| %total
---------------------------------------------------------------
Pair    | 0.56302    | 1.5317     | 1.983      |  33.1 | 72.09
Neigh   | 0          | 0          | 0          |   0.0 |  0.00
Comm    | 0.036316   | 0.3493     | 1.0527     |  48.8 | 16.44
Output  | 0          | 0          | 0          |   0.0 |  0.00
Modify  | 2.1583e-05 | 0.0029979  | 0.0064052  |   2.6 |  0.14
Other   |            | 0.2409     |            |       | 11.34

Nlocal:        2776.45 ave        3960 max           0 min
Histogram: 8 4 4 0 4 12 8 2 28 34
Nghost:        3879.12 ave        5424 max         232 min
Histogram: 8 0 8 0 16 0 8 8 16 40
Neighs:        79213.3 ave      115439 max           0 min
Histogram: 8 4 4 0 10 6 8 8 24 32

Total # of neighbors = 8238187
Ave neighs/atom = 28.530419
Neighbor list builds = 0
Dangerous builds = 0
The dot product: -2.03911909058453e-08
Setting atom values ...
  1 settings made for x
  1 settings made for y
  1 settings made for z
Setting up cg style minimization ...
  Unit style    : metal
  Current step  : 4712
Per MPI rank memory allocation (min/avg/max) = 5.441 | 5.816 | 6.074 Mbytes
Step PotEng KinEng TotEng v_fx v_fy v_fz 
    4712   -1152449.3            0   -1152449.3 -0.0088331263  -0.00630884 -0.008651205 
    4913   -1152449.3            0   -1152449.3 7.4846169e-06 6.3092409e-06 6.5666316e-06 
Loop time of 2.36188 on 104 procs for 201 steps with 288751 atoms

99.9% CPU use with 104 MPI tasks x 1 OpenMP threads

Minimization stats:
  Stopping criterion = energy tolerance
  Energy initial, next-to-last, final = 
     -1152449.27132383  -1152449.27218445  -1152449.27218445
  Force two-norm initial, final = 0.12454424 7.3442614e-05
  Force max component initial, final = 0.043172099 1.1907560e-05
  Final line search alpha, max atom move = 1.0000000 1.1907560e-05
  Iterations, force evaluations = 201 402

MPI task timing breakdown:
Section |  min time  |  avg time  |  max time  |%varavg| %total
---------------------------------------------------------------
Pair    | 0.61278    | 1.6928     | 2.2172     |  35.2 | 71.67
Neigh   | 0          | 0          | 0          |   0.0 |  0.00
Comm    | 0.035595   | 0.38786    | 1.1538     |  51.4 | 16.42
Output  | 0          | 0          | 0          |   0.0 |  0.00
Modify  | 2.4152e-05 | 0.0033267  | 0.007091   |   2.7 |  0.14
Other   |            | 0.2779     |            |       | 11.77

Nlocal:        2776.45 ave        3960 max           0 min
Histogram: 8 4 4 0 4 12 8 2 28 34
Nghost:        3879.11 ave        5424 max         232 min
Histogram: 8 0 8 0 16 0 8 8 16 40
Neighs:        79213.3 ave      115438 max           0 min
Histogram: 8 4 4 0 10 6 8 8 24 32

Total # of neighbors = 8238186
Ave neighs/atom = 28.530415
Neighbor list builds = 0
Dangerous builds = 0
The dot product: -9.59301548242936e-09
Setting atom values ...
  1 settings made for x
  1 settings made for y
  1 settings made for z
Setting up cg style minimization ...
  Unit style    : metal
  Current step  : 4913
Per MPI rank memory allocation (min/avg/max) = 5.441 | 5.816 | 6.074 Mbytes
Step PotEng KinEng TotEng v_fx v_fy v_fz 
    4913   -1152449.3            0   -1152449.3 -0.011006943 -0.0081411076 -0.010606016 
    5000   -1152449.3            0   -1152449.3 3.3430922e-05 -9.7534828e-05 0.00012907758 
    5096   -1152449.3            0   -1152449.3 7.0998849e-06 -1.4146298e-05 2.2209464e-05 
Loop time of 2.17693 on 104 procs for 183 steps with 288751 atoms

99.9% CPU use with 104 MPI tasks x 1 OpenMP threads

Minimization stats:
  Stopping criterion = energy tolerance
  Energy initial, next-to-last, final = 
     -1152449.25536484  -1152449.25621255  -1152449.25621255
  Force two-norm initial, final = 0.12511415 0.00011547495
  Force max component initial, final = 0.044197615 2.4605987e-05
  Final line search alpha, max atom move = 1.0000000 2.4605987e-05
  Iterations, force evaluations = 183 366

MPI task timing breakdown:
Section |  min time  |  avg time  |  max time  |%varavg| %total
---------------------------------------------------------------
Pair    | 0.55498    | 1.5413     | 2.0425     |  33.6 | 70.80
Neigh   | 0          | 0          | 0          |   0.0 |  0.00
Comm    | 0.043556   | 0.35884    | 1.0542     |  48.7 | 16.48
Output  | 0.00022731 | 0.00023049 | 0.00035963 |   0.0 |  0.01
Modify  | 2.2017e-05 | 0.0030325  | 0.006424   |   2.6 |  0.14
Other   |            | 0.2735     |            |       | 12.57

Nlocal:        2776.45 ave        3960 max           0 min
Histogram: 8 4 4 0 4 12 8 2 28 34
Nghost:        3879.09 ave        5424 max         232 min
Histogram: 8 0 8 0 16 0 8 8 16 40
Neighs:        79213.3 ave      115438 max           0 min
Histogram: 8 4 4 0 10 6 8 8 24 32

Total # of neighbors = 8238187
Ave neighs/atom = 28.530419
Neighbor list builds = 0
Dangerous builds = 0
The dot product: -1.4457049264126e-08
Setting atom values ...
  1 settings made for x
  1 settings made for y
  1 settings made for z
Setting up cg style minimization ...
  Unit style    : metal
  Current step  : 5096
Per MPI rank memory allocation (min/avg/max) = 5.441 | 5.816 | 6.074 Mbytes
Step PotEng KinEng TotEng v_fx v_fy v_fz 
    5096   -1152449.2            0   -1152449.2 -0.014272556 -0.0096355006  -0.01457339 
    5253   -1152449.2            0   -1152449.2 1.7451244e-05 6.8846578e-07 2.6609155e-05 
Loop time of 1.84127 on 104 procs for 157 steps with 288751 atoms

99.9% CPU use with 104 MPI tasks x 1 OpenMP threads

Minimization stats:
  Stopping criterion = energy tolerance
  Energy initial, next-to-last, final = 
     -1152449.23800304  -1152449.23883917  -1152449.23883917
  Force two-norm initial, final = 0.12632895 0.0002428021
  Force max component initial, final = 0.047469518 2.6609155e-05
  Final line search alpha, max atom move = 1.0000000 2.6609155e-05
  Iterations, force evaluations = 157 314

MPI task timing breakdown:
Section |  min time  |  avg time  |  max time  |%varavg| %total
---------------------------------------------------------------
Pair    | 0.4794     | 1.321      | 1.7352     |  31.1 | 71.75
Neigh   | 0          | 0          | 0          |   0.0 |  0.00
Comm    | 0.029689   | 0.3017     | 0.9014     |  45.4 | 16.39
Output  | 0          | 0          | 0          |   0.0 |  0.00
Modify  | 1.8892e-05 | 0.0025975  | 0.0055497  |   2.4 |  0.14
Other   |            | 0.2159     |            |       | 11.73

Nlocal:        2776.45 ave        3960 max           0 min
Histogram: 8 4 4 0 4 12 8 2 28 34
Nghost:        3879.09 ave        5424 max         232 min
Histogram: 8 0 8 0 16 0 8 8 16 40
Neighs:        79213.3 ave      115442 max           0 min
Histogram: 8 4 4 0 10 6 8 8 24 32

Total # of neighbors = 8238185
Ave neighs/atom = 28.530412
Neighbor list builds = 0
Dangerous builds = 0
The dot product: -6.47601125425948e-08
Setting atom values ...
  1 settings made for x
  1 settings made for y
  1 settings made for z
Setting up cg style minimization ...
  Unit style    : metal
  Current step  : 5253
Per MPI rank memory allocation (min/avg/max) = 5.441 | 5.816 | 6.074 Mbytes
Step PotEng KinEng TotEng v_fx v_fy v_fz 
    5253   -1152449.2            0   -1152449.2  -0.01930937 -0.010400535 -0.022014011 
    5508   -1152449.3            0   -1152449.3 -3.5477922e-05 -1.7008779e-06 -5.4279079e-05 
Loop time of 3.01019 on 104 procs for 255 steps with 288751 atoms

99.9% CPU use with 104 MPI tasks x 1 OpenMP threads

Minimization stats:
  Stopping criterion = energy tolerance
  Energy initial, next-to-last, final = 
     -1152449.21946654  -1152449.25004554  -1152449.25004554
  Force two-norm initial, final = 0.13030458 0.00018613827
  Force max component initial, final = 0.050686607 5.4279079e-05
  Final line search alpha, max atom move = 1.0000000 5.4279079e-05
  Iterations, force evaluations = 255 508

MPI task timing breakdown:
Section |  min time  |  avg time  |  max time  |%varavg| %total
---------------------------------------------------------------
Pair    | 0.78137    | 2.1409     | 2.8148     |  39.2 | 71.12
Neigh   | 2.0717e-05 | 0.0058737  | 0.0085631  |   3.2 |  0.20
Comm    | 0.051646   | 0.49399    | 1.4663     |  57.3 | 16.41
Output  | 0          | 0          | 0          |   0.0 |  0.00
Modify  | 3.0523e-05 | 0.0042036  | 0.0090085  |   3.1 |  0.14
Other   |            | 0.3652     |            |       | 12.13

Nlocal:        2776.45 ave        3960 max           0 min
Histogram: 8 4 4 0 4 12 8 2 28 34
Nghost:        3879.10 ave        5424 max         232 min
Histogram: 8 0 8 0 16 0 8 8 16 40
Neighs:        79213.2 ave      115431 max           0 min
Histogram: 8 4 4 0 10 6 8 8 24 32

Total # of neighbors = 8238171
Ave neighs/atom = 28.530364
Neighbor list builds = 2
Dangerous builds = 0
The dot product: 5.19729899690257e-06
Setting atom values ...
  1 settings made for x
  1 settings made for y
  1 settings made for z
Setting up cg style minimization ...
  Unit style    : metal
  Current step  : 5508
Per MPI rank memory allocation (min/avg/max) = 5.441 | 5.816 | 6.074 Mbytes
Step PotEng KinEng TotEng v_fx v_fy v_fz 
    5508   -1152449.2            0   -1152449.2 -0.028006936 -0.033884925  -0.02386926 
    5725   -1152449.2            0   -1152449.2 -1.691784e-05 -2.3901208e-06 -3.4094656e-05 
Loop time of 2.54296 on 104 procs for 217 steps with 288751 atoms

99.9% CPU use with 104 MPI tasks x 1 OpenMP threads

Minimization stats:
  Stopping criterion = energy tolerance
  Energy initial, next-to-last, final = 
     -1152449.24564164  -1152449.24930632  -1152449.24930632
  Force two-norm initial, final = 0.1506736 0.00015901217
  Force max component initial, final = 0.055758095 3.8223609e-05
  Final line search alpha, max atom move = 1.0000000 3.8223609e-05
  Iterations, force evaluations = 217 434

MPI task timing breakdown:
Section |  min time  |  avg time  |  max time  |%varavg| %total
---------------------------------------------------------------
Pair    | 0.66239    | 1.8186     | 2.3897     |  36.3 | 71.51
Neigh   | 0          | 0          | 0          |   0.0 |  0.00
Comm    | 0.043357   | 0.41684    | 1.2478     |  52.9 | 16.39
Output  | 0          | 0          | 0          |   0.0 |  0.00
Modify  | 2.6198e-05 | 0.0035868  | 0.0076379  |   2.8 |  0.14
Other   |            | 0.304      |            |       | 11.95

Nlocal:        2776.45 ave        3960 max           0 min
Histogram: 8 4 4 0 4 12 8 2 28 34
Nghost:        3879.05 ave        5424 max         232 min
Histogram: 8 0 8 0 16 0 8 8 16 40
Neighs:        79213.3 ave      115433 max           0 min
Histogram: 8 4 4 0 10 6 8 8 24 32

Total # of neighbors = 8238182
Ave neighs/atom = 28.530402
Neighbor list builds = 0
Dangerous builds = 0
The dot product: 1.37970912844476e-06
Setting atom values ...
  1 settings made for x
  1 settings made for y
  1 settings made for z
Setting up cg style minimization ...
  Unit style    : metal
  Current step  : 5725
Per MPI rank memory allocation (min/avg/max) = 5.441 | 5.816 | 6.074 Mbytes
Step PotEng KinEng TotEng v_fx v_fy v_fz 
    5725   -1152449.3            0   -1152449.3 -0.015003331 -0.038247591 0.00097345741 
    5928   -1152449.3            0   -1152449.3 -8.4927754e-06 -3.3853405e-06 -1.7855783e-05 
Loop time of 2.41738 on 104 procs for 203 steps with 288751 atoms

99.9% CPU use with 104 MPI tasks x 1 OpenMP threads

Minimization stats:
  Stopping criterion = energy tolerance
  Energy initial, next-to-last, final = 
     -1152449.25028078  -1152449.25218818  -1152449.25218818
  Force two-norm initial, final = 0.15357965 6.5950528e-05
  Force max component initial, final = 0.055038909 1.7855783e-05
  Final line search alpha, max atom move = 1.0000000 1.7855783e-05
  Iterations, force evaluations = 203 406

MPI task timing breakdown:
Section |  min time  |  avg time  |  max time  |%varavg| %total
---------------------------------------------------------------
Pair    | 0.61837    | 1.7157     | 2.2537     |  35.4 | 70.97
Neigh   | 0          | 0          | 0          |   0.0 |  0.00
Comm    | 0.039093   | 0.3948     | 1.1746     |  51.6 | 16.33
Output  | 0          | 0          | 0          |   0.0 |  0.00
Modify  | 2.4231e-05 | 0.003357   | 0.0071516  |   2.7 |  0.14
Other   |            | 0.3035     |            |       | 12.56

Nlocal:        2776.45 ave        3960 max           0 min
Histogram: 8 4 4 0 4 12 8 2 28 34
Nghost:        3879.12 ave        5424 max         232 min
Histogram: 8 0 8 0 16 0 8 8 16 40
Neighs:        79213.3 ave      115424 max           0 min
Histogram: 8 4 4 0 10 6 8 8 24 32

Total # of neighbors = 8238186
Ave neighs/atom = 28.530415
Neighbor list builds = 0
Dangerous builds = 0
The dot product: 1.95848495240817e-07
Setting atom values ...
  1 settings made for x
  1 settings made for y
  1 settings made for z
Setting up cg style minimization ...
  Unit style    : metal
  Current step  : 5928
Per MPI rank memory allocation (min/avg/max) = 5.441 | 5.816 | 6.074 Mbytes
Step PotEng KinEng TotEng v_fx v_fy v_fz 
    5928   -1152449.3            0   -1152449.3 -0.014285272 -0.049350801  0.012747303 
    6000   -1152449.3            0   -1152449.3 2.531932e-05 1.1250671e-05 5.4544551e-05 
    6086   -1152449.3            0   -1152449.3 3.880338e-06 3.3301412e-06 6.7340109e-06 
Loop time of 1.84996 on 104 procs for 158 steps with 288751 atoms

99.9% CPU use with 104 MPI tasks x 1 OpenMP threads

Minimization stats:
  Stopping criterion = energy tolerance
  Energy initial, next-to-last, final = 
     -1152449.25427015  -1152449.25547022  -1152449.25547022
  Force two-norm initial, final = 0.1522579 6.9768282e-05
  Force max component initial, final = 0.055462186 6.7340109e-06
  Final line search alpha, max atom move = 1.0000000 6.7340109e-06
  Iterations, force evaluations = 158 316

MPI task timing breakdown:
Section |  min time  |  avg time  |  max time  |%varavg| %total
---------------------------------------------------------------
Pair    | 0.48233    | 1.3275     | 1.7418     |  31.1 | 71.76
Neigh   | 0          | 0          | 0          |   0.0 |  0.00
Comm    | 0.028759   | 0.30381    | 0.9081     |  45.4 | 16.42
Output  | 0.00015021 | 0.00015477 | 0.00027225 |   0.0 |  0.01
Modify  | 1.8932e-05 | 0.0026128  | 0.0055467  |   2.4 |  0.14
Other   |            | 0.2159     |            |       | 11.67

Nlocal:        2776.45 ave        3959 max           0 min
Histogram: 8 4 4 0 4 12 8 2 28 34
Nghost:        3879.12 ave        5424 max         232 min
Histogram: 8 0 8 0 16 0 8 8 16 40
Neighs:        79213.3 ave      115401 max           0 min
Histogram: 8 4 4 0 10 6 8 8 24 32

Total # of neighbors = 8238182
Ave neighs/atom = 28.530402
Neighbor list builds = 0
Dangerous builds = 0
The dot product: -5.87453261386293e-08
Setting atom values ...
  1 settings made for x
  1 settings made for y
  1 settings made for z
Setting up cg style minimization ...
  Unit style    : metal
  Current step  : 6086
Per MPI rank memory allocation (min/avg/max) = 5.441 | 5.816 | 6.074 Mbytes
Step PotEng KinEng TotEng v_fx v_fy v_fz 
    6086   -1152449.3            0   -1152449.3  -0.01363414 -0.057456244  0.020579036 
    6327   -1152449.3            0   -1152449.3 -6.6254139e-06 2.6597603e-06 -2.0142757e-05 
Loop time of 2.84876 on 104 procs for 241 steps with 288751 atoms

99.9% CPU use with 104 MPI tasks x 1 OpenMP threads

Minimization stats:
  Stopping criterion = energy tolerance
  Energy initial, next-to-last, final = 
     -1152449.25693081  -1152449.29755067  -1152449.29755067
  Force two-norm initial, final = 0.15747612 0.00014182306
  Force max component initial, final = 0.057456244 3.5938414e-05
  Final line search alpha, max atom move = 1.0000000 3.5938414e-05
  Iterations, force evaluations = 241 481

MPI task timing breakdown:
Section |  min time  |  avg time  |  max time  |%varavg| %total
---------------------------------------------------------------
Pair    | 0.74161    | 2.0317     | 2.6586     |  38.3 | 71.32
Neigh   | 1.0198e-05 | 0.0029244  | 0.0042782  |   2.2 |  0.10
Comm    | 0.050673   | 0.46353    | 1.3867     |  56.1 | 16.27
Output  | 0          | 0          | 0          |   0.0 |  0.00
Modify  | 2.8567e-05 | 0.003977   | 0.0085214  |   3.0 |  0.14
Other   |            | 0.3466     |            |       | 12.17

Nlocal:        2776.45 ave        3959 max           0 min
Histogram: 8 4 4 0 4 12 8 2 28 34
Nghost:        3879.12 ave        5424 max         232 min
Histogram: 8 0 8 0 16 0 8 8 16 40
Neighs:        79213.4 ave      115400 max           0 min
Histogram: 8 4 4 0 10 6 8 8 24 32

Total # of neighbors = 8238197
Ave neighs/atom = 28.530454
Neighbor list builds = 1
Dangerous builds = 0
The dot product: 5.70539144697085e-07
Setting atom values ...
  1 settings made for x
  1 settings made for y
  1 settings made for z
Setting up cg style minimization ...
  Unit style    : metal
  Current step  : 6327
Per MPI rank memory allocation (min/avg/max) = 5.441 | 5.816 | 6.074 Mbytes
Step PotEng KinEng TotEng v_fx v_fy v_fz 
    6327   -1152449.3            0   -1152449.3  0.028769601  0.059017993  0.058741101 
    6562   -1152449.3            0   -1152449.3 -6.9476967e-07 2.0730401e-06 -3.4003418e-06 
Loop time of 2.74605 on 104 procs for 235 steps with 288751 atoms

99.9% CPU use with 104 MPI tasks x 1 OpenMP threads

Minimization stats:
  Stopping criterion = energy tolerance
  Energy initial, next-to-last, final = 
     -1152449.30886725   -1152449.3111492   -1152449.3111492
  Force two-norm initial, final = 0.16258561 2.8033150e-05
  Force max component initial, final = 0.059017993 3.4003418e-06
  Final line search alpha, max atom move = 1.0000000 3.4003418e-06
  Iterations, force evaluations = 235 470

MPI task timing breakdown:
Section |  min time  |  avg time  |  max time  |%varavg| %total
---------------------------------------------------------------
Pair    | 0.71948    | 1.973      | 2.5853     |  37.9 | 71.85
Neigh   | 0          | 0          | 0          |   0.0 |  0.00
Comm    | 0.043864   | 0.45091    | 1.3506     |  55.5 | 16.42
Output  | 0          | 0          | 0          |   0.0 |  0.00
Modify  | 2.8022e-05 | 0.0038813  | 0.0082898  |   2.9 |  0.14
Other   |            | 0.3182     |            |       | 11.59

Nlocal:        2776.45 ave        3957 max           0 min
Histogram: 8 4 4 0 4 12 8 5 25 34
Nghost:        3879.05 ave        5424 max         232 min
Histogram: 8 0 8 0 16 0 8 8 16 40
Neighs:        79213.4 ave      115336 max           0 min
Histogram: 8 4 4 0 10 6 8 8 24 32

Total # of neighbors = 8238197
Ave neighs/atom = 28.530454
Neighbor list builds = 0
Dangerous builds = 0
The dot product: 1.87691615003121e-08
Setting atom values ...
  1 settings made for x
  1 settings made for y
  1 settings made for z
Setting up cg style minimization ...
  Unit style    : metal
  Current step  : 6562
Per MPI rank memory allocation (min/avg/max) = 5.441 | 5.816 | 6.074 Mbytes
Step PotEng KinEng TotEng v_fx v_fy v_fz 
    6562   -1152449.3            0   -1152449.3 -0.0060543357 -0.071120125  0.027049673 
    6681   -1152449.3            0   -1152449.3 -1.5652724e-05 1.4600271e-06 -4.9314909e-05 
Loop time of 1.39031 on 104 procs for 119 steps with 288751 atoms

99.9% CPU use with 104 MPI tasks x 1 OpenMP threads

Minimization stats:
  Stopping criterion = energy tolerance
  Energy initial, next-to-last, final = 
     -1152449.32049695  -1152449.32174105  -1152449.32174105
  Force two-norm initial, final = 0.16162203 0.00026456532
  Force max component initial, final = 0.071120125 4.9314909e-05
  Final line search alpha, max atom move = 1.0000000 4.9314909e-05
  Iterations, force evaluations = 119 238

MPI task timing breakdown:
Section |  min time  |  avg time  |  max time  |%varavg| %total
---------------------------------------------------------------
Pair    | 0.36452    | 1.0042     | 1.3095     |  27.0 | 72.23
Neigh   | 0          | 0          | 0          |   0.0 |  0.00
Comm    | 0.022535   | 0.22961    | 0.68704    |  39.6 | 16.51
Output  | 0          | 0          | 0          |   0.0 |  0.00
Modify  | 1.4483e-05 | 0.0019716  | 0.0041898  |   2.1 |  0.14
Other   |            | 0.1545     |            |       | 11.12

Nlocal:        2776.45 ave        3959 max           0 min
Histogram: 8 4 4 0 4 12 8 4 26 34
Nghost:        3879.07 ave        5424 max         232 min
Histogram: 8 0 8 0 16 0 8 8 16 40
Neighs:        79213.4 ave      115399 max           0 min
Histogram: 8 4 4 0 10 6 8 8 24 32

Total # of neighbors = 8238195
Ave neighs/atom = 28.530447
Neighbor list builds = 0
Dangerous builds = 0
The dot product: -4.31971449233206e-08
Setting atom values ...
  1 settings made for x
  1 settings made for y
  1 settings made for z
Setting up cg style minimization ...
  Unit style    : metal
  Current step  : 6681
Per MPI rank memory allocation (min/avg/max) = 5.441 | 5.816 | 6.074 Mbytes
Step PotEng KinEng TotEng v_fx v_fy v_fz 
    6681   -1152449.3            0   -1152449.3 -0.00051295325 -0.053804008  0.031359222 
    6849   -1152449.3            0   -1152449.3 6.154338e-06 -3.5090652e-05 4.0450626e-05 
Loop time of 1.97346 on 104 procs for 168 steps with 288751 atoms

99.9% CPU use with 104 MPI tasks x 1 OpenMP threads

Minimization stats:
  Stopping criterion = energy tolerance
  Energy initial, next-to-last, final = 
     -1152449.32951825  -1152449.33070329  -1152449.33070329
  Force two-norm initial, final = 0.15650275 0.00023240739
  Force max component initial, final = 0.054039065 4.0450626e-05
  Final line search alpha, max atom move = 1.0000000 4.0450626e-05
  Iterations, force evaluations = 168 336

MPI task timing breakdown:
Section |  min time  |  avg time  |  max time  |%varavg| %total
---------------------------------------------------------------
Pair    | 0.51339    | 1.4134     | 1.8559     |  32.2 | 71.62
Neigh   | 0          | 0          | 0          |   0.0 |  0.00
Comm    | 0.032437   | 0.32255    | 0.96544    |  47.0 | 16.34
Output  | 0          | 0          | 0          |   0.0 |  0.00
Modify  | 2.0467e-05 | 0.002777   | 0.0059543  |   2.5 |  0.14
Other   |            | 0.2347     |            |       | 11.89

Nlocal:        2776.45 ave        3959 max           0 min
Histogram: 8 4 4 0 4 12 8 4 26 34
Nghost:        3879.11 ave        5426 max         232 min
Histogram: 8 0 8 0 16 0 8 8 16 40
Neighs:        79213.4 ave      115401 max           0 min
Histogram: 8 4 4 0 10 6 8 8 24 32

Total # of neighbors = 8238197
Ave neighs/atom = 28.530454
Neighbor list builds = 0
Dangerous builds = 0
The dot product: 1.64783781766249e-07
Setting atom values ...
  1 settings made for x
  1 settings made for y
  1 settings made for z
Setting up cg style minimization ...
  Unit style    : metal
  Current step  : 6849
Per MPI rank memory allocation (min/avg/max) = 5.441 | 5.816 | 6.074 Mbytes
Step PotEng KinEng TotEng v_fx v_fy v_fz 
    6849   -1152449.3            0   -1152449.3 -0.0012644477 -0.058278258  0.030934576 
    7000   -1152449.3            0   -1152449.3 -4.3889239e-06 2.5436842e-05 -2.8618224e-05 
    7009   -1152449.3            0   -1152449.3 3.8296813e-06 7.8296832e-06 7.0408849e-06 
Loop time of 1.89285 on 104 procs for 160 steps with 288751 atoms

99.9% CPU use with 104 MPI tasks x 1 OpenMP threads

Minimization stats:
  Stopping criterion = energy tolerance
  Energy initial, next-to-last, final = 
      -1152449.3368474  -1152449.33806384  -1152449.33806384
  Force two-norm initial, final = 0.158917 0.0002513987
  Force max component initial, final = 0.058278258 3.4683199e-05
  Final line search alpha, max atom move = 1.0000000 3.4683199e-05
  Iterations, force evaluations = 160 320

MPI task timing breakdown:
Section |  min time  |  avg time  |  max time  |%varavg| %total
---------------------------------------------------------------
Pair    | 0.48811    | 1.3506     | 1.7874     |  31.4 | 71.35
Neigh   | 0          | 0          | 0          |   0.0 |  0.00
Comm    | 0.029034   | 0.31209    | 0.92547    |  45.7 | 16.49
Output  | 0.00015081 | 0.00015716 | 0.00030075 |   0.0 |  0.01
Modify  | 1.9373e-05 | 0.0026434  | 0.0056356  |   2.4 |  0.14
Other   |            | 0.2274     |            |       | 12.01

Nlocal:        2776.45 ave        3959 max           0 min
Histogram: 8 4 4 0 4 12 8 4 26 34
Nghost:        3879.11 ave        5429 max         232 min
Histogram: 8 0 8 0 16 0 8 8 16 40
Neighs:        79213.4 ave      115401 max           0 min
Histogram: 8 4 4 0 10 6 8 8 24 32

Total # of neighbors = 8238197
Ave neighs/atom = 28.530454
Neighbor list builds = 0
Dangerous builds = 0
The dot product: -1.47027592455028e-08
Setting atom values ...
  1 settings made for x
  1 settings made for y
  1 settings made for z
Setting up cg style minimization ...
  Unit style    : metal
  Current step  : 7009
Per MPI rank memory allocation (min/avg/max) = 5.441 | 5.816 | 6.074 Mbytes
Step PotEng KinEng TotEng v_fx v_fy v_fz 
    7009   -1152449.3            0   -1152449.3 -0.0012954902  -0.05877817  0.030132033 
    7166   -1152449.3            0   -1152449.3 -8.6398453e-06 3.2934431e-05 -4.5341665e-05 
[...]
Histogram: 8 4 4 0 6 10 8 2 28 34
Nghost:        3879.01 ave        5424 max         232 min
Histogram: 8 0 8 0 16 0 8 8 16 40
Neighs:        79213.4 ave      115468 max           0 min
Histogram: 8 4 4 0 10 6 8 8 24 32

Total # of neighbors = 8238195
Ave neighs/atom = 28.530447
Neighbor list builds = 0
Dangerous builds = 0
The dot product: -3.46581050142859e-09
Setting atom values ...
  1 settings made for x
  1 settings made for y
  1 settings made for z
Setting up cg style minimization ...
  Unit style    : metal
  Current step  : 11591
Per MPI rank memory allocation (min/avg/max) = 5.441 | 5.816 | 6.074 Mbytes
Step PotEng KinEng TotEng v_fx v_fy v_fz 
   11591   -1152449.4            0   -1152449.4 -0.0086520264  -0.01903951 -0.020817976 
   11777   -1152449.4            0   -1152449.4 -1.238442e-05 8.6533288e-06 -2.9744577e-05 
Loop time of 2.1704 on 104 procs for 186 steps with 288751 atoms

99.9% CPU use with 104 MPI tasks x 1 OpenMP threads

Minimization stats:
  Stopping criterion = energy tolerance
  Energy initial, next-to-last, final = 
     -1152449.43928819  -1152449.44058623  -1152449.44058623
  Force two-norm initial, final = 0.16363974 8.7754822e-05
  Force max component initial, final = 0.075896422 2.9744577e-05
  Final line search alpha, max atom move = 1.0000000 2.9744577e-05
  Iterations, force evaluations = 186 372

MPI task timing breakdown:
Section |  min time  |  avg time  |  max time  |%varavg| %total
---------------------------------------------------------------
Pair    | 0.56702    | 1.5636     | 2.0386     |  33.7 | 72.04
Neigh   | 0          | 0          | 0          |   0.0 |  0.00
Comm    | 0.031682   | 0.35598    | 1.0606     |  49.7 | 16.40
Output  | 0          | 0          | 0          |   0.0 |  0.00
Modify  | 2.3482e-05 | 0.0030844  | 0.0065366  |   2.6 |  0.14
Other   |            | 0.2477     |            |       | 11.41

Nlocal:        2776.45 ave        3961 max           0 min
Histogram: 8 4 4 0 6 10 8 2 28 34
Nghost:        3879.01 ave        5424 max         232 min
Histogram: 8 0 8 0 16 0 8 8 16 40
Neighs:        79213.4 ave      115468 max           0 min
Histogram: 8 4 4 0 10 6 8 8 24 32

Total # of neighbors = 8238196
Ave neighs/atom = 28.530450
Neighbor list builds = 0
Dangerous builds = 0
The dot product: 2.90912986083245e-08
Setting atom values ...
  1 settings made for x
  1 settings made for y
  1 settings made for z
Setting up cg style minimization ...
  Unit style    : metal
  Current step  : 11777
Per MPI rank memory allocation (min/avg/max) = 5.441 | 5.816 | 6.074 Mbytes
Step PotEng KinEng TotEng v_fx v_fy v_fz 
   11777   -1152449.4            0   -1152449.4 -0.0086687117 -0.018256112 -0.020888835 
   11934   -1152449.4            0   -1152449.4 1.9728653e-05 -1.1177744e-05 4.7479192e-05 
Loop time of 1.82798 on 104 procs for 157 steps with 288751 atoms

99.9% CPU use with 104 MPI tasks x 1 OpenMP threads

Minimization stats:
  Stopping criterion = energy tolerance
  Energy initial, next-to-last, final = 
     -1152449.43330006  -1152449.43458258  -1152449.43458258
  Force two-norm initial, final = 0.16268136 0.00022319513
  Force max component initial, final = 0.076742378 4.7479192e-05
  Final line search alpha, max atom move = 1.0000000 4.7479192e-05
  Iterations, force evaluations = 157 314

MPI task timing breakdown:
Section |  min time  |  avg time  |  max time  |%varavg| %total
---------------------------------------------------------------
Pair    | 0.47601    | 1.3202     | 1.7219     |  31.1 | 72.22
Neigh   | 0          | 0          | 0          |   0.0 |  0.00
Comm    | 0.027397   | 0.29838    | 0.8912     |  45.8 | 16.32
Output  | 0          | 0          | 0          |   0.0 |  0.00
Modify  | 1.9496e-05 | 0.0025979  | 0.0054977  |   2.4 |  0.14
Other   |            | 0.2068     |            |       | 11.31

Nlocal:        2776.45 ave        3961 max           0 min
Histogram: 8 4 4 0 6 10 8 2 28 34
Nghost:        3879.01 ave        5424 max         232 min
Histogram: 8 0 8 0 16 0 8 8 16 40
Neighs:        79213.4 ave      115467 max           0 min
Histogram: 8 4 4 0 10 6 8 8 24 32

Total # of neighbors = 8238195
Ave neighs/atom = 28.530447
Neighbor list builds = 0
Dangerous builds = 0
The dot product: -6.2768389882101e-08
Setting atom values ...
  1 settings made for x
  1 settings made for y
  1 settings made for z
Setting up cg style minimization ...
  Unit style    : metal
  Current step  : 11934
Per MPI rank memory allocation (min/avg/max) = 5.441 | 5.816 | 6.074 Mbytes
Step PotEng KinEng TotEng v_fx v_fy v_fz 
   11934   -1152449.4            0   -1152449.4 -0.0081213288 -0.019477165 -0.019595963 
   12000   -1152449.4            0   -1152449.4 -8.1228276e-05 -0.00015640138 -0.00019599544 
   12101   -1152449.4            0   -1152449.4 9.1943273e-06 -2.9519105e-05 2.2184522e-05 
Loop time of 1.93848 on 104 procs for 167 steps with 288751 atoms

99.9% CPU use with 104 MPI tasks x 1 OpenMP threads

Minimization stats:
  Stopping criterion = energy tolerance
  Energy initial, next-to-last, final = 
     -1152449.42602251  -1152449.42728127  -1152449.42728127
  Force two-norm initial, final = 0.16146151 0.00019404751
  Force max component initial, final = 0.0775159 3.2981012e-05
  Final line search alpha, max atom move = 1.0000000 3.2981012e-05
  Iterations, force evaluations = 167 334

MPI task timing breakdown:
Section |  min time  |  avg time  |  max time  |%varavg| %total
---------------------------------------------------------------
Pair    | 0.50767    | 1.4043     | 1.8277     |  32.0 | 72.44
Neigh   | 0          | 0          | 0          |   0.0 |  0.00
Comm    | 0.029284   | 0.31839    | 0.95267    |  47.3 | 16.42
Output  | 0.00015831 | 0.00016513 | 0.00031319 |   0.0 |  0.01
Modify  | 2.0512e-05 | 0.0027622  | 0.0058562  |   2.5 |  0.14
Other   |            | 0.2129     |            |       | 10.98

Nlocal:        2776.45 ave        3961 max           0 min
Histogram: 8 4 4 0 6 10 8 2 28 34
Nghost:        3879.01 ave        5424 max         232 min
Histogram: 8 0 8 0 16 0 8 8 16 40
Neighs:        79213.4 ave      115467 max           0 min
Histogram: 8 4 4 0 10 6 8 8 24 32

Total # of neighbors = 8238197
Ave neighs/atom = 28.530454
Neighbor list builds = 0
Dangerous builds = 0
The dot product: -3.46025119037384e-08
Setting atom values ...
  1 settings made for x
  1 settings made for y
  1 settings made for z
Setting up cg style minimization ...
  Unit style    : metal
  Current step  : 12101
Per MPI rank memory allocation (min/avg/max) = 5.441 | 5.816 | 6.074 Mbytes
Step PotEng KinEng TotEng v_fx v_fy v_fz 
   12101   -1152449.4            0   -1152449.4 -0.0075979365 -0.020738385  -0.01835586 
   12274   -1152449.4            0   -1152449.4 1.7123772e-05 -3.1930661e-05 4.1425737e-05 
Loop time of 2.01303 on 104 procs for 173 steps with 288751 atoms

99.9% CPU use with 104 MPI tasks x 1 OpenMP threads

Minimization stats:
  Stopping criterion = energy tolerance
  Energy initial, next-to-last, final = 
     -1152449.41739741  -1152449.41863576  -1152449.41863576
  Force two-norm initial, final = 0.16049588 0.00015943595
  Force max component initial, final = 0.078216524 4.1425737e-05
  Final line search alpha, max atom move = 1.0000000 4.1425737e-05
  Iterations, force evaluations = 173 346

MPI task timing breakdown:
Section |  min time  |  avg time  |  max time  |%varavg| %total
---------------------------------------------------------------
Pair    | 0.52547    | 1.4542     | 1.8927     |  32.6 | 72.24
Neigh   | 0          | 0          | 0          |   0.0 |  0.00
Comm    | 0.030437   | 0.33024    | 0.9879     |  48.0 | 16.40
Output  | 0          | 0          | 0          |   0.0 |  0.00
Modify  | 2.1167e-05 | 0.0028636  | 0.0060898  |   2.5 |  0.14
Other   |            | 0.2257     |            |       | 11.21

Nlocal:        2776.45 ave        3961 max           0 min
Histogram: 8 4 4 0 6 10 8 2 28 34
Nghost:        3879.03 ave        5424 max         232 min
Histogram: 8 0 8 0 16 0 8 8 16 40
Neighs:        79213.4 ave      115467 max           0 min
Histogram: 8 4 4 0 10 6 8 8 24 32

Total # of neighbors = 8238198
Ave neighs/atom = 28.530457
Neighbor list builds = 0
Dangerous builds = 0
The dot product: -4.44239591287373e-08
Setting atom values ...
  1 settings made for x
  1 settings made for y
  1 settings made for z
Setting up cg style minimization ...
  Unit style    : metal
  Current step  : 12274
Per MPI rank memory allocation (min/avg/max) = 5.441 | 5.816 | 6.074 Mbytes
Step PotEng KinEng TotEng v_fx v_fy v_fz 
   12274   -1152449.4            0   -1152449.4 -0.0070972675 -0.021829409 -0.017170633 
   12471   -1152449.4            0   -1152449.4 5.7100318e-06 4.3378306e-06 1.3827403e-05 
Loop time of 2.29732 on 104 procs for 197 steps with 288751 atoms

99.9% CPU use with 104 MPI tasks x 1 OpenMP threads

Minimization stats:
  Stopping criterion = energy tolerance
  Energy initial, next-to-last, final = 
     -1152449.40738959  -1152449.40861153  -1152449.40861153
  Force two-norm initial, final = 0.15975397 7.1077208e-05
  Force max component initial, final = 0.078945416 1.3827403e-05
  Final line search alpha, max atom move = 1.0000000 1.3827403e-05
  Iterations, force evaluations = 197 394

MPI task timing breakdown:
Section |  min time  |  avg time  |  max time  |%varavg| %total
---------------------------------------------------------------
Pair    | 0.60115    | 1.6586     | 2.1558     |  34.6 | 72.20
Neigh   | 0          | 0          | 0          |   0.0 |  0.00
Comm    | 0.034307   | 0.37609    | 1.1291     |  51.2 | 16.37
Output  | 0          | 0          | 0          |   0.0 |  0.00
Modify  | 2.4182e-05 | 0.0032587  | 0.0069211  |   2.7 |  0.14
Other   |            | 0.2594     |            |       | 11.29

Nlocal:        2776.45 ave        3961 max           0 min
Histogram: 8 4 4 0 6 10 8 2 28 34
Nghost:        3879.12 ave        5424 max         232 min
Histogram: 8 0 8 0 16 0 8 8 16 40
Neighs:        79213.5 ave      115467 max           0 min
Histogram: 8 4 4 0 10 6 8 8 24 32

Total # of neighbors = 8238199
Ave neighs/atom = 28.530461
Neighbor list builds = 0
Dangerous builds = 0
The dot product: -1.227343024622e-08
Setting atom values ...
  1 settings made for x
  1 settings made for y
  1 settings made for z
Setting up cg style minimization ...
  Unit style    : metal
  Current step  : 12471
Per MPI rank memory allocation (min/avg/max) = 5.441 | 5.816 | 6.074 Mbytes
Step PotEng KinEng TotEng v_fx v_fy v_fz 
   12471   -1152449.4            0   -1152449.4 -0.0066740075 -0.022688347 -0.016174433 
   12651   -1152449.4            0   -1152449.4 -3.1682531e-06 9.2663411e-06 -7.6947132e-06 
Loop time of 2.11577 on 104 procs for 180 steps with 288751 atoms

99.9% CPU use with 104 MPI tasks x 1 OpenMP threads

Minimization stats:
  Stopping criterion = energy tolerance
  Energy initial, next-to-last, final = 
      -1152449.3959732  -1152449.39718258  -1152449.39718258
  Force two-norm initial, final = 0.15923086 0.00011563008
  Force max component initial, final = 0.079637467 2.4562954e-05
  Final line search alpha, max atom move = 1.0000000 2.4562954e-05
  Iterations, force evaluations = 180 360

MPI task timing breakdown:
Section |  min time  |  avg time  |  max time  |%varavg| %total
---------------------------------------------------------------
Pair    | 0.54809    | 1.515      | 1.9785     |  33.3 | 71.60
Neigh   | 0          | 0          | 0          |   0.0 |  0.00
Comm    | 0.032106   | 0.34521    | 1.0233     |  48.2 | 16.32
Output  | 0          | 0          | 0          |   0.0 |  0.00
Modify  | 2.174e-05  | 0.0029757  | 0.0062981  |   2.6 |  0.14
Other   |            | 0.2526     |            |       | 11.94

Nlocal:        2776.45 ave        3961 max           0 min
Histogram: 8 4 4 0 6 10 8 2 28 34
Nghost:        3879.12 ave        5424 max         232 min
Histogram: 8 0 8 0 16 0 8 8 16 40
Neighs:        79213.5 ave      115466 max           0 min
Histogram: 8 4 4 0 10 6 8 8 24 32

Total # of neighbors = 8238199
Ave neighs/atom = 28.530461
Neighbor list builds = 0
Dangerous builds = 0
The dot product: 3.36936295966744e-09
Setting atom values ...
  1 settings made for x
  1 settings made for y
  1 settings made for z
Setting up cg style minimization ...
  Unit style    : metal
  Current step  : 12651
Per MPI rank memory allocation (min/avg/max) = 5.441 | 5.816 | 6.074 Mbytes
Step PotEng KinEng TotEng v_fx v_fy v_fz 
   12651   -1152449.4            0   -1152449.4 -0.0063099948 -0.023379365 -0.015325431 
   12820   -1152449.4            0   -1152449.4 7.5627286e-06 -2.740034e-05 1.8384097e-05 
Loop time of 1.96674 on 104 procs for 169 steps with 288751 atoms

99.9% CPU use with 104 MPI tasks x 1 OpenMP threads

Minimization stats:
  Stopping criterion = energy tolerance
  Energy initial, next-to-last, final = 
     -1152449.38312757  -1152449.38432886  -1152449.38432886
  Force two-norm initial, final = 0.15893122 0.00018594749
  Force max component initial, final = 0.080325273 3.1112374e-05
  Final line search alpha, max atom move = 1.0000000 3.1112374e-05
  Iterations, force evaluations = 169 338

MPI task timing breakdown:
Section |  min time  |  avg time  |  max time  |%varavg| %total
---------------------------------------------------------------
Pair    | 0.514      | 1.4209     | 1.8523     |  32.2 | 72.25
Neigh   | 0          | 0          | 0          |   0.0 |  0.00
Comm    | 0.029788   | 0.32187    | 0.96209    |  47.4 | 16.37
Output  | 0          | 0          | 0          |   0.0 |  0.00
Modify  | 1.9726e-05 | 0.0027943  | 0.0059296  |   2.5 |  0.14
Other   |            | 0.2212     |            |       | 11.24

Nlocal:        2776.45 ave        3961 max           0 min
Histogram: 8 4 4 0 6 10 8 2 28 34
Nghost:        3879.12 ave        5424 max         232 min
Histogram: 8 0 8 0 16 0 8 8 16 40
Neighs:        79213.4 ave      115465 max           0 min
Histogram: 8 4 4 0 10 6 8 8 24 32

Total # of neighbors = 8238198
Ave neighs/atom = 28.530457
Neighbor list builds = 0
Dangerous builds = 0
The dot product: -6.65949653539164e-10
Setting atom values ...
  1 settings made for x
  1 settings made for y
  1 settings made for z
Setting up cg style minimization ...
  Unit style    : metal
  Current step  : 12820
Per MPI rank memory allocation (min/avg/max) = 5.441 | 5.816 | 6.074 Mbytes
Step PotEng KinEng TotEng v_fx v_fy v_fz 
   12820   -1152449.4            0   -1152449.4 -0.0059708287 -0.023930904 -0.014539933 
   13000   -1152449.4            0   -1152449.4 -8.8984164e-06 1.5258475e-05 -2.1641604e-05 
   13027   -1152449.4            0   -1152449.4 -9.1668398e-07 -1.2658393e-07 -2.2303594e-06 
Loop time of 2.41266 on 104 procs for 207 steps with 288751 atoms

99.9% CPU use with 104 MPI tasks x 1 OpenMP threads

Minimization stats:
  Stopping criterion = energy tolerance
  Energy initial, next-to-last, final = 
     -1152449.36883801  -1152449.37003549  -1152449.37003549
  Force two-norm initial, final = 0.1587809 5.1947862e-05
  Force max component initial, final = 0.080941388 7.1843231e-06
  Final line search alpha, max atom move = 1.0000000 7.1843231e-06
  Iterations, force evaluations = 207 414

MPI task timing breakdown:
Section |  min time  |  avg time  |  max time  |%varavg| %total
---------------------------------------------------------------
Pair    | 0.63006    | 1.7411     | 2.2697     |  35.7 | 72.16
Neigh   | 0          | 0          | 0          |   0.0 |  0.00
Comm    | 0.035469   | 0.39823    | 1.1974     |  52.5 | 16.51
Output  | 0.00014719 | 0.00015264 | 0.00034219 |   0.0 |  0.01
Modify  | 2.5621e-05 | 0.0034277  | 0.0073477  |   2.8 |  0.14
Other   |            | 0.2698     |            |       | 11.18

Nlocal:        2776.45 ave        3961 max           0 min
Histogram: 8 4 4 0 6 10 8 2 28 34
Nghost:        3879.11 ave        5424 max         232 min
Histogram: 8 0 8 0 16 0 8 8 16 40
Neighs:        79213.4 ave      115465 max           0 min
Histogram: 8 4 4 0 10 6 8 8 24 32

Total # of neighbors = 8238196
Ave neighs/atom = 28.530450
Neighbor list builds = 0
Dangerous builds = 0
The dot product: 1.44561775020214e-09
Setting atom values ...
  1 settings made for x
  1 settings made for y
  1 settings made for z
Setting up cg style minimization ...
  Unit style    : metal
  Current step  : 13027
Per MPI rank memory allocation (min/avg/max) = 5.441 | 5.816 | 6.074 Mbytes
Step PotEng KinEng TotEng v_fx v_fy v_fz 
   13027   -1152449.4            0   -1152449.4 -0.005671512 -0.024307249 -0.013854035 
   13270   -1152449.4            0   -1152449.4 5.8977088e-07 -9.6972064e-07 1.4349256e-06 
Loop time of 2.816 on 104 procs for 243 steps with 288751 atoms

99.9% CPU use with 104 MPI tasks x 1 OpenMP threads

Minimization stats:
  Stopping criterion = energy tolerance
  Energy initial, next-to-last, final = 
     -1152449.35309271  -1152449.35428958  -1152449.35428958
  Force two-norm initial, final = 0.15879426 9.8687505e-06
  Force max component initial, final = 0.08158492 1.4349256e-06
  Final line search alpha, max atom move = 1.0000000 1.4349256e-06
  Iterations, force evaluations = 243 486

MPI task timing breakdown:
Section |  min time  |  avg time  |  max time  |%varavg| %total
---------------------------------------------------------------
Pair    | 0.7427     | 2.0408     | 2.6558     |  38.5 | 72.47
Neigh   | 0          | 0          | 0          |   0.0 |  0.00
Comm    | 0.042555   | 0.46438    | 1.3862     |  56.8 | 16.49
Output  | 0          | 0          | 0          |   0.0 |  0.00
Modify  | 2.9336e-05 | 0.0040151  | 0.0085058  |   3.0 |  0.14
Other   |            | 0.3068     |            |       | 10.89

Nlocal:        2776.45 ave        3961 max           0 min
Histogram: 8 4 4 0 6 10 8 2 28 34
Nghost:        3879.09 ave        5424 max         232 min
Histogram: 8 0 8 0 16 0 8 8 16 40
Neighs:        79213.4 ave      115465 max           0 min
Histogram: 8 4 4 0 10 6 8 8 24 32

Total # of neighbors = 8238193
Ave neighs/atom = 28.530440
Neighbor list builds = 0
Dangerous builds = 0
The dot product: -5.41473295443213e-11
Setting up cg style minimization ...
  Unit style    : metal
  Current step  : 13270
Per MPI rank memory allocation (min/avg/max) = 5.441 | 5.816 | 6.074 Mbytes
Step PotEng KinEng TotEng v_fx v_fy v_fz 
   13270   -1152449.4            0   -1152449.4   0.76207684 0.00051180742  -0.31287412 
   13526   -1152449.5            0   -1152449.5 -5.1217618e-06  9.77941e-06 -2.0137913e-05 
Loop time of 3.01114 on 104 procs for 256 steps with 288751 atoms

99.9% CPU use with 104 MPI tasks x 1 OpenMP threads

Minimization stats:
  Stopping criterion = energy tolerance
  Energy initial, next-to-last, final = 
     -1152449.35428958  -1152449.45035271  -1152449.45035271
  Force two-norm initial, final = 0.82380313 7.7935780e-05
  Force max component initial, final = 0.76207684 2.0137913e-05
  Final line search alpha, max atom move = 1.0000000 2.0137913e-05
  Iterations, force evaluations = 256 512

MPI task timing breakdown:
Section |  min time  |  avg time  |  max time  |%varavg| %total
---------------------------------------------------------------
Pair    | 0.78623    | 2.1516     | 2.8105     |  39.4 | 71.45
Neigh   | 1.0161e-05 | 0.0029554  | 0.0042748  |   2.2 |  0.10
Comm    | 0.046187   | 0.48891    | 1.4527     |  58.1 | 16.24
Output  | 0          | 0          | 0          |   0.0 |  0.00
Modify  | 2.9128e-05 | 0.0027549  | 0.0070291  |   3.3 |  0.09
Other   |            | 0.3649     |            |       | 12.12

Nlocal:        2776.45 ave        3961 max           0 min
Histogram: 8 4 4 0 6 10 8 2 28 34
Nghost:        3879.09 ave        5424 max         232 min
Histogram: 8 0 8 0 16 0 8 8 16 40
Neighs:        79213.4 ave      115466 max           0 min
Histogram: 8 4 4 0 10 6 8 8 24 32

Total # of neighbors = 8238191
Ave neighs/atom = 28.530433
Neighbor list builds = 1
Dangerous builds = 0
