LAMMPS (29 Oct 2020)
OMP_NUM_THREADS environment is not set. Defaulting to 1 thread. (../comm.cpp:94)
  using 1 OpenMP thread(s) per MPI task
OMP_NUM_THREADS environment is not set. Defaulting to 1 thread. (../comm.cpp:94)
  using 1 OpenMP thread(s) per MPI task
Reading data file ...
  orthogonal box = (-122.39241 -121.13707 -37.090501) to (122.39241 121.13707 37.090501)
  13 by 4 by 2 MPI processor grid
  reading atoms ...
  288751 atoms
  read_data CPU = 0.371 seconds
199981 atoms in group inner
88770 atoms in group outer
1 atoms in group carbon
Neighbor list info ...
  update every 1 steps, delay 0 steps, check yes
  max neighbors/atom: 2000, page size: 100000
  master list distance cutoff = 5.6
  ghost atom cutoff = 5.6
  binsize = 2.8, bins = 88 87 27
  1 neighbor lists, perpetual/occasional/extra = 1 0 0
  (1) pair eam/alloy, perpetual
      attributes: half, newton on
      pair build: half/bin/atomonly/newton
      stencil: half/bin/3d/newton
      bin: standard
Setting up cg style minimization ...
  Unit style    : metal
  Current step  : 0
Per MPI rank memory allocation (min/avg/max) = 5.441 | 5.816 | 6.074 Mbytes
Step v_fx v_fy v_fz PotEng KinEng TotEng 
       0    25.763164  -0.40452756   -13.135004   -1152441.8            0   -1152441.8 
     297 1.2777318e-05 -2.3761982e-06 -1.2574725e-05     -1152449            0     -1152449 
Loop time of 3.46845 on 104 procs for 297 steps with 288751 atoms

99.9% CPU use with 104 MPI tasks x 1 OpenMP threads

Minimization stats:
  Stopping criterion = energy tolerance
  Energy initial, next-to-last, final = 
     -1152441.82756329  -1152448.97218902  -1152448.97218902
  Force two-norm initial, final = 47.189411 5.3228066e-05
  Force max component initial, final = 32.786078 1.5804306e-05
  Final line search alpha, max atom move = 1.0000000 1.5804306e-05
  Iterations, force evaluations = 297 590

MPI task timing breakdown:
Section |  min time  |  avg time  |  max time  |%varavg| %total
---------------------------------------------------------------
Pair    | 0.93513    | 2.4829     | 3.227      |  41.6 | 71.58
Neigh   | 8.5784e-05 | 0.023577   | 0.034007   |   6.3 |  0.68
Comm    | 0.062512   | 0.5581     | 1.6679     |  62.1 | 16.09
Output  | 0          | 0          | 0          |   0.0 |  0.00
Modify  | 3.4839e-05 | 0.0031771  | 0.0081441  |   3.5 |  0.09
Other   |            | 0.4007     |            |       | 11.55

Nlocal:        2776.45 ave        3957 max           0 min
Histogram: 8 4 4 0 4 12 8 2 28 34
Nghost:        3879.12 ave        5425 max         232 min
Histogram: 8 0 8 0 16 0 8 8 16 40
Neighs:        79213.6 ave      115336 max           0 min
Histogram: 8 4 4 0 10 6 8 8 24 32

Total # of neighbors = 8238215
Ave neighs/atom = 28.530516
Neighbor list builds = 8
Dangerous builds = 0
Setting atom values ...
  1 settings made for x
  1 settings made for y
  1 settings made for z
Setting up cg style minimization ...
  Unit style    : metal
  Current step  : 297
Per MPI rank memory allocation (min/avg/max) = 5.441 | 5.816 | 6.074 Mbytes
Step PotEng KinEng TotEng v_fx v_fy v_fz 
     297     -1152449            0     -1152449  0.019358804 -0.019448896 -0.013827877 
     413     -1152449            0     -1152449 2.2814521e-05 -3.0956904e-05 -4.1953935e-05 
Loop time of 1.34862 on 104 procs for 116 steps with 288751 atoms

99.9% CPU use with 104 MPI tasks x 1 OpenMP threads

Minimization stats:
  Stopping criterion = energy tolerance
  Energy initial, next-to-last, final = 
     -1152448.97138199  -1152448.97192965  -1152448.97192965
  Force two-norm initial, final = 0.10755592 0.00016910684
  Force max component initial, final = 0.047314728 4.1953935e-05
  Final line search alpha, max atom move = 1.0000000 4.1953935e-05
  Iterations, force evaluations = 116 232

MPI task timing breakdown:
Section |  min time  |  avg time  |  max time  |%varavg| %total
---------------------------------------------------------------
Pair    | 0.35484    | 0.9797     | 1.2726     |  26.6 | 72.64
Neigh   | 0          | 0          | 0          |   0.0 |  0.00
Comm    | 0.021925   | 0.22043    | 0.66506    |  39.5 | 16.35
Output  | 0          | 0          | 0          |   0.0 |  0.00
Modify  | 1.4802e-05 | 0.0019135  | 0.0041156  |   2.1 |  0.14
Other   |            | 0.1466     |            |       | 10.87

Nlocal:        2776.45 ave        3956 max           0 min
Histogram: 8 4 4 0 4 12 8 1 29 34
Nghost:        3879.13 ave        5425 max         232 min
Histogram: 8 0 8 0 16 0 8 8 16 40
Neighs:        79213.5 ave      115302 max           0 min
Histogram: 8 4 4 0 10 6 8 8 24 32

Total # of neighbors = 8238206
Ave neighs/atom = 28.530485
Neighbor list builds = 0
Dangerous builds = 0
Setting atom values ...
  1 settings made for x
  1 settings made for y
  1 settings made for z
Setting up cg style minimization ...
  Unit style    : metal
  Current step  : 413
Per MPI rank memory allocation (min/avg/max) = 5.441 | 5.816 | 6.074 Mbytes
Step PotEng KinEng TotEng v_fx v_fy v_fz 
     413     -1152449            0     -1152449  0.029836064 -0.033133465 -0.027442786 
     593     -1152449            0     -1152449 1.5727414e-05 -2.3156279e-05 -2.9457876e-05 
Loop time of 2.09426 on 104 procs for 180 steps with 288751 atoms

99.9% CPU use with 104 MPI tasks x 1 OpenMP threads

Minimization stats:
  Stopping criterion = energy tolerance
  Energy initial, next-to-last, final = 
     -1152448.96876635  -1152448.97028548  -1152448.97028548
  Force two-norm initial, final = 0.17949239 0.00012566364
  Force max component initial, final = 0.078362501 3.9630227e-05
  Final line search alpha, max atom move = 1.0000000 3.9630227e-05
  Iterations, force evaluations = 180 360

MPI task timing breakdown:
Section |  min time  |  avg time  |  max time  |%varavg| %total
---------------------------------------------------------------
Pair    | 0.54768    | 1.5087     | 1.9699     |  33.1 | 72.04
Neigh   | 0          | 0          | 0          |   0.0 |  0.00
Comm    | 0.035174   | 0.33912    | 1.0162     |  48.8 | 16.19
Output  | 0          | 0          | 0          |   0.0 |  0.00
Modify  | 2.2559e-05 | 0.0029682  | 0.0062874  |   2.6 |  0.14
Other   |            | 0.2435     |            |       | 11.63

Nlocal:        2776.45 ave        3956 max           0 min
Histogram: 8 4 4 0 4 12 8 2 28 34
Nghost:        3879.13 ave        5425 max         232 min
Histogram: 8 0 8 0 16 0 8 8 16 40
Neighs:        79213.5 ave      115301 max           0 min
Histogram: 8 4 4 0 10 6 8 8 24 32

Total # of neighbors = 8238202
Ave neighs/atom = 28.530471
Neighbor list builds = 0
Dangerous builds = 0
The dot product: -2.85583533599078e-08
Setting atom values ...
  1 settings made for x
  1 settings made for y
  1 settings made for z
Setting up cg style minimization ...
  Unit style    : metal
  Current step  : 593
Per MPI rank memory allocation (min/avg/max) = 5.441 | 5.816 | 6.074 Mbytes
Step PotEng KinEng TotEng v_fx v_fy v_fz 
     593     -1152449            0     -1152449  0.023690001 -0.032340339 -0.033955828 
     801     -1152449            0     -1152449 7.9831554e-08 -1.0690129e-06 -2.4286869e-06 
Loop time of 2.43901 on 104 procs for 208 steps with 288751 atoms

99.9% CPU use with 104 MPI tasks x 1 OpenMP threads

Minimization stats:
  Stopping criterion = energy tolerance
  Energy initial, next-to-last, final = 
      -1152448.9654285  -1152448.96698525  -1152448.96698525
  Force two-norm initial, final = 0.18086814 5.3339213e-05
  Force max component initial, final = 0.079848581 1.4561805e-05
  Final line search alpha, max atom move = 1.0000000 1.4561805e-05
  Iterations, force evaluations = 208 416

MPI task timing breakdown:
Section |  min time  |  avg time  |  max time  |%varavg| %total
---------------------------------------------------------------
Pair    | 0.64094    | 1.7567     | 2.308      |  35.5 | 72.02
Neigh   | 0          | 0          | 0          |   0.0 |  0.00
Comm    | 0.036645   | 0.39527    | 1.1929     |  52.5 | 16.21
Output  | 0          | 0          | 0          |   0.0 |  0.00
Modify  | 2.6154e-05 | 0.0034284  | 0.0072533  |   2.8 |  0.14
Other   |            | 0.2836     |            |       | 11.63

Nlocal:        2776.45 ave        3956 max           0 min
Histogram: 8 4 4 0 4 12 8 2 28 34
Nghost:        3879.13 ave        5425 max         232 min
Histogram: 8 0 8 0 16 0 8 8 16 40
Neighs:        79213.5 ave      115302 max           0 min
Histogram: 8 4 4 0 10 6 8 8 24 32

Total # of neighbors = 8238203
Ave neighs/atom = 28.530474
Neighbor list builds = 0
Dangerous builds = 0
The dot product: 1.03947752944387e-10
Setting atom values ...
  1 settings made for x
  1 settings made for y
  1 settings made for z
Setting up cg style minimization ...
  Unit style    : metal
  Current step  : 801
Per MPI rank memory allocation (min/avg/max) = 5.441 | 5.816 | 6.074 Mbytes
Step PotEng KinEng TotEng v_fx v_fy v_fz 
     801     -1152449            0     -1152449  0.015874067 -0.030238579  -0.04220343 
     977     -1152449            0     -1152449 2.1131894e-06 -6.6859097e-06 -1.2068123e-05 
Loop time of 2.0394 on 104 procs for 176 steps with 288751 atoms

99.9% CPU use with 104 MPI tasks x 1 OpenMP threads

Minimization stats:
  Stopping criterion = energy tolerance
  Energy initial, next-to-last, final = 
     -1152448.96035084  -1152448.96195066  -1152448.96195066
  Force two-norm initial, final = 0.1823682 0.0001671722
  Force max component initial, final = 0.08071423 5.5546363e-05
  Final line search alpha, max atom move = 1.0000000 5.5546363e-05
  Iterations, force evaluations = 176 352

MPI task timing breakdown:
Section |  min time  |  avg time  |  max time  |%varavg| %total
---------------------------------------------------------------
Pair    | 0.53623    | 1.4735     | 1.9213     |  32.7 | 72.25
Neigh   | 0          | 0          | 0          |   0.0 |  0.00
Comm    | 0.032752   | 0.32961    | 0.99147    |  48.4 | 16.16
Output  | 0          | 0          | 0          |   0.0 |  0.00
Modify  | 2.2947e-05 | 0.0028997  | 0.0061706  |   2.5 |  0.14
Other   |            | 0.2334     |            |       | 11.44

Nlocal:        2776.45 ave        3956 max           0 min
Histogram: 8 4 4 0 4 12 8 2 28 34
Nghost:        3879.14 ave        5425 max         232 min
Histogram: 8 0 8 0 16 0 8 8 16 40
Neighs:        79213.5 ave      115302 max           0 min
Histogram: 8 4 4 0 10 6 8 8 24 32

Total # of neighbors = 8238205
Ave neighs/atom = 28.530481
Neighbor list builds = 0
Dangerous builds = 0
The dot product: 2.35086383530642e-08
Setting atom values ...
  1 settings made for x
  1 settings made for y
  1 settings made for z
Setting up cg style minimization ...
  Unit style    : metal
  Current step  : 977
Per MPI rank memory allocation (min/avg/max) = 5.441 | 5.816 | 6.074 Mbytes
Step PotEng KinEng TotEng v_fx v_fy v_fz 
     977     -1152449            0     -1152449 0.0057148934 -0.025451781 -0.056241143 
    1000     -1152449            0     -1152449 -0.00029323869 0.00048251826 0.00062128797 
    1116     -1152449            0     -1152449 -9.4120183e-06 1.6513649e-05 2.2763901e-05 
Loop time of 1.62522 on 104 procs for 139 steps with 288751 atoms

99.9% CPU use with 104 MPI tasks x 1 OpenMP threads

Minimization stats:
  Stopping criterion = energy tolerance
  Energy initial, next-to-last, final = 
     -1152448.95359103    -1152448.955275    -1152448.955275
  Force two-norm initial, final = 0.18456976 0.00011678342
  Force max component initial, final = 0.080663658 4.5867114e-05
  Final line search alpha, max atom move = 1.0000000 4.5867114e-05
  Iterations, force evaluations = 139 278

MPI task timing breakdown:
Section |  min time  |  avg time  |  max time  |%varavg| %total
---------------------------------------------------------------
Pair    | 0.42698    | 1.1716     | 1.536      |  29.0 | 72.09
Neigh   | 0          | 0          | 0          |   0.0 |  0.00
Comm    | 0.026335   | 0.26228    | 0.79319    |  42.9 | 16.14
Output  | 0.00010507 | 0.00011134 | 0.00018926 |   0.0 |  0.01
Modify  | 1.7362e-05 | 0.0022949  | 0.0048823  |   2.3 |  0.14
Other   |            | 0.189      |            |       | 11.63

Nlocal:        2776.45 ave        3955 max           0 min
Histogram: 8 4 4 0 4 12 8 2 28 34
Nghost:        3879.14 ave        5425 max         232 min
Histogram: 8 0 8 0 16 0 8 8 16 40
Neighs:        79213.5 ave      115263 max           0 min
Histogram: 8 4 4 0 10 6 8 8 24 32

Total # of neighbors = 8238207
Ave neighs/atom = 28.530488
Neighbor list builds = 0
Dangerous builds = 0
The dot product: -1.03154796081526e-07
Setting atom values ...
  1 settings made for x
  1 settings made for y
  1 settings made for z
Setting up cg style minimization ...
  Unit style    : metal
  Current step  : 1116
Per MPI rank memory allocation (min/avg/max) = 5.441 | 5.816 | 6.074 Mbytes
Step PotEng KinEng TotEng v_fx v_fy v_fz 
    1116   -1152448.9            0   -1152448.9 -0.0049411628 -0.015001435 -0.078141228 
    1289   -1152448.9            0   -1152448.9 -1.8657865e-05 2.8929536e-05 4.2455243e-05 
Loop time of 1.98935 on 104 procs for 173 steps with 288751 atoms

99.9% CPU use with 104 MPI tasks x 1 OpenMP threads

Minimization stats:
  Stopping criterion = energy tolerance
  Energy initial, next-to-last, final = 
     -1152448.94543259  -1152448.94732478  -1152448.94732478
  Force two-norm initial, final = 0.18923942 0.00017570503
  Force max component initial, final = 0.079035618 5.3190858e-05
  Final line search alpha, max atom move = 1.0000000 5.3190858e-05
  Iterations, force evaluations = 173 346

MPI task timing breakdown:
Section |  min time  |  avg time  |  max time  |%varavg| %total
---------------------------------------------------------------
Pair    | 0.52598    | 1.4478     | 1.886      |  32.3 | 72.78
Neigh   | 0          | 0          | 0          |   0.0 |  0.00
Comm    | 0.030545   | 0.32143    | 0.97667    |  48.3 | 16.16
Output  | 0          | 0          | 0          |   0.0 |  0.00
Modify  | 2.1732e-05 | 0.0028488  | 0.0060522  |   2.5 |  0.14
Other   |            | 0.2173     |            |       | 10.92

Nlocal:        2776.45 ave        3954 max           0 min
Histogram: 8 4 4 0 4 12 8 2 28 34
Nghost:        3879.14 ave        5425 max         232 min
Histogram: 8 0 8 0 16 0 8 8 16 40
Neighs:        79213.5 ave      115238 max           0 min
Histogram: 8 4 4 0 10 6 8 8 24 32

Total # of neighbors = 8238207
Ave neighs/atom = 28.530488
Neighbor list builds = 0
Dangerous builds = 0
The dot product: -3.95325897989486e-07
Setting atom values ...
  1 settings made for x
  1 settings made for y
  1 settings made for z
Setting up cg style minimization ...
  Unit style    : metal
  Current step  : 1289
Per MPI rank memory allocation (min/avg/max) = 5.441 | 5.816 | 6.074 Mbytes
Step PotEng KinEng TotEng v_fx v_fy v_fz 
    1289   -1152448.9            0   -1152448.9 -0.0085561572 0.0021849971 -0.099242048 
    1485   -1152448.9            0   -1152448.9 4.9582184e-06 -6.7859678e-06 -1.7760194e-05 
Loop time of 2.28073 on 104 procs for 196 steps with 288751 atoms

99.9% CPU use with 104 MPI tasks x 1 OpenMP threads

Minimization stats:
  Stopping criterion = energy tolerance
  Energy initial, next-to-last, final = 
      -1152448.9363777  -1152448.93864072  -1152448.93864072
  Force two-norm initial, final = 0.19501639 0.00016338777
  Force max component initial, final = 0.099242048 3.8211358e-05
  Final line search alpha, max atom move = 1.0000000 3.8211358e-05
  Iterations, force evaluations = 196 392

MPI task timing breakdown:
Section |  min time  |  avg time  |  max time  |%varavg| %total
---------------------------------------------------------------
Pair    | 0.6056     | 1.6521     | 2.1463     |  34.3 | 72.44
Neigh   | 0          | 0          | 0          |   0.0 |  0.00
Comm    | 0.038035   | 0.36856    | 1.1076     |  51.3 | 16.16
Output  | 0          | 0          | 0          |   0.0 |  0.00
Modify  | 2.4617e-05 | 0.0032286  | 0.0069433  |   2.7 |  0.14
Other   |            | 0.2569     |            |       | 11.26

Nlocal:        2776.45 ave        3953 max           0 min
Histogram: 8 4 4 0 4 12 8 2 28 34
Nghost:        3879.14 ave        5425 max         232 min
Histogram: 8 0 8 0 16 0 8 8 16 40
Neighs:        79213.5 ave      115214 max           0 min
Histogram: 8 4 4 0 10 6 8 8 24 32

Total # of neighbors = 8238207
Ave neighs/atom = 28.530488
Neighbor list builds = 0
Dangerous builds = 0
The dot product: 3.12578665998479e-07
Setting atom values ...
  1 settings made for x
  1 settings made for y
  1 settings made for z
Setting up cg style minimization ...
  Unit style    : metal
  Current step  : 1485
Per MPI rank memory allocation (min/avg/max) = 5.441 | 5.816 | 6.074 Mbytes
Step PotEng KinEng TotEng v_fx v_fy v_fz 
    1485   -1152448.9            0   -1152448.9 -0.0018975399  0.022396943   -0.1093494 
    1722   -1152448.9            0   -1152448.9 -2.4485519e-05 2.1197477e-05 5.4078372e-05 
Loop time of 2.75367 on 104 procs for 237 steps with 288751 atoms

99.9% CPU use with 104 MPI tasks x 1 OpenMP threads

Minimization stats:
  Stopping criterion = energy tolerance
  Energy initial, next-to-last, final = 
     -1152448.92686807  -1152448.92972544  -1152448.92972544
  Force two-norm initial, final = 0.19630476 0.00017090413
  Force max component initial, final = 0.1093494 6.0087948e-05
  Final line search alpha, max atom move = 1.0000000 6.0087948e-05
  Iterations, force evaluations = 237 474

MPI task timing breakdown:
Section |  min time  |  avg time  |  max time  |%varavg| %total
---------------------------------------------------------------
Pair    | 0.72298    | 1.9902     | 2.596      |  38.0 | 72.27
Neigh   | 0          | 0          | 0          |   0.0 |  0.00
Comm    | 0.048372   | 0.44508    | 1.343      |  56.1 | 16.16
Output  | 0          | 0          | 0          |   0.0 |  0.00
Modify  | 3.1497e-05 | 0.0039046  | 0.0083199  |   2.9 |  0.14
Other   |            | 0.3145     |            |       | 11.42

Nlocal:        2776.45 ave        3953 max           0 min
Histogram: 8 4 4 0 4 12 8 2 28 34
Nghost:        3879.12 ave        5427 max         232 min
Histogram: 8 0 8 0 16 0 8 8 16 40
Neighs:        79213.5 ave      115216 max           0 min
Histogram: 8 4 4 0 10 6 8 8 24 32

Total # of neighbors = 8238209
Ave neighs/atom = 28.530495
Neighbor list builds = 0
Dangerous builds = 0
The dot product: -1.50457045866323e-06
Setting atom values ...
  1 settings made for x
  1 settings made for y
  1 settings made for z
Setting up cg style minimization ...
  Unit style    : metal
  Current step  : 1722
Per MPI rank memory allocation (min/avg/max) = 5.441 | 5.816 | 6.074 Mbytes
Step PotEng KinEng TotEng v_fx v_fy v_fz 
    1722   -1152448.9            0   -1152448.9  0.017007315  0.044870853  -0.11807687 
    1935   -1152448.9            0   -1152448.9 3.2255809e-05 -1.3562116e-05 -5.6481536e-05 
Loop time of 2.48099 on 104 procs for 213 steps with 288751 atoms

99.9% CPU use with 104 MPI tasks x 1 OpenMP threads

Minimization stats:
  Stopping criterion = energy tolerance
  Energy initial, next-to-last, final = 
     -1152448.91724844  -1152448.92106093  -1152448.92106093
  Force two-norm initial, final = 0.19940268 0.00021536027
  Force max component initial, final = 0.11807687 8.1759651e-05
  Final line search alpha, max atom move = 1.0000000 8.1759651e-05
  Iterations, force evaluations = 213 426

MPI task timing breakdown:
Section |  min time  |  avg time  |  max time  |%varavg| %total
---------------------------------------------------------------
Pair    | 0.64847    | 1.7958     | 2.3496     |  36.0 | 72.38
Neigh   | 0          | 0          | 0          |   0.0 |  0.00
Comm    | 0.043033   | 0.40239    | 1.2247     |  53.4 | 16.22
Output  | 0          | 0          | 0          |   0.0 |  0.00
Modify  | 2.7264e-05 | 0.0035122  | 0.0074699  |   2.8 |  0.14
Other   |            | 0.2793     |            |       | 11.26

Nlocal:        2776.45 ave        3953 max           0 min
Histogram: 8 4 4 0 4 12 8 2 28 34
Nghost:        3879.12 ave        5425 max         232 min
Histogram: 8 0 8 0 16 0 8 8 16 40
Neighs:        79213.5 ave      115213 max           0 min
Histogram: 8 4 4 0 10 6 8 8 24 32

Total # of neighbors = 8238200
Ave neighs/atom = 28.530464
Neighbor list builds = 0
Dangerous builds = 0
The dot product: 2.20514665981785e-06
Setting atom values ...
  1 settings made for x
  1 settings made for y
  1 settings made for z
Setting up cg style minimization ...
  Unit style    : metal
  Current step  : 1935
Per MPI rank memory allocation (min/avg/max) = 5.441 | 5.816 | 6.074 Mbytes
Step PotEng KinEng TotEng v_fx v_fy v_fz 
    1935   -1152448.9            0   -1152448.9  0.036804512  0.071787286  -0.11034172 
    2000   -1152448.9            0   -1152448.9 -0.0020361462 0.00034796762  0.002552353 
    2169   -1152448.9            0   -1152448.9 3.2627066e-05 -7.95097e-06 -3.8945519e-05 
Loop time of 2.7356 on 104 procs for 234 steps with 288751 atoms

99.9% CPU use with 104 MPI tasks x 1 OpenMP threads

Minimization stats:
  Stopping criterion = energy tolerance
  Energy initial, next-to-last, final = 
     -1152448.90798981    -1152448.923479    -1152448.923479
  Force two-norm initial, final = 0.20132559 0.00026403833
  Force max component initial, final = 0.11034172 5.5930819e-05
  Final line search alpha, max atom move = 1.0000000 5.5930819e-05
  Iterations, force evaluations = 234 468

MPI task timing breakdown:
Section |  min time  |  avg time  |  max time  |%varavg| %total
---------------------------------------------------------------
Pair    | 0.72253    | 1.9695     | 2.5571     |  37.6 | 71.99
Neigh   | 1.0541e-05 | 0.0029638  | 0.0042975  |   2.2 |  0.11
Comm    | 0.04635    | 0.44275    | 1.3402     |  55.9 | 16.18
Output  | 9.8464e-05 | 0.00010601 | 0.0002314  |   0.0 |  0.00
Modify  | 2.9983e-05 | 0.0038609  | 0.008325   |   2.9 |  0.14
Other   |            | 0.3164     |            |       | 11.57

Nlocal:        2776.45 ave        3957 max           0 min
Histogram: 8 4 4 0 4 12 8 2 28 34
Nghost:        3879.08 ave        5425 max         232 min
Histogram: 8 0 8 0 16 0 8 8 16 40
Neighs:        79213.5 ave      115303 max           0 min
Histogram: 8 4 4 0 10 6 8 8 24 32

Total # of neighbors = 8238203
Ave neighs/atom = 28.530474
Neighbor list builds = 1
Dangerous builds = 0
The dot product: 7.16188798121422e-06
Setting atom values ...
  1 settings made for x
  1 settings made for y
  1 settings made for z
Setting up cg style minimization ...
  Unit style    : metal
  Current step  : 2169
Per MPI rank memory allocation (min/avg/max) = 5.441 | 5.816 | 6.074 Mbytes
Step PotEng KinEng TotEng v_fx v_fy v_fz 
    2169   -1152448.9            0   -1152448.9   0.17021205   0.17287399 -0.083651939 
    2392   -1152448.9            0   -1152448.9 -5.3193749e-05 1.3363552e-06 1.7600209e-05 
Loop time of 2.58286 on 104 procs for 223 steps with 288751 atoms

99.9% CPU use with 104 MPI tasks x 1 OpenMP threads

Minimization stats:
  Stopping criterion = energy tolerance
  Energy initial, next-to-last, final = 
     -1152448.91413506  -1152448.92764166  -1152448.92764166
  Force two-norm initial, final = 0.30334866 0.00017968438
  Force max component initial, final = 0.17287399 5.3193749e-05
  Final line search alpha, max atom move = 1.0000000 5.3193749e-05
  Iterations, force evaluations = 223 446

MPI task timing breakdown:
Section |  min time  |  avg time  |  max time  |%varavg| %total
---------------------------------------------------------------
Pair    | 0.68341    | 1.8768     | 2.4405     |  36.8 | 72.66
Neigh   | 1.0259e-05 | 0.0029581  | 0.0042896  |   2.2 |  0.11
Comm    | 0.041027   | 0.42113    | 1.2765     |  54.7 | 16.30
Output  | 0          | 0          | 0          |   0.0 |  0.00
Modify  | 2.8529e-05 | 0.0036659  | 0.0078363  |   2.9 |  0.14
Other   |            | 0.2783     |            |       | 10.77

Nlocal:        2776.45 ave        3960 max           0 min
Histogram: 8 4 4 0 4 12 8 2 28 34
Nghost:        3879.10 ave        5425 max         232 min
Histogram: 8 0 8 0 16 0 8 8 16 40
Neighs:        79213.5 ave      115425 max           0 min
Histogram: 8 4 4 0 10 6 8 8 24 32

Total # of neighbors = 8238205
Ave neighs/atom = 28.530481
Neighbor list builds = 1
Dangerous builds = 0
The dot product: -3.48853473344354e-06
Setting atom values ...
  1 settings made for x
  1 settings made for y
  1 settings made for z
Setting up cg style minimization ...
  Unit style    : metal
  Current step  : 2392
Per MPI rank memory allocation (min/avg/max) = 5.441 | 5.816 | 6.074 Mbytes
Step PotEng KinEng TotEng v_fx v_fy v_fz 
    2392   -1152448.9            0   -1152448.9  0.012239599  0.099650868 0.0023626659 
    2681   -1152448.9            0   -1152448.9 8.4044928e-07 -4.2299556e-08 -8.9373843e-08 
Loop time of 3.34311 on 104 procs for 289 steps with 288751 atoms

99.9% CPU use with 104 MPI tasks x 1 OpenMP threads

Minimization stats:
  Stopping criterion = energy tolerance
  Energy initial, next-to-last, final = 
     -1152448.91797487  -1152448.92124971  -1152448.92124971
  Force two-norm initial, final = 0.20164308 6.3562413e-06
  Force max component initial, final = 0.099650868 1.7041501e-06
  Final line search alpha, max atom move = 1.0000000 1.7041501e-06
  Iterations, force evaluations = 289 578

MPI task timing breakdown:
Section |  min time  |  avg time  |  max time  |%varavg| %total
---------------------------------------------------------------
Pair    | 0.87755    | 2.4157     | 3.1598     |  41.8 | 72.26
Neigh   | 0          | 0          | 0          |   0.0 |  0.00
Comm    | 0.056013   | 0.53895    | 1.6311     |  62.1 | 16.12
Output  | 0          | 0          | 0          |   0.0 |  0.00
Modify  | 3.6737e-05 | 0.0047554  | 0.010133   |   3.2 |  0.14
Other   |            | 0.3837     |            |       | 11.48

Nlocal:        2776.45 ave        3961 max           0 min
Histogram: 8 4 4 0 6 10 8 2 28 34
Nghost:        3879.11 ave        5425 max         232 min
Histogram: 8 0 8 0 16 0 8 8 16 40
Neighs:        79213.4 ave      115445 max           0 min
Histogram: 8 4 4 0 10 6 8 8 24 32

Total # of neighbors = 8238196
Ave neighs/atom = 28.530450
Neighbor list builds = 0
Dangerous builds = 0
The dot product: 1.56992467247084e-08
Setting atom values ...
  1 settings made for x
  1 settings made for y
  1 settings made for z
Setting up cg style minimization ...
  Unit style    : metal
  Current step  : 2681
Per MPI rank memory allocation (min/avg/max) = 5.441 | 5.816 | 6.074 Mbytes
Step PotEng KinEng TotEng v_fx v_fy v_fz 
    2681   -1152448.9            0   -1152448.9 -0.047238962  0.048452015 0.0070398101 
    2864   -1152448.9            0   -1152448.9 1.5409438e-05 -2.706227e-06 -9.1917865e-07 
Loop time of 2.16876 on 104 procs for 183 steps with 288751 atoms

99.9% CPU use with 104 MPI tasks x 1 OpenMP threads

Minimization stats:
  Stopping criterion = energy tolerance
  Energy initial, next-to-last, final = 
     -1152448.91020805   -1152448.9121231   -1152448.9121231
  Force two-norm initial, final = 0.19125241 0.00016865624
  Force max component initial, final = 0.086131904 5.2555131e-05
  Final line search alpha, max atom move = 1.0000000 5.2555131e-05
  Iterations, force evaluations = 183 366

MPI task timing breakdown:
Section |  min time  |  avg time  |  max time  |%varavg| %total
---------------------------------------------------------------
Pair    | 0.56055    | 1.5407     | 2.0261     |  33.3 | 71.04
Neigh   | 0          | 0          | 0          |   0.0 |  0.00
Comm    | 0.037162   | 0.34682    | 1.0388     |  49.0 | 15.99
Output  | 0          | 0          | 0          |   0.0 |  0.00
Modify  | 2.3375e-05 | 0.0030117  | 0.006428   |   2.6 |  0.14
Other   |            | 0.2782     |            |       | 12.83

Nlocal:        2776.45 ave        3961 max           0 min
Histogram: 8 4 4 0 6 10 8 2 28 34
Nghost:        3879.12 ave        5426 max         232 min
Histogram: 8 0 8 0 16 0 8 8 16 40
Neighs:        79213.4 ave      115454 max           0 min
Histogram: 8 4 4 0 10 6 8 8 24 32

Total # of neighbors = 8238198
Ave neighs/atom = 28.530457
Neighbor list builds = 0
Dangerous builds = 0
The dot product: 5.51334013512414e-08
Setting atom values ...
  1 settings made for x
  1 settings made for y
  1 settings made for z
Setting up cg style minimization ...
  Unit style    : metal
  Current step  : 2864
Per MPI rank memory allocation (min/avg/max) = 5.441 | 5.816 | 6.074 Mbytes
Step PotEng KinEng TotEng v_fx v_fy v_fz 
    2864   -1152448.9            0   -1152448.9 -0.067589541    0.0285569 0.0054375238 
    3000   -1152448.9            0   -1152448.9 0.0001014896 -1.9739944e-05 -5.2031753e-06 
    3051   -1152448.9            0   -1152448.9 -7.1575785e-06 2.1674485e-06 4.6618067e-07 
Loop time of 2.16232 on 104 procs for 187 steps with 288751 atoms

99.9% CPU use with 104 MPI tasks x 1 OpenMP threads

Minimization stats:
  Stopping criterion = energy tolerance
  Energy initial, next-to-last, final = 
     -1152448.89960413  -1152448.90141983  -1152448.90141983
  Force two-norm initial, final = 0.19437688 9.7891392e-05
  Force max component initial, final = 0.085286125 1.0121368e-05
  Final line search alpha, max atom move = 1.0000000 1.0121368e-05
  Iterations, force evaluations = 187 374

MPI task timing breakdown:
Section |  min time  |  avg time  |  max time  |%varavg| %total
---------------------------------------------------------------
Pair    | 0.56744    | 1.5652     | 2.0467     |  33.7 | 72.38
Neigh   | 0          | 0          | 0          |   0.0 |  0.00
Comm    | 0.037169   | 0.35023    | 1.0602     |  49.9 | 16.20
Output  | 0.00013715 | 0.00014291 | 0.00028279 |   0.0 |  0.01
Modify  | 2.3656e-05 | 0.0030846  | 0.0066203  |   2.6 |  0.14
Other   |            | 0.2437     |            |       | 11.27

Nlocal:        2776.45 ave        3961 max           0 min
Histogram: 8 4 4 0 6 10 8 3 27 34
Nghost:        3879.12 ave        5426 max         232 min
Histogram: 8 0 8 0 16 0 8 8 16 40
Neighs:        79213.4 ave      115447 max           0 min
Histogram: 8 4 4 0 10 6 8 8 24 32

Total # of neighbors = 8238198
Ave neighs/atom = 28.530457
Neighbor list builds = 0
Dangerous builds = 0
The dot product: 4.85185419848899e-09
Setting atom values ...
  1 settings made for x
  1 settings made for y
  1 settings made for z
Setting up cg style minimization ...
  Unit style    : metal
  Current step  : 3051
Per MPI rank memory allocation (min/avg/max) = 5.441 | 5.816 | 6.074 Mbytes
Step PotEng KinEng TotEng v_fx v_fy v_fz 
    3051   -1152448.9            0   -1152448.9 -0.074962533   0.01987251 0.0046443594 
    3359   -1152448.9            0   -1152448.9 -7.5609376e-07 1.2206842e-07 3.6232302e-08 
Loop time of 3.59523 on 104 procs for 308 steps with 288751 atoms

99.9% CPU use with 104 MPI tasks x 1 OpenMP threads

Minimization stats:
  Stopping criterion = energy tolerance
  Energy initial, next-to-last, final = 
     -1152448.88749833  -1152448.88935376  -1152448.88935376
  Force two-norm initial, final = 0.19634204 2.0516112e-06
  Force max component initial, final = 0.085804372 7.6094682e-07
  Final line search alpha, max atom move = 1.0000000 7.6094682e-07
  Iterations, force evaluations = 308 616

MPI task timing breakdown:
Section |  min time  |  avg time  |  max time  |%varavg| %total
---------------------------------------------------------------
Pair    | 0.94621    | 2.5892     | 3.4028     |  43.0 | 72.02
Neigh   | 0          | 0          | 0          |   0.0 |  0.00
Comm    | 0.058617   | 0.57926    | 1.7537     |  64.0 | 16.11
Output  | 0          | 0          | 0          |   0.0 |  0.00
Modify  | 3.8842e-05 | 0.0050634  | 0.010736   |   3.4 |  0.14
Other   |            | 0.4217     |            |       | 11.73

Nlocal:        2776.45 ave        3961 max           0 min
Histogram: 8 4 4 0 6 10 8 3 27 34
Nghost:        3879.12 ave        5426 max         232 min
Histogram: 8 0 8 0 16 0 8 8 16 40
Neighs:        79213.5 ave      115438 max           0 min
Histogram: 8 4 4 0 10 6 8 8 24 32

Total # of neighbors = 8238199
Ave neighs/atom = 28.530461
Neighbor list builds = 0
Dangerous builds = 0
The dot product: 3.99051887907854e-10
Setting atom values ...
  1 settings made for x
  1 settings made for y
  1 settings made for z
Setting up cg style minimization ...
  Unit style    : metal
  Current step  : 3359
Per MPI rank memory allocation (min/avg/max) = 5.441 | 5.816 | 6.074 Mbytes
Step PotEng KinEng TotEng v_fx v_fy v_fz 
    3359   -1152448.9            0   -1152448.9 -0.076021882  0.015421123 0.0041834988 
    3514   -1152448.9            0   -1152448.9 -3.4378203e-05 5.5444858e-06 1.6955951e-06 
Loop time of 1.78689 on 104 procs for 155 steps with 288751 atoms

99.9% CPU use with 104 MPI tasks x 1 OpenMP threads

Minimization stats:
  Stopping criterion = energy tolerance
  Energy initial, next-to-last, final = 
     -1152448.87413364  -1152448.87636517  -1152448.87636517
  Force two-norm initial, final = 0.19674723 0.00011108562
  Force max component initial, final = 0.086540347 4.4266014e-05
  Final line search alpha, max atom move = 1.0000000 4.4266014e-05
  Iterations, force evaluations = 155 310

MPI task timing breakdown:
Section |  min time  |  avg time  |  max time  |%varavg| %total
---------------------------------------------------------------
Pair    | 0.47159    | 1.2974     | 1.6949     |  30.6 | 72.61
Neigh   | 0          | 0          | 0          |   0.0 |  0.00
Comm    | 0.027923   | 0.28818    | 0.87363    |  45.6 | 16.13
Output  | 0          | 0          | 0          |   0.0 |  0.00
Modify  | 1.9535e-05 | 0.0025507  | 0.0054405  |   2.4 |  0.14
Other   |            | 0.1988     |            |       | 11.12

Nlocal:        2776.45 ave        3961 max           0 min
Histogram: 8 4 4 0 6 10 8 4 26 34
Nghost:        3879.12 ave        5426 max         232 min
Histogram: 8 0 8 0 16 0 8 8 16 40
Neighs:        79213.4 ave      115438 max           0 min
Histogram: 8 4 4 0 10 6 8 8 24 32

Total # of neighbors = 8238196
Ave neighs/atom = 28.530450
Neighbor list builds = 0
Dangerous builds = 0
The dot product: -4.80997817268333e-07
Setting atom values ...
  1 settings made for x
  1 settings made for y
  1 settings made for z
Setting up cg style minimization ...
  Unit style    : metal
  Current step  : 3514
Per MPI rank memory allocation (min/avg/max) = 5.441 | 5.816 | 6.074 Mbytes
Step PotEng KinEng TotEng v_fx v_fy v_fz 
    3514   -1152448.9            0   -1152448.9 -0.054793372   0.01462786 0.0015335827 
    3703   -1152448.9            0   -1152448.9 5.2333157e-05 -9.7642497e-06 -8.8857265e-07 
Loop time of 2.19822 on 104 procs for 189 steps with 288751 atoms

99.9% CPU use with 104 MPI tasks x 1 OpenMP threads

Minimization stats:
  Stopping criterion = energy tolerance
  Energy initial, next-to-last, final = 
     -1152448.86079562  -1152448.86327587  -1152448.86327587
  Force two-norm initial, final = 0.19286477 0.00017198129
  Force max component initial, final = 0.084099499 6.3642253e-05
  Final line search alpha, max atom move = 1.0000000 6.3642253e-05
  Iterations, force evaluations = 189 378

MPI task timing breakdown:
Section |  min time  |  avg time  |  max time  |%varavg| %total
---------------------------------------------------------------
Pair    | 0.57607    | 1.5932     | 2.0855     |  34.0 | 72.48
Neigh   | 0          | 0          | 0          |   0.0 |  0.00
Comm    | 0.035283   | 0.35582    | 1.0781     |  50.4 | 16.19
Output  | 0          | 0          | 0          |   0.0 |  0.00
Modify  | 2.3348e-05 | 0.0031104  | 0.0066168  |   2.6 |  0.14
Other   |            | 0.2461     |            |       | 11.19

Nlocal:        2776.45 ave        3960 max           0 min
Histogram: 8 4 4 0 4 12 8 4 26 34
Nghost:        3879.12 ave        5426 max         232 min
Histogram: 8 0 8 0 16 0 8 8 16 40
Neighs:        79213.4 ave      115430 max           0 min
Histogram: 8 4 4 0 10 6 8 8 24 32

Total # of neighbors = 8238192
Ave neighs/atom = 28.530436
Neighbor list builds = 0
Dangerous builds = 0
The dot product: 8.58760153636781e-07
Setting atom values ...
  1 settings made for x
  1 settings made for y
  1 settings made for z
Setting up cg style minimization ...
  Unit style    : metal
  Current step  : 3703
Per MPI rank memory allocation (min/avg/max) = 5.441 | 5.816 | 6.074 Mbytes
Step PotEng KinEng TotEng v_fx v_fy v_fz 
    3703   -1152448.8            0   -1152448.8 -0.052101198  0.012881137 -0.00077361916 
    3891   -1152448.8            0   -1152448.8 -1.8915711e-05 2.6290023e-06 -5.5567116e-07 
Loop time of 2.17301 on 104 procs for 188 steps with 288751 atoms

99.9% CPU use with 104 MPI tasks x 1 OpenMP threads

Minimization stats:
  Stopping criterion = energy tolerance
  Energy initial, next-to-last, final = 
     -1152448.84681707  -1152448.84890491  -1152448.84890491
  Force two-norm initial, final = 0.19535465 0.00012382955
  Force max component initial, final = 0.088079918 1.8915711e-05
  Final line search alpha, max atom move = 1.0000000 1.8915711e-05
  Iterations, force evaluations = 188 376

MPI task timing breakdown:
Section |  min time  |  avg time  |  max time  |%varavg| %total
---------------------------------------------------------------
Pair    | 0.57417    | 1.5772     | 2.0612     |  33.8 | 72.58
Neigh   | 0          | 0          | 0          |   0.0 |  0.00
Comm    | 0.036802   | 0.35159    | 1.0664     |  50.3 | 16.18
Output  | 0          | 0          | 0          |   0.0 |  0.00
Modify  | 2.3854e-05 | 0.0030871  | 0.0065607  |   2.6 |  0.14
Other   |            | 0.2411     |            |       | 11.10

Nlocal:        2776.45 ave        3960 max           0 min
Histogram: 8 4 4 0 4 12 8 4 26 34
Nghost:        3879.05 ave        5425 max         232 min
Histogram: 8 0 8 0 16 0 8 8 16 40
Neighs:        79213.4 ave      115423 max           0 min
Histogram: 8 4 4 0 10 6 8 8 24 32

Total # of neighbors = 8238193
Ave neighs/atom = 28.530440
Neighbor list builds = 0
Dangerous builds = 0
The dot product: -2.12191432956767e-07
Setting atom values ...
  1 settings made for x
  1 settings made for y
  1 settings made for z
Setting up cg style minimization ...
  Unit style    : metal
  Current step  : 3891
Per MPI rank memory allocation (min/avg/max) = 5.441 | 5.816 | 6.074 Mbytes
Step PotEng KinEng TotEng v_fx v_fy v_fz 
    3891   -1152448.8            0   -1152448.8 -0.060379149  0.010579183 -0.0030646178 
    4000   -1152448.8            0   -1152448.8 0.00028452428 -4.0891592e-05 1.5604273e-05 
    4176   -1152448.8            0   -1152448.8 1.100528e-06 -2.7795589e-07 4.4810684e-08 
Loop time of 3.32994 on 104 procs for 285 steps with 288751 atoms

99.9% CPU use with 104 MPI tasks x 1 OpenMP threads

Minimization stats:
  Stopping criterion = energy tolerance
  Energy initial, next-to-last, final = 
     -1152448.83106745   -1152448.8332087   -1152448.8332087
  Force two-norm initial, final = 0.19977947 4.2014658e-06
  Force max component initial, final = 0.092717671 1.1005280e-06
  Final line search alpha, max atom move = 1.0000000 1.1005280e-06
  Iterations, force evaluations = 285 570

MPI task timing breakdown:
Section |  min time  |  avg time  |  max time  |%varavg| %total
---------------------------------------------------------------
Pair    | 0.86688    | 2.4022     | 3.1491     |  41.7 | 72.14
Neigh   | 0          | 0          | 0          |   0.0 |  0.00
Comm    | 0.059301   | 0.53926    | 1.6297     |  61.6 | 16.19
Output  | 9.7174e-05 | 0.0001041  | 0.00023571 |   0.0 |  0.00
Modify  | 3.6505e-05 | 0.0046831  | 0.0099623  |   3.2 |  0.14
Other   |            | 0.3837     |            |       | 11.52

Nlocal:        2776.45 ave        3960 max           0 min
Histogram: 8 4 4 0 4 12 8 4 26 34
Nghost:        3879.03 ave        5425 max         232 min
Histogram: 8 0 8 0 16 0 8 8 16 40
Neighs:        79213.4 ave      115423 max           0 min
Histogram: 8 4 4 0 10 6 8 8 24 32

Total # of neighbors = 8238192
Ave neighs/atom = 28.530436
Neighbor list builds = 0
Dangerous builds = 0
The dot product: 1.24881555050911e-08
Setting atom values ...
  1 settings made for x
  1 settings made for y
  1 settings made for z
Setting up cg style minimization ...
  Unit style    : metal
  Current step  : 4176
Per MPI rank memory allocation (min/avg/max) = 5.441 | 5.816 | 6.074 Mbytes
Step PotEng KinEng TotEng v_fx v_fy v_fz 
    4176   -1152448.8            0   -1152448.8 -0.061070069 0.0079438668 -0.0049517941 
    4420   -1152448.8            0   -1152448.8 -3.8383291e-06 7.1375682e-07 -2.8475019e-07 
Loop time of 2.8635 on 104 procs for 244 steps with 288751 atoms

99.9% CPU use with 104 MPI tasks x 1 OpenMP threads

Minimization stats:
  Stopping criterion = energy tolerance
  Energy initial, next-to-last, final = 
     -1152448.81412351  -1152448.81616136  -1152448.81616136
  Force two-norm initial, final = 0.20184311 1.7527128e-05
  Force max component initial, final = 0.097094699 3.8383291e-06
  Final line search alpha, max atom move = 1.0000000 3.8383291e-06
  Iterations, force evaluations = 244 488

MPI task timing breakdown:
Section |  min time  |  avg time  |  max time  |%varavg| %total
---------------------------------------------------------------
Pair    | 0.75327    | 2.0609     | 2.6823     |  38.2 | 71.97
Neigh   | 0          | 0          | 0          |   0.0 |  0.00
Comm    | 0.045539   | 0.46752    | 1.4138     |  57.4 | 16.33
Output  | 0          | 0          | 0          |   0.0 |  0.00
Modify  | 3.0442e-05 | 0.0040145  | 0.0085281  |   3.0 |  0.14
Other   |            | 0.3311     |            |       | 11.56

Nlocal:        2776.45 ave        3960 max           0 min
Histogram: 8 4 4 0 4 12 8 4 26 34
Nghost:        3879.09 ave        5426 max         232 min
Histogram: 8 0 8 0 16 0 8 8 16 40
Neighs:        79213.4 ave      115414 max           0 min
Histogram: 8 4 4 0 10 6 8 8 24 32

Total # of neighbors = 8238192
Ave neighs/atom = 28.530436
Neighbor list builds = 0
Dangerous builds = 0
The dot product: -2.44708834201568e-08
Setting atom values ...
  1 settings made for x
  1 settings made for y
  1 settings made for z
Setting up cg style minimization ...
  Unit style    : metal
  Current step  : 4420
Per MPI rank memory allocation (min/avg/max) = 5.441 | 5.816 | 6.074 Mbytes
Step PotEng KinEng TotEng v_fx v_fy v_fz 
    4420   -1152448.8            0   -1152448.8 -0.069857549 0.0083796965 -0.0066796706 
    4593   -1152448.8            0   -1152448.8 7.5998283e-07 2.4538699e-06 3.7487013e-07 
Loop time of 2.00533 on 104 procs for 173 steps with 288751 atoms

99.9% CPU use with 104 MPI tasks x 1 OpenMP threads

Minimization stats:
  Stopping criterion = energy tolerance
  Energy initial, next-to-last, final = 
     -1152448.79568751  -1152448.79768013  -1152448.79768013
  Force two-norm initial, final = 0.2057047 0.00015349901
  Force max component initial, final = 0.09950297 3.8997129e-05
  Final line search alpha, max atom move = 1.0000000 3.8997129e-05
  Iterations, force evaluations = 173 346

MPI task timing breakdown:
Section |  min time  |  avg time  |  max time  |%varavg| %total
---------------------------------------------------------------
Pair    | 0.52763    | 1.4526     | 1.8975     |  32.4 | 72.44
Neigh   | 0          | 0          | 0          |   0.0 |  0.00
Comm    | 0.033024   | 0.3229     | 0.97012    |  48.0 | 16.10
Output  | 0          | 0          | 0          |   0.0 |  0.00
Modify  | 2.2609e-05 | 0.0028557  | 0.0060794  |   2.5 |  0.14
Other   |            | 0.227      |            |       | 11.32

Nlocal:        2776.45 ave        3960 max           0 min
Histogram: 8 4 4 0 4 12 8 4 26 34
Nghost:        3879.09 ave        5426 max         232 min
Histogram: 8 0 8 0 16 0 8 8 16 40
Neighs:        79213.4 ave      115407 max           0 min
Histogram: 8 4 4 0 10 6 8 8 24 32

Total # of neighbors = 8238190
Ave neighs/atom = 28.530429
Neighbor list builds = 0
Dangerous builds = 0
The dot product: -2.36814350727636e-09
Setting atom values ...
  1 settings made for x
  1 settings made for y
  1 settings made for z
Setting up cg style minimization ...
  Unit style    : metal
  Current step  : 4593
Per MPI rank memory allocation (min/avg/max) = 5.441 | 5.816 | 6.074 Mbytes
Step PotEng KinEng TotEng v_fx v_fy v_fz 
    4593   -1152448.8            0   -1152448.8 -0.076438855  0.008658342 -0.0078180106 
    4769   -1152448.8            0   -1152448.8 -1.4852393e-05 2.3811397e-06 -1.4386572e-06 
Loop time of 2.03712 on 104 procs for 176 steps with 288751 atoms

99.9% CPU use with 104 MPI tasks x 1 OpenMP threads

Minimization stats:
  Stopping criterion = energy tolerance
  Energy initial, next-to-last, final = 
     -1152448.77581369  -1152448.77771608  -1152448.77771608
  Force two-norm initial, final = 0.20830637 8.9395830e-05
  Force max component initial, final = 0.10051328 2.1699795e-05
  Final line search alpha, max atom move = 1.0000000 2.1699795e-05
  Iterations, force evaluations = 176 352

MPI task timing breakdown:
Section |  min time  |  avg time  |  max time  |%varavg| %total
---------------------------------------------------------------
Pair    | 0.53605    | 1.4747     | 1.9316     |  32.7 | 72.39
Neigh   | 0          | 0          | 0          |   0.0 |  0.00
Comm    | 0.031592   | 0.32916    | 0.99531    |  48.3 | 16.16
Output  | 0          | 0          | 0          |   0.0 |  0.00
Modify  | 2.2231e-05 | 0.002892   | 0.0061705  |   2.5 |  0.14
Other   |            | 0.2303     |            |       | 11.31

Nlocal:        2776.45 ave        3960 max           0 min
Histogram: 8 4 4 0 4 12 8 4 26 34
Nghost:        3879.05 ave        5426 max         232 min
Histogram: 8 0 8 0 16 0 8 8 16 40
Neighs:        79213.3 ave      115407 max           0 min
Histogram: 8 4 4 0 10 6 8 8 24 32

Total # of neighbors = 8238188
Ave neighs/atom = 28.530422
Neighbor list builds = 0
Dangerous builds = 0
The dot product: 1.21257696481624e-08
Setting atom values ...
  1 settings made for x
  1 settings made for y
  1 settings made for z
Setting up cg style minimization ...
  Unit style    : metal
  Current step  : 4769
Per MPI rank memory allocation (min/avg/max) = 5.441 | 5.816 | 6.074 Mbytes
Step PotEng KinEng TotEng v_fx v_fy v_fz 
    4769   -1152448.8            0   -1152448.8 -0.083617765 0.0084181774 -0.0085216016 
    4922   -1152448.8            0   -1152448.8 -6.0865743e-05 9.7947935e-06 -5.7938865e-06 
Loop time of 1.79712 on 104 procs for 153 steps with 288751 atoms

99.9% CPU use with 104 MPI tasks x 1 OpenMP threads

Minimization stats:
  Stopping criterion = energy tolerance
  Energy initial, next-to-last, final = 
     -1152448.75435576  -1152448.75622379  -1152448.75622379
  Force two-norm initial, final = 0.21052327 0.00017557676
  Force max component initial, final = 0.10018941 6.0865743e-05
  Final line search alpha, max atom move = 1.0000000 6.0865743e-05
  Iterations, force evaluations = 153 306

MPI task timing breakdown:
Section |  min time  |  avg time  |  max time  |%varavg| %total
---------------------------------------------------------------
Pair    | 0.46514    | 1.2892     | 1.6965     |  30.6 | 71.74
Neigh   | 0          | 0          | 0          |   0.0 |  0.00
Comm    | 0.029913   | 0.29119    | 0.87465    |  45.0 | 16.20
Output  | 0          | 0          | 0          |   0.0 |  0.00
Modify  | 1.9801e-05 | 0.0025232  | 0.0053567  |   2.4 |  0.14
Other   |            | 0.2142     |            |       | 11.92

Nlocal:        2776.45 ave        3960 max           0 min
Histogram: 8 4 4 0 4 12 8 4 26 34
Nghost:        3879.09 ave        5426 max         232 min
Histogram: 8 0 8 0 16 0 8 8 16 40
Neighs:        79213.3 ave      115408 max           0 min
Histogram: 8 4 4 0 10 6 8 8 24 32

Total # of neighbors = 8238188
Ave neighs/atom = 28.530422
Neighbor list builds = 0
Dangerous builds = 0
The dot product: 2.03740416827088e-07
Setting atom values ...
  1 settings made for x
  1 settings made for y
  1 settings made for z
Setting up cg style minimization ...
  Unit style    : metal
  Current step  : 4922
Per MPI rank memory allocation (min/avg/max) = 5.441 | 5.816 | 6.074 Mbytes
Step PotEng KinEng TotEng v_fx v_fy v_fz 
    4922   -1152448.7            0   -1152448.7 -0.088354432  0.008238335 -0.008496488 
    5000   -1152448.7            0   -1152448.7 0.00066436788 -0.00011435816 5.8235401e-05 
    5151   -1152448.7            0   -1152448.7 3.9868958e-06 -3.8915973e-07 3.8151647e-07 
Loop time of 2.65133 on 104 procs for 229 steps with 288751 atoms

99.9% CPU use with 104 MPI tasks x 1 OpenMP threads

Minimization stats:
  Stopping criterion = energy tolerance
  Energy initial, next-to-last, final = 
     -1152448.73136247  -1152448.73320877  -1152448.73320877
  Force two-norm initial, final = 0.21141323 1.6409768e-05
  Force max component initial, final = 0.0988503 5.8168575e-06
  Final line search alpha, max atom move = 1.0000000 5.8168575e-06
  Iterations, force evaluations = 229 458

MPI task timing breakdown:
Section |  min time  |  avg time  |  max time  |%varavg| %total
---------------------------------------------------------------
Pair    | 0.69811    | 1.917      | 2.5083     |  37.2 | 72.30
Neigh   | 0          | 0          | 0          |   0.0 |  0.00
Comm    | 0.041089   | 0.4275     | 1.2932     |  55.2 | 16.12
Output  | 0.00010197 | 0.00010425 | 0.00022257 |   0.0 |  0.00
Modify  | 2.8397e-05 | 0.0037706  | 0.008024   |   2.9 |  0.14
Other   |            | 0.303      |            |       | 11.43

Nlocal:        2776.45 ave        3960 max           0 min
Histogram: 8 4 4 0 4 12 8 4 26 34
Nghost:        3879.09 ave        5426 max         232 min
Histogram: 8 0 8 0 16 0 8 8 16 40
Neighs:        79213.3 ave      115409 max           0 min
Histogram: 8 4 4 0 10 6 8 8 24 32

Total # of neighbors = 8238186
Ave neighs/atom = 28.530415
Neighbor list builds = 0
Dangerous builds = 0
The dot product: -2.01502964719449e-08
Setting atom values ...
  1 settings made for x
  1 settings made for y
  1 settings made for z
Setting up cg style minimization ...
  Unit style    : metal
  Current step  : 5151
Per MPI rank memory allocation (min/avg/max) = 5.441 | 5.816 | 6.074 Mbytes
Step PotEng KinEng TotEng v_fx v_fy v_fz 
    5151   -1152448.7            0   -1152448.7 -0.090873332 0.0086535119 -0.0078827489 
    5315   -1152448.7            0   -1152448.7 -3.0996439e-06 -1.1971607e-06 -4.2427355e-07 
Loop time of 1.92774 on 104 procs for 164 steps with 288751 atoms

99.9% CPU use with 104 MPI tasks x 1 OpenMP threads

Minimization stats:
  Stopping criterion = energy tolerance
  Energy initial, next-to-last, final = 
     -1152448.70686581  -1152448.70868485  -1152448.70868485
  Force two-norm initial, final = 0.21109704 0.00011775908
  Force max component initial, final = 0.096789644 3.7206056e-05
  Final line search alpha, max atom move = 1.0000000 3.7206056e-05
  Iterations, force evaluations = 164 328

MPI task timing breakdown:
Section |  min time  |  avg time  |  max time  |%varavg| %total
---------------------------------------------------------------
Pair    | 0.49749    | 1.3853     | 1.8293     |  31.8 | 71.86
Neigh   | 0          | 0          | 0          |   0.0 |  0.00
Comm    | 0.029844   | 0.31242    | 0.94063    |  46.7 | 16.21
Output  | 0          | 0          | 0          |   0.0 |  0.00
Modify  | 2.0612e-05 | 0.0027043  | 0.0057523  |   2.5 |  0.14
Other   |            | 0.2274     |            |       | 11.79

Nlocal:        2776.45 ave        3960 max           0 min
Histogram: 8 4 4 0 4 12 8 4 26 34
Nghost:        3879.09 ave        5426 max         232 min
Histogram: 8 0 8 0 16 0 8 8 16 40
Neighs:        79213.3 ave      115409 max           0 min
Histogram: 8 4 4 0 10 6 8 8 24 32

Total # of neighbors = 8238187
Ave neighs/atom = 28.530419
Neighbor list builds = 0
Dangerous builds = 0
The dot product: 2.18515252536313e-08
Setting atom values ...
  1 settings made for x
  1 settings made for y
  1 settings made for z
Setting up cg style minimization ...
  Unit style    : metal
  Current step  : 5315
Per MPI rank memory allocation (min/avg/max) = 5.441 | 5.816 | 6.074 Mbytes
Step PotEng KinEng TotEng v_fx v_fy v_fz 
    5315   -1152448.7            0   -1152448.7 -0.091942285 0.0099324727 -0.0068781672 
    5548   -1152448.7            0   -1152448.7 -3.7231223e-07 1.5329644e-07 -1.6481126e-08 
Loop time of 2.71598 on 104 procs for 233 steps with 288751 atoms

99.9% CPU use with 104 MPI tasks x 1 OpenMP threads

Minimization stats:
  Stopping criterion = energy tolerance
  Energy initial, next-to-last, final = 
     -1152448.68088714  -1152448.68267227  -1152448.68267227
  Force two-norm initial, final = 0.21012035 1.4075856e-05
  Force max component initial, final = 0.094395876 1.7777618e-06
  Final line search alpha, max atom move = 1.0000000 1.7777618e-06
  Iterations, force evaluations = 233 466

MPI task timing breakdown:
Section |  min time  |  avg time  |  max time  |%varavg| %total
---------------------------------------------------------------
Pair    | 0.71087    | 1.9506     | 2.5523     |  37.5 | 71.82
Neigh   | 0          | 0          | 0          |   0.0 |  0.00
Comm    | 0.042348   | 0.43822    | 1.3171     |  55.4 | 16.13
Output  | 0          | 0          | 0          |   0.0 |  0.00
Modify  | 2.9654e-05 | 0.0038342  | 0.0081502  |   2.9 |  0.14
Other   |            | 0.3233     |            |       | 11.90

Nlocal:        2776.45 ave        3960 max           0 min
Histogram: 8 4 4 0 4 12 8 4 26 34
Nghost:        3879.09 ave        5426 max         232 min
Histogram: 8 0 8 0 16 0 8 8 16 40
Neighs:        79213.3 ave      115406 max           0 min
Histogram: 8 4 4 0 10 6 8 8 24 32

Total # of neighbors = 8238186
Ave neighs/atom = 28.530415
Neighbor list builds = 0
Dangerous builds = 0
The dot product: 2.29369451830552e-09
Setting atom values ...
  1 settings made for x
  1 settings made for y
  1 settings made for z
Setting up cg style minimization ...
  Unit style    : metal
  Current step  : 5548
Per MPI rank memory allocation (min/avg/max) = 5.441 | 5.816 | 6.074 Mbytes
Step PotEng KinEng TotEng v_fx v_fy v_fz 
    5548   -1152448.7            0   -1152448.7 -0.091756586  0.012208906 -0.0055949077 
    5700   -1152448.7            0   -1152448.7 2.5979228e-05 -6.720599e-06  1.26628e-06 
Loop time of 1.78669 on 104 procs for 152 steps with 288751 atoms

99.9% CPU use with 104 MPI tasks x 1 OpenMP threads

Minimization stats:
  Stopping criterion = energy tolerance
  Energy initial, next-to-last, final = 
      -1152448.6534527  -1152448.65519734  -1152448.65519734
  Force two-norm initial, final = 0.20861473 0.00019562881
  Force max component initial, final = 0.091756586 7.2890063e-05
  Final line search alpha, max atom move = 1.0000000 7.2890063e-05
  Iterations, force evaluations = 152 304

MPI task timing breakdown:
Section |  min time  |  avg time  |  max time  |%varavg| %total
---------------------------------------------------------------
Pair    | 0.46322    | 1.2818     | 1.6912     |  30.5 | 71.74
Neigh   | 0          | 0          | 0          |   0.0 |  0.00
Comm    | 0.030755   | 0.29008    | 0.87019    |  44.6 | 16.24
Output  | 0          | 0          | 0          |   0.0 |  0.00
Modify  | 1.9136e-05 | 0.0025094  | 0.0053349  |   2.4 |  0.14
Other   |            | 0.2123     |            |       | 11.88

Nlocal:        2776.45 ave        3960 max           0 min
Histogram: 8 4 4 0 4 12 8 4 26 34
Nghost:        3879.11 ave        5426 max         232 min
Histogram: 8 0 8 0 16 0 8 8 16 40
Neighs:        79213.3 ave      115423 max           0 min
Histogram: 8 4 4 0 10 6 8 8 24 32

Total # of neighbors = 8238186
Ave neighs/atom = 28.530415
Neighbor list builds = 0
Dangerous builds = 0
The dot product: -1.81999727330829e-07
Setting atom values ...
  1 settings made for x
  1 settings made for y
  1 settings made for z
Setting up cg style minimization ...
  Unit style    : metal
  Current step  : 5700
Per MPI rank memory allocation (min/avg/max) = 5.441 | 5.816 | 6.074 Mbytes
Step PotEng KinEng TotEng v_fx v_fy v_fz 
    5700   -1152448.6            0   -1152448.6  -0.09042016   0.01574344 -0.0040966279 
    5857   -1152448.6            0   -1152448.6 -4.4098338e-05 6.562901e-06 -2.1037571e-06 
Loop time of 1.82026 on 104 procs for 157 steps with 288751 atoms

99.9% CPU use with 104 MPI tasks x 1 OpenMP threads

Minimization stats:
  Stopping criterion = energy tolerance
  Energy initial, next-to-last, final = 
     -1152448.62459304  -1152448.62629368  -1152448.62629368
  Force two-norm initial, final = 0.20678645 0.00016220086
  Force max component initial, final = 0.09042016 6.5162384e-05
  Final line search alpha, max atom move = 1.0000000 6.5162384e-05
  Iterations, force evaluations = 157 314

MPI task timing breakdown:
Section |  min time  |  avg time  |  max time  |%varavg| %total
---------------------------------------------------------------
Pair    | 0.47907    | 1.3199     | 1.7264     |  31.0 | 72.51
Neigh   | 0          | 0          | 0          |   0.0 |  0.00
Comm    | 0.028123   | 0.29495    | 0.89166    |  45.9 | 16.20
Output  | 0          | 0          | 0          |   0.0 |  0.00
Modify  | 1.9609e-05 | 0.0025845  | 0.0055131  |   2.4 |  0.14
Other   |            | 0.2028     |            |       | 11.14

Nlocal:        2776.45 ave        3960 max           0 min
Histogram: 8 4 4 0 4 12 8 4 26 34
Nghost:        3879.03 ave        5426 max         232 min
Histogram: 8 0 8 0 16 0 8 8 16 40
Neighs:        79213.3 ave      115415 max           0 min
Histogram: 8 4 4 0 10 6 8 8 24 32

Total # of neighbors = 8238187
Ave neighs/atom = 28.530419
Neighbor list builds = 0
Dangerous builds = 0
The dot product: 3.35043138043975e-07
Setting atom values ...
  1 settings made for x
  1 settings made for y
  1 settings made for z
Setting up cg style minimization ...
  Unit style    : metal
  Current step  : 5857
Per MPI rank memory allocation (min/avg/max) = 5.441 | 5.816 | 6.074 Mbytes
Step PotEng KinEng TotEng v_fx v_fy v_fz 
    5857   -1152448.6            0   -1152448.6 -0.088042243   0.02078117 -0.0024230622 
    6000   -1152448.6            0   -1152448.6 -0.00011022995 1.2254426e-05 -4.3211761e-06 
    6016   -1152448.6            0   -1152448.6 5.409565e-05 -5.9184502e-06 2.1295568e-06 
Loop time of 1.84881 on 104 procs for 159 steps with 288751 atoms

99.9% CPU use with 104 MPI tasks x 1 OpenMP threads

Minimization stats:
  Stopping criterion = energy tolerance
  Energy initial, next-to-last, final = 
     -1152448.59434845  -1152448.59600654  -1152448.59600654
  Force two-norm initial, final = 0.20496895 0.0001524743
  Force max component initial, final = 0.088042243 6.1835944e-05
  Final line search alpha, max atom move = 1.0000000 6.1835944e-05
  Iterations, force evaluations = 159 318

MPI task timing breakdown:
Section |  min time  |  avg time  |  max time  |%varavg| %total
---------------------------------------------------------------
Pair    | 0.48372    | 1.3393     | 1.7478     |  31.2 | 72.44
Neigh   | 0          | 0          | 0          |   0.0 |  0.00
Comm    | 0.030455   | 0.30039    | 0.91198    |  46.2 | 16.25
Output  | 0.00010638 | 0.0001137  | 0.00025105 |   0.0 |  0.01
Modify  | 2.0055e-05 | 0.0026162  | 0.0055905  |   2.4 |  0.14
Other   |            | 0.2064     |            |       | 11.16

Nlocal:        2776.45 ave        3960 max           0 min
Histogram: 8 4 4 0 4 12 8 4 26 34
Nghost:        3879.05 ave        5426 max         232 min
Histogram: 8 0 8 0 16 0 8 8 16 40
Neighs:        79213.3 ave      115415 max           0 min
Histogram: 8 4 4 0 10 6 8 8 24 32

Total # of neighbors = 8238186
Ave neighs/atom = 28.530415
Neighbor list builds = 0
Dangerous builds = 0
The dot product: -4.34622638251817e-07
Setting atom values ...
  1 settings made for x
  1 settings made for y
  1 settings made for z
Setting up cg style minimization ...
  Unit style    : metal
  Current step  : 6016
Per MPI rank memory allocation (min/avg/max) = 5.441 | 5.816 | 6.074 Mbytes
Step PotEng KinEng TotEng v_fx v_fy v_fz 
    6016   -1152448.6            0   -1152448.6 -0.084470262  0.026322836 -0.00067545693 
    6165   -1152448.6            0   -1152448.6 1.7178134e-05 -7.5608844e-08 6.3445996e-07 
Loop time of 1.72551 on 104 procs for 149 steps with 288751 atoms

99.9% CPU use with 104 MPI tasks x 1 OpenMP threads

Minimization stats:
  Stopping criterion = energy tolerance
  Energy initial, next-to-last, final = 
      -1152448.5628056  -1152448.56442182  -1152448.56442182
  Force two-norm initial, final = 0.20274315 0.00018336713
  Force max component initial, final = 0.087338225 1.7178134e-05
  Final line search alpha, max atom move = 1.0000000 1.7178134e-05
  Iterations, force evaluations = 149 298

MPI task timing breakdown:
Section |  min time  |  avg time  |  max time  |%varavg| %total
---------------------------------------------------------------
Pair    | 0.45443    | 1.2512     | 1.6365     |  30.1 | 72.51
Neigh   | 0          | 0          | 0          |   0.0 |  0.00
Comm    | 0.026563   | 0.27958    | 0.8465     |  44.7 | 16.20
Output  | 0          | 0          | 0          |   0.0 |  0.00
Modify  | 1.8758e-05 | 0.0024556  | 0.005215   |   2.3 |  0.14
Other   |            | 0.1922     |            |       | 11.14

Nlocal:        2776.45 ave        3960 max           0 min
Histogram: 8 4 4 0 4 12 8 4 26 34
Nghost:        3879.05 ave        5426 max         232 min
Histogram: 8 0 8 0 16 0 8 8 16 40
Neighs:        79213.4 ave      115416 max           0 min
Histogram: 8 4 4 0 10 6 8 8 24 32

Total # of neighbors = 8238192
Ave neighs/atom = 28.530436
Neighbor list builds = 0
Dangerous builds = 0
The dot product: -1.43985688216207e-07
Setting atom values ...
  1 settings made for x
  1 settings made for y
  1 settings made for z
Setting up cg style minimization ...
  Unit style    : metal
  Current step  : 6165
Per MPI rank memory allocation (min/avg/max) = 5.441 | 5.816 | 6.074 Mbytes
Step PotEng KinEng TotEng v_fx v_fy v_fz 
    6165   -1152448.5            0   -1152448.5 -0.080105001  0.039440289 0.0018932644 
    6461   -1152448.6            0   -1152448.6 1.6177954e-05 -3.2985707e-06 7.7605807e-08 
Loop time of 3.42434 on 104 procs for 296 steps with 288751 atoms

99.9% CPU use with 104 MPI tasks x 1 OpenMP threads

Minimization stats:
  Stopping criterion = energy tolerance
  Energy initial, next-to-last, final = 
     -1152448.53018411  -1152448.61490658  -1152448.61490658
  Force two-norm initial, final = 0.20236166 3.9156856e-05
  Force max component initial, final = 0.089119744 1.6177954e-05
  Final line search alpha, max atom move = 1.0000000 1.6177954e-05
  Iterations, force evaluations = 296 591

MPI task timing breakdown:
Section |  min time  |  avg time  |  max time  |%varavg| %total
---------------------------------------------------------------
Pair    | 0.91326    | 2.4851     | 3.2321     |  42.1 | 72.57
Neigh   | 3.0528e-05 | 0.0088913  | 0.012954   |   3.9 |  0.26
Comm    | 0.055416   | 0.55164    | 1.669      |  63.1 | 16.11
Output  | 0          | 0          | 0          |   0.0 |  0.00
Modify  | 3.6452e-05 | 0.0048589  | 0.010331   |   3.3 |  0.14
Other   |            | 0.3739     |            |       | 10.92

Nlocal:        2776.45 ave        3960 max           0 min
Histogram: 8 4 4 0 4 12 8 4 26 34
Nghost:        3879.05 ave        5426 max         232 min
Histogram: 8 0 8 0 16 0 8 8 16 40
Neighs:        79213.4 ave      115415 max           0 min
Histogram: 8 4 4 0 10 6 8 8 24 32

Total # of neighbors = 8238193
Ave neighs/atom = 28.530440
Neighbor list builds = 3
Dangerous builds = 0
The dot product: -1.68609402875268e-06
Setting atom values ...
  1 settings made for x
  1 settings made for y
  1 settings made for z
Setting up cg style minimization ...
  Unit style    : metal
  Current step  : 6461
Per MPI rank memory allocation (min/avg/max) = 5.441 | 5.816 | 6.074 Mbytes
Step PotEng KinEng TotEng v_fx v_fy v_fz 
    6461   -1152448.6            0   -1152448.6 -0.080801397    0.1440522  0.087046523 
    6773     -1152449            0     -1152449 7.4472185e-07 -5.9057578e-07 -3.7068086e-07 
Loop time of 3.62875 on 104 procs for 312 steps with 288751 atoms

99.9% CPU use with 104 MPI tasks x 1 OpenMP threads

Minimization stats:
  Stopping criterion = energy tolerance
  Energy initial, next-to-last, final = 
      -1152448.6081466    -1152448.995534    -1152448.995534
  Force two-norm initial, final = 0.23261392 0.00010650182
  Force max component initial, final = 0.1440522 1.5651186e-05
  Final line search alpha, max atom move = 1.0000000 1.5651186e-05
  Iterations, force evaluations = 312 621

MPI task timing breakdown:
Section |  min time  |  avg time  |  max time  |%varavg| %total
---------------------------------------------------------------
Pair    | 0.96836    | 2.6037     | 3.383      |  42.8 | 71.75
Neigh   | 5.0926e-05 | 0.014819   | 0.021516   |   5.0 |  0.41
Comm    | 0.058365   | 0.58294    | 1.7452     |  63.7 | 16.06
Output  | 0          | 0          | 0          |   0.0 |  0.00
Modify  | 3.9333e-05 | 0.0051015  | 0.01089    |   3.4 |  0.14
Other   |            | 0.4222     |            |       | 11.63

Nlocal:        2776.45 ave        3960 max           0 min
Histogram: 8 4 4 0 4 12 8 2 28 34
Nghost:        3879.10 ave        5426 max         232 min
Histogram: 8 0 8 0 16 0 8 8 16 40
Neighs:        79213.7 ave      115421 max           0 min
Histogram: 8 4 4 0 10 6 8 8 24 32

Total # of neighbors = 8238221
Ave neighs/atom = 28.530537
Neighbor list builds = 5
Dangerous builds = 0
The dot product: -6.40568018194859e-07
Setting atom values ...
  1 settings made for x
  1 settings made for y
  1 settings made for z
Setting up cg style minimization ...
  Unit style    : metal
  Current step  : 6773
Per MPI rank memory allocation (min/avg/max) = 5.441 | 5.816 | 6.074 Mbytes
Step PotEng KinEng TotEng v_fx v_fy v_fz 
    6773     -1152449            0     -1152449   0.59349352  -0.10493675  -0.81685747 
    7000   -1152449.2            0   -1152449.2 -0.00010101272 -6.4652161e-05 1.1002669e-05 
    7069   -1152449.2            0   -1152449.2 -7.1889653e-06 5.944446e-06 1.7145757e-05 
Loop time of 3.45444 on 104 procs for 296 steps with 288751 atoms

99.9% CPU use with 104 MPI tasks x 1 OpenMP threads

Minimization stats:
  Stopping criterion = energy tolerance
  Energy initial, next-to-last, final = 
     -1152449.01911176  -1152449.18259936  -1152449.18259936
  Force two-norm initial, final = 1.0266816 6.7777930e-05
  Force max component initial, final = 0.81685747 1.7145757e-05
  Final line search alpha, max atom move = 1.0000000 1.7145757e-05
  Iterations, force evaluations = 296 592

MPI task timing breakdown:
Section |  min time  |  avg time  |  max time  |%varavg| %total
---------------------------------------------------------------
Pair    | 0.90619    | 2.4946     | 3.2672     |  42.4 | 72.22
Neigh   | 2.0139e-05 | 0.0059213  | 0.008487   |   3.2 |  0.17
Comm    | 0.053902   | 0.56189    | 1.6935     |  62.6 | 16.27
Output  | 0.00014155 | 0.00014881 | 0.00030578 |   0.0 |  0.00
Modify  | 3.7708e-05 | 0.0048708  | 0.010365   |   3.3 |  0.14
Other   |            | 0.387      |            |       | 11.20

Nlocal:        2776.45 ave        3937 max           0 min
Histogram: 8 4 4 0 4 12 8 0 28 36
Nghost:        3879.13 ave        5424 max         232 min
Histogram: 8 0 8 0 16 0 8 8 16 40
Neighs:        79213.5 ave      114680 max           0 min
Histogram: 8 4 4 0 8 8 8 8 22 34

Total # of neighbors = 8238205
Ave neighs/atom = 28.530481
Neighbor list builds = 2
Dangerous builds = 0
The dot product: -5.64494025644577e-06
Setting atom values ...
  1 settings made for x
  1 settings made for y
  1 settings made for z
Setting up cg style minimization ...
  Unit style    : metal
  Current step  : 7069
Per MPI rank memory allocation (min/avg/max) = 5.441 | 5.816 | 6.074 Mbytes
Step PotEng KinEng TotEng v_fx v_fy v_fz 
    7069   -1152449.2            0   -1152449.2  -0.36600809  0.088985331   0.24738218 
    7319   -1152449.2            0   -1152449.2 6.5117393e-06 1.032965e-05 8.0754682e-06 
Loop time of 2.90355 on 104 procs for 250 steps with 288751 atoms

99.9% CPU use with 104 MPI tasks x 1 OpenMP threads

Minimization stats:
  Stopping criterion = energy tolerance
  Energy initial, next-to-last, final = 
     -1152449.20649385  -1152449.23291501  -1152449.23291501
  Force two-norm initial, final = 0.48111004 5.3768885e-05
  Force max component initial, final = 0.36600809 1.1543607e-05
  Final line search alpha, max atom move = 1.0000000 1.1543607e-05
  Iterations, force evaluations = 250 500

MPI task timing breakdown:
Section |  min time  |  avg time  |  max time  |%varavg| %total
---------------------------------------------------------------
Pair    | 0.76153    | 2.0947     | 2.7319     |  38.9 | 72.14
Neigh   | 1.0178e-05 | 0.0029671  | 0.0042978  |   2.2 |  0.10
Comm    | 0.046633   | 0.46749    | 1.4131     |  57.9 | 16.10
Output  | 0          | 0          | 0          |   0.0 |  0.00
Modify  | 3.1397e-05 | 0.004111   | 0.0087843  |   3.0 |  0.14
Other   |            | 0.3342     |            |       | 11.51

Nlocal:        2776.45 ave        3934 max           0 min
Histogram: 8 4 4 0 4 12 8 0 28 36
Nghost:        3879.16 ave        5425 max         232 min
Histogram: 8 0 8 0 16 0 8 8 16 40
Neighs:        79213.4 ave      114638 max           0 min
Histogram: 8 4 4 0 8 8 8 8 22 34

Total # of neighbors = 8238196
Ave neighs/atom = 28.530450
Neighbor list builds = 1
Dangerous builds = 0
The dot product: -4.81928842183802e-08
Setting atom values ...
  1 settings made for x
  1 settings made for y
  1 settings made for z
Setting up cg style minimization ...
  Unit style    : metal
  Current step  : 7319
Per MPI rank memory allocation (min/avg/max) = 5.441 | 5.816 | 6.074 Mbytes
Step PotEng KinEng TotEng v_fx v_fy v_fz 
    7319   -1152449.3            0   -1152449.3  0.083077809 -0.0017544871 -0.053123002 
    7539   -1152449.3            0   -1152449.3 8.1654852e-07 1.8398425e-05 2.0884687e-05 
Loop time of 2.58283 on 104 procs for 220 steps with 288751 atoms

99.9% CPU use with 104 MPI tasks x 1 OpenMP threads

Minimization stats:
  Stopping criterion = energy tolerance
  Energy initial, next-to-last, final = 
     -1152449.25429533  -1152449.25876734  -1152449.25876734
  Force two-norm initial, final = 0.18676265 8.1464208e-05
  Force max component initial, final = 0.088037181 2.0884687e-05
  Final line search alpha, max atom move = 1.0000000 2.0884687e-05
  Iterations, force evaluations = 220 440

MPI task timing breakdown:
Section |  min time  |  avg time  |  max time  |%varavg| %total
---------------------------------------------------------------
Pair    | 0.66979    | 1.8543     | 2.433      |  36.6 | 71.79
Neigh   | 0          | 0          | 0          |   0.0 |  0.00
Comm    | 0.039239   | 0.41626    | 1.26       |  54.2 | 16.12
Output  | 0          | 0          | 0          |   0.0 |  0.00
Modify  | 2.7655e-05 | 0.0036288  | 0.0077071  |   2.8 |  0.14
Other   |            | 0.3086     |            |       | 11.95

Nlocal:        2776.45 ave        3936 max           0 min
Histogram: 8 4 4 0 4 12 8 0 28 36
Nghost:        3879.16 ave        5426 max         232 min
Histogram: 8 0 8 0 16 0 8 8 16 40
Neighs:        79213.5 ave      114678 max           0 min
Histogram: 8 4 4 0 8 8 8 8 22 34

Total # of neighbors = 8238204
Ave neighs/atom = 28.530478
Neighbor list builds = 0
Dangerous builds = 0
The dot product: -4.30538203791412e-07
Setting atom values ...
  1 settings made for x
  1 settings made for y
  1 settings made for z
Setting up cg style minimization ...
  Unit style    : metal
  Current step  : 7539
Per MPI rank memory allocation (min/avg/max) = 5.441 | 5.816 | 6.074 Mbytes
Step PotEng KinEng TotEng v_fx v_fy v_fz 
    7539   -1152449.3            0   -1152449.3 -0.064192672 0.0071941434  0.042992016 
    7744   -1152449.3            0   -1152449.3 6.6383301e-06 -3.7415675e-06 -7.8211917e-06 
Loop time of 2.36395 on 104 procs for 205 steps with 288751 atoms

99.9% CPU use with 104 MPI tasks x 1 OpenMP threads

Minimization stats:
  Stopping criterion = energy tolerance
  Energy initial, next-to-last, final = 
     -1152449.27921661  -1152449.28081737  -1152449.28081737
  Force two-norm initial, final = 0.17881571 5.3135103e-05
  Force max component initial, final = 0.089206748 7.8211917e-06
  Final line search alpha, max atom move = 1.0000000 7.8211917e-06
  Iterations, force evaluations = 205 410

MPI task timing breakdown:
Section |  min time  |  avg time  |  max time  |%varavg| %total
---------------------------------------------------------------
Pair    | 0.62188    | 1.7169     | 2.2371     |  35.3 | 72.63
Neigh   | 0          | 0          | 0          |   0.0 |  0.00
Comm    | 0.036653   | 0.38227    | 1.1588     |  52.6 | 16.17
Output  | 0          | 0          | 0          |   0.0 |  0.00
Modify  | 2.6008e-05 | 0.0033699  | 0.0071946  |   2.7 |  0.14
Other   |            | 0.2614     |            |       | 11.06

Nlocal:        2776.45 ave        3935 max           0 min
Histogram: 8 4 4 0 4 12 8 0 28 36
Nghost:        3879.12 ave        5425 max         232 min
Histogram: 8 0 8 0 16 0 8 8 16 40
Neighs:        79213.5 ave      114664 max           0 min
Histogram: 8 4 4 0 8 8 8 8 22 34

Total # of neighbors = 8238201
Ave neighs/atom = 28.530467
Neighbor list builds = 0
Dangerous builds = 0
The dot product: -9.53765742486422e-08
Setting atom values ...
  1 settings made for x
  1 settings made for y
  1 settings made for z
Setting up cg style minimization ...
  Unit style    : metal
  Current step  : 7744
Per MPI rank memory allocation (min/avg/max) = 5.441 | 5.816 | 6.074 Mbytes
Step PotEng KinEng TotEng v_fx v_fy v_fz 
    7744   -1152449.3            0   -1152449.3 -0.018545002  0.007406901  0.018773906 
    7932   -1152449.3            0   -1152449.3 -8.5965033e-06 -4.2554838e-07 4.3310797e-06 
Loop time of 2.17481 on 104 procs for 188 steps with 288751 atoms

99.9% CPU use with 104 MPI tasks x 1 OpenMP threads

Minimization stats:
  Stopping criterion = energy tolerance
  Energy initial, next-to-last, final = 
     -1152449.29981743  -1152449.30125957  -1152449.30125957
  Force two-norm initial, final = 0.16257555 0.00010537495
  Force max component initial, final = 0.089121418 8.5965033e-06
  Final line search alpha, max atom move = 1.0000000 8.5965033e-06
  Iterations, force evaluations = 188 376

MPI task timing breakdown:
Section |  min time  |  avg time  |  max time  |%varavg| %total
---------------------------------------------------------------
Pair    | 0.57337    | 1.5813     | 2.0607     |  33.8 | 72.71
Neigh   | 0          | 0          | 0          |   0.0 |  0.00
Comm    | 0.037368   | 0.35167    | 1.0671     |  50.3 | 16.17
Output  | 0          | 0          | 0          |   0.0 |  0.00
Modify  | 2.4211e-05 | 0.0030936  | 0.006597   |   2.6 |  0.14
Other   |            | 0.2387     |            |       | 10.98

Nlocal:        2776.45 ave        3935 max           0 min
Histogram: 8 4 4 0 4 12 8 0 28 36
Nghost:        3879.14 ave        5425 max         232 min
Histogram: 8 0 8 0 16 0 8 8 16 40
Neighs:        79213.5 ave      114663 max           0 min
Histogram: 8 4 4 0 8 8 8 8 22 34

Total # of neighbors = 8238202
Ave neighs/atom = 28.530471
Neighbor list builds = 0
Dangerous builds = 0
The dot product: -4.58891613525637e-08
Setting atom values ...
  1 settings made for x
  1 settings made for y
  1 settings made for z
Setting up cg style minimization ...
  Unit style    : metal
  Current step  : 7932
Per MPI rank memory allocation (min/avg/max) = 5.441 | 5.816 | 6.074 Mbytes
Step PotEng KinEng TotEng v_fx v_fy v_fz 
    7932   -1152449.3            0   -1152449.3 -0.031135651 0.0080184906  0.026258165 
    8000   -1152449.3            0   -1152449.3 9.9150285e-05 0.00010128973 5.9664861e-05 
    8097   -1152449.3            0   -1152449.3 -5.7190836e-07 -4.1754413e-05 -4.6857191e-05 
Loop time of 1.90725 on 104 procs for 165 steps with 288751 atoms

99.9% CPU use with 104 MPI tasks x 1 OpenMP threads

Minimization stats:
  Stopping criterion = energy tolerance
  Energy initial, next-to-last, final = 
     -1152449.31892036  -1152449.32033041  -1152449.32033041
  Force two-norm initial, final = 0.16582571 0.00022140141
  Force max component initial, final = 0.089168494 5.6451835e-05
  Final line search alpha, max atom move = 1.0000000 5.6451835e-05
  Iterations, force evaluations = 165 330

MPI task timing breakdown:
Section |  min time  |  avg time  |  max time  |%varavg| %total
---------------------------------------------------------------
Pair    | 0.49919    | 1.3834     | 1.807      |  31.8 | 72.53
Neigh   | 0          | 0          | 0          |   0.0 |  0.00
Comm    | 0.029026   | 0.30946    | 0.93505    |  47.0 | 16.23
Output  | 0.00015219 | 0.00016298 | 0.00027047 |   0.0 |  0.01
Modify  | 2.1356e-05 | 0.0027211  | 0.0058626  |   2.5 |  0.14
Other   |            | 0.2115     |            |       | 11.09

Nlocal:        2776.45 ave        3936 max           0 min
Histogram: 8 4 4 0 4 12 8 0 28 36
Nghost:        3879.16 ave        5425 max         232 min
Histogram: 8 0 8 0 16 0 8 8 16 40
Neighs:        79213.5 ave      114696 max           0 min
Histogram: 8 4 4 0 8 8 8 8 22 34

Total # of neighbors = 8238199
Ave neighs/atom = 28.530461
Neighbor list builds = 0
Dangerous builds = 0
The dot product: 1.37136176596626e-08
Setting atom values ...
  1 settings made for x
  1 settings made for y
  1 settings made for z
Setting up cg style minimization ...
  Unit style    : metal
  Current step  : 8097
Per MPI rank memory allocation (min/avg/max) = 5.441 | 5.816 | 6.074 Mbytes
Step PotEng KinEng TotEng v_fx v_fy v_fz 
    8097   -1152449.3            0   -1152449.3 -0.028557648 0.0090941556   0.02600462 
    8294   -1152449.3            0   -1152449.3 -9.972295e-06 -7.0870815e-06 -2.5090584e-06 
Loop time of 2.2763 on 104 procs for 197 steps with 288751 atoms

99.9% CPU use with 104 MPI tasks x 1 OpenMP threads

Minimization stats:
  Stopping criterion = energy tolerance
  Energy initial, next-to-last, final = 
     -1152449.33665451  -1152449.33807992  -1152449.33807992
  Force two-norm initial, final = 0.16565929 8.0313912e-05
  Force max component initial, final = 0.089121929 1.1953562e-05
  Final line search alpha, max atom move = 1.0000000 1.1953562e-05
  Iterations, force evaluations = 197 394

MPI task timing breakdown:
Section |  min time  |  avg time  |  max time  |%varavg| %total
---------------------------------------------------------------
Pair    | 0.59617    | 1.6584     | 2.1533     |  34.7 | 72.86
Neigh   | 0          | 0          | 0          |   0.0 |  0.00
Comm    | 0.03614    | 0.37118    | 1.1268     |  51.7 | 16.31
Output  | 0          | 0          | 0          |   0.0 |  0.00
Modify  | 2.5102e-05 | 0.0032434  | 0.0069598  |   2.7 |  0.14
Other   |            | 0.2435     |            |       | 10.70

Nlocal:        2776.45 ave        3939 max           0 min
Histogram: 8 4 4 0 4 12 8 2 26 36
Nghost:        3879.16 ave        5425 max         232 min
Histogram: 8 0 8 0 16 0 8 8 16 40
Neighs:        79213.5 ave      114762 max           0 min
Histogram: 8 4 4 0 10 6 8 8 22 34

Total # of neighbors = 8238200
Ave neighs/atom = 28.530464
Neighbor list builds = 0
Dangerous builds = 0
The dot product: -1.95564049162459e-08
Setting atom values ...
  1 settings made for x
  1 settings made for y
  1 settings made for z
Setting up cg style minimization ...
  Unit style    : metal
  Current step  : 8294
Per MPI rank memory allocation (min/avg/max) = 5.441 | 5.816 | 6.074 Mbytes
Step PotEng KinEng TotEng v_fx v_fy v_fz 
    8294   -1152449.4            0   -1152449.4 -0.029758745 0.0099429427  0.027522879 
[...]

Nlocal:        2776.45 ave        3945 max           0 min
Histogram: 8 4 4 0 4 12 8 4 22 38
Nghost:        3879.60 ave        5428 max         232 min
Histogram: 8 0 8 0 16 0 8 8 16 40
Neighs:        79213.4 ave      114783 max           0 min
Histogram: 8 4 4 0 10 6 8 8 20 36

Total # of neighbors = 8238198
Ave neighs/atom = 28.530457
Neighbor list builds = 0
Dangerous builds = 0
The dot product: -8.95539181942972e-08
Setting atom values ...
  1 settings made for x
  1 settings made for y
  1 settings made for z
Setting up cg style minimization ...
  Unit style    : metal
  Current step  : 3205
Per MPI rank memory allocation (min/avg/max) = 5.441 | 5.816 | 6.074 Mbytes
Step PotEng KinEng TotEng v_fx v_fy v_fz 
    3205   -1152449.4            0   -1152449.4  0.033218613 -0.00025373666 -0.012180946 
    3360   -1152449.4            0   -1152449.4 3.9975959e-06 2.3368192e-06 -1.4940386e-06 
Loop time of 1.78327 on 104 procs for 155 steps with 288751 atoms

99.9% CPU use with 104 MPI tasks x 1 OpenMP threads

Minimization stats:
  Stopping criterion = energy tolerance
  Energy initial, next-to-last, final = 
     -1152449.43843578  -1152449.44039188  -1152449.44039188
  Force two-norm initial, final = 0.20296815 0.00023934827
  Force max component initial, final = 0.10119757 2.7265001e-05
  Final line search alpha, max atom move = 1.0000000 2.7265001e-05
  Iterations, force evaluations = 155 310

MPI task timing breakdown:
Section |  min time  |  avg time  |  max time  |%varavg| %total
---------------------------------------------------------------
Pair    | 0.4691     | 1.2956     | 1.686      |  30.7 | 72.65
Neigh   | 0          | 0          | 0          |   0.0 |  0.00
Comm    | 0.028647   | 0.29089    | 0.88028    |  45.5 | 16.31
Output  | 0          | 0          | 0          |   0.0 |  0.00
Modify  | 1.9701e-05 | 0.0025537  | 0.0054193  |   2.4 |  0.14
Other   |            | 0.1942     |            |       | 10.89

Nlocal:        2776.45 ave        3945 max           0 min
Histogram: 8 4 4 0 4 12 8 4 22 38
Nghost:        3879.53 ave        5428 max         232 min
Histogram: 8 0 8 0 16 0 8 8 16 40
Neighs:        79213.4 ave      114787 max           0 min
Histogram: 8 4 4 0 10 6 8 8 20 36

Total # of neighbors = 8238196
Ave neighs/atom = 28.530450
Neighbor list builds = 0
Dangerous builds = 0
The dot product: 1.10373375905131e-08
Setting atom values ...
  1 settings made for x
  1 settings made for y
  1 settings made for z
Setting up cg style minimization ...
  Unit style    : metal
  Current step  : 3360
Per MPI rank memory allocation (min/avg/max) = 5.441 | 5.816 | 6.074 Mbytes
Step PotEng KinEng TotEng v_fx v_fy v_fz 
    3360   -1152449.4            0   -1152449.4  0.030260571 0.00095422803 -0.011421859 
    3524   -1152449.4            0   -1152449.4 4.0645562e-07 -9.179371e-07 -1.415418e-07 
Loop time of 1.88874 on 104 procs for 164 steps with 288751 atoms

99.9% CPU use with 104 MPI tasks x 1 OpenMP threads

Minimization stats:
  Stopping criterion = energy tolerance
  Energy initial, next-to-last, final = 
     -1152449.43968809  -1152449.44164348  -1152449.44164348
  Force two-norm initial, final = 0.20234316 0.00016147469
  Force max component initial, final = 0.099548019 8.2050518e-06
  Final line search alpha, max atom move = 1.0000000 8.2050518e-06
  Iterations, force evaluations = 164 328

MPI task timing breakdown:
Section |  min time  |  avg time  |  max time  |%varavg| %total
---------------------------------------------------------------
Pair    | 0.4967     | 1.3748     | 1.7887     |  31.8 | 72.79
Neigh   | 0          | 0          | 0          |   0.0 |  0.00
Comm    | 0.027972   | 0.31313    | 0.93578    |  46.6 | 16.58
Output  | 0          | 0          | 0          |   0.0 |  0.00
Modify  | 2.073e-05  | 0.0026981  | 0.0057443  |   2.5 |  0.14
Other   |            | 0.1981     |            |       | 10.49

Nlocal:        2776.45 ave        3945 max           0 min
Histogram: 8 4 4 0 4 12 8 4 22 38
Nghost:        3879.51 ave        5428 max         232 min
Histogram: 8 0 8 0 16 0 8 8 16 40
Neighs:        79213.5 ave      114795 max           0 min
Histogram: 8 4 4 0 10 6 8 8 20 36

Total # of neighbors = 8238199
Ave neighs/atom = 28.530461
Neighbor list builds = 0
Dangerous builds = 0
The dot product: 4.77380499964102e-10
Setting atom values ...
  1 settings made for x
  1 settings made for y
  1 settings made for z
Setting up cg style minimization ...
  Unit style    : metal
  Current step  : 3524
Per MPI rank memory allocation (min/avg/max) = 5.441 | 5.816 | 6.074 Mbytes
Step PotEng KinEng TotEng v_fx v_fy v_fz 
    3524   -1152449.4            0   -1152449.4   0.03358237 0.0018648584 -0.012877034 
    3734   -1152449.4            0   -1152449.4 3.9391728e-06 -2.3287997e-07 -1.5044235e-06 
Loop time of 2.40832 on 104 procs for 210 steps with 288751 atoms

99.9% CPU use with 104 MPI tasks x 1 OpenMP threads

Minimization stats:
  Stopping criterion = energy tolerance
  Energy initial, next-to-last, final = 
     -1152449.43891676  -1152449.44088137  -1152449.44088137
  Force two-norm initial, final = 0.20293047 4.4703483e-05
  Force max component initial, final = 0.097752676 1.0105627e-05
  Final line search alpha, max atom move = 1.0000000 1.0105627e-05
  Iterations, force evaluations = 210 420

MPI task timing breakdown:
Section |  min time  |  avg time  |  max time  |%varavg| %total
---------------------------------------------------------------
Pair    | 0.63469    | 1.7538     | 2.2769     |  35.8 | 72.82
Neigh   | 0          | 0          | 0          |   0.0 |  0.00
Comm    | 0.042106   | 0.39272    | 1.201      |  53.2 | 16.31
Output  | 0          | 0          | 0          |   0.0 |  0.00
Modify  | 2.6761e-05 | 0.0034484  | 0.0073501  |   2.8 |  0.14
Other   |            | 0.2583     |            |       | 10.73

Nlocal:        2776.45 ave        3945 max           0 min
Histogram: 8 4 4 0 4 12 8 3 23 38
Nghost:        3879.47 ave        5428 max         232 min
Histogram: 8 0 8 0 16 0 8 8 16 40
Neighs:        79213.4 ave      114796 max           0 min
Histogram: 8 4 4 0 10 6 8 8 21 35

Total # of neighbors = 8238198
Ave neighs/atom = 28.530457
Neighbor list builds = 0
Dangerous builds = 0
The dot product: 9.05827147878816e-09
Setting atom values ...
  1 settings made for x
  1 settings made for y
  1 settings made for z
Setting up cg style minimization ...
  Unit style    : metal
  Current step  : 3734
Per MPI rank memory allocation (min/avg/max) = 5.441 | 5.816 | 6.074 Mbytes
Step PotEng KinEng TotEng v_fx v_fy v_fz 
    3734   -1152449.4            0   -1152449.4  0.035265279 0.00033953796 -0.013779696 
    3906   -1152449.4            0   -1152449.4 -6.6980844e-06 -1.8627425e-06 2.6425219e-06 
Loop time of 1.97329 on 104 procs for 172 steps with 288751 atoms

99.9% CPU use with 104 MPI tasks x 1 OpenMP threads

Minimization stats:
  Stopping criterion = energy tolerance
  Energy initial, next-to-last, final = 
     -1152449.43614503  -1152449.43810335  -1152449.43810335
  Force two-norm initial, final = 0.20297638 0.00015773604
  Force max component initial, final = 0.096283275 1.6316896e-05
  Final line search alpha, max atom move = 1.0000000 1.6316896e-05
  Iterations, force evaluations = 172 344

MPI task timing breakdown:
Section |  min time  |  avg time  |  max time  |%varavg| %total
---------------------------------------------------------------
Pair    | 0.5206     | 1.4418     | 1.8686     |  32.5 | 73.06
Neigh   | 0          | 0          | 0          |   0.0 |  0.00
Comm    | 0.029357   | 0.32725    | 0.97543    |  47.8 | 16.58
Output  | 0          | 0          | 0          |   0.0 |  0.00
Modify  | 2.186e-05  | 0.0028338  | 0.0060919  |   2.5 |  0.14
Other   |            | 0.2014     |            |       | 10.21

Nlocal:        2776.45 ave        3945 max           0 min
Histogram: 8 4 4 0 4 12 8 3 23 38
Nghost:        3879.49 ave        5428 max         232 min
Histogram: 8 0 8 0 16 0 8 8 16 40
Neighs:        79213.5 ave      114786 max           0 min
Histogram: 8 4 4 0 10 6 8 8 21 35

Total # of neighbors = 8238200
Ave neighs/atom = 28.530464
Neighbor list builds = 0
Dangerous builds = 0
The dot product: -1.8899490355939e-08
Setting atom values ...
  1 settings made for x
  1 settings made for y
  1 settings made for z
Setting up cg style minimization ...
  Unit style    : metal
  Current step  : 3906
Per MPI rank memory allocation (min/avg/max) = 5.441 | 5.816 | 6.074 Mbytes
Step PotEng KinEng TotEng v_fx v_fy v_fz 
    3906   -1152449.4            0   -1152449.4   0.03552724 -0.00061608432 -0.014198093 
    4000   -1152449.4            0   -1152449.4 -0.00037439005 -4.3939622e-05 0.00015030034 
    4100   -1152449.4            0   -1152449.4 8.0000187e-06 -6.1780618e-07 -3.1906721e-06 
Loop time of 2.22903 on 104 procs for 194 steps with 288751 atoms

99.9% CPU use with 104 MPI tasks x 1 OpenMP threads

Minimization stats:
  Stopping criterion = energy tolerance
  Energy initial, next-to-last, final = 
     -1152449.43136498  -1152449.43331329  -1152449.43331329
  Force two-norm initial, final = 0.20261341 9.6810242e-05
  Force max component initial, final = 0.098702432 1.8660393e-05
  Final line search alpha, max atom move = 1.0000000 1.8660393e-05
  Iterations, force evaluations = 194 388

MPI task timing breakdown:
Section |  min time  |  avg time  |  max time  |%varavg| %total
---------------------------------------------------------------
Pair    | 0.58764    | 1.6233     | 2.1127     |  34.4 | 72.82
Neigh   | 0          | 0          | 0          |   0.0 |  0.00
Comm    | 0.034222   | 0.3641     | 1.1112     |  51.1 | 16.33
Output  | 0.00010834 | 0.00011078 | 0.00025874 |   0.0 |  0.00
Modify  | 2.3477e-05 | 0.0031924  | 0.0068342  |   2.7 |  0.14
Other   |            | 0.2383     |            |       | 10.69

Nlocal:        2776.45 ave        3945 max           0 min
Histogram: 8 4 4 0 4 12 8 2 24 38
Nghost:        3879.49 ave        5428 max         232 min
Histogram: 8 0 8 0 16 0 8 8 16 40
Neighs:        79213.4 ave      114780 max           0 min
Histogram: 8 4 4 0 10 6 8 8 21 35

Total # of neighbors = 8238198
Ave neighs/atom = 28.530457
Neighbor list builds = 0
Dangerous builds = 0
The dot product: 2.40957884715831e-08
Setting atom values ...
  1 settings made for x
  1 settings made for y
  1 settings made for z
Setting up cg style minimization ...
  Unit style    : metal
  Current step  : 4100
Per MPI rank memory allocation (min/avg/max) = 5.441 | 5.816 | 6.074 Mbytes
Step PotEng KinEng TotEng v_fx v_fy v_fz 
    4100   -1152449.4            0   -1152449.4  0.035390971 -0.0018075373 -0.014452272 
    4263   -1152449.4            0   -1152449.4 -3.8479319e-05 -1.3300943e-06 1.5755496e-05 
Loop time of 1.87018 on 104 procs for 163 steps with 288751 atoms

99.9% CPU use with 104 MPI tasks x 1 OpenMP threads

Minimization stats:
  Stopping criterion = energy tolerance
  Energy initial, next-to-last, final = 
     -1152449.42457569  -1152449.42651378  -1152449.42651378
  Force two-norm initial, final = 0.20214833 0.00021727931
  Force max component initial, final = 0.10111365 3.8479319e-05
  Final line search alpha, max atom move = 1.0000000 3.8479319e-05
  Iterations, force evaluations = 163 326

MPI task timing breakdown:
Section |  min time  |  avg time  |  max time  |%varavg| %total
---------------------------------------------------------------
Pair    | 0.49376    | 1.3656     | 1.7687     |  31.6 | 73.02
Neigh   | 0          | 0          | 0          |   0.0 |  0.00
Comm    | 0.031282   | 0.31079    | 0.93015    |  46.4 | 16.62
Output  | 0          | 0          | 0          |   0.0 |  0.00
Modify  | 2.0657e-05 | 0.0026841  | 0.0057333  |   2.5 |  0.14
Other   |            | 0.1911     |            |       | 10.22

Nlocal:        2776.45 ave        3945 max           0 min
Histogram: 8 4 4 0 4 12 8 2 24 38
Nghost:        3879.51 ave        5428 max         232 min
Histogram: 8 0 8 0 16 0 8 8 16 40
Neighs:        79213.5 ave      114776 max           0 min
Histogram: 8 4 4 0 10 6 8 8 22 34

Total # of neighbors = 8238201
Ave neighs/atom = 28.530467
Neighbor list builds = 0
Dangerous builds = 0
The dot product: -1.18787559936701e-07
Setting atom values ...
  1 settings made for x
  1 settings made for y
  1 settings made for z
Setting up cg style minimization ...
  Unit style    : metal
  Current step  : 4263
Per MPI rank memory allocation (min/avg/max) = 5.441 | 5.816 | 6.074 Mbytes
Step PotEng KinEng TotEng v_fx v_fy v_fz 
    4263   -1152449.4            0   -1152449.4   0.03493893 -0.0033722761  -0.01456341 
    4437   -1152449.4            0   -1152449.4 4.099848e-05 3.117953e-06 -1.7174223e-05 
Loop time of 2.0152 on 104 procs for 174 steps with 288751 atoms

99.9% CPU use with 104 MPI tasks x 1 OpenMP threads

Minimization stats:
  Stopping criterion = energy tolerance
  Energy initial, next-to-last, final = 
     -1152449.41578594  -1152449.41771304  -1152449.41771304
  Force two-norm initial, final = 0.20161605 0.00015139356
  Force max component initial, final = 0.10353723 4.0998480e-05
  Final line search alpha, max atom move = 1.0000000 4.0998480e-05
  Iterations, force evaluations = 174 348

MPI task timing breakdown:
Section |  min time  |  avg time  |  max time  |%varavg| %total
---------------------------------------------------------------
Pair    | 0.52657    | 1.4554     | 1.8902     |  32.6 | 72.22
Neigh   | 0          | 0          | 0          |   0.0 |  0.00
Comm    | 0.031219   | 0.32667    | 1.0019     |  48.2 | 16.21
Output  | 0          | 0          | 0          |   0.0 |  0.00
Modify  | 2.2288e-05 | 0.0028581  | 0.0061032  |   2.5 |  0.14
Other   |            | 0.2302     |            |       | 11.43

Nlocal:        2776.45 ave        3945 max           0 min
Histogram: 8 4 4 0 4 12 8 2 24 38
Nghost:        3879.49 ave        5427 max         232 min
Histogram: 8 0 8 0 16 0 8 8 16 40
Neighs:        79213.6 ave      114759 max           0 min
Histogram: 8 4 4 0 10 6 8 8 22 34

Total # of neighbors = 8238210
Ave neighs/atom = 28.530499
Neighbor list builds = 0
Dangerous builds = 0
The dot product: 1.26713675658108e-07
Setting atom values ...
  1 settings made for x
  1 settings made for y
  1 settings made for z
Setting up cg style minimization ...
  Unit style    : metal
  Current step  : 4437
Per MPI rank memory allocation (min/avg/max) = 5.441 | 5.816 | 6.074 Mbytes
Step PotEng KinEng TotEng v_fx v_fy v_fz 
    4437   -1152449.4            0   -1152449.4  0.034285794 -0.0053209829 -0.014566039 
    4617   -1152449.4            0   -1152449.4 1.3612923e-05 1.8264138e-06 -5.8273851e-06 
Loop time of 2.07381 on 104 procs for 180 steps with 288751 atoms

99.9% CPU use with 104 MPI tasks x 1 OpenMP threads

Minimization stats:
  Stopping criterion = energy tolerance
  Energy initial, next-to-last, final = 
     -1152449.40500871  -1152449.40692371  -1152449.40692371
  Force two-norm initial, final = 0.20111894 0.00014433095
  Force max component initial, final = 0.10587142 2.7766087e-05
  Final line search alpha, max atom move = 1.0000000 2.7766087e-05
  Iterations, force evaluations = 180 360

MPI task timing breakdown:
Section |  min time  |  avg time  |  max time  |%varavg| %total
---------------------------------------------------------------
Pair    | 0.54457    | 1.5071     | 1.9623     |  33.2 | 72.68
Neigh   | 0          | 0          | 0          |   0.0 |  0.00
Comm    | 0.030592   | 0.34321    | 1.0352     |  48.8 | 16.55
Output  | 0          | 0          | 0          |   0.0 |  0.00
Modify  | 2.2376e-05 | 0.0029676  | 0.006339   |   2.6 |  0.14
Other   |            | 0.2205     |            |       | 10.63

Nlocal:        2776.45 ave        3945 max           0 min
Histogram: 8 4 4 0 4 12 8 2 24 38
Nghost:        3879.51 ave        5428 max         232 min
Histogram: 8 0 8 0 16 0 8 8 16 40
Neighs:        79213.6 ave      114765 max           0 min
Histogram: 8 4 4 0 10 6 8 8 22 34

Total # of neighbors = 8238211
Ave neighs/atom = 28.530502
Neighbor list builds = 0
Dangerous builds = 0
The dot product: 4.17806902666017e-08
Setting atom values ...
  1 settings made for x
  1 settings made for y
  1 settings made for z
Setting up cg style minimization ...
  Unit style    : metal
  Current step  : 4617
Per MPI rank memory allocation (min/avg/max) = 5.441 | 5.816 | 6.074 Mbytes
Step PotEng KinEng TotEng v_fx v_fy v_fz 
    4617   -1152449.4            0   -1152449.4  0.033261619 -0.0076925805 -0.014384025 
    4829   -1152449.4            0   -1152449.4 -9.8026961e-08 -4.0784645e-07 4.6762757e-08 
Loop time of 2.43094 on 104 procs for 212 steps with 288751 atoms

99.9% CPU use with 104 MPI tasks x 1 OpenMP threads

Minimization stats:
  Stopping criterion = energy tolerance
  Energy initial, next-to-last, final = 
     -1152449.39226099  -1152449.39416355  -1152449.39416355
  Force two-norm initial, final = 0.200609 3.7913746e-05
  Force max component initial, final = 0.10819799 2.1416989e-06
  Final line search alpha, max atom move = 1.0000000 2.1416989e-06
  Iterations, force evaluations = 212 424

MPI task timing breakdown:
Section |  min time  |  avg time  |  max time  |%varavg| %total
---------------------------------------------------------------
Pair    | 0.64032    | 1.7698     | 2.3026     |  35.9 | 72.80
Neigh   | 0          | 0          | 0          |   0.0 |  0.00
Comm    | 0.039618   | 0.39613    | 1.2022     |  53.1 | 16.30
Output  | 0          | 0          | 0          |   0.0 |  0.00
Modify  | 2.5822e-05 | 0.0034826  | 0.0073925  |   2.8 |  0.14
Other   |            | 0.2615     |            |       | 10.76

Nlocal:        2776.45 ave        3945 max           0 min
Histogram: 8 4 4 0 4 12 8 2 24 38
Nghost:        3879.39 ave        5427 max         232 min
Histogram: 8 0 8 0 16 0 8 8 16 40
Neighs:        79213.6 ave      114765 max           0 min
Histogram: 8 4 4 0 10 6 8 8 22 34

Total # of neighbors = 8238211
Ave neighs/atom = 28.530502
Neighbor list builds = 0
Dangerous builds = 0
The dot product: -7.99802736743087e-11
Setting up cg style minimization ...
  Unit style    : metal
  Current step  : 4829
Per MPI rank memory allocation (min/avg/max) = 5.441 | 5.816 | 6.074 Mbytes
Step PotEng KinEng TotEng v_fx v_fy v_fz 
    4829   -1152449.4            0   -1152449.4  -0.27401088 -0.0063985993   -0.6302007 
    5000   -1152449.4            0   -1152449.4 -0.00037694506 -2.7433587e-05 -0.00038351134 
    5069   -1152449.4            0   -1152449.4 -4.2371663e-05 -2.8421796e-06 1.3887699e-05 
Loop time of 2.76057 on 104 procs for 240 steps with 288751 atoms

99.9% CPU use with 104 MPI tasks x 1 OpenMP threads

Minimization stats:
  Stopping criterion = energy tolerance
  Energy initial, next-to-last, final = 
     -1152449.39416355  -1152449.44165889  -1152449.44165889
  Force two-norm initial, final = 0.68722327 0.00013269741
  Force max component initial, final = 0.6302007 4.2371663e-05
  Final line search alpha, max atom move = 1.0000000 4.2371663e-05
  Iterations, force evaluations = 240 480

MPI task timing breakdown:
Section |  min time  |  avg time  |  max time  |%varavg| %total
---------------------------------------------------------------
Pair    | 0.72852    | 2.0096     | 2.6089     |  38.3 | 72.80
Neigh   | 1.0122e-05 | 0.002955   | 0.0042849  |   2.2 |  0.11
Comm    | 0.045417   | 0.46087    | 1.3857     |  56.2 | 16.69
Output  | 0.00010523 | 0.00010855 | 0.00028398 |   0.0 |  0.00
Modify  | 2.8503e-05 | 0.0025684  | 0.0065974  |   3.2 |  0.09
Other   |            | 0.2845     |            |       | 10.31

Nlocal:        2776.45 ave        3945 max           0 min
Histogram: 8 4 4 0 4 12 8 2 24 38
Nghost:        3879.38 ave        5427 max         232 min
Histogram: 8 0 8 0 16 0 8 8 16 40
Neighs:        79213.6 ave      114769 max           0 min
Histogram: 8 4 4 0 10 6 8 8 22 34

Total # of neighbors = 8238214
Ave neighs/atom = 28.530512
Neighbor list builds = 1
Dangerous builds = 0
