LAMMPS (29 Oct 2020)
OMP_NUM_THREADS environment is not set. Defaulting to 1 thread. (../comm.cpp:94)
  using 1 OpenMP thread(s) per MPI task
OMP_NUM_THREADS environment is not set. Defaulting to 1 thread. (../comm.cpp:94)
  using 1 OpenMP thread(s) per MPI task
Reading data file ...
  orthogonal box = (-122.39241 -121.13707 -37.090501) to (122.39241 121.13707 37.090501)
  13 by 2 by 1 MPI processor grid
  reading atoms ...
  288751 atoms
  read_data CPU = 0.459 seconds
199981 atoms in group inner
88770 atoms in group outer
1 atoms in group carbon
Neighbor list info ...
  update every 1 steps, delay 0 steps, check yes
  max neighbors/atom: 2000, page size: 100000
  master list distance cutoff = 5.6
  ghost atom cutoff = 5.6
  binsize = 2.8, bins = 88 87 27
  1 neighbor lists, perpetual/occasional/extra = 1 0 0
  (1) pair eam/alloy, perpetual
      attributes: half, newton on
      pair build: half/bin/atomonly/newton
      stencil: half/bin/3d/newton
      bin: standard
Setting up cg style minimization ...
  Unit style    : metal
  Current step  : 0
Per MPI rank memory allocation (min/avg/max) = 6.233 | 10.36 | 11.60 Mbytes
Step v_fx v_fy v_fz PotEng KinEng TotEng 
       0   0.46977292   0.32970043  -0.35841066   -1152447.8            0   -1152447.8 
     157 1.1437914e-05 -2.1091197e-05 -2.2860457e-05   -1152449.5            0   -1152449.5 
Loop time of 5.77999 on 26 procs for 157 steps with 288751 atoms

99.9% CPU use with 26 MPI tasks x 1 OpenMP threads

Minimization stats:
  Stopping criterion = linesearch alpha is zero
  Energy initial, next-to-last, final = 
     -1152447.83974218  -1152449.45035264  -1152449.45035264
  Force two-norm initial, final = 9.7352621 0.00014472654
  Force max component initial, final = 4.2310419 3.1336810e-05
  Final line search alpha, max atom move = 0.5 1.5668405e-05
  Iterations, force evaluations = 157 316

MPI task timing breakdown:
Section |  min time  |  avg time  |  max time  |%varavg| %total
---------------------------------------------------------------
Pair    | 2.2155     | 4.1877     | 5.4703     |  49.4 | 72.45
Neigh   | 0.010128   | 0.03081    | 0.047603   |   6.1 |  0.53
Comm    | 0.09543    | 0.62022    | 1.3692     |  45.2 | 10.73
Output  | 0          | 0          | 0          |   0.0 |  0.00
Modify  | 0.0047382  | 0.0061325  | 0.0095204  |   1.7 |  0.11
Other   |            | 0.9352     |            |       | 16.18

Nlocal:        11105.8 ave       15296 max        4380 min
Histogram: 4 0 0 0 4 0 4 4 8 2
Nghost:        10533.6 ave       14020 max        4076 min
Histogram: 4 0 0 0 4 0 4 2 6 6
Neighs:       316854.0 ave      441489 max      114725 min
Histogram: 4 0 0 0 4 0 4 4 8 2

Total # of neighbors = 8238197
Ave neighs/atom = 28.530454
Neighbor list builds = 2
Dangerous builds = 1
Setting atom values ...
  1 settings made for x
  1 settings made for y
  1 settings made for z
Setting up cg style minimization ...
  Unit style    : metal
  Current step  : 157
Per MPI rank memory allocation (min/avg/max) = 6.233 | 10.36 | 11.60 Mbytes
Step PotEng KinEng TotEng v_fx v_fy v_fz 
     157   -1152449.4            0   -1152449.4  0.023199541 -0.0042319914 -0.048713551 
     348   -1152449.4            0   -1152449.4 8.0278124e-06 -7.6640547e-06 -2.8626872e-05 
Loop time of 6.67738 on 26 procs for 191 steps with 288751 atoms

99.9% CPU use with 26 MPI tasks x 1 OpenMP threads

Minimization stats:
  Stopping criterion = linesearch alpha is zero
  Energy initial, next-to-last, final = 
     -1152449.44454528  -1152449.44849973  -1152449.44849973
  Force two-norm initial, final = 0.29849005 0.00013563384
  Force max component initial, final = 0.13983792 2.8626872e-05
  Final line search alpha, max atom move = 0.5 1.4313436e-05
  Iterations, force evaluations = 191 383

MPI task timing breakdown:
Section |  min time  |  avg time  |  max time  |%varavg| %total
---------------------------------------------------------------
Pair    | 2.549      | 4.9071     | 6.3771     |  54.1 | 73.49
Neigh   | 0          | 0          | 0          |   0.0 |  0.00
Comm    | 0.098731   | 0.68538    | 1.6168     |  52.3 | 10.26
Output  | 0          | 0          | 0          |   0.0 |  0.00
Modify  | 0.0071005  | 0.010958   | 0.013903   |   1.7 |  0.16
Other   |            | 1.074      |            |       | 16.08

Nlocal:        11105.8 ave       15290 max        4380 min
Histogram: 4 0 0 0 4 0 4 4 8 2
Nghost:        10533.6 ave       14020 max        4076 min
Histogram: 4 0 0 0 4 0 4 2 6 6
Neighs:       316854.0 ave      441317 max      114725 min
Histogram: 4 0 0 0 4 0 4 4 8 2

Total # of neighbors = 8238197
Ave neighs/atom = 28.530454
Neighbor list builds = 0
Dangerous builds = 0
Setting atom values ...
  1 settings made for x
  1 settings made for y
  1 settings made for z
Setting up cg style minimization ...
  Unit style    : metal
  Current step  : 348
Per MPI rank memory allocation (min/avg/max) = 6.233 | 10.36 | 11.60 Mbytes
Step PotEng KinEng TotEng v_fx v_fy v_fz 
     348   -1152449.4            0   -1152449.4  0.018715154 -0.00058870951 -0.043872616 
     455   -1152449.4            0   -1152449.4 -4.1577412e-06 7.1578459e-06 2.8252664e-05 
Loop time of 3.76703 on 26 procs for 107 steps with 288751 atoms

99.9% CPU use with 26 MPI tasks x 1 OpenMP threads

Minimization stats:
  Stopping criterion = energy tolerance
  Energy initial, next-to-last, final = 
     -1152449.44329605   -1152449.4451731   -1152449.4451731
  Force two-norm initial, final = 0.20732509 0.00025280576
  Force max component initial, final = 0.095742515 2.8252664e-05
  Final line search alpha, max atom move = 1.0000000 2.8252664e-05
  Iterations, force evaluations = 107 216

MPI task timing breakdown:
Section |  min time  |  avg time  |  max time  |%varavg| %total
---------------------------------------------------------------
Pair    | 1.4472     | 2.7718     | 3.5962     |  40.5 | 73.58
Neigh   | 0          | 0          | 0          |   0.0 |  0.00
Comm    | 0.056166   | 0.38406    | 0.90685    |  39.9 | 10.20
Output  | 0          | 0          | 0          |   0.0 |  0.00
Modify  | 0.0039893  | 0.0062016  | 0.0078997  |   1.3 |  0.16
Other   |            | 0.605      |            |       | 16.06

Nlocal:        11105.8 ave       15289 max        4380 min
Histogram: 4 0 0 0 4 0 4 4 8 2
Nghost:        10533.6 ave       14020 max        4076 min
Histogram: 4 0 0 0 4 0 4 2 6 6
Neighs:       316854.0 ave      441298 max      114725 min
Histogram: 4 0 0 0 4 0 4 4 8 2

Total # of neighbors = 8238196
Ave neighs/atom = 28.530450
Neighbor list builds = 0
Dangerous builds = 0
The dot product: -1.21212629556494e-07
Setting atom values ...
  1 settings made for x
  1 settings made for y
  1 settings made for z
Setting up cg style minimization ...
  Unit style    : metal
  Current step  : 455
Per MPI rank memory allocation (min/avg/max) = 6.233 | 10.36 | 11.60 Mbytes
Step PotEng KinEng TotEng v_fx v_fy v_fz 
     455   -1152449.4            0   -1152449.4  0.022737144 0.0071170718 -0.048700559 
     567   -1152449.4            0   -1152449.4 -4.7373556e-06 6.0866699e-06 3.8798439e-05 
Loop time of 3.95585 on 26 procs for 112 steps with 288751 atoms

100.0% CPU use with 26 MPI tasks x 1 OpenMP threads

Minimization stats:
  Stopping criterion = linesearch alpha is zero
  Energy initial, next-to-last, final = 
     -1152449.43855569  -1152449.44042648  -1152449.44042648
  Force two-norm initial, final = 0.20634545 0.00016781145
  Force max component initial, final = 0.093403551 3.8798439e-05
  Final line search alpha, max atom move = 0.25 9.6996096e-06
  Iterations, force evaluations = 112 227

MPI task timing breakdown:
Section |  min time  |  avg time  |  max time  |%varavg| %total
---------------------------------------------------------------
Pair    | 1.5183     | 2.9134     | 3.7805     |  41.6 | 73.65
Neigh   | 0          | 0          | 0          |   0.0 |  0.00
Comm    | 0.057442   | 0.40237    | 0.95719    |  41.1 | 10.17
Output  | 0          | 0          | 0          |   0.0 |  0.00
Modify  | 0.0042264  | 0.0064925  | 0.0082467  |   1.3 |  0.16
Other   |            | 0.6336     |            |       | 16.02

Nlocal:        11105.8 ave       15285 max        4380 min
Histogram: 4 0 0 0 4 0 4 4 8 2
Nghost:        10533.6 ave       14020 max        4076 min
Histogram: 4 0 0 0 4 0 4 2 6 6
Neighs:       316854.0 ave      441174 max      114725 min
Histogram: 4 0 0 0 4 0 4 4 8 2

Total # of neighbors = 8238198
Ave neighs/atom = 28.530457
Neighbor list builds = 0
Dangerous builds = 0
The dot product: -2.14563512859865e-07
Setting atom values ...
  1 settings made for x
  1 settings made for y
  1 settings made for z
Setting up cg style minimization ...
  Unit style    : metal
  Current step  : 567
Per MPI rank memory allocation (min/avg/max) = 6.233 | 10.36 | 11.60 Mbytes
Step PotEng KinEng TotEng v_fx v_fy v_fz 
     567   -1152449.4            0   -1152449.4  0.022898304  0.013594413 -0.050025812 
     681   -1152449.4            0   -1152449.4 -7.3416361e-06 1.1111102e-06 4.9789875e-05 
Loop time of 4.05866 on 26 procs for 114 steps with 288751 atoms

99.9% CPU use with 26 MPI tasks x 1 OpenMP threads

Minimization stats:
  Stopping criterion = linesearch alpha is zero
  Energy initial, next-to-last, final = 
     -1152449.43252686   -1152449.4343781   -1152449.4343781
  Force two-norm initial, final = 0.20366698 0.00022998138
  Force max component initial, final = 0.089736777 4.9789875e-05
  Final line search alpha, max atom move = 0.125 6.2237343e-06
  Iterations, force evaluations = 114 233

MPI task timing breakdown:
Section |  min time  |  avg time  |  max time  |%varavg| %total
---------------------------------------------------------------
Pair    | 1.5591     | 2.9895     | 3.8748     |  42.1 | 73.66
Neigh   | 0          | 0          | 0          |   0.0 |  0.00
Comm    | 0.06166    | 0.41514    | 0.9802     |  41.2 | 10.23
Output  | 0          | 0          | 0          |   0.0 |  0.00
Modify  | 0.004365   | 0.0066936  | 0.0084879  |   1.3 |  0.16
Other   |            | 0.6473     |            |       | 15.95

Nlocal:        11105.8 ave       15284 max        4380 min
Histogram: 4 0 0 0 4 0 4 4 8 2
Nghost:        10533.6 ave       14020 max        4076 min
Histogram: 4 0 0 0 4 0 4 2 6 6
Neighs:       316854.0 ave      441128 max      114725 min
Histogram: 4 0 0 0 4 0 4 4 8 2

Total # of neighbors = 8238199
Ave neighs/atom = 28.530461
Neighbor list builds = 0
Dangerous builds = 0
The dot product: -3.18153196636885e-07
Setting atom values ...
  1 settings made for x
  1 settings made for y
  1 settings made for z
Setting up cg style minimization ...
  Unit style    : metal
  Current step  : 681
Per MPI rank memory allocation (min/avg/max) = 6.233 | 10.36 | 11.60 Mbytes
Step PotEng KinEng TotEng v_fx v_fy v_fz 
     681   -1152449.4            0   -1152449.4  0.018887829  0.015853871 -0.047617596 
     787   -1152449.4            0   -1152449.4 1.1286014e-05 2.1570462e-06 -0.0001321909 
Loop time of 3.69793 on 26 procs for 106 steps with 288751 atoms

100.0% CPU use with 26 MPI tasks x 1 OpenMP threads

Minimization stats:
  Stopping criterion = energy tolerance
  Energy initial, next-to-last, final = 
     -1152449.42523746  -1152449.42705027  -1152449.42705027
  Force two-norm initial, final = 0.19982305 0.00042416152
  Force max component initial, final = 0.085700394 0.0001321909
  Final line search alpha, max atom move = 1.0000000 0.0001321909
  Iterations, force evaluations = 106 212

MPI task timing breakdown:
Section |  min time  |  avg time  |  max time  |%varavg| %total
---------------------------------------------------------------
Pair    | 1.4171     | 2.725      | 3.5314     |  40.3 | 73.69
Neigh   | 0          | 0          | 0          |   0.0 |  0.00
Comm    | 0.053688   | 0.37743    | 0.8972     |  39.7 | 10.21
Output  | 0          | 0          | 0          |   0.0 |  0.00
Modify  | 0.0039315  | 0.0060757  | 0.0077282  |   1.3 |  0.16
Other   |            | 0.5894     |            |       | 15.94

Nlocal:        11105.8 ave       15280 max        4380 min
Histogram: 4 0 0 0 4 0 4 4 6 4
Nghost:        10533.6 ave       14020 max        4076 min
Histogram: 4 0 0 0 4 0 4 2 6 6
Neighs:       316854.0 ave      440978 max      114725 min
Histogram: 4 0 0 0 4 0 4 4 8 2

Total # of neighbors = 8238199
Ave neighs/atom = 28.530461
Neighbor list builds = 0
Dangerous builds = 0
The dot product: 8.32441996845315e-07
Setting atom values ...
  1 settings made for x
  1 settings made for y
  1 settings made for z
Setting up cg style minimization ...
  Unit style    : metal
  Current step  : 787
Per MPI rank memory allocation (min/avg/max) = 6.233 | 10.36 | 11.60 Mbytes
Step PotEng KinEng TotEng v_fx v_fy v_fz 
     787   -1152449.4            0   -1152449.4  0.013857061  0.015064587 -0.042911998 
     933   -1152449.4            0   -1152449.4 -3.3463352e-06 -4.4803713e-06 9.9558602e-05 
Loop time of 5.19758 on 26 procs for 146 steps with 288751 atoms

100.0% CPU use with 26 MPI tasks x 1 OpenMP threads

Minimization stats:
  Stopping criterion = linesearch alpha is zero
  Energy initial, next-to-last, final = 
     -1152449.41665921  -1152449.41842353  -1152449.41842353
  Force two-norm initial, final = 0.19573005 0.00034621277
  Force max component initial, final = 0.08199756 9.9558602e-05
  Final line search alpha, max atom move = 0.0625 6.2224127e-06
  Iterations, force evaluations = 146 299

MPI task timing breakdown:
Section |  min time  |  avg time  |  max time  |%varavg| %total
---------------------------------------------------------------
Pair    | 1.9991     | 3.8264     | 4.9682     |  47.6 | 73.62
Neigh   | 0          | 0          | 0          |   0.0 |  0.00
Comm    | 0.074675   | 0.53105    | 1.2505     |  46.6 | 10.22
Output  | 0          | 0          | 0          |   0.0 |  0.00
Modify  | 0.00553    | 0.0085523  | 0.01086    |   1.5 |  0.16
Other   |            | 0.8315     |            |       | 16.00

Nlocal:        11105.8 ave       15279 max        4380 min
Histogram: 4 0 0 0 4 0 4 4 6 4
Nghost:        10533.6 ave       14020 max        4076 min
Histogram: 4 0 0 0 4 0 4 2 6 6
Neighs:       316854.0 ave      440934 max      114725 min
Histogram: 4 0 0 0 4 0 4 4 8 2

Total # of neighbors = 8238202
Ave neighs/atom = 28.530471
Neighbor list builds = 0
Dangerous builds = 0
The dot product: -5.89558441998272e-07
Setting atom values ...
  1 settings made for x
  1 settings made for y
  1 settings made for z
Setting up cg style minimization ...
  Unit style    : metal
  Current step  : 933
Per MPI rank memory allocation (min/avg/max) = 6.233 | 10.36 | 11.60 Mbytes
Step PotEng KinEng TotEng v_fx v_fy v_fz 
     933   -1152449.4            0   -1152449.4 0.0091117508  0.012610035 -0.037508557 
    1000   -1152449.4            0   -1152449.4 -7.7522303e-06 -3.6593048e-06 -6.1297668e-05 
    1077   -1152449.4            0   -1152449.4 -1.1368267e-06 -1.2936605e-06 9.9277044e-07 
Loop time of 5.11786 on 26 procs for 144 steps with 288751 atoms

100.0% CPU use with 26 MPI tasks x 1 OpenMP threads

Minimization stats:
  Stopping criterion = linesearch alpha is zero
  Energy initial, next-to-last, final = 
     -1152449.40673352  -1152449.40846611  -1152449.40846611
  Force two-norm initial, final = 0.19221431 0.0002993477
  Force max component initial, final = 0.078955464 1.9837505e-05
  Final line search alpha, max atom move = 0.125 2.4796882e-06
  Iterations, force evaluations = 144 293

MPI task timing breakdown:
Section |  min time  |  avg time  |  max time  |%varavg| %total
---------------------------------------------------------------
Pair    | 1.954      | 3.7641     | 4.8919     |  47.4 | 73.55
Neigh   | 0          | 0          | 0          |   0.0 |  0.00
Comm    | 0.073825   | 0.52493    | 1.2405     |  45.8 | 10.26
Output  | 0.00014587 | 0.00014682 | 0.0001598  |   0.0 |  0.00
Modify  | 0.0054145  | 0.0083742  | 0.010678   |   1.5 |  0.16
Other   |            | 0.8203     |            |       | 16.03

Nlocal:        11105.8 ave       15275 max        4380 min
Histogram: 4 0 0 0 4 0 4 4 6 4
Nghost:        10533.6 ave       14020 max        4076 min
Histogram: 4 0 0 0 4 0 4 2 6 6
Neighs:       316854.0 ave      440783 max      114725 min
Histogram: 4 0 0 0 4 0 4 4 8 2

Total # of neighbors = 8238206
Ave neighs/atom = 28.530485
Neighbor list builds = 0
Dangerous builds = 0
The dot product: -4.66591612283801e-09
Setting atom values ...
  1 settings made for x
  1 settings made for y
  1 settings made for z
Setting up cg style minimization ...
  Unit style    : metal
  Current step  : 1077
Per MPI rank memory allocation (min/avg/max) = 6.233 | 10.36 | 11.60 Mbytes
Step PotEng KinEng TotEng v_fx v_fy v_fz 
    1077   -1152449.4            0   -1152449.4 0.0047641328 0.0093643585 -0.033064285 
    1190   -1152449.4            0   -1152449.4 -4.0890322e-06 1.3165446e-05 -0.00013496146 
Loop time of 4.09943 on 26 procs for 113 steps with 288751 atoms

99.9% CPU use with 26 MPI tasks x 1 OpenMP threads

Minimization stats:
  Stopping criterion = linesearch alpha is zero
  Energy initial, next-to-last, final = 
      -1152449.3954505  -1152449.39718028  -1152449.39718028
  Force two-norm initial, final = 0.18951893 0.00047612666
  Force max component initial, final = 0.08118358 0.00013496146
  Final line search alpha, max atom move = 0.03125 4.2175456e-06
  Iterations, force evaluations = 113 235

MPI task timing breakdown:
Section |  min time  |  avg time  |  max time  |%varavg| %total
---------------------------------------------------------------
Pair    | 1.5728     | 3.0159     | 3.9153     |  42.3 | 73.57
Neigh   | 0          | 0          | 0          |   0.0 |  0.00
Comm    | 0.061341   | 0.41857    | 0.98658    |  41.4 | 10.21
Output  | 0          | 0          | 0          |   0.0 |  0.00
Modify  | 0.0043811  | 0.0067765  | 0.0085691  |   1.3 |  0.17
Other   |            | 0.6582     |            |       | 16.06

Nlocal:        11105.8 ave       15273 max        4380 min
Histogram: 4 0 0 0 4 0 4 4 6 4
Nghost:        10533.6 ave       14020 max        4076 min
Histogram: 4 0 0 0 4 0 4 2 6 6
Neighs:       316854.0 ave      440720 max      114725 min
Histogram: 4 0 0 0 4 0 4 4 8 2

Total # of neighbors = 8238204
Ave neighs/atom = 28.530478
Neighbor list builds = 0
Dangerous builds = 0
The dot product: 7.46269919930081e-07
Setting atom values ...
  1 settings made for x
  1 settings made for y
  1 settings made for z
Setting up cg style minimization ...
  Unit style    : metal
  Current step  : 1190
Per MPI rank memory allocation (min/avg/max) = 6.233 | 10.36 | 11.60 Mbytes
Step PotEng KinEng TotEng v_fx v_fy v_fz 
    1190   -1152449.4            0   -1152449.4 0.00053600347 0.0059333627 -0.030467997 
    1369   -1152449.4            0   -1152449.4 -8.1080102e-07 4.4796646e-06 -3.0184891e-05 
Loop time of 6.31575 on 26 procs for 179 steps with 288751 atoms

100.0% CPU use with 26 MPI tasks x 1 OpenMP threads

Minimization stats:
  Stopping criterion = linesearch alpha is zero
  Energy initial, next-to-last, final = 
        -1152449.38285  -1152449.38467862  -1152449.38467862
  Force two-norm initial, final = 0.187492 0.00017619598
  Force max component initial, final = 0.085065376 3.6143676e-05
  Final line search alpha, max atom move = 0.25 9.0359190e-06
  Iterations, force evaluations = 179 363

MPI task timing breakdown:
Section |  min time  |  avg time  |  max time  |%varavg| %total
---------------------------------------------------------------
Pair    | 2.4234     | 4.6505     | 6.0365     |  52.5 | 73.63
Neigh   | 0          | 0          | 0          |   0.0 |  0.00
Comm    | 0.090947   | 0.64398    | 1.524      |  51.4 | 10.20
Output  | 0          | 0          | 0          |   0.0 |  0.00
Modify  | 0.00672    | 0.010364   | 0.013173   |   1.7 |  0.16
Other   |            | 1.011      |            |       | 16.01

Nlocal:        11105.8 ave       15270 max        4380 min
Histogram: 4 0 0 0 4 0 4 4 6 4
Nghost:        10533.6 ave       14020 max        4076 min
Histogram: 4 0 0 0 4 0 4 2 6 6
Neighs:       316854.0 ave      440616 max      114725 min
Histogram: 4 0 0 0 4 0 4 4 8 2

Total # of neighbors = 8238202
Ave neighs/atom = 28.530471
Neighbor list builds = 0
Dangerous builds = 0
The dot product: 2.438362253735e-07
Setting atom values ...
  1 settings made for x
  1 settings made for y
  1 settings made for z
Setting up cg style minimization ...
  Unit style    : metal
  Current step  : 1369
Per MPI rank memory allocation (min/avg/max) = 6.233 | 10.36 | 11.60 Mbytes
Step PotEng KinEng TotEng v_fx v_fy v_fz 
    1369   -1152449.4            0   -1152449.4 -0.0061451336 0.0022849576 -0.035763703 
    1504   -1152449.4            0   -1152449.4 -1.8529083e-05 2.6927372e-05 -0.00019264021 
Loop time of 4.84466 on 26 procs for 135 steps with 288751 atoms

100.0% CPU use with 26 MPI tasks x 1 OpenMP threads

Minimization stats:
  Stopping criterion = linesearch alpha is zero
  Energy initial, next-to-last, final = 
     -1152449.36923848  -1152449.37117275  -1152449.37117275
  Force two-norm initial, final = 0.18635678 0.00045814076
  Force max component initial, final = 0.089528734 0.00019264021
  Final line search alpha, max atom move = 0.03125 6.0200065e-06
  Iterations, force evaluations = 135 279

MPI task timing breakdown:
Section |  min time  |  avg time  |  max time  |%varavg| %total
---------------------------------------------------------------
Pair    | 1.8716     | 3.5738     | 4.6299     |  45.9 | 73.77
Neigh   | 0          | 0          | 0          |   0.0 |  0.00
Comm    | 0.071599   | 0.49353    | 1.1613     |  45.3 | 10.19
Output  | 0          | 0          | 0          |   0.0 |  0.00
Modify  | 0.0051744  | 0.0079957  | 0.010164   |   1.5 |  0.17
Other   |            | 0.7693     |            |       | 15.88

Nlocal:        11105.8 ave       15270 max        4380 min
Histogram: 4 0 0 0 4 0 4 4 6 4
Nghost:        10533.5 ave       14020 max        4076 min
Histogram: 4 0 0 0 4 0 4 2 6 6
Neighs:       316854.0 ave      440622 max      114725 min
Histogram: 4 0 0 0 4 0 4 4 8 2

Total # of neighbors = 8238204
Ave neighs/atom = 28.530478
Neighbor list builds = 0
Dangerous builds = 0
The dot product: 1.89856080204622e-06
Setting atom values ...
  1 settings made for x
  1 settings made for y
  1 settings made for z
Setting up cg style minimization ...
  Unit style    : metal
  Current step  : 1504
Per MPI rank memory allocation (min/avg/max) = 6.233 | 10.36 | 11.60 Mbytes
Step PotEng KinEng TotEng v_fx v_fy v_fz 
    1504   -1152449.4            0   -1152449.4 -0.010633734 0.00062831048 -0.036294483 
    1664   -1152449.4            0   -1152449.4 -8.3661643e-06 2.2446727e-06 -3.4421858e-05 
Loop time of 5.72165 on 26 procs for 160 steps with 288751 atoms

100.0% CPU use with 26 MPI tasks x 1 OpenMP threads

Minimization stats:
  Stopping criterion = linesearch alpha is zero
  Energy initial, next-to-last, final = 
     -1152449.35463923  -1152449.35668974  -1152449.35668974
  Force two-norm initial, final = 0.1848106 0.00032145454
  Force max component initial, final = 0.094459053 7.9951718e-05
  Final line search alpha, max atom move = 0.0625 4.9969824e-06
  Iterations, force evaluations = 160 329

MPI task timing breakdown:
Section |  min time  |  avg time  |  max time  |%varavg| %total
---------------------------------------------------------------
Pair    | 2.1945     | 4.214      | 5.467      |  50.0 | 73.65
Neigh   | 0          | 0          | 0          |   0.0 |  0.00
Comm    | 0.081993   | 0.58291    | 1.3839     |  49.2 | 10.19
Output  | 0          | 0          | 0          |   0.0 |  0.00
Modify  | 0.0060752  | 0.0094112  | 0.011942   |   1.6 |  0.16
Other   |            | 0.9154     |            |       | 16.00

Nlocal:        11105.8 ave       15268 max        4380 min
Histogram: 4 0 0 0 4 0 4 4 6 4
Nghost:        10533.6 ave       14020 max        4076 min
Histogram: 4 0 0 0 4 0 4 2 6 6
Neighs:       316854.0 ave      440564 max      114725 min
Histogram: 4 0 0 0 4 0 4 4 8 2

Total # of neighbors = 8238205
Ave neighs/atom = 28.530481
Neighbor list builds = 0
Dangerous builds = 0
The dot product: 4.24531816396895e-07
Setting atom values ...
  1 settings made for x
  1 settings made for y
  1 settings made for z
Setting up cg style minimization ...
  Unit style    : metal
  Current step  : 1664
Per MPI rank memory allocation (min/avg/max) = 6.233 | 10.36 | 11.60 Mbytes
Step PotEng KinEng TotEng v_fx v_fy v_fz 
    1664   -1152449.3            0   -1152449.3 -0.013983201 0.0001994012 -0.035840657 
    1836   -1152449.3            0   -1152449.3 -4.2518068e-06 -7.0678653e-07 -8.7800929e-06 
Loop time of 6.07091 on 26 procs for 172 steps with 288751 atoms

99.9% CPU use with 26 MPI tasks x 1 OpenMP threads

Minimization stats:
  Stopping criterion = linesearch alpha is zero
  Energy initial, next-to-last, final = 
     -1152449.33915398  -1152449.34109833  -1152449.34109833
  Force two-norm initial, final = 0.18308755 0.00024995881
  Force max component initial, final = 0.099535905 5.5641217e-05
  Final line search alpha, max atom move = 0.125 6.9551521e-06
  Iterations, force evaluations = 172 349

MPI task timing breakdown:
Section |  min time  |  avg time  |  max time  |%varavg| %total
---------------------------------------------------------------
Pair    | 2.3314     | 4.4681     | 5.7979     |  51.4 | 73.60
Neigh   | 0          | 0          | 0          |   0.0 |  0.00
Comm    | 0.090368   | 0.62011    | 1.4624     |  50.4 | 10.21
Output  | 0          | 0          | 0          |   0.0 |  0.00
Modify  | 0.0064584  | 0.010003   | 0.012672   |   1.6 |  0.16
Other   |            | 0.9727     |            |       | 16.02

Nlocal:        11105.8 ave       15266 max        4380 min
Histogram: 4 0 0 0 4 0 4 4 6 4
Nghost:        10533.8 ave       14020 max        4076 min
Histogram: 4 0 0 0 4 0 4 2 6 6
Neighs:       316854.0 ave      440522 max      114725 min
Histogram: 4 0 0 0 4 0 4 4 8 2

Total # of neighbors = 8238207
Ave neighs/atom = 28.530488
Neighbor list builds = 0
Dangerous builds = 0
The dot product: 1.10562111212912e-07
Setting atom values ...
  1 settings made for x
  1 settings made for y
  1 settings made for z
Setting up cg style minimization ...
  Unit style    : metal
  Current step  : 1836
Per MPI rank memory allocation (min/avg/max) = 6.233 | 10.36 | 11.60 Mbytes
Step PotEng KinEng TotEng v_fx v_fy v_fz 
    1836   -1152449.3            0   -1152449.3 -0.012820011 0.00039532434 -0.028109683 
    1997   -1152449.3            0   -1152449.3 -1.4281881e-05 1.8501276e-05 -7.4907906e-05 
Loop time of 5.68271 on 26 procs for 161 steps with 288751 atoms

100.0% CPU use with 26 MPI tasks x 1 OpenMP threads

Minimization stats:
  Stopping criterion = linesearch alpha is zero
  Energy initial, next-to-last, final = 
     -1152449.32237356  -1152449.32421259  -1152449.32421259
  Force two-norm initial, final = 0.1803043 0.00030794858
  Force max component initial, final = 0.10405713 7.4907906e-05
  Final line search alpha, max atom move = 0.125 9.3634883e-06
  Iterations, force evaluations = 161 327

MPI task timing breakdown:
Section |  min time  |  avg time  |  max time  |%varavg| %total
---------------------------------------------------------------
Pair    | 2.18       | 4.1903     | 5.43       |  49.9 | 73.74
Neigh   | 0          | 0          | 0          |   0.0 |  0.00
Comm    | 0.080912   | 0.57869    | 1.3745     |  49.3 | 10.18
Output  | 0          | 0          | 0          |   0.0 |  0.00
Modify  | 0.0060438  | 0.009341   | 0.011874   |   1.6 |  0.16
Other   |            | 0.9043     |            |       | 15.91

Nlocal:        11105.8 ave       15264 max        4380 min
Histogram: 4 0 0 0 4 0 4 4 6 4
Nghost:        10533.8 ave       14020 max        4076 min
Histogram: 4 0 0 0 4 0 4 2 6 6
Neighs:       316854.0 ave      440429 max      114725 min
Histogram: 4 0 0 0 4 0 4 4 8 2

Total # of neighbors = 8238209
Ave neighs/atom = 28.530495
Neighbor list builds = 0
Dangerous builds = 0
The dot product: 6.84064159240935e-07
Setting atom values ...
  1 settings made for x
  1 settings made for y
  1 settings made for z
Setting up cg style minimization ...
  Unit style    : metal
  Current step  : 1997
Per MPI rank memory allocation (min/avg/max) = 6.233 | 10.36 | 11.60 Mbytes
Step PotEng KinEng TotEng v_fx v_fy v_fz 
    1997   -1152449.3            0   -1152449.3 -0.010448836 0.00070654086 -0.021022491 
    2000   -1152449.3            0   -1152449.3 0.00077611417 -0.00047163035 0.0024815843 
    2154   -1152449.3            0   -1152449.3 -6.6054012e-06 -3.5701598e-06 -4.4723301e-06 
Loop time of 5.68419 on 26 procs for 157 steps with 288751 atoms

100.0% CPU use with 26 MPI tasks x 1 OpenMP threads

Minimization stats:
  Stopping criterion = linesearch alpha is zero
  Energy initial, next-to-last, final = 
      -1152449.3042248  -1152449.30601205  -1152449.30601205
  Force two-norm initial, final = 0.1780313 0.00032687541
  Force max component initial, final = 0.10772037 5.9113575e-05
  Final line search alpha, max atom move = 0.0625 3.6945985e-06
  Iterations, force evaluations = 157 327

MPI task timing breakdown:
Section |  min time  |  avg time  |  max time  |%varavg| %total
---------------------------------------------------------------
Pair    | 2.1833     | 4.1872     | 5.4335     |  49.9 | 73.66
Neigh   | 0          | 0          | 0          |   0.0 |  0.00
Comm    | 0.082668   | 0.58125    | 1.3705     |  48.8 | 10.23
Output  | 0.00014777 | 0.00014871 | 0.00016161 |   0.0 |  0.00
Modify  | 0.006078   | 0.0093709  | 0.011881   |   1.6 |  0.16
Other   |            | 0.9062     |            |       | 15.94

Nlocal:        11105.8 ave       15261 max        4380 min
Histogram: 4 0 0 0 4 0 4 4 6 4
Nghost:        10533.8 ave       14020 max        4076 min
Histogram: 4 0 0 0 4 0 4 2 6 6
Neighs:       316854.0 ave      440337 max      114725 min
Histogram: 4 0 0 0 4 0 4 4 8 2

Total # of neighbors = 8238209
Ave neighs/atom = 28.530495
Neighbor list builds = 0
Dangerous builds = 0
The dot product: 6.39517816981584e-08
Setting atom values ...
  1 settings made for x
  1 settings made for y
  1 settings made for z
Setting up cg style minimization ...
  Unit style    : metal
  Current step  : 2154
Per MPI rank memory allocation (min/avg/max) = 6.233 | 10.36 | 11.60 Mbytes
Step PotEng KinEng TotEng v_fx v_fy v_fz 
    2154   -1152449.3            0   -1152449.3 -0.0086173563 0.0011014801 -0.016757809 
    2322   -1152449.3            0   -1152449.3 -4.217431e-06 1.2516633e-05 -3.2600906e-05 
Loop time of 5.94839 on 26 procs for 168 steps with 288751 atoms

100.0% CPU use with 26 MPI tasks x 1 OpenMP threads

Minimization stats:
  Stopping criterion = linesearch alpha is zero
  Energy initial, next-to-last, final = 
     -1152449.28476378  -1152449.28656726  -1152449.28656726
  Force two-norm initial, final = 0.17645713 0.00024952758
  Force max component initial, final = 0.11096641 4.2318576e-05
  Final line search alpha, max atom move = 0.125 5.2898220e-06
  Iterations, force evaluations = 168 341

MPI task timing breakdown:
Section |  min time  |  avg time  |  max time  |%varavg| %total
---------------------------------------------------------------
Pair    | 2.2788     | 4.3777     | 5.6858     |  51.2 | 73.59
Neigh   | 0          | 0          | 0          |   0.0 |  0.00
Comm    | 0.085594   | 0.60883    | 1.435      |  49.8 | 10.24
Output  | 0          | 0          | 0          |   0.0 |  0.00
Modify  | 0.0063357  | 0.0098313  | 0.012395   |   1.5 |  0.17
Other   |            | 0.952      |            |       | 16.00

Nlocal:        11105.8 ave       15254 max        4380 min
Histogram: 4 0 0 0 4 0 4 4 6 4
Nghost:        10534.0 ave       14021 max        4076 min
Histogram: 4 0 0 0 4 0 4 2 6 6
Neighs:       316854.0 ave      440117 max      114725 min
Histogram: 4 0 0 0 4 0 4 4 8 2

Total # of neighbors = 8238216
Ave neighs/atom = 28.530519
Neighbor list builds = 0
Dangerous builds = 0
The dot product: 2.71915786112465e-07
Setting atom values ...
  1 settings made for x
  1 settings made for y
  1 settings made for z
Setting up cg style minimization ...
  Unit style    : metal
  Current step  : 2322
Per MPI rank memory allocation (min/avg/max) = 6.233 | 10.36 | 11.60 Mbytes
Step PotEng KinEng TotEng v_fx v_fy v_fz 
    2322   -1152449.3            0   -1152449.3 -0.0083734335 0.0017808355  -0.01626698 
    2460   -1152449.3            0   -1152449.3 2.0645581e-06 3.4151257e-07 2.5259758e-06 
Loop time of 4.95527 on 26 procs for 138 steps with 288751 atoms

100.0% CPU use with 26 MPI tasks x 1 OpenMP threads

Minimization stats:
  Stopping criterion = linesearch alpha is zero
  Energy initial, next-to-last, final = 
     -1152449.26414029  -1152449.26593754  -1152449.26593754
  Force two-norm initial, final = 0.17522947 0.00046418653
  Force max component initial, final = 0.11364098 5.3687163e-05
  Final line search alpha, max atom move = 0.03125 1.6777238e-06
  Iterations, force evaluations = 138 285

MPI task timing breakdown:
Section |  min time  |  avg time  |  max time  |%varavg| %total
---------------------------------------------------------------
Pair    | 1.9036     | 3.6495     | 4.7354     |  46.5 | 73.65
Neigh   | 0          | 0          | 0          |   0.0 |  0.00
Comm    | 0.072377   | 0.50549    | 1.1957     |  45.8 | 10.20
Output  | 0          | 0          | 0          |   0.0 |  0.00
Modify  | 0.0052926  | 0.0081647  | 0.01037    |   1.5 |  0.16
Other   |            | 0.7921     |            |       | 15.99

Nlocal:        11105.8 ave       15250 max        4380 min
Histogram: 4 0 0 0 4 0 4 4 6 4
Nghost:        10534.0 ave       14021 max        4076 min
Histogram: 4 0 0 0 4 0 4 2 6 6
Neighs:       316854.0 ave      439974 max      114725 min
Histogram: 4 0 0 0 4 0 4 4 7 3

Total # of neighbors = 8238216
Ave neighs/atom = 28.530519
Neighbor list builds = 0
Dangerous builds = 0
The dot product: -2.81015078201938e-08
Setting atom values ...
  1 settings made for x
  1 settings made for y
  1 settings made for z
Setting up cg style minimization ...
  Unit style    : metal
  Current step  : 2460
Per MPI rank memory allocation (min/avg/max) = 6.233 | 10.36 | 11.60 Mbytes
Step PotEng KinEng TotEng v_fx v_fy v_fz 
    2460   -1152449.2            0   -1152449.2 -0.0086191989   0.00212715 -0.016012195 
    2625   -1152449.2            0   -1152449.2 -8.0215879e-06 9.2174158e-06 -2.7831393e-05 
Loop time of 5.84684 on 26 procs for 165 steps with 288751 atoms

100.0% CPU use with 26 MPI tasks x 1 OpenMP threads

Minimization stats:
  Stopping criterion = linesearch alpha is zero
  Energy initial, next-to-last, final = 
     -1152449.24232265  -1152449.24413235  -1152449.24413235
  Force two-norm initial, final = 0.17427625 0.00024616075
  Force max component initial, final = 0.11634496 3.5340286e-05
  Final line search alpha, max atom move = 0.125 4.4175357e-06
  Iterations, force evaluations = 165 335

MPI task timing breakdown:
Section |  min time  |  avg time  |  max time  |%varavg| %total
---------------------------------------------------------------
Pair    | 2.2354     | 4.2983     | 5.5889     |  50.6 | 73.52
Neigh   | 0          | 0          | 0          |   0.0 |  0.00
Comm    | 0.08435    | 0.60028    | 1.4121     |  48.8 | 10.27
Output  | 0          | 0          | 0          |   0.0 |  0.00
Modify  | 0.0061834  | 0.009563   | 0.012174   |   1.6 |  0.16
Other   |            | 0.9387     |            |       | 16.05

Nlocal:        11105.8 ave       15249 max        4380 min
Histogram: 4 0 0 0 4 0 4 4 6 4
Nghost:        10534.0 ave       14021 max        4076 min
Histogram: 4 0 0 0 4 0 4 2 6 6
Neighs:       316854.0 ave      439944 max      114725 min
Histogram: 4 0 0 0 4 0 4 4 7 3

Total # of neighbors = 8238215
Ave neighs/atom = 28.530516
Neighbor list builds = 0
Dangerous builds = 0
The dot product: 2.77870744341406e-07
Setting atom values ...
  1 settings made for x
  1 settings made for y
  1 settings made for z
Setting up cg style minimization ...
  Unit style    : metal
  Current step  : 2625
Per MPI rank memory allocation (min/avg/max) = 6.233 | 10.36 | 11.60 Mbytes
Step PotEng KinEng TotEng v_fx v_fy v_fz 
    2625   -1152449.2            0   -1152449.2 -0.010477183 0.0024482744  -0.01781295 
    2778   -1152449.2            0   -1152449.2 1.7733523e-06 -2.5865867e-06 6.6643713e-06 
Loop time of 5.32307 on 26 procs for 153 steps with 288751 atoms

100.0% CPU use with 26 MPI tasks x 1 OpenMP threads

Minimization stats:
  Stopping criterion = energy tolerance
  Energy initial, next-to-last, final = 
     -1152449.21938287  -1152449.22134866  -1152449.22134866
  Force two-norm initial, final = 0.1737684 0.00032723082
  Force max component initial, final = 0.119046 2.9465689e-05
  Final line search alpha, max atom move = 1.0000000 2.9465689e-05
  Iterations, force evaluations = 153 306

MPI task timing breakdown:
Section |  min time  |  avg time  |  max time  |%varavg| %total
---------------------------------------------------------------
Pair    | 2.0511     | 3.9245     | 5.0844     |  48.3 | 73.73
Neigh   | 0          | 0          | 0          |   0.0 |  0.00
Comm    | 0.07647    | 0.54168    | 1.2778     |  47.7 | 10.18
Output  | 0          | 0          | 0          |   0.0 |  0.00
Modify  | 0.0056687  | 0.0087682  | 0.011131   |   1.5 |  0.16
Other   |            | 0.8481     |            |       | 15.93

Nlocal:        11105.8 ave       15249 max        4380 min
Histogram: 4 0 0 0 4 0 4 4 6 4
Nghost:        10534.0 ave       14021 max        4076 min
Histogram: 4 0 0 0 4 0 4 2 6 6
Neighs:       316854.0 ave      439933 max      114725 min
Histogram: 4 0 0 0 4 0 4 4 7 3

Total # of neighbors = 8238211
Ave neighs/atom = 28.530502
Neighbor list builds = 0
Dangerous builds = 0
The dot product: -8.56178126964933e-08
Setting atom values ...
  1 settings made for x
  1 settings made for y
  1 settings made for z
Setting up cg style minimization ...
  Unit style    : metal
  Current step  : 2778
Per MPI rank memory allocation (min/avg/max) = 6.233 | 10.36 | 11.60 Mbytes
Step PotEng KinEng TotEng v_fx v_fy v_fz 
    2778   -1152449.2            0   -1152449.2  -0.01650117 0.0032074433 -0.024635984 
    2950   -1152449.2            0   -1152449.2 -4.6069663e-06 -3.27385e-06 -3.5143533e-07 
Loop time of 6.08581 on 26 procs for 172 steps with 288751 atoms

99.9% CPU use with 26 MPI tasks x 1 OpenMP threads

Minimization stats:
  Stopping criterion = linesearch alpha is zero
  Energy initial, next-to-last, final = 
     -1152449.19576034  -1152449.19793731  -1152449.19793731
  Force two-norm initial, final = 0.17405483 0.00019446351
  Force max component initial, final = 0.12159111 3.9523462e-05
  Final line search alpha, max atom move = 0.25 9.8808656e-06
  Iterations, force evaluations = 172 349

MPI task timing breakdown:
Section |  min time  |  avg time  |  max time  |%varavg| %total
---------------------------------------------------------------
Pair    | 2.3309     | 4.4789     | 5.8145     |  51.6 | 73.60
Neigh   | 0          | 0          | 0          |   0.0 |  0.00
Comm    | 0.084513   | 0.62155    | 1.4743     |  50.6 | 10.21
Output  | 0          | 0          | 0          |   0.0 |  0.00
Modify  | 0.0064673  | 0.010001   | 0.012696   |   1.6 |  0.16
Other   |            | 0.9753     |            |       | 16.03

Nlocal:        11105.8 ave       15249 max        4380 min
Histogram: 4 0 0 0 4 0 4 4 6 4
Nghost:        10534.0 ave       14021 max        4076 min
Histogram: 4 0 0 0 4 0 4 2 6 6
Neighs:       316854.0 ave      439925 max      114725 min
Histogram: 4 0 0 0 4 0 4 4 7 3

Total # of neighbors = 8238213
Ave neighs/atom = 28.530509
Neighbor list builds = 0
Dangerous builds = 0
The dot product: 3.51214456117496e-08
Setting atom values ...
  1 settings made for x
  1 settings made for y
  1 settings made for z
Setting up cg style minimization ...
  Unit style    : metal
  Current step  : 2950
Per MPI rank memory allocation (min/avg/max) = 6.233 | 10.36 | 11.60 Mbytes
Step PotEng KinEng TotEng v_fx v_fy v_fz 
    2950   -1152449.2            0   -1152449.2 -0.022352667 0.0043605803  -0.03014346 
    3000   -1152449.2            0   -1152449.2 -4.8705116e-05 8.2757274e-05 -0.00017181676 
    3108   -1152449.2            0   -1152449.2 -1.0770999e-05 3.8909923e-05 -6.785504e-05 
Loop time of 5.53147 on 26 procs for 158 steps with 288751 atoms

100.0% CPU use with 26 MPI tasks x 1 OpenMP threads

Minimization stats:
  Stopping criterion = energy tolerance
  Energy initial, next-to-last, final = 
      -1152449.1716988  -1152449.17385664  -1152449.17385664
  Force two-norm initial, final = 0.17465559 0.00027651662
  Force max component initial, final = 0.12417257 6.7855040e-05
  Final line search alpha, max atom move = 1.0000000 6.7855040e-05
  Iterations, force evaluations = 158 318

MPI task timing breakdown:
Section |  min time  |  avg time  |  max time  |%varavg| %total
---------------------------------------------------------------
Pair    | 2.1275     | 4.0731     | 5.2849     |  49.1 | 73.64
Neigh   | 0          | 0          | 0          |   0.0 |  0.00
Comm    | 0.080543   | 0.56422    | 1.3268     |  47.9 | 10.20
Output  | 0.00014186 | 0.00014292 | 0.00015561 |   0.0 |  0.00
Modify  | 0.0058966  | 0.0091078  | 0.011553   |   1.6 |  0.16
Other   |            | 0.8849     |            |       | 16.00

Nlocal:        11105.8 ave       15250 max        4380 min
Histogram: 4 0 0 0 4 0 4 4 6 4
Nghost:        10534.0 ave       14021 max        4076 min
Histogram: 4 0 0 0 4 0 4 2 6 6
Neighs:       316854.0 ave      439936 max      114725 min
Histogram: 4 0 0 0 4 0 4 4 7 3

Total # of neighbors = 8238215
Ave neighs/atom = 28.530516
Neighbor list builds = 0
Dangerous builds = 0
The dot product: 1.04167413075039e-06
Setting atom values ...
  1 settings made for x
  1 settings made for y
  1 settings made for z
Setting up cg style minimization ...
  Unit style    : metal
  Current step  : 3108
Per MPI rank memory allocation (min/avg/max) = 6.233 | 10.36 | 11.60 Mbytes
Step PotEng KinEng TotEng v_fx v_fy v_fz 
    3108   -1152449.1            0   -1152449.1  -0.02304532 0.0045364611 -0.028318866 
    3279   -1152449.1            0   -1152449.1 -1.3775244e-05 3.2748153e-05 -5.7528689e-05 
Loop time of 6.00912 on 26 procs for 171 steps with 288751 atoms

100.0% CPU use with 26 MPI tasks x 1 OpenMP threads

Minimization stats:
  Stopping criterion = linesearch alpha is zero
  Energy initial, next-to-last, final = 
     -1152449.14677249  -1152449.14880207  -1152449.14880207
  Force two-norm initial, final = 0.17419396 0.00019326046
  Force max component initial, final = 0.12699566 5.7528689e-05
  Final line search alpha, max atom move = 0.25 1.4382172e-05
  Iterations, force evaluations = 171 345

MPI task timing breakdown:
Section |  min time  |  avg time  |  max time  |%varavg| %total
---------------------------------------------------------------
Pair    | 2.3009     | 4.423      | 5.7421     |  51.3 | 73.61
Neigh   | 0          | 0          | 0          |   0.0 |  0.00
Comm    | 0.083067   | 0.61082    | 1.4515     |  50.6 | 10.16
Output  | 0          | 0          | 0          |   0.0 |  0.00
Modify  | 0.006413   | 0.0098513  | 0.012515   |   1.7 |  0.16
Other   |            | 0.9654     |            |       | 16.07

Nlocal:        11105.8 ave       15250 max        4380 min
Histogram: 4 0 0 0 4 0 4 4 6 4
Nghost:        10534.0 ave       14021 max        4076 min
Histogram: 4 0 0 0 4 0 4 2 6 6
Neighs:       316854.0 ave      439936 max      114725 min
Histogram: 4 0 0 0 4 0 4 4 7 3

Total # of neighbors = 8238215
Ave neighs/atom = 28.530516
Neighbor list builds = 0
Dangerous builds = 0
The dot product: 8.49237683035889e-07
Setting atom values ...
  1 settings made for x
  1 settings made for y
  1 settings made for z
Setting up cg style minimization ...
  Unit style    : metal
  Current step  : 3279
Per MPI rank memory allocation (min/avg/max) = 6.233 | 10.36 | 11.60 Mbytes
Step PotEng KinEng TotEng v_fx v_fy v_fz 
    3279   -1152449.1            0   -1152449.1 -0.020663813 0.0043149266 -0.023734491 
    3431   -1152449.1            0   -1152449.1 -2.1363768e-05 5.7609667e-05 -9.2305227e-05 
Loop time of 5.37466 on 26 procs for 152 steps with 288751 atoms

100.0% CPU use with 26 MPI tasks x 1 OpenMP threads

Minimization stats:
  Stopping criterion = linesearch alpha is zero
  Energy initial, next-to-last, final = 
     -1152449.12074066  -1152449.12259489  -1152449.12259489
  Force two-norm initial, final = 0.17349046 0.00030764263
  Force max component initial, final = 0.12988998 9.2305227e-05
  Final line search alpha, max atom move = 0.125 1.1538153e-05
  Iterations, force evaluations = 152 309

MPI task timing breakdown:
Section |  min time  |  avg time  |  max time  |%varavg| %total
---------------------------------------------------------------
Pair    | 2.0664     | 3.9611     | 5.1361     |  48.5 | 73.70
Neigh   | 0          | 0          | 0          |   0.0 |  0.00
Comm    | 0.078251   | 0.54888    | 1.2943     |  47.6 | 10.21
Output  | 0          | 0          | 0          |   0.0 |  0.00
Modify  | 0.005713   | 0.0088379  | 0.011223   |   1.6 |  0.16
Other   |            | 0.8559     |            |       | 15.92

Nlocal:        11105.8 ave       15251 max        4380 min
Histogram: 4 0 0 0 4 0 4 4 6 4
Nghost:        10534.0 ave       14021 max        4076 min
Histogram: 4 0 0 0 4 0 4 2 6 6
Neighs:       316854.0 ave      439965 max      114725 min
Histogram: 4 0 0 0 4 0 4 4 7 3

Total # of neighbors = 8238213
Ave neighs/atom = 28.530509
Neighbor list builds = 0
Dangerous builds = 0
The dot product: 1.17087764891415e-06
Setting atom values ...
  1 settings made for x
  1 settings made for y
  1 settings made for z
Setting up cg style minimization ...
  Unit style    : metal
  Current step  : 3431
Per MPI rank memory allocation (min/avg/max) = 6.233 | 10.36 | 11.60 Mbytes
Step PotEng KinEng TotEng v_fx v_fy v_fz 
    3431   -1152449.1            0   -1152449.1  -0.01647722 0.0034671856 -0.017784804 
    3594   -1152449.1            0   -1152449.1 8.4228524e-06 -1.5687507e-05  2.60295e-05 
Loop time of 5.7386 on 26 procs for 163 steps with 288751 atoms

100.0% CPU use with 26 MPI tasks x 1 OpenMP threads

Minimization stats:
  Stopping criterion = linesearch alpha is zero
  Energy initial, next-to-last, final = 
     -1152449.09339103  -1152449.09511768  -1152449.09511768
  Force two-norm initial, final = 0.17304115 0.00020345339
  Force max component initial, final = 0.13267244 3.5573034e-05
  Final line search alpha, max atom move = 0.25 8.8932586e-06
  Iterations, force evaluations = 163 329

MPI task timing breakdown:
Section |  min time  |  avg time  |  max time  |%varavg| %total
---------------------------------------------------------------
Pair    | 2.1951     | 4.2257     | 5.4836     |  50.3 | 73.64
Neigh   | 0          | 0          | 0          |   0.0 |  0.00
Comm    | 0.07994    | 0.5845     | 1.3834     |  49.0 | 10.19
Output  | 0          | 0          | 0          |   0.0 |  0.00
Modify  | 0.0061257  | 0.0093968  | 0.011969   |   1.6 |  0.16
Other   |            | 0.919      |            |       | 16.01

Nlocal:        11105.8 ave       15251 max        4380 min
Histogram: 4 0 0 0 4 0 4 4 6 4
Nghost:        10534.0 ave       14022 max        4076 min
Histogram: 4 0 0 0 4 0 4 2 6 6
Neighs:       316854.0 ave      439948 max      114725 min
Histogram: 4 0 0 0 4 0 4 4 7 3

Total # of neighbors = 8238212
Ave neighs/atom = 28.530506
Neighbor list builds = 0
Dangerous builds = 0
The dot product: -2.8796893753012e-07
Setting atom values ...
  1 settings made for x
  1 settings made for y
  1 settings made for z
Setting up cg style minimization ...
  Unit style    : metal
  Current step  : 3594
Per MPI rank memory allocation (min/avg/max) = 6.233 | 10.36 | 11.60 Mbytes
Step PotEng KinEng TotEng v_fx v_fy v_fz 
    3594   -1152449.1            0   -1152449.1 -0.011873201 0.0025743004 -0.012286621 
    3763   -1152449.1            0   -1152449.1 1.1683071e-05 -3.4697799e-05 4.9825326e-05 
Loop time of 5.96304 on 26 procs for 169 steps with 288751 atoms

100.0% CPU use with 26 MPI tasks x 1 OpenMP threads

Minimization stats:
  Stopping criterion = linesearch alpha is zero
  Energy initial, next-to-last, final = 
     -1152449.06470366  -1152449.06635636  -1152449.06635636
  Force two-norm initial, final = 0.17316122 0.00019489671
  Force max component initial, final = 0.13532333 4.9825326e-05
  Final line search alpha, max atom move = 0.25 1.2456331e-05
  Iterations, force evaluations = 169 343

MPI task timing breakdown:
Section |  min time  |  avg time  |  max time  |%varavg| %total
---------------------------------------------------------------
Pair    | 2.2933     | 4.3924     | 5.6974     |  51.0 | 73.66
Neigh   | 0          | 0          | 0          |   0.0 |  0.00
Comm    | 0.086909   | 0.60604    | 1.4331     |  50.5 | 10.16
Output  | 0          | 0          | 0          |   0.0 |  0.00
Modify  | 0.0063707  | 0.0098116  | 0.012471   |   1.7 |  0.16
Other   |            | 0.9548     |            |       | 16.01

Nlocal:        11105.8 ave       15250 max        4380 min
Histogram: 4 0 0 0 4 0 4 4 6 4
Nghost:        10534.0 ave       14022 max        4076 min
Histogram: 4 0 0 0 4 0 4 2 6 6
Neighs:       316854.0 ave      439911 max      114725 min
Histogram: 4 0 0 0 4 0 4 4 7 3

Total # of neighbors = 8238214
Ave neighs/atom = 28.530512
Neighbor list builds = 0
Dangerous builds = 0
The dot product: -4.56509853014658e-07
Setting atom values ...
  1 settings made for x
  1 settings made for y
  1 settings made for z
Setting up cg style minimization ...
  Unit style    : metal
  Current step  : 3763
Per MPI rank memory allocation (min/avg/max) = 6.233 | 10.36 | 11.60 Mbytes
Step PotEng KinEng TotEng v_fx v_fy v_fz 
    3763     -1152449            0     -1152449 -0.0077111152 0.0019171268 -0.0079616539 
    3914     -1152449            0     -1152449 -7.4224344e-06 3.4645059e-05 -4.500785e-05 
Loop time of 5.28618 on 26 procs for 151 steps with 288751 atoms

100.0% CPU use with 26 MPI tasks x 1 OpenMP threads

Minimization stats:
  Stopping criterion = energy tolerance
  Energy initial, next-to-last, final = 
     -1152449.03472395  -1152449.03635346  -1152449.03635346
  Force two-norm initial, final = 0.1737547 0.00031813805
  Force max component initial, final = 0.13775217 4.5007850e-05
  Final line search alpha, max atom move = 1.0000000 4.5007850e-05
  Iterations, force evaluations = 151 302

MPI task timing breakdown:
Section |  min time  |  avg time  |  max time  |%varavg| %total
---------------------------------------------------------------
Pair    | 2.0194     | 3.8797     | 5.0518     |  48.2 | 73.39
Neigh   | 0          | 0          | 0          |   0.0 |  0.00
Comm    | 0.076079   | 0.54176    | 1.2648     |  45.9 | 10.25
Output  | 0          | 0          | 0          |   0.0 |  0.00
Modify  | 0.0055934  | 0.0086334  | 0.010972   |   1.6 |  0.16
Other   |            | 0.8561     |            |       | 16.20

Nlocal:        11105.8 ave       15250 max        4380 min
Histogram: 4 0 0 0 4 0 4 4 6 4
Nghost:        10534.0 ave       14022 max        4076 min
Histogram: 4 0 0 0 4 0 4 2 6 6
Neighs:       316855.0 ave      439899 max      114725 min
Histogram: 4 0 0 0 4 0 4 4 7 3

Total # of neighbors = 8238218
Ave neighs/atom = 28.530526
Neighbor list builds = 0
Dangerous builds = 0
The dot product: 3.61088123792027e-07
Setting atom values ...
  1 settings made for x
  1 settings made for y
  1 settings made for z
Setting up cg style minimization ...
  Unit style    : metal
  Current step  : 3914
Per MPI rank memory allocation (min/avg/max) = 6.233 | 10.36 | 11.60 Mbytes
Step PotEng KinEng TotEng v_fx v_fy v_fz 
    3914     -1152449            0     -1152449 -0.0045890074 0.0014850703 -0.0049799017 
    4000     -1152449            0     -1152449 1.4437334e-05 -7.8909627e-05 9.8059426e-05 
    4072     -1152449            0     -1152449 3.7585663e-07 2.2410278e-05 -2.4599117e-05 
Loop time of 5.61965 on 26 procs for 158 steps with 288751 atoms

100.0% CPU use with 26 MPI tasks x 1 OpenMP threads

Minimization stats:
  Stopping criterion = linesearch alpha is zero
  Energy initial, next-to-last, final = 
     -1152449.00357711  -1152449.00522563  -1152449.00522563
  Force two-norm initial, final = 0.17450267 0.00031420159
  Force max component initial, final = 0.13982108 6.3547533e-05
  Final line search alpha, max atom move = 0.125 7.9434416e-06
  Iterations, force evaluations = 158 323

MPI task timing breakdown:
Section |  min time  |  avg time  |  max time  |%varavg| %total
---------------------------------------------------------------
Pair    | 2.1624     | 4.1428     | 5.3681     |  49.7 | 73.72
Neigh   | 0          | 0          | 0          |   0.0 |  0.00
Comm    | 0.080377   | 0.57338    | 1.3492     |  48.8 | 10.20
Output  | 0.00014182 | 0.00014282 | 0.00015761 |   0.0 |  0.00
Modify  | 0.005968   | 0.0092429  | 0.011766   |   1.6 |  0.16
Other   |            | 0.8941     |            |       | 15.91

Nlocal:        11105.8 ave       15249 max        4380 min
Histogram: 4 0 0 0 4 0 4 4 6 4
Nghost:        10534.0 ave       14022 max        4076 min
Histogram: 4 0 0 0 4 0 4 2 6 6
Neighs:       316855.0 ave      439856 max      114725 min
Histogram: 4 0 0 0 4 0 4 4 7 3

Total # of neighbors = 8238218
Ave neighs/atom = 28.530526
Neighbor list builds = 0
Dangerous builds = 0
The dot product: 1.78224688745224e-07
Setting atom values ...
  1 settings made for x
  1 settings made for y
  1 settings made for z
Setting up cg style minimization ...
  Unit style    : metal
  Current step  : 4072
Per MPI rank memory allocation (min/avg/max) = 6.233 | 10.36 | 11.60 Mbytes
Step PotEng KinEng TotEng v_fx v_fy v_fz 
    4072     -1152449            0     -1152449 -0.002270464 0.00086934856 -0.0025501762 
    4237     -1152449            0     -1152449 3.3749649e-06 -2.3472218e-05 2.7859106e-05 
Loop time of 5.84551 on 26 procs for 165 steps with 288751 atoms

100.0% CPU use with 26 MPI tasks x 1 OpenMP threads

Minimization stats:
  Stopping criterion = linesearch alpha is zero
  Energy initial, next-to-last, final = 
     -1152448.97137856  -1152448.97302748  -1152448.97302748
  Force two-norm initial, final = 0.17533362 0.0002547387
  Force max component initial, final = 0.14169579 4.5687280e-05
  Final line search alpha, max atom move = 0.125 5.7109100e-06
  Iterations, force evaluations = 165 335

MPI task timing breakdown:
Section |  min time  |  avg time  |  max time  |%varavg| %total
---------------------------------------------------------------
Pair    | 2.2387     | 4.3        | 5.5865     |  50.5 | 73.56
Neigh   | 0          | 0          | 0          |   0.0 |  0.00
Comm    | 0.080623   | 0.59467    | 1.414      |  49.7 | 10.17
Output  | 0          | 0          | 0          |   0.0 |  0.00
Modify  | 0.006231   | 0.0095745  | 0.0122     |   1.6 |  0.16
Other   |            | 0.9412     |            |       | 16.10

Nlocal:        11105.8 ave       15248 max        4380 min
Histogram: 4 0 0 0 4 0 4 4 6 4
Nghost:        10534.0 ave       14022 max        4076 min
Histogram: 4 0 0 0 4 0 4 2 6 6
Neighs:       316855.0 ave      439834 max      114725 min
Histogram: 4 0 0 0 4 0 4 4 7 3

Total # of neighbors = 8238219
Ave neighs/atom = 28.530530
Neighbor list builds = 0
Dangerous builds = 0
The dot product: -1.91173321132734e-07
Setting atom values ...
  1 settings made for x
  1 settings made for y
  1 settings made for z
Setting up cg style minimization ...
  Unit style    : metal
  Current step  : 4237
Per MPI rank memory allocation (min/avg/max) = 6.233 | 10.36 | 11.60 Mbytes
Step PotEng KinEng TotEng v_fx v_fy v_fz 
    4237   -1152448.9            0   -1152448.9 -0.00061984989 -3.1104375e-05 -0.00039643671 
    4380   -1152448.9            0   -1152448.9 1.0055501e-05 -2.0571751e-05 2.8845496e-05 
Loop time of 5.1043 on 26 procs for 143 steps with 288751 atoms

100.0% CPU use with 26 MPI tasks x 1 OpenMP threads

Minimization stats:
  Stopping criterion = linesearch alpha is zero
  Energy initial, next-to-last, final = 
     -1152448.93817973  -1152448.93989373  -1152448.93989373
  Force two-norm initial, final = 0.17628933 0.00033375354
  Force max component initial, final = 0.14353829 4.0399976e-05
  Final line search alpha, max atom move = 0.0625 2.5249985e-06
  Iterations, force evaluations = 143 293

MPI task timing breakdown:
Section |  min time  |  avg time  |  max time  |%varavg| %total
---------------------------------------------------------------
Pair    | 1.9626     | 3.7581     | 4.8788     |  47.2 | 73.63
Neigh   | 0          | 0          | 0          |   0.0 |  0.00
Comm    | 0.073963   | 0.52002    | 1.2274     |  46.2 | 10.19
Output  | 0          | 0          | 0          |   0.0 |  0.00
Modify  | 0.0054434  | 0.0083952  | 0.010679   |   1.5 |  0.16
Other   |            | 0.8178     |            |       | 16.02

Nlocal:        11105.8 ave       15248 max        4380 min
Histogram: 4 0 0 0 4 0 4 4 6 4
Nghost:        10534.0 ave       14022 max        4076 min
Histogram: 4 0 0 0 4 0 4 2 6 6
Neighs:       316854.0 ave      439826 max      114725 min
Histogram: 4 0 0 0 4 0 4 4 7 3

Total # of neighbors = 8238216
Ave neighs/atom = 28.530519
Neighbor list builds = 0
Dangerous builds = 0
The dot product: -1.90706035472049e-07
Setting atom values ...
  1 settings made for x
  1 settings made for y
  1 settings made for z
Setting up cg style minimization ...
  Unit style    : metal
  Current step  : 4380
Per MPI rank memory allocation (min/avg/max) = 6.233 | 10.36 | 11.60 Mbytes
Step PotEng KinEng TotEng v_fx v_fy v_fz 
    4380   -1152448.9            0   -1152448.9 0.00043756705 -0.00092404892 0.0012622268 
    4543   -1152448.9            0   -1152448.9 1.7442331e-06 -1.2339905e-05 1.406705e-05 
Loop time of 5.76602 on 26 procs for 163 steps with 288751 atoms

100.0% CPU use with 26 MPI tasks x 1 OpenMP threads

Minimization stats:
  Stopping criterion = linesearch alpha is zero
  Energy initial, next-to-last, final = 
     -1152448.90416943  -1152448.90583284  -1152448.90583284
  Force two-norm initial, final = 0.17700071 0.00029076756
  Force max component initial, final = 0.14495559 2.4232479e-05
  Final line search alpha, max atom move = 0.125 3.0290599e-06
  Iterations, force evaluations = 163 331

MPI task timing breakdown:
Section |  min time  |  avg time  |  max time  |%varavg| %total
---------------------------------------------------------------
Pair    | 2.2077     | 4.2446     | 5.5106     |  50.2 | 73.61
Neigh   | 0          | 0          | 0          |   0.0 |  0.00
Comm    | 0.079184   | 0.58704    | 1.3974     |  49.4 | 10.18
Output  | 0          | 0          | 0          |   0.0 |  0.00
Modify  | 0.0061457  | 0.0095139  | 0.012063   |   1.5 |  0.16
Other   |            | 0.9249     |            |       | 16.04

Nlocal:        11105.8 ave       15249 max        4380 min
Histogram: 4 0 0 0 4 0 4 4 6 4
Nghost:        10534.0 ave       14022 max        4076 min
Histogram: 4 0 0 0 4 0 4 2 6 6
Neighs:       316854.0 ave      439856 max      114725 min
Histogram: 4 0 0 0 4 0 4 4 7 3

Total # of neighbors = 8238214
Ave neighs/atom = 28.530512
Neighbor list builds = 0
Dangerous builds = 0
The dot product: -8.17259341253997e-08
Setting atom values ...
  1 settings made for x
  1 settings made for y
  1 settings made for z
Setting up cg style minimization ...
  Unit style    : metal
  Current step  : 4543
Per MPI rank memory allocation (min/avg/max) = 6.233 | 10.36 | 11.60 Mbytes
Step PotEng KinEng TotEng v_fx v_fy v_fz 
    4543   -1152448.9            0   -1152448.9 0.0017369599 -0.0027251651 0.0039649941 
    4727   -1152448.9            0   -1152448.9 -1.1045795e-06 2.5753906e-07 -1.0053959e-06 
Loop time of 6.45737 on 26 procs for 184 steps with 288751 atoms

99.9% CPU use with 26 MPI tasks x 1 OpenMP threads

Minimization stats:
  Stopping criterion = linesearch alpha is zero
  Energy initial, next-to-last, final = 
      -1152448.8691145  -1152448.87072253  -1152448.87072253
  Force two-norm initial, final = 0.17811609 0.00014299104
  Force max component initial, final = 0.14655976 1.0487863e-05
  Final line search alpha, max atom move = 0.5 5.2439313e-06
  Iterations, force evaluations = 184 371

MPI task timing breakdown:
Section |  min time  |  avg time  |  max time  |%varavg| %total
---------------------------------------------------------------
Pair    | 2.4838     | 4.7495     | 6.1654     |  53.0 | 73.55
Neigh   | 0          | 0          | 0          |   0.0 |  0.00
Comm    | 0.097429   | 0.65889    | 1.5471     |  51.7 | 10.20
Output  | 0          | 0          | 0          |   0.0 |  0.00
Modify  | 0.0068635  | 0.010641   | 0.013525   |   1.7 |  0.16
Other   |            | 1.038      |            |       | 16.08

Nlocal:        11105.8 ave       15249 max        4380 min
Histogram: 4 0 0 0 4 0 4 4 6 4
Nghost:        10534.1 ave       14022 max        4076 min
Histogram: 4 0 0 0 4 0 4 2 6 6
Neighs:       316854.0 ave      439863 max      114725 min
Histogram: 4 0 0 0 4 0 4 4 7 3

Total # of neighbors = 8238213
Ave neighs/atom = 28.530509
Neighbor list builds = 0
Dangerous builds = 0
The dot product: 4.35381468122151e-09
Setting atom values ...
  1 settings made for x
  1 settings made for y
  1 settings made for z
Setting up cg style minimization ...
  Unit style    : metal
  Current step  : 4727
Per MPI rank memory allocation (min/avg/max) = 6.233 | 10.36 | 11.60 Mbytes
Step PotEng KinEng TotEng v_fx v_fy v_fz 
    4727   -1152448.8            0   -1152448.8 0.0029670003 -0.004933009 0.0069741777 
    4880   -1152448.8            0   -1152448.8 1.0525363e-05 -3.4939908e-05 4.2437155e-05 
Loop time of 5.49752 on 26 procs for 153 steps with 288751 atoms

100.0% CPU use with 26 MPI tasks x 1 OpenMP threads

Minimization stats:
  Stopping criterion = linesearch alpha is zero
  Energy initial, next-to-last, final = 
     -1152448.83295188  -1152448.83463571  -1152448.83463571
  Force two-norm initial, final = 0.17943118 0.00028055155
  Force max component initial, final = 0.14818636 4.2437155e-05
  Final line search alpha, max atom move = 0.125 5.3046444e-06
  Iterations, force evaluations = 153 315

MPI task timing breakdown:
Section |  min time  |  avg time  |  max time  |%varavg| %total
---------------------------------------------------------------
Pair    | 2.1042     | 4.0458     | 5.2544     |  49.2 | 73.59
Neigh   | 0          | 0          | 0          |   0.0 |  0.00
Comm    | 0.076487   | 0.56109    | 1.3219     |  47.8 | 10.21
Output  | 0          | 0          | 0          |   0.0 |  0.00
Modify  | 0.0058625  | 0.0090135  | 0.011446   |   1.6 |  0.16
Other   |            | 0.8817     |            |       | 16.04

Nlocal:        11105.8 ave       15247 max        4380 min
Histogram: 4 0 0 0 4 0 4 4 6 4
Nghost:        10534.0 ave       14022 max        4076 min
Histogram: 4 0 0 0 4 0 4 2 6 6
Neighs:       316854.0 ave      439808 max      114725 min
Histogram: 4 0 0 0 4 0 4 4 7 3

Total # of neighbors = 8238216
Ave neighs/atom = 28.530519
Neighbor list builds = 0
Dangerous builds = 0
The dot product: -1.85211179502642e-07
Setting atom values ...
  1 settings made for x
  1 settings made for y
  1 settings made for z
Setting up cg style minimization ...
  Unit style    : metal
  Current step  : 4880
Per MPI rank memory allocation (min/avg/max) = 6.233 | 10.36 | 11.60 Mbytes
Step PotEng KinEng TotEng v_fx v_fy v_fz 
    4880   -1152448.8            0   -1152448.8 0.0035996053 -0.006669591 0.0090595863 
    5000   -1152448.8            0   -1152448.8 -4.8098932e-05 9.513557e-05 -0.00012709169 
    5040   -1152448.8            0   -1152448.8 -4.1894064e-06 7.2292696e-06 -1.0009067e-05 
Loop time of 5.65281 on 26 procs for 160 steps with 288751 atoms

100.0% CPU use with 26 MPI tasks x 1 OpenMP threads

Minimization stats:
  Stopping criterion = linesearch alpha is zero
  Energy initial, next-to-last, final = 
      -1152448.7960384   -1152448.7976743   -1152448.7976743
  Force two-norm initial, final = 0.18006567 0.00031062114
  Force max component initial, final = 0.14927525 2.7827658e-05
  Final line search alpha, max atom move = 0.125 3.4784573e-06
  Iterations, force evaluations = 160 325

MPI task timing breakdown:
Section |  min time  |  avg time  |  max time  |%varavg| %total
---------------------------------------------------------------
Pair    | 2.1683     | 4.1629     | 5.4012     |  49.8 | 73.64
Neigh   | 0          | 0          | 0          |   0.0 |  0.00
Comm    | 0.082741   | 0.57615    | 1.3635     |  49.1 | 10.19
Output  | 0.00014241 | 0.00014373 | 0.00015837 |   0.0 |  0.00
Modify  | 0.006012   | 0.009298   | 0.011819   |   1.6 |  0.16
Other   |            | 0.9043     |            |       | 16.00

Nlocal:        11105.8 ave       15247 max        4380 min
Histogram: 4 0 0 0 4 0 4 4 6 4
Nghost:        10534.0 ave       14022 max        4076 min
Histogram: 4 0 0 0 4 0 4 2 6 6
Neighs:       316854.0 ave      439804 max      114725 min
Histogram: 4 0 0 0 4 0 4 4 7 3

Total # of neighbors = 8238215
Ave neighs/atom = 28.530516
Neighbor list builds = 0
Dangerous builds = 0
The dot product: 3.03807271968816e-08
Setting atom values ...
  1 settings made for x
  1 settings made for y
  1 settings made for z
Setting up cg style minimization ...
  Unit style    : metal
  Current step  : 5040
Per MPI rank memory allocation (min/avg/max) = 6.233 | 10.36 | 11.60 Mbytes
Step PotEng KinEng TotEng v_fx v_fy v_fz 
    5040   -1152448.8            0   -1152448.8 0.0045495271 -0.0094341453  0.012367138 
    5204   -1152448.8            0   -1152448.8 9.7521027e-06 -3.694927e-06 1.005746e-05 
Loop time of 5.83453 on 26 procs for 164 steps with 288751 atoms

100.0% CPU use with 26 MPI tasks x 1 OpenMP threads

Minimization stats:
  Stopping criterion = linesearch alpha is zero
  Energy initial, next-to-last, final = 
     -1152448.75807085  -1152448.75969462  -1152448.75969462
  Force two-norm initial, final = 0.18104354 0.00027870484
  Force max component initial, final = 0.15056934 5.6806640e-05
  Final line search alpha, max atom move = 0.125 7.1008299e-06
  Iterations, force evaluations = 164 335

MPI task timing breakdown:
Section |  min time  |  avg time  |  max time  |%varavg| %total
---------------------------------------------------------------
Pair    | 2.2394     | 4.2954     | 5.5756     |  50.5 | 73.62
Neigh   | 0          | 0          | 0          |   0.0 |  0.00
Comm    | 0.085282   | 0.59419    | 1.4022     |  49.3 | 10.18
Output  | 0          | 0          | 0          |   0.0 |  0.00
Modify  | 0.0061921  | 0.009571   | 0.01215    |   1.6 |  0.16
Other   |            | 0.9354     |            |       | 16.03

Nlocal:        11105.8 ave       15247 max        4380 min
Histogram: 4 0 0 0 4 0 4 4 6 4
Nghost:        10534.2 ave       14022 max        4076 min
Histogram: 4 0 0 0 4 0 4 2 6 6
Neighs:       316854.0 ave      439797 max      114725 min
Histogram: 4 0 0 0 4 0 4 4 7 3

Total # of neighbors = 8238213
Ave neighs/atom = 28.530509
Neighbor list builds = 0
Dangerous builds = 0
The dot product: -1.42897322897128e-08
Setting atom values ...
  1 settings made for x
  1 settings made for y
  1 settings made for z
Setting up cg style minimization ...
  Unit style    : metal
  Current step  : 5204
Per MPI rank memory allocation (min/avg/max) = 6.233 | 10.36 | 11.60 Mbytes
Step PotEng KinEng TotEng v_fx v_fy v_fz 
    5204   -1152448.7            0   -1152448.7 0.0052291372 -0.012328063  0.015623703 
    5357   -1152448.7            0   -1152448.7 -7.9417636e-06 2.3116365e-05 -2.8079873e-05 
Loop time of 5.36933 on 26 procs for 153 steps with 288751 atoms

100.0% CPU use with 26 MPI tasks x 1 OpenMP threads

Minimization stats:
  Stopping criterion = linesearch alpha is zero
  Energy initial, next-to-last, final = 
     -1152448.71913019   -1152448.7208754   -1152448.7208754
  Force two-norm initial, final = 0.18165234 0.00019402781
  Force max component initial, final = 0.1517125 2.8079873e-05
  Final line search alpha, max atom move = 0.25 7.0199682e-06
  Iterations, force evaluations = 153 309

MPI task timing breakdown:
Section |  min time  |  avg time  |  max time  |%varavg| %total
---------------------------------------------------------------
Pair    | 2.0678     | 3.9614     | 5.1275     |  48.5 | 73.78
Neigh   | 0          | 0          | 0          |   0.0 |  0.00
Comm    | 0.077172   | 0.54739    | 1.2908     |  48.0 | 10.19
Output  | 0          | 0          | 0          |   0.0 |  0.00
Modify  | 0.0057356  | 0.0088764  | 0.011287   |   1.5 |  0.17
Other   |            | 0.8516     |            |       | 15.86

Nlocal:        11105.8 ave       15247 max        4380 min
Histogram: 4 0 0 0 4 0 4 4 6 4
Nghost:        10534.2 ave       14022 max        4076 min
Histogram: 4 0 0 0 4 0 4 2 6 6
Neighs:       316854.0 ave      439805 max      114725 min
Histogram: 4 0 0 0 4 0 4 4 7 3

Total # of neighbors = 8238211
Ave neighs/atom = 28.530502
Neighbor list builds = 0
Dangerous builds = 0
The dot product: 3.84822609051303e-08
Setting atom values ...
  1 settings made for x
  1 settings made for y
  1 settings made for z
Setting up cg style minimization ...
  Unit style    : metal
  Current step  : 5357
Per MPI rank memory allocation (min/avg/max) = 6.233 | 10.36 | 11.60 Mbytes
Step PotEng KinEng TotEng v_fx v_fy v_fz 
    5357   -1152448.7            0   -1152448.7 0.0055819995 -0.014333253  0.017786767 
    5494   -1152448.7            0   -1152448.7 2.3962178e-06 -1.0076372e-06 2.5580062e-06 
Loop time of 4.87091 on 26 procs for 137 steps with 288751 atoms

100.0% CPU use with 26 MPI tasks x 1 OpenMP threads

Minimization stats:
  Stopping criterion = linesearch alpha is zero
  Energy initial, next-to-last, final = 
     -1152448.67979691  -1152448.68153089  -1152448.68153089
  Force two-norm initial, final = 0.18067877 0.00030189245
  Force max component initial, final = 0.15184665 8.2776555e-06
  Final line search alpha, max atom move = 0.125 1.0347069e-06
  Iterations, force evaluations = 137 279

MPI task timing breakdown:
Section |  min time  |  avg time  |  max time  |%varavg| %total
---------------------------------------------------------------
Pair    | 1.8627     | 3.5802     | 4.6554     |  46.2 | 73.50
Neigh   | 0          | 0          | 0          |   0.0 |  0.00
Comm    | 0.067063   | 0.49925    | 1.1803     |  45.1 | 10.25
Output  | 0          | 0          | 0          |   0.0 |  0.00
Modify  | 0.0051586  | 0.0079697  | 0.01013    |   1.5 |  0.16
Other   |            | 0.7835     |            |       | 16.08

Nlocal:        11105.8 ave       15248 max        4380 min
Histogram: 4 0 0 0 4 0 4 4 6 4
Nghost:        10534.1 ave       14022 max        4076 min
Histogram: 4 0 0 0 4 0 4 2 6 6
Neighs:       316854.0 ave      439838 max      114725 min
Histogram: 4 0 0 0 4 0 4 4 7 3

Total # of neighbors = 8238208
Ave neighs/atom = 28.530492
Neighbor list builds = 0
Dangerous builds = 0
The dot product: 2.1524718926711e-09
Setting atom values ...
  1 settings made for x
  1 settings made for y
  1 settings made for z
Setting up cg style minimization ...
  Unit style    : metal
  Current step  : 5494
Per MPI rank memory allocation (min/avg/max) = 6.233 | 10.36 | 11.60 Mbytes
Step PotEng KinEng TotEng v_fx v_fy v_fz 
    5494   -1152448.6            0   -1152448.6 0.0058609181  -0.01734866  0.020945874 
    5608   -1152448.6            0   -1152448.6 -1.9190307e-05 5.9260285e-05 -7.1004548e-05 
Loop time of 3.97551 on 26 procs for 114 steps with 288751 atoms

100.0% CPU use with 26 MPI tasks x 1 OpenMP threads

Minimization stats:
  Stopping criterion = energy tolerance
  Energy initial, next-to-last, final = 
     -1152448.64004391  -1152448.64193746  -1152448.64193746
  Force two-norm initial, final = 0.17986137 0.0004236661
  Force max component initial, final = 0.15183257 8.7213697e-05
  Final line search alpha, max atom move = 1.0000000 8.7213697e-05
  Iterations, force evaluations = 114 228

MPI task timing breakdown:
Section |  min time  |  avg time  |  max time  |%varavg| %total
---------------------------------------------------------------
Pair    | 1.5235     | 2.9247     | 3.7976     |  41.7 | 73.57
Neigh   | 0          | 0          | 0          |   0.0 |  0.00
Comm    | 0.05882    | 0.40551    | 0.95974    |  40.8 | 10.20
Output  | 0          | 0          | 0          |   0.0 |  0.00
Modify  | 0.0042387  | 0.006524   | 0.0083288  |   1.3 |  0.16
Other   |            | 0.6388     |            |       | 16.07

Nlocal:        11105.8 ave       15247 max        4380 min
Histogram: 4 0 0 0 4 0 4 4 6 4
Nghost:        10534.1 ave       14022 max        4076 min
Histogram: 4 0 0 0 4 0 4 2 6 6
Neighs:       316854.0 ave      439814 max      114725 min
Histogram: 4 0 0 0 4 0 4 4 7 3

Total # of neighbors = 8238202
Ave neighs/atom = 28.530471
Neighbor list builds = 0
Dangerous builds = 0
The dot product: -7.29164526499493e-08
Setting atom values ...
  1 settings made for x
  1 settings made for y
  1 settings made for z
Setting up cg style minimization ...
  Unit style    : metal
  Current step  : 5608
Per MPI rank memory allocation (min/avg/max) = 6.233 | 10.36 | 11.60 Mbytes
Step PotEng KinEng TotEng v_fx v_fy v_fz 
    5608   -1152448.6            0   -1152448.6 0.0084280799 -0.019213876  0.024525351 
    5778   -1152448.6            0   -1152448.6  2.95118e-05 -8.0493929e-05 9.8926148e-05 
Loop time of 6.06113 on 26 procs for 170 steps with 288751 atoms

100.0% CPU use with 26 MPI tasks x 1 OpenMP threads

Minimization stats:
  Stopping criterion = linesearch alpha is zero
  Energy initial, next-to-last, final = 
     -1152448.60078587  -1152448.60316448  -1152448.60316448
  Force two-norm initial, final = 0.17875599 0.00041274886
  Force max component initial, final = 0.15023162 9.8926148e-05
  Final line search alpha, max atom move = 0.0625 6.1828843e-06
  Iterations, force evaluations = 170 347

MPI task timing breakdown:
Section |  min time  |  avg time  |  max time  |%varavg| %total
---------------------------------------------------------------
Pair    | 2.3098     | 4.4554     | 5.7932     |  51.6 | 73.51
Neigh   | 0          | 0          | 0          |   0.0 |  0.00
Comm    | 0.083551   | 0.61889    | 1.4742     |  50.6 | 10.21
Output  | 0          | 0          | 0          |   0.0 |  0.00
Modify  | 0.006447   | 0.0099234  | 0.012612   |   1.6 |  0.16
Other   |            | 0.9769     |            |       | 16.12

Nlocal:        11105.8 ave       15246 max        4380 min
Histogram: 4 0 0 0 4 0 4 4 6 4
Nghost:        10534.2 ave       14022 max        4076 min
Histogram: 4 0 0 0 4 0 4 2 6 6
Neighs:       316854.0 ave      439786 max      114725 min
Histogram: 4 0 0 0 4 0 4 4 7 3

Total # of neighbors = 8238203
Ave neighs/atom = 28.530474
Neighbor list builds = 0
Dangerous builds = 0
The dot product: 5.10828366891174e-08
Setting atom values ...
  1 settings made for x
  1 settings made for y
  1 settings made for z
Setting up cg style minimization ...
  Unit style    : metal
  Current step  : 5778
Per MPI rank memory allocation (min/avg/max) = 6.233 | 10.36 | 11.60 Mbytes
Step PotEng KinEng TotEng v_fx v_fy v_fz 
    5778   -1152448.6            0   -1152448.6  0.011411591 -0.018890628  0.026216559 
    6000   -1152448.6            0   -1152448.6 4.6634512e-06 -9.3513463e-06 1.2324106e-05 
    6004   -1152448.6            0   -1152448.6 -1.6086849e-05 3.7292121e-05 -4.7481882e-05 
Loop time of 7.92941 on 26 procs for 226 steps with 288751 atoms

100.0% CPU use with 26 MPI tasks x 1 OpenMP threads

Minimization stats:
  Stopping criterion = linesearch alpha is zero
  Energy initial, next-to-last, final = 
     -1152448.56364071  -1152448.57374736  -1152448.57374736
  Force two-norm initial, final = 0.18214775 0.00021900472
  Force max component initial, final = 0.14706848 4.7481882e-05
  Final line search alpha, max atom move = 0.25 1.1870471e-05
  Iterations, force evaluations = 226 455

MPI task timing breakdown:
Section |  min time  |  avg time  |  max time  |%varavg| %total
---------------------------------------------------------------
Pair    | 3.047      | 5.8281     | 7.5613     |  58.7 | 73.50
Neigh   | 0.0037209  | 0.009813   | 0.013792   |   3.1 |  0.12
Comm    | 0.11698    | 0.80886    | 1.9079     |  57.6 | 10.20
Output  | 0.00014505 | 0.00014616 | 0.00016176 |   0.0 |  0.00
Modify  | 0.0084132  | 0.013      | 0.016534   |   1.9 |  0.16
Other   |            | 1.27       |            |       | 16.01

Nlocal:        11105.8 ave       15247 max        4380 min
Histogram: 4 0 0 0 4 0 4 4 6 4
Nghost:        10534.2 ave       14022 max        4076 min
Histogram: 4 0 0 0 4 0 4 2 6 6
Neighs:       316854.0 ave      439811 max      114725 min
Histogram: 4 0 0 0 4 0 4 4 7 3

Total # of neighbors = 8238194
Ave neighs/atom = 28.530443
Neighbor list builds = 1
Dangerous builds = 0
The dot product: 8.7804536158317e-07
Setting atom values ...
  1 settings made for x
  1 settings made for y
  1 settings made for z
Setting up cg style minimization ...
  Unit style    : metal
  Current step  : 6004
Per MPI rank memory allocation (min/avg/max) = 6.233 | 10.36 | 11.60 Mbytes
Step PotEng KinEng TotEng v_fx v_fy v_fz 
    6004   -1152448.5            0   -1152448.5 0.0058648976 -0.012334211   0.01548442 
    6143   -1152448.6            0   -1152448.6 1.1615987e-05 -2.593572e-05 3.2097381e-05 
Loop time of 4.97065 on 26 procs for 139 steps with 288751 atoms

100.0% CPU use with 26 MPI tasks x 1 OpenMP threads

Minimization stats:
  Stopping criterion = linesearch alpha is zero
  Energy initial, next-to-last, final = 
     -1152448.54778741  -1152448.55026313  -1152448.55026313
  Force two-norm initial, final = 0.17915801 0.0003890848
  Force max component initial, final = 0.14717022 3.5104401e-05
  Final line search alpha, max atom move = 0.0625 2.1940251e-06
  Iterations, force evaluations = 139 285

MPI task timing breakdown:
Section |  min time  |  avg time  |  max time  |%varavg| %total
---------------------------------------------------------------
Pair    | 1.9012     | 3.6585     | 4.7486     |  46.7 | 73.60
Neigh   | 0          | 0          | 0          |   0.0 |  0.00
Comm    | 0.072905   | 0.50729    | 1.2016     |  45.7 | 10.21
Output  | 0          | 0          | 0          |   0.0 |  0.00
Modify  | 0.0052695  | 0.0081657  | 0.010376   |   1.5 |  0.16
Other   |            | 0.7967     |            |       | 16.03

Nlocal:        11105.8 ave       15259 max        4380 min
Histogram: 4 0 0 0 4 0 4 4 6 4
Nghost:        10533.9 ave       14021 max        4076 min
Histogram: 4 0 0 0 4 0 4 2 6 6
Neighs:       316854.0 ave      440172 max      114725 min
Histogram: 4 0 0 0 4 0 4 4 8 2

Total # of neighbors = 8238193
Ave neighs/atom = 28.530440
Neighbor list builds = 0
Dangerous builds = 0
The dot product: -2.14042223369412e-07
Setting atom values ...
  1 settings made for x
  1 settings made for y
  1 settings made for z
Setting up cg style minimization ...
  Unit style    : metal
  Current step  : 6143
Per MPI rank memory allocation (min/avg/max) = 6.233 | 10.36 | 11.60 Mbytes
Step PotEng KinEng TotEng v_fx v_fy v_fz 
    6143   -1152448.5            0   -1152448.5 0.0071405933 -0.028000341  0.030763635 
    6295   -1152448.5            0   -1152448.5 1.8659799e-05 -4.6312073e-05 5.5256999e-05 
Loop time of 5.29695 on 26 procs for 152 steps with 288751 atoms

100.0% CPU use with 26 MPI tasks x 1 OpenMP threads

Minimization stats:
  Stopping criterion = energy tolerance
  Energy initial, next-to-last, final = 
     -1152448.52573183  -1152448.52813472  -1152448.52813472
  Force two-norm initial, final = 0.17685145 0.00044056503
[...]
Other   |            | 0.8366     |            |       | 15.95

Nlocal:        11105.8 ave       15289 max        4380 min
Histogram: 4 0 0 0 4 0 4 4 8 2
Nghost:        10533.6 ave       14020 max        4076 min
Histogram: 4 0 0 0 4 0 4 2 6 6
Neighs:       316854.0 ave      441261 max      114725 min
Histogram: 4 0 0 0 4 0 4 4 8 2

Total # of neighbors = 8238192
Ave neighs/atom = 28.530436
Neighbor list builds = 0
Dangerous builds = 0
The dot product: -1.87779599326738e-08
Setting atom values ...
  1 settings made for x
  1 settings made for y
  1 settings made for z
Setting up cg style minimization ...
  Unit style    : metal
  Current step  : 2421
Per MPI rank memory allocation (min/avg/max) = 6.233 | 10.36 | 11.60 Mbytes
Step PotEng KinEng TotEng v_fx v_fy v_fz 
    2421   -1152449.4            0   -1152449.4  0.010620938 0.0052668913 -0.020060584 
    2575   -1152449.4            0   -1152449.4 -6.7895302e-06 -5.306972e-05 5.8892066e-05 
Loop time of 5.33172 on 26 procs for 154 steps with 288751 atoms

100.0% CPU use with 26 MPI tasks x 1 OpenMP threads

Minimization stats:
  Stopping criterion = energy tolerance
  Energy initial, next-to-last, final = 
     -1152449.35067126  -1152449.35157168  -1152449.35157168
  Force two-norm initial, final = 0.125459 0.000285207
  Force max component initial, final = 0.046863663 5.8892066e-05
  Final line search alpha, max atom move = 1.0000000 5.8892066e-05
  Iterations, force evaluations = 154 308

MPI task timing breakdown:
Section |  min time  |  avg time  |  max time  |%varavg| %total
---------------------------------------------------------------
Pair    | 2.0476     | 3.9281     | 5.0946     |  48.2 | 73.67
Neigh   | 0          | 0          | 0          |   0.0 |  0.00
Comm    | 0.078357   | 0.5432     | 1.2803     |  47.6 | 10.19
Output  | 0          | 0          | 0          |   0.0 |  0.00
Modify  | 0.0056889  | 0.0088133  | 0.011171   |   1.6 |  0.17
Other   |            | 0.8516     |            |       | 15.97

Nlocal:        11105.8 ave       15291 max        4380 min
Histogram: 4 0 0 0 4 0 4 4 8 2
Nghost:        10533.6 ave       14020 max        4076 min
Histogram: 4 0 0 0 4 0 4 2 6 6
Neighs:       316853.0 ave      441316 max      114725 min
Histogram: 4 0 0 0 4 0 4 4 8 2

Total # of neighbors = 8238190
Ave neighs/atom = 28.530429
Neighbor list builds = 0
Dangerous builds = 0
The dot product: -2.68427860114175e-08
Setting atom values ...
  1 settings made for x
  1 settings made for y
  1 settings made for z
Setting up cg style minimization ...
  Unit style    : metal
  Current step  : 2575
Per MPI rank memory allocation (min/avg/max) = 6.233 | 10.36 | 11.60 Mbytes
Step PotEng KinEng TotEng v_fx v_fy v_fz 
    2575   -1152449.3            0   -1152449.3  0.010251587 0.0046177315 -0.018992292 
    2753   -1152449.4            0   -1152449.4 5.1952325e-07 -1.6258076e-05 1.4356705e-05 
Loop time of 6.21515 on 26 procs for 178 steps with 288751 atoms

99.9% CPU use with 26 MPI tasks x 1 OpenMP threads

Minimization stats:
  Stopping criterion = linesearch alpha is zero
  Energy initial, next-to-last, final = 
     -1152449.34994787  -1152449.35083931  -1152449.35083931
  Force two-norm initial, final = 0.12484208 0.00015408104
  Force max component initial, final = 0.046242861 1.6258076e-05
  Final line search alpha, max atom move = 0.5 8.1290382e-06
  Iterations, force evaluations = 178 359

MPI task timing breakdown:
Section |  min time  |  avg time  |  max time  |%varavg| %total
---------------------------------------------------------------
Pair    | 2.3803     | 4.5778     | 5.9354     |  52.2 | 73.66
Neigh   | 0          | 0          | 0          |   0.0 |  0.00
Comm    | 0.093609   | 0.63426    | 1.4955     |  51.5 | 10.21
Output  | 0          | 0          | 0          |   0.0 |  0.00
Modify  | 0.0066838  | 0.010273   | 0.013002   |   1.7 |  0.17
Other   |            | 0.9928     |            |       | 15.97

Nlocal:        11105.8 ave       15292 max        4380 min
Histogram: 4 0 0 0 4 0 4 4 8 2
Nghost:        10533.6 ave       14020 max        4076 min
Histogram: 4 0 0 0 4 0 4 2 6 6
Neighs:       316854.0 ave      441361 max      114725 min
Histogram: 4 0 0 0 4 0 4 4 8 2

Total # of neighbors = 8238192
Ave neighs/atom = 28.530436
Neighbor list builds = 0
Dangerous builds = 0
The dot product: -4.54941082094518e-09
Setting atom values ...
  1 settings made for x
  1 settings made for y
  1 settings made for z
Setting up cg style minimization ...
  Unit style    : metal
  Current step  : 2753
Per MPI rank memory allocation (min/avg/max) = 6.233 | 10.36 | 11.60 Mbytes
Step PotEng KinEng TotEng v_fx v_fy v_fz 
    2753   -1152449.3            0   -1152449.3 0.0096183746 0.0039236702 -0.017491408 
    2888   -1152449.3            0   -1152449.3 2.7576834e-05 3.140408e-05 -6.890202e-05 
Loop time of 4.71419 on 26 procs for 135 steps with 288751 atoms

100.0% CPU use with 26 MPI tasks x 1 OpenMP threads

Minimization stats:
  Stopping criterion = energy tolerance
  Energy initial, next-to-last, final = 
     -1152449.34787549  -1152449.34875375  -1152449.34875375
  Force two-norm initial, final = 0.12389025 0.00036919152
  Force max component initial, final = 0.046028629 6.8902020e-05
  Final line search alpha, max atom move = 1.0000000 6.8902020e-05
  Iterations, force evaluations = 135 272

MPI task timing breakdown:
Section |  min time  |  avg time  |  max time  |%varavg| %total
---------------------------------------------------------------
Pair    | 1.8105     | 3.4714     | 4.5037     |  45.3 | 73.64
Neigh   | 0          | 0          | 0          |   0.0 |  0.00
Comm    | 0.070081   | 0.48046    | 1.1313     |  44.7 | 10.19
Output  | 0          | 0          | 0          |   0.0 |  0.00
Modify  | 0.0050011  | 0.0077658  | 0.0098613  |   1.5 |  0.16
Other   |            | 0.7545     |            |       | 16.01

Nlocal:        11105.8 ave       15293 max        4380 min
Histogram: 4 0 0 0 4 0 4 4 8 2
Nghost:        10533.6 ave       14020 max        4076 min
Histogram: 4 0 0 0 4 0 4 2 6 6
Neighs:       316854.0 ave      441399 max      114725 min
Histogram: 4 0 0 0 4 0 4 4 8 2

Total # of neighbors = 8238191
Ave neighs/atom = 28.530433
Neighbor list builds = 0
Dangerous builds = 0
The dot product: 3.56175744183984e-08
Setting atom values ...
  1 settings made for x
  1 settings made for y
  1 settings made for z
Setting up cg style minimization ...
  Unit style    : metal
  Current step  : 2888
Per MPI rank memory allocation (min/avg/max) = 6.233 | 10.36 | 11.60 Mbytes
Step PotEng KinEng TotEng v_fx v_fy v_fz 
    2888   -1152449.3            0   -1152449.3 0.0087851354 0.0033971373 -0.015847623 
    3000   -1152449.3            0   -1152449.3 -1.3914833e-05 -7.1980016e-05 8.7157677e-05 
    3044   -1152449.3            0   -1152449.3 2.6441649e-07 -8.7754508e-05 8.1387052e-05 
Loop time of 5.48392 on 26 procs for 156 steps with 288751 atoms

100.0% CPU use with 26 MPI tasks x 1 OpenMP threads

Minimization stats:
  Stopping criterion = linesearch alpha is zero
  Energy initial, next-to-last, final = 
     -1152449.34444526  -1152449.34531041  -1152449.34531041
  Force two-norm initial, final = 0.12296318 0.00030651494
  Force max component initial, final = 0.045899551 9.9266157e-05
  Final line search alpha, max atom move = 0.125 1.2408270e-05
  Iterations, force evaluations = 156 317

MPI task timing breakdown:
Section |  min time  |  avg time  |  max time  |%varavg| %total
---------------------------------------------------------------
Pair    | 2.1057     | 4.0413     | 5.2401     |  48.9 | 73.69
Neigh   | 0          | 0          | 0          |   0.0 |  0.00
Comm    | 0.079756   | 0.55846    | 1.3131     |  48.3 | 10.18
Output  | 0.00014585 | 0.00014702 | 0.00016394 |   0.0 |  0.00
Modify  | 0.0059328  | 0.0090533  | 0.011495   |   1.6 |  0.17
Other   |            | 0.8749     |            |       | 15.95

Nlocal:        11105.8 ave       15294 max        4380 min
Histogram: 4 0 0 0 4 0 4 4 8 2
Nghost:        10533.6 ave       14020 max        4076 min
Histogram: 4 0 0 0 4 0 4 2 6 6
Neighs:       316853.0 ave      441429 max      114725 min
Histogram: 4 0 0 0 4 0 4 4 8 2

Total # of neighbors = 8238190
Ave neighs/atom = 28.530429
Neighbor list builds = 0
Dangerous builds = 0
The dot product: -1.73060399701875e-08
Setting atom values ...
  1 settings made for x
  1 settings made for y
  1 settings made for z
Setting up cg style minimization ...
  Unit style    : metal
  Current step  : 3044
Per MPI rank memory allocation (min/avg/max) = 6.233 | 10.36 | 11.60 Mbytes
Step PotEng KinEng TotEng v_fx v_fy v_fz 
    3044   -1152449.3            0   -1152449.3  0.007728242 0.0029965831 -0.013979704 
    3203   -1152449.3            0   -1152449.3 6.5445175e-06 3.1857578e-06 -1.2442988e-05 
Loop time of 5.50288 on 26 procs for 159 steps with 288751 atoms

100.0% CPU use with 26 MPI tasks x 1 OpenMP threads

Minimization stats:
  Stopping criterion = energy tolerance
  Energy initial, next-to-last, final = 
     -1152449.33964893  -1152449.34050193  -1152449.34050193
  Force two-norm initial, final = 0.12219802 0.00025861469
  Force max component initial, final = 0.045871809 2.6575329e-05
  Final line search alpha, max atom move = 1.0000000 2.6575329e-05
  Iterations, force evaluations = 159 318

MPI task timing breakdown:
Section |  min time  |  avg time  |  max time  |%varavg| %total
---------------------------------------------------------------
Pair    | 2.1132     | 4.0536     | 5.2584     |  49.0 | 73.66
Neigh   | 0          | 0          | 0          |   0.0 |  0.00
Comm    | 0.079746   | 0.56046    | 1.3202     |  48.4 | 10.18
Output  | 0          | 0          | 0          |   0.0 |  0.00
Modify  | 0.0058273  | 0.0090904  | 0.011532   |   1.6 |  0.17
Other   |            | 0.8798     |            |       | 15.99

Nlocal:        11105.8 ave       15294 max        4380 min
Histogram: 4 0 0 0 4 0 4 4 8 2
Nghost:        10533.6 ave       14020 max        4076 min
Histogram: 4 0 0 0 4 0 4 2 6 6
Neighs:       316853.0 ave      441429 max      114725 min
Histogram: 4 0 0 0 4 0 4 4 8 2

Total # of neighbors = 8238190
Ave neighs/atom = 28.530429
Neighbor list builds = 0
Dangerous builds = 0
The dot product: 5.27505989177749e-09
Setting atom values ...
  1 settings made for x
  1 settings made for y
  1 settings made for z
Setting up cg style minimization ...
  Unit style    : metal
  Current step  : 3203
Per MPI rank memory allocation (min/avg/max) = 6.233 | 10.36 | 11.60 Mbytes
Step PotEng KinEng TotEng v_fx v_fy v_fz 
    3203   -1152449.3            0   -1152449.3 0.0065615671 0.0031590826 -0.012465833 
    3371   -1152449.3            0   -1152449.3 5.9181185e-06 -2.8648994e-05 1.8160675e-05 
Loop time of 5.86627 on 26 procs for 168 steps with 288751 atoms

100.0% CPU use with 26 MPI tasks x 1 OpenMP threads

Minimization stats:
  Stopping criterion = linesearch alpha is zero
  Energy initial, next-to-last, final = 
     -1152449.33346805  -1152449.33431542  -1152449.33431542
  Force two-norm initial, final = 0.12188949 0.00022200512
  Force max component initial, final = 0.045709371 3.6284320e-05
  Final line search alpha, max atom move = 0.25 9.0710800e-06
  Iterations, force evaluations = 168 339

MPI task timing breakdown:
Section |  min time  |  avg time  |  max time  |%varavg| %total
---------------------------------------------------------------
Pair    | 2.2503     | 4.3201     | 5.6062     |  50.6 | 73.64
Neigh   | 0          | 0          | 0          |   0.0 |  0.00
Comm    | 0.084745   | 0.59823    | 1.4108     |  49.9 | 10.20
Output  | 0          | 0          | 0          |   0.0 |  0.00
Modify  | 0.0062783  | 0.0096846  | 0.012252   |   1.6 |  0.17
Other   |            | 0.9382     |            |       | 15.99

Nlocal:        11105.8 ave       15294 max        4380 min
Histogram: 4 0 0 0 4 0 4 4 8 2
Nghost:        10533.6 ave       14020 max        4076 min
Histogram: 4 0 0 0 4 0 4 2 6 6
Neighs:       316854.0 ave      441429 max      114725 min
Histogram: 4 0 0 0 4 0 4 4 8 2

Total # of neighbors = 8238191
Ave neighs/atom = 28.530433
Neighbor list builds = 0
Dangerous builds = 0
The dot product: -2.26512681872583e-09
Setting atom values ...
  1 settings made for x
  1 settings made for y
  1 settings made for z
Setting up cg style minimization ...
  Unit style    : metal
  Current step  : 3371
Per MPI rank memory allocation (min/avg/max) = 6.233 | 10.36 | 11.60 Mbytes
Step PotEng KinEng TotEng v_fx v_fy v_fz 
    3371   -1152449.3            0   -1152449.3 0.0052533083 0.0035816654  -0.01097921 
    3504   -1152449.3            0   -1152449.3 -1.182633e-05 -3.3364541e-05 4.8357412e-05 
Loop time of 4.61166 on 26 procs for 133 steps with 288751 atoms

100.0% CPU use with 26 MPI tasks x 1 OpenMP threads

Minimization stats:
  Stopping criterion = energy tolerance
  Energy initial, next-to-last, final = 
     -1152449.32588163  -1152449.32672825  -1152449.32672825
  Force two-norm initial, final = 0.12191381 0.00037964553
  Force max component initial, final = 0.045627086 4.8357412e-05
  Final line search alpha, max atom move = 1.0000000 4.8357412e-05
  Iterations, force evaluations = 133 266

MPI task timing breakdown:
Section |  min time  |  avg time  |  max time  |%varavg| %total
---------------------------------------------------------------
Pair    | 1.767      | 3.3945     | 4.408      |  44.9 | 73.61
Neigh   | 0          | 0          | 0          |   0.0 |  0.00
Comm    | 0.066525   | 0.47044    | 1.1117     |  44.3 | 10.20
Output  | 0          | 0          | 0          |   0.0 |  0.00
Modify  | 0.0048873  | 0.0075906  | 0.0096252  |   1.5 |  0.16
Other   |            | 0.7392     |            |       | 16.03

Nlocal:        11105.8 ave       15294 max        4380 min
Histogram: 4 0 0 0 4 0 4 4 8 2
Nghost:        10533.5 ave       14020 max        4076 min
Histogram: 4 0 0 0 4 0 4 2 6 6
Neighs:       316853.0 ave      441428 max      114725 min
Histogram: 4 0 0 0 4 0 4 4 8 2

Total # of neighbors = 8238190
Ave neighs/atom = 28.530429
Neighbor list builds = 0
Dangerous builds = 0
The dot product: -1.60959457725548e-08
Setting atom values ...
  1 settings made for x
  1 settings made for y
  1 settings made for z
Setting up cg style minimization ...
  Unit style    : metal
  Current step  : 3504
Per MPI rank memory allocation (min/avg/max) = 6.233 | 10.36 | 11.60 Mbytes
Step PotEng KinEng TotEng v_fx v_fy v_fz 
    3504   -1152449.3            0   -1152449.3 0.0038395424 0.0044214739 -0.0097234795 
    3633   -1152449.3            0   -1152449.3 1.8133019e-05 6.5038073e-05 -8.7230383e-05 
Loop time of 4.62565 on 26 procs for 129 steps with 288751 atoms

99.9% CPU use with 26 MPI tasks x 1 OpenMP threads

Minimization stats:
  Stopping criterion = linesearch alpha is zero
  Energy initial, next-to-last, final = 
     -1152449.31685736  -1152449.31770971  -1152449.31770971
  Force two-norm initial, final = 0.12228104 0.00047624062
  Force max component initial, final = 0.045550294 8.7230383e-05
  Final line search alpha, max atom move = 0.03125 2.7259495e-06
  Iterations, force evaluations = 129 267

MPI task timing breakdown:
Section |  min time  |  avg time  |  max time  |%varavg| %total
---------------------------------------------------------------
Pair    | 1.7784     | 3.4072     | 4.4219     |  44.9 | 73.66
Neigh   | 0          | 0          | 0          |   0.0 |  0.00
Comm    | 0.066711   | 0.47133    | 1.1079     |  44.2 | 10.19
Output  | 0          | 0          | 0          |   0.0 |  0.00
Modify  | 0.0049371  | 0.0076346  | 0.0097111  |   1.4 |  0.17
Other   |            | 0.7395     |            |       | 15.99

Nlocal:        11105.8 ave       15295 max        4380 min
Histogram: 4 0 0 0 4 0 4 4 8 2
Nghost:        10533.6 ave       14020 max        4076 min
Histogram: 4 0 0 0 4 0 4 2 6 6
Neighs:       316853.0 ave      441453 max      114725 min
Histogram: 4 0 0 0 4 0 4 4 8 2

Total # of neighbors = 8238188
Ave neighs/atom = 28.530422
Neighbor list builds = 0
Dangerous builds = 0
The dot product: 2.88930700680798e-08
Setting atom values ...
  1 settings made for x
  1 settings made for y
  1 settings made for z
Setting up cg style minimization ...
  Unit style    : metal
  Current step  : 3633
Per MPI rank memory allocation (min/avg/max) = 6.233 | 10.36 | 11.60 Mbytes
Step PotEng KinEng TotEng v_fx v_fy v_fz 
    3633   -1152449.3            0   -1152449.3 0.0023825419 0.0057159847 -0.0088254337 
    3781   -1152449.3            0   -1152449.3 -2.7198672e-06 2.1090377e-06 1.9864405e-06 
Loop time of 5.12393 on 26 procs for 148 steps with 288751 atoms

100.0% CPU use with 26 MPI tasks x 1 OpenMP threads

Minimization stats:
  Stopping criterion = energy tolerance
  Energy initial, next-to-last, final = 
     -1152449.30636609  -1152449.30722575  -1152449.30722575
  Force two-norm initial, final = 0.12290988 0.00033700098
  Force max component initial, final = 0.04534923 2.0964514e-05
  Final line search alpha, max atom move = 1.0000000 2.0964514e-05
  Iterations, force evaluations = 148 296

MPI task timing breakdown:
Section |  min time  |  avg time  |  max time  |%varavg| %total
---------------------------------------------------------------
Pair    | 1.9658     | 3.774      | 4.8967     |  47.3 | 73.66
Neigh   | 0          | 0          | 0          |   0.0 |  0.00
Comm    | 0.074221   | 0.52215    | 1.2287     |  46.7 | 10.19
Output  | 0          | 0          | 0          |   0.0 |  0.00
Modify  | 0.0054506  | 0.0084691  | 0.010747   |   1.5 |  0.17
Other   |            | 0.8193     |            |       | 15.99

Nlocal:        11105.8 ave       15295 max        4380 min
Histogram: 4 0 0 0 4 0 4 4 8 2
Nghost:        10533.6 ave       14020 max        4076 min
Histogram: 4 0 0 0 4 0 4 2 6 6
Neighs:       316853.0 ave      441453 max      114725 min
Histogram: 4 0 0 0 4 0 4 4 8 2

Total # of neighbors = 8238187
Ave neighs/atom = 28.530419
Neighbor list builds = 0
Dangerous builds = 0
The dot product: 8.93831654996844e-11
Setting up cg style minimization ...
  Unit style    : metal
  Current step  : 3781
Per MPI rank memory allocation (min/avg/max) = 6.233 | 10.36 | 11.60 Mbytes
Step PotEng KinEng TotEng v_fx v_fy v_fz 
    3781   -1152449.3            0   -1152449.3  -0.40892137  -0.26296042   -0.2807044 
    4000   -1152449.4            0   -1152449.4 1.1384585e-05 -7.3019794e-05 7.8134465e-05 
    4014   -1152449.4            0   -1152449.4 1.6585167e-05 -6.3967764e-06 -2.5997403e-05 
Loop time of 8.11611 on 26 procs for 233 steps with 288751 atoms

100.0% CPU use with 26 MPI tasks x 1 OpenMP threads

Minimization stats:
  Stopping criterion = linesearch alpha is zero
  Energy initial, next-to-last, final = 
     -1152449.30722575  -1152449.35157317  -1152449.35157317
  Force two-norm initial, final = 0.56139108 0.00014739119
  Force max component initial, final = 0.40892137 2.5997403e-05
  Final line search alpha, max atom move = 0.5 1.2998701e-05
  Iterations, force evaluations = 233 469

MPI task timing breakdown:
Section |  min time  |  avg time  |  max time  |%varavg| %total
---------------------------------------------------------------
Pair    | 3.1236     | 5.9755     | 7.7474     |  59.4 | 73.63
Neigh   | 0.003718   | 0.009794   | 0.013651   |   3.1 |  0.12
Comm    | 0.11717    | 0.82718    | 1.9431     |  58.6 | 10.19
Output  | 0.0001507  | 0.00015189 | 0.0001686  |   0.0 |  0.00
Modify  | 0.0068654  | 0.0087979  | 0.013348   |   2.1 |  0.11
Other   |            | 1.295      |            |       | 15.95

Nlocal:        11105.8 ave       15295 max        4380 min
Histogram: 4 0 0 0 4 0 4 4 8 2
Nghost:        10533.8 ave       14020 max        4076 min
Histogram: 4 0 0 0 4 0 4 2 6 6
Neighs:       316854.0 ave      441461 max      114725 min
Histogram: 4 0 0 0 4 0 4 4 8 2

Total # of neighbors = 8238192
Ave neighs/atom = 28.530436
Neighbor list builds = 1
Dangerous builds = 0
