LAMMPS (29 Oct 2020)
OMP_NUM_THREADS environment is not set. Defaulting to 1 thread. (../comm.cpp:94)
  using 1 OpenMP thread(s) per MPI task
OMP_NUM_THREADS environment is not set. Defaulting to 1 thread. (../comm.cpp:94)
  using 1 OpenMP thread(s) per MPI task
Reading data file ...
  orthogonal box = (-122.39241 -121.13707 -37.090501) to (122.39241 121.13707 37.090501)
  13 by 4 by 2 MPI processor grid
  reading atoms ...
  288751 atoms
  read_data CPU = 0.457 seconds
199981 atoms in group inner
88770 atoms in group outer
1 atoms in group carbon
Neighbor list info ...
  update every 1 steps, delay 0 steps, check yes
  max neighbors/atom: 2000, page size: 100000
  master list distance cutoff = 5.6
  ghost atom cutoff = 5.6
  binsize = 2.8, bins = 88 87 27
  1 neighbor lists, perpetual/occasional/extra = 1 0 0
  (1) pair eam/alloy, perpetual
      attributes: half, newton on
      pair build: half/bin/atomonly/newton
      stencil: half/bin/3d/newton
      bin: standard
Setting up cg style minimization ...
  Unit style    : metal
  Current step  : 0
Per MPI rank memory allocation (min/avg/max) = 5.441 | 5.816 | 6.074 Mbytes
Step v_fx v_fy v_fz PotEng KinEng TotEng 
       0    0.2180813    1.7903291    2.4093214   -1152447.8            0   -1152447.8 
     154 8.2709578e-06 1.2065278e-05 -4.804586e-05   -1152449.5            0   -1152449.5 
Loop time of 1.84196 on 104 procs for 154 steps with 288751 atoms

99.8% CPU use with 104 MPI tasks x 1 OpenMP threads

Minimization stats:
  Stopping criterion = energy tolerance
  Energy initial, next-to-last, final = 
     -1152447.79529993  -1152449.45035259  -1152449.45035259
  Force two-norm initial, final = 10.045660 0.00019011833
  Force max component initial, final = 6.1177189 4.8045860e-05
  Final line search alpha, max atom move = 1.0000000 4.8045860e-05
  Iterations, force evaluations = 154 307

MPI task timing breakdown:
Section |  min time  |  avg time  |  max time  |%varavg| %total
---------------------------------------------------------------
Pair    | 0.48559    | 1.3101     | 1.6893     |  30.4 | 71.12
Neigh   | 3.6085e-05 | 0.0097413  | 0.013649   |   4.2 |  0.53
Comm    | 0.041781   | 0.30795    | 0.90444    |  44.4 | 16.72
Output  | 0          | 0          | 0          |   0.0 |  0.00
Modify  | 1.859e-05  | 0.0016978  | 0.0043589  |   2.6 |  0.09
Other   |            | 0.2125     |            |       | 11.54

Nlocal:        2776.45 ave        3959 max           0 min
Histogram: 8 4 4 0 4 12 8 2 28 34
Nghost:        3879.01 ave        5424 max         232 min
Histogram: 8 0 8 0 16 0 8 8 16 40
Neighs:        79213.5 ave      115391 max           0 min
Histogram: 8 4 4 0 10 6 8 8 24 32

Total # of neighbors = 8238204
Ave neighs/atom = 28.530478
Neighbor list builds = 3
Dangerous builds = 0
Setting atom values ...
  1 settings made for x
  1 settings made for y
  1 settings made for z
Setting up cg style minimization ...
  Unit style    : metal
  Current step  : 154
Per MPI rank memory allocation (min/avg/max) = 5.441 | 5.816 | 6.074 Mbytes
Step PotEng KinEng TotEng v_fx v_fy v_fz 
     154   -1152449.4            0   -1152449.4 0.0074398055 -0.015064408 -0.024594624 
     270   -1152449.5            0   -1152449.5 -1.8096941e-05 -3.9047306e-05 -4.9246993e-06 
Loop time of 1.37365 on 104 procs for 116 steps with 288751 atoms

99.9% CPU use with 104 MPI tasks x 1 OpenMP threads

Minimization stats:
  Stopping criterion = energy tolerance
  Energy initial, next-to-last, final = 
     -1152449.44965259  -1152449.45007909  -1152449.45007909
  Force two-norm initial, final = 0.094132642 0.00033102495
  Force max component initial, final = 0.043968177 3.9047306e-05
  Final line search alpha, max atom move = 1.0000000 3.9047306e-05
  Iterations, force evaluations = 116 232

MPI task timing breakdown:
Section |  min time  |  avg time  |  max time  |%varavg| %total
---------------------------------------------------------------
Pair    | 0.35343    | 0.98293    | 1.2793     |  26.7 | 71.56
Neigh   | 0          | 0          | 0          |   0.0 |  0.00
Comm    | 0.031456   | 0.2243     | 0.68043    |  39.0 | 16.33
Output  | 0          | 0          | 0          |   0.0 |  0.00
Modify  | 1.4872e-05 | 0.001927   | 0.0040961  |   2.1 |  0.14
Other   |            | 0.1645     |            |       | 11.98

Nlocal:        2776.45 ave        3961 max           0 min
Histogram: 8 4 4 0 6 10 8 2 28 34
Nghost:        3878.99 ave        5426 max         232 min
Histogram: 8 0 8 0 16 0 8 8 16 40
Neighs:        79213.4 ave      115454 max           0 min
Histogram: 8 4 4 0 10 6 8 8 24 32

Total # of neighbors = 8238197
Ave neighs/atom = 28.530454
Neighbor list builds = 0
Dangerous builds = 0
Setting atom values ...
  1 settings made for x
  1 settings made for y
  1 settings made for z
Setting up cg style minimization ...
  Unit style    : metal
  Current step  : 270
Per MPI rank memory allocation (min/avg/max) = 5.441 | 5.816 | 6.074 Mbytes
Step PotEng KinEng TotEng v_fx v_fy v_fz 
     270   -1152449.4            0   -1152449.4 0.0083291084 -0.016924997 -0.038829264 
     478   -1152449.4            0   -1152449.4 -7.9156132e-06 -1.3314357e-05 -8.3802001e-07 
Loop time of 2.47234 on 104 procs for 208 steps with 288751 atoms

99.9% CPU use with 104 MPI tasks x 1 OpenMP threads

Minimization stats:
  Stopping criterion = energy tolerance
  Energy initial, next-to-last, final = 
     -1152449.44696455  -1152449.44825619  -1152449.44825619
  Force two-norm initial, final = 0.16091432 5.3708417e-05
  Force max component initial, final = 0.087389087 1.3314357e-05
  Final line search alpha, max atom move = 1.0000000 1.3314357e-05
  Iterations, force evaluations = 208 416

MPI task timing breakdown:
Section |  min time  |  avg time  |  max time  |%varavg| %total
---------------------------------------------------------------
Pair    | 0.6315     | 1.7542     | 2.3011     |  35.9 | 70.95
Neigh   | 0          | 0          | 0          |   0.0 |  0.00
Comm    | 0.048079   | 0.40403    | 1.1896     |  51.3 | 16.34
Output  | 0          | 0          | 0          |   0.0 |  0.00
Modify  | 2.8408e-05 | 0.0034456  | 0.0073623  |   2.8 |  0.14
Other   |            | 0.3107     |            |       | 12.57

Nlocal:        2776.45 ave        3961 max           0 min
Histogram: 8 4 4 0 6 10 8 2 28 34
Nghost:        3878.99 ave        5424 max         232 min
Histogram: 8 0 8 0 16 0 8 8 16 40
Neighs:        79213.4 ave      115454 max           0 min
Histogram: 8 4 4 0 10 6 8 8 24 32

Total # of neighbors = 8238196
Ave neighs/atom = 28.530450
Neighbor list builds = 0
Dangerous builds = 0
The dot product: 1.44741101623818e-08
Setting atom values ...
  1 settings made for x
  1 settings made for y
  1 settings made for z
Setting up cg style minimization ...
  Unit style    : metal
  Current step  : 478
Per MPI rank memory allocation (min/avg/max) = 5.441 | 5.816 | 6.074 Mbytes
Step PotEng KinEng TotEng v_fx v_fy v_fz 
     478   -1152449.4            0   -1152449.4 0.0057574953 -0.0095423135 -0.031101506 
     621   -1152449.4            0   -1152449.4 5.185371e-06 1.7125196e-05 1.5872912e-05 
Loop time of 1.70328 on 104 procs for 143 steps with 288751 atoms

99.9% CPU use with 104 MPI tasks x 1 OpenMP threads

Minimization stats:
  Stopping criterion = energy tolerance
  Energy initial, next-to-last, final = 
      -1152449.4435899  -1152449.44482324  -1152449.44482324
  Force two-norm initial, final = 0.15510051 0.00014752693
  Force max component initial, final = 0.092417387 1.7125196e-05
  Final line search alpha, max atom move = 1.0000000 1.7125196e-05
  Iterations, force evaluations = 143 286

MPI task timing breakdown:
Section |  min time  |  avg time  |  max time  |%varavg| %total
---------------------------------------------------------------
Pair    | 0.43256    | 1.2123     | 1.5765     |  29.8 | 71.17
Neigh   | 0          | 0          | 0          |   0.0 |  0.00
Comm    | 0.030663   | 0.27894    | 0.83744    |  42.9 | 16.38
Output  | 0          | 0          | 0          |   0.0 |  0.00
Modify  | 1.6608e-05 | 0.0023748  | 0.0050971  |   2.3 |  0.14
Other   |            | 0.2097     |            |       | 12.31

Nlocal:        2776.45 ave        3961 max           0 min
Histogram: 8 4 4 0 6 10 8 2 28 34
Nghost:        3878.99 ave        5424 max         232 min
Histogram: 8 0 8 0 16 0 8 8 16 40
Neighs:        79213.4 ave      115456 max           0 min
Histogram: 8 4 4 0 10 6 8 8 24 32

Total # of neighbors = 8238193
Ave neighs/atom = 28.530440
Neighbor list builds = 0
Dangerous builds = 0
The dot product: -4.23921158860932e-08
Setting atom values ...
  1 settings made for x
  1 settings made for y
  1 settings made for z
Setting up cg style minimization ...
  Unit style    : metal
  Current step  : 621
Per MPI rank memory allocation (min/avg/max) = 5.441 | 5.816 | 6.074 Mbytes
Step PotEng KinEng TotEng v_fx v_fy v_fz 
     621   -1152449.4            0   -1152449.4 0.0022364118 -0.0089182083 -0.024715789 
     752   -1152449.4            0   -1152449.4 -6.6028973e-06 5.5265984e-06 3.0991146e-05 
Loop time of 1.53954 on 104 procs for 131 steps with 288751 atoms

99.9% CPU use with 104 MPI tasks x 1 OpenMP threads

Minimization stats:
  Stopping criterion = energy tolerance
  Energy initial, next-to-last, final = 
     -1152449.43869623  -1152449.43988107  -1152449.43988107
  Force two-norm initial, final = 0.1516041 0.00017229028
  Force max component initial, final = 0.096077361 3.0991146e-05
  Final line search alpha, max atom move = 1.0000000 3.0991146e-05
  Iterations, force evaluations = 131 262

MPI task timing breakdown:
Section |  min time  |  avg time  |  max time  |%varavg| %total
---------------------------------------------------------------
Pair    | 0.39921    | 1.1021     | 1.4405     |  28.3 | 71.58
Neigh   | 0          | 0          | 0          |   0.0 |  0.00
Comm    | 0.027179   | 0.25012    | 0.75005    |  41.3 | 16.25
Output  | 0          | 0          | 0          |   0.0 |  0.00
Modify  | 1.6487e-05 | 0.0021734  | 0.0047002  |   2.2 |  0.14
Other   |            | 0.1852     |            |       | 12.03

Nlocal:        2776.45 ave        3959 max           0 min
Histogram: 8 4 4 0 4 12 8 2 28 34
Nghost:        3878.99 ave        5424 max         232 min
Histogram: 8 0 8 0 16 0 8 8 16 40
Neighs:        79213.4 ave      115400 max           0 min
Histogram: 8 4 4 0 10 6 8 8 24 32

Total # of neighbors = 8238194
Ave neighs/atom = 28.530443
Neighbor list builds = 0
Dangerous builds = 0
The dot product: -5.87350672231528e-08
Setting atom values ...
  1 settings made for x
  1 settings made for y
  1 settings made for z
Setting up cg style minimization ...
  Unit style    : metal
  Current step  : 752
Per MPI rank memory allocation (min/avg/max) = 5.441 | 5.816 | 6.074 Mbytes
Step PotEng KinEng TotEng v_fx v_fy v_fz 
     752   -1152449.4            0   -1152449.4 -0.0029532738 -0.012759621 -0.019208836 
     929   -1152449.4            0   -1152449.4 -1.2357974e-06 5.322818e-06 1.6178054e-05 
Loop time of 2.07549 on 104 procs for 177 steps with 288751 atoms

99.9% CPU use with 104 MPI tasks x 1 OpenMP threads

Minimization stats:
  Stopping criterion = energy tolerance
  Energy initial, next-to-last, final = 
     -1152449.43236629  -1152449.43353226  -1152449.43353226
  Force two-norm initial, final = 0.15003101 0.00010096818
  Force max component initial, final = 0.099108418 1.6178054e-05
  Final line search alpha, max atom move = 1.0000000 1.6178054e-05
  Iterations, force evaluations = 177 354

MPI task timing breakdown:
Section |  min time  |  avg time  |  max time  |%varavg| %total
---------------------------------------------------------------
Pair    | 0.53408    | 1.4931     | 1.9432     |  33.0 | 71.94
Neigh   | 0          | 0          | 0          |   0.0 |  0.00
Comm    | 0.036433   | 0.33875    | 1.0153     |  48.0 | 16.32
Output  | 0          | 0          | 0          |   0.0 |  0.00
Modify  | 2.0339e-05 | 0.0029264  | 0.0062253  |   2.5 |  0.14
Other   |            | 0.2407     |            |       | 11.60

Nlocal:        2776.45 ave        3959 max           0 min
Histogram: 8 4 4 0 4 12 8 2 28 34
Nghost:        3878.99 ave        5424 max         232 min
Histogram: 8 0 8 0 16 0 8 8 16 40
Neighs:        79213.4 ave      115400 max           0 min
Histogram: 8 4 4 0 10 6 8 8 24 32

Total # of neighbors = 8238194
Ave neighs/atom = 28.530443
Neighbor list builds = 0
Dangerous builds = 0
The dot product: -3.33062991072422e-08
Setting atom values ...
  1 settings made for x
  1 settings made for y
  1 settings made for z
Setting up cg style minimization ...
  Unit style    : metal
  Current step  : 929
Per MPI rank memory allocation (min/avg/max) = 5.441 | 5.816 | 6.074 Mbytes
Step PotEng KinEng TotEng v_fx v_fy v_fz 
     929   -1152449.4            0   -1152449.4 -0.0079333271 -0.016443423 -0.014201059 
    1000   -1152449.4            0   -1152449.4 -6.2050319e-05 -8.0948849e-06 0.00019461955 
    1061   -1152449.4            0   -1152449.4 -5.7809557e-06 -2.2949036e-05 -3.8165728e-05 
Loop time of 1.58987 on 104 procs for 132 steps with 288751 atoms

99.8% CPU use with 104 MPI tasks x 1 OpenMP threads

Minimization stats:
  Stopping criterion = energy tolerance
  Energy initial, next-to-last, final = 
     -1152449.42472347  -1152449.42589693  -1152449.42589693
  Force two-norm initial, final = 0.14945946 0.00012434609
  Force max component initial, final = 0.10170083 3.8165728e-05
  Final line search alpha, max atom move = 1.0000000 3.8165728e-05
  Iterations, force evaluations = 132 264

MPI task timing breakdown:
Section |  min time  |  avg time  |  max time  |%varavg| %total
---------------------------------------------------------------
Pair    | 0.40201    | 1.1156     | 1.4582     |  28.7 | 70.17
Neigh   | 0          | 0          | 0          |   0.0 |  0.00
Comm    | 0.031411   | 0.25872    | 0.75407    |  40.2 | 16.27
Output  | 0.00042627 | 0.00043366 | 0.00054894 |   0.0 |  0.03
Modify  | 1.4939e-05 | 0.002192   | 0.0046749  |   2.2 |  0.14
Other   |            | 0.213      |            |       | 13.40

Nlocal:        2776.45 ave        3958 max           0 min
Histogram: 8 4 4 0 4 12 8 2 28 34
Nghost:        3878.99 ave        5424 max         232 min
Histogram: 8 0 8 0 16 0 8 8 16 40
Neighs:        79213.4 ave      115368 max           0 min
Histogram: 8 4 4 0 10 6 8 8 24 32

Total # of neighbors = 8238194
Ave neighs/atom = 28.530443
Neighbor list builds = 0
Dangerous builds = 0
The dot product: 1.44790042655049e-07
Setting atom values ...
  1 settings made for x
  1 settings made for y
  1 settings made for z
Setting up cg style minimization ...
  Unit style    : metal
  Current step  : 1061
Per MPI rank memory allocation (min/avg/max) = 5.441 | 5.816 | 6.074 Mbytes
Step PotEng KinEng TotEng v_fx v_fy v_fz 
    1061   -1152449.4            0   -1152449.4 -0.010918551 -0.017284472 -0.010154546 
    1170   -1152449.4            0   -1152449.4 6.147743e-06 2.5976755e-05 5.1380055e-05 
Loop time of 1.28478 on 104 procs for 109 steps with 288751 atoms

99.9% CPU use with 104 MPI tasks x 1 OpenMP threads

Minimization stats:
  Stopping criterion = energy tolerance
  Energy initial, next-to-last, final = 
     -1152449.41580159   -1152449.4169854   -1152449.4169854
  Force two-norm initial, final = 0.14931254 0.00026803128
  Force max component initial, final = 0.10386555 6.3190561e-05
  Final line search alpha, max atom move = 1.0000000 6.3190561e-05
  Iterations, force evaluations = 109 218

MPI task timing breakdown:
Section |  min time  |  avg time  |  max time  |%varavg| %total
---------------------------------------------------------------
Pair    | 0.32905    | 0.92085    | 1.2046     |  26.0 | 71.67
Neigh   | 0          | 0          | 0          |   0.0 |  0.00
Comm    | 0.024657   | 0.20899    | 0.62679    |  37.7 | 16.27
Output  | 0          | 0          | 0          |   0.0 |  0.00
Modify  | 1.656e-05  | 0.001807   | 0.0038552  |   2.0 |  0.14
Other   |            | 0.1531     |            |       | 11.92

Nlocal:        2776.45 ave        3957 max           0 min
Histogram: 8 4 4 0 4 12 8 2 28 34
Nghost:        3878.99 ave        5424 max         232 min
Histogram: 8 0 8 0 16 0 8 8 16 40
Neighs:        79213.4 ave      115337 max           0 min
Histogram: 8 4 4 0 10 6 8 8 24 32

Total # of neighbors = 8238193
Ave neighs/atom = 28.530440
Neighbor list builds = 0
Dangerous builds = 0
The dot product: -1.86344405041144e-07
Setting atom values ...
  1 settings made for x
  1 settings made for y
  1 settings made for z
Setting up cg style minimization ...
  Unit style    : metal
  Current step  : 1170
Per MPI rank memory allocation (min/avg/max) = 5.441 | 5.816 | 6.074 Mbytes
Step PotEng KinEng TotEng v_fx v_fy v_fz 
    1170   -1152449.4            0   -1152449.4 -0.011673582 -0.015585517 -0.0068387489 
    1308   -1152449.4            0   -1152449.4 -1.2617595e-05 -3.4667653e-05 -6.2088213e-05 
Loop time of 1.60327 on 104 procs for 138 steps with 288751 atoms

99.9% CPU use with 104 MPI tasks x 1 OpenMP threads

Minimization stats:
  Stopping criterion = energy tolerance
  Energy initial, next-to-last, final = 
     -1152449.40558772  -1152449.40677349  -1152449.40677349
  Force two-norm initial, final = 0.14939947 0.00018947306
  Force max component initial, final = 0.1056 6.2088213e-05
  Final line search alpha, max atom move = 1.0000000 6.2088213e-05
  Iterations, force evaluations = 138 276

MPI task timing breakdown:
Section |  min time  |  avg time  |  max time  |%varavg| %total
---------------------------------------------------------------
Pair    | 0.41526    | 1.1592     | 1.5095     |  29.1 | 72.30
Neigh   | 0          | 0          | 0          |   0.0 |  0.00
Comm    | 0.027387   | 0.26115    | 0.78738    |  42.7 | 16.29
Output  | 0          | 0          | 0          |   0.0 |  0.00
Modify  | 1.5783e-05 | 0.0022834  | 0.0048882  |   2.3 |  0.14
Other   |            | 0.1806     |            |       | 11.27

Nlocal:        2776.45 ave        3956 max           0 min
Histogram: 8 4 4 0 4 12 8 0 30 34
Nghost:        3878.99 ave        5424 max         232 min
Histogram: 8 0 8 0 16 0 8 8 16 40
Neighs:        79213.4 ave      115302 max           0 min
Histogram: 8 4 4 0 10 6 8 8 24 32

Total # of neighbors = 8238195
Ave neighs/atom = 28.530447
Neighbor list builds = 0
Dangerous builds = 0
The dot product: 2.56605519111753e-07
Setting atom values ...
  1 settings made for x
  1 settings made for y
  1 settings made for z
Setting up cg style minimization ...
  Unit style    : metal
  Current step  : 1308
Per MPI rank memory allocation (min/avg/max) = 5.441 | 5.816 | 6.074 Mbytes
Step PotEng KinEng TotEng v_fx v_fy v_fz 
    1308   -1152449.4            0   -1152449.4 -0.010546966  -0.01247305 -0.0044357647 
    1445   -1152449.4            0   -1152449.4 1.7653942e-05 2.0981928e-05 7.7675112e-06 
Loop time of 1.61059 on 104 procs for 137 steps with 288751 atoms

99.9% CPU use with 104 MPI tasks x 1 OpenMP threads

Minimization stats:
  Stopping criterion = energy tolerance
  Energy initial, next-to-last, final = 
     -1152449.39404792  -1152449.39522603  -1152449.39522603
  Force two-norm initial, final = 0.14971722 0.00016664969
  Force max component initial, final = 0.10710917 2.3044364e-05
  Final line search alpha, max atom move = 1.0000000 2.3044364e-05
  Iterations, force evaluations = 137 274

MPI task timing breakdown:
Section |  min time  |  avg time  |  max time  |%varavg| %total
---------------------------------------------------------------
Pair    | 0.4115     | 1.1586     | 1.511      |  29.1 | 71.94
Neigh   | 0          | 0          | 0          |   0.0 |  0.00
Comm    | 0.026163   | 0.26452    | 0.80295    |  42.3 | 16.42
Output  | 0          | 0          | 0          |   0.0 |  0.00
Modify  | 1.5607e-05 | 0.0022679  | 0.0048625  |   2.2 |  0.14
Other   |            | 0.1852     |            |       | 11.50

Nlocal:        2776.45 ave        3955 max           0 min
Histogram: 8 4 4 0 4 12 8 0 30 34
Nghost:        3878.99 ave        5424 max         232 min
Histogram: 8 0 8 0 16 0 8 8 16 40
Neighs:        79213.4 ave      115270 max           0 min
Histogram: 8 4 4 0 10 6 8 8 24 32

Total # of neighbors = 8238196
Ave neighs/atom = 28.530450
Neighbor list builds = 0
Dangerous builds = 0
The dot product: -1.61016751672199e-07
Setting atom values ...
  1 settings made for x
  1 settings made for y
  1 settings made for z
Setting up cg style minimization ...
  Unit style    : metal
  Current step  : 1445
Per MPI rank memory allocation (min/avg/max) = 5.441 | 5.816 | 6.074 Mbytes
Step PotEng KinEng TotEng v_fx v_fy v_fz 
    1445   -1152449.4            0   -1152449.4 -0.0079701569 -0.0086015751 -0.0025844332 
    1566   -1152449.4            0   -1152449.4 7.1606952e-06 2.8590456e-05 7.5081448e-05 
Loop time of 1.43367 on 104 procs for 121 steps with 288751 atoms

99.9% CPU use with 104 MPI tasks x 1 OpenMP threads

Minimization stats:
  Stopping criterion = energy tolerance
  Energy initial, next-to-last, final = 
     -1152449.38114508  -1152449.38231199  -1152449.38231199
  Force two-norm initial, final = 0.15019679 0.00021736087
  Force max component initial, final = 0.10845035 7.5081448e-05
  Final line search alpha, max atom move = 1.0000000 7.5081448e-05
  Iterations, force evaluations = 121 242

MPI task timing breakdown:
Section |  min time  |  avg time  |  max time  |%varavg| %total
---------------------------------------------------------------
Pair    | 0.3693     | 1.0221     | 1.3372     |  27.3 | 71.29
Neigh   | 0          | 0          | 0          |   0.0 |  0.00
Comm    | 0.026155   | 0.23382    | 0.69049    |  39.5 | 16.31
Output  | 0          | 0          | 0          |   0.0 |  0.00
Modify  | 1.6091e-05 | 0.0020058  | 0.0042817  |   2.1 |  0.14
Other   |            | 0.1757     |            |       | 12.26

Nlocal:        2776.45 ave        3951 max           0 min
Histogram: 8 4 4 0 4 12 8 0 30 34
Nghost:        3878.99 ave        5424 max         232 min
Histogram: 8 0 8 0 16 0 8 8 16 40
Neighs:        79213.4 ave      115156 max           0 min
Histogram: 8 4 4 0 10 6 8 8 24 32

Total # of neighbors = 8238193
Ave neighs/atom = 28.530440
Neighbor list builds = 0
Dangerous builds = 0
The dot product: -1.82919634043719e-07
Setting atom values ...
  1 settings made for x
  1 settings made for y
  1 settings made for z
Setting up cg style minimization ...
  Unit style    : metal
  Current step  : 1566
Per MPI rank memory allocation (min/avg/max) = 5.441 | 5.816 | 6.074 Mbytes
Step PotEng KinEng TotEng v_fx v_fy v_fz 
    1566   -1152449.4            0   -1152449.4 -0.0045356447 -0.0046134747 -0.0013371128 
    1695   -1152449.4            0   -1152449.4 1.5563563e-05 2.3740092e-05 3.3482379e-05 
Loop time of 1.51264 on 104 procs for 129 steps with 288751 atoms

99.9% CPU use with 104 MPI tasks x 1 OpenMP threads

Minimization stats:
  Stopping criterion = energy tolerance
  Energy initial, next-to-last, final = 
     -1152449.36685476  -1152449.36801183  -1152449.36801183
  Force two-norm initial, final = 0.15091236 0.00019506267
  Force max component initial, final = 0.1098639 3.3482379e-05
  Final line search alpha, max atom move = 1.0000000 3.3482379e-05
  Iterations, force evaluations = 129 258

MPI task timing breakdown:
Section |  min time  |  avg time  |  max time  |%varavg| %total
---------------------------------------------------------------
Pair    | 0.38779    | 1.0898     | 1.417      |  28.2 | 72.04
Neigh   | 0          | 0          | 0          |   0.0 |  0.00
Comm    | 0.032407   | 0.24823    | 0.75404    |  41.1 | 16.41
Output  | 0          | 0          | 0          |   0.0 |  0.00
Modify  | 1.5099e-05 | 0.0021372  | 0.0045519  |   2.2 |  0.14
Other   |            | 0.1725     |            |       | 11.40

Nlocal:        2776.45 ave        3947 max           0 min
Histogram: 8 4 4 0 4 12 8 0 28 36
Nghost:        3878.99 ave        5424 max         232 min
Histogram: 8 0 8 0 16 0 8 8 16 40
Neighs:        79213.4 ave      115031 max           0 min
Histogram: 8 4 4 0 10 6 8 8 24 32

Total # of neighbors = 8238192
Ave neighs/atom = 28.530436
Neighbor list builds = 0
Dangerous builds = 0
The dot product: -1.33996950014704e-07
Setting atom values ...
  1 settings made for x
  1 settings made for y
  1 settings made for z
Setting up cg style minimization ...
  Unit style    : metal
  Current step  : 1695
Per MPI rank memory allocation (min/avg/max) = 5.441 | 5.816 | 6.074 Mbytes
Step PotEng KinEng TotEng v_fx v_fy v_fz 
    1695   -1152449.4            0   -1152449.4 -0.00070177709 -0.0007786503 -0.00055072862 
    1883   -1152449.4            0   -1152449.4 -2.4325199e-06 -6.542807e-06 -1.649843e-05 
Loop time of 2.19763 on 104 procs for 188 steps with 288751 atoms

99.9% CPU use with 104 MPI tasks x 1 OpenMP threads

Minimization stats:
  Stopping criterion = energy tolerance
  Energy initial, next-to-last, final = 
     -1152449.35116245  -1152449.35230762  -1152449.35230762
  Force two-norm initial, final = 0.15187685 5.9402191e-05
  Force max component initial, final = 0.11138087 1.6498430e-05
  Final line search alpha, max atom move = 1.0000000 1.6498430e-05
  Iterations, force evaluations = 188 376

MPI task timing breakdown:
Section |  min time  |  avg time  |  max time  |%varavg| %total
---------------------------------------------------------------
Pair    | 0.56525    | 1.5766     | 2.0633     |  33.9 | 71.74
Neigh   | 0          | 0          | 0          |   0.0 |  0.00
Comm    | 0.037434   | 0.3587     | 1.0672     |  49.3 | 16.32
Output  | 0          | 0          | 0          |   0.0 |  0.00
Modify  | 2.5328e-05 | 0.0031103  | 0.0066598  |   2.6 |  0.14
Other   |            | 0.2592     |            |       | 11.79

Nlocal:        2776.45 ave        3945 max           0 min
Histogram: 8 4 4 0 4 12 8 0 28 36
Nghost:        3878.99 ave        5424 max         232 min
Histogram: 8 0 8 0 16 0 8 8 16 40
Neighs:        79213.4 ave      114975 max           0 min
Histogram: 8 4 4 0 10 6 8 8 24 32

Total # of neighbors = 8238192
Ave neighs/atom = 28.530436
Neighbor list builds = 0
Dangerous builds = 0
The dot product: 3.00883371723752e-08
Setting atom values ...
  1 settings made for x
  1 settings made for y
  1 settings made for z
Setting up cg style minimization ...
  Unit style    : metal
  Current step  : 1883
Per MPI rank memory allocation (min/avg/max) = 5.441 | 5.816 | 6.074 Mbytes
Step PotEng KinEng TotEng v_fx v_fy v_fz 
    1883   -1152449.3            0   -1152449.3 0.0030060856 0.0027340336 0.00032311431 
    2000   -1152449.3            0   -1152449.3 4.0882438e-06 1.7064752e-05 5.2604156e-05 
    2046   -1152449.3            0   -1152449.3 -1.9760951e-06 -3.2693537e-06 -5.9660852e-06 
Loop time of 1.89297 on 104 procs for 163 steps with 288751 atoms

99.9% CPU use with 104 MPI tasks x 1 OpenMP threads

Minimization stats:
  Stopping criterion = energy tolerance
  Energy initial, next-to-last, final = 
     -1152449.33404382  -1152449.33518012  -1152449.33518012
  Force two-norm initial, final = 0.15308116 0.00013307973
  Force max component initial, final = 0.11309192 1.9354082e-05
  Final line search alpha, max atom move = 1.0000000 1.9354082e-05
  Iterations, force evaluations = 163 326

MPI task timing breakdown:
Section |  min time  |  avg time  |  max time  |%varavg| %total
---------------------------------------------------------------
Pair    | 0.49131    | 1.3728     | 1.7787     |  31.6 | 72.52
Neigh   | 0          | 0          | 0          |   0.0 |  0.00
Comm    | 0.035659   | 0.30931    | 0.93898    |  46.5 | 16.34
Output  | 0.00026416 | 0.00026798 | 0.00043809 |   0.0 |  0.01
Modify  | 1.922e-05  | 0.0026991  | 0.0057617  |   2.4 |  0.14
Other   |            | 0.2079     |            |       | 10.98

Nlocal:        2776.45 ave        3942 max           0 min
Histogram: 8 4 4 0 4 12 8 0 28 36
Nghost:        3879.01 ave        5424 max         232 min
Histogram: 8 0 8 0 16 0 8 8 16 40
Neighs:        79213.4 ave      114880 max           0 min
Histogram: 8 4 4 0 10 6 8 8 22 34

Total # of neighbors = 8238191
Ave neighs/atom = 28.530433
Neighbor list builds = 0
Dangerous builds = 0
The dot product: 1.00242906823447e-08
Setting atom values ...
  1 settings made for x
  1 settings made for y
  1 settings made for z
Setting up cg style minimization ...
  Unit style    : metal
  Current step  : 2046
Per MPI rank memory allocation (min/avg/max) = 5.441 | 5.816 | 6.074 Mbytes
Step PotEng KinEng TotEng v_fx v_fy v_fz 
    2046   -1152449.3            0   -1152449.3 0.0065381254 0.0059649007 0.0010670337 
    2186   -1152449.3            0   -1152449.3 2.8050718e-06 4.1206413e-06 6.6953999e-06 
Loop time of 1.6223 on 104 procs for 140 steps with 288751 atoms

99.9% CPU use with 104 MPI tasks x 1 OpenMP threads

Minimization stats:
  Stopping criterion = energy tolerance
  Energy initial, next-to-last, final = 
     -1152449.31547902  -1152449.31661436  -1152449.31661436
  Force two-norm initial, final = 0.15453155 0.00013136819
  Force max component initial, final = 0.11497731 2.0638069e-05
  Final line search alpha, max atom move = 1.0000000 2.0638069e-05
  Iterations, force evaluations = 140 280

MPI task timing breakdown:
Section |  min time  |  avg time  |  max time  |%varavg| %total
---------------------------------------------------------------
Pair    | 0.42345    | 1.1759     | 1.5276     |  29.3 | 72.48
Neigh   | 0          | 0          | 0          |   0.0 |  0.00
Comm    | 0.028506   | 0.26451    | 0.79882    |  43.0 | 16.30
Output  | 0          | 0          | 0          |   0.0 |  0.00
Modify  | 1.6286e-05 | 0.0023171  | 0.0049426  |   2.3 |  0.14
Other   |            | 0.1796     |            |       | 11.07

Nlocal:        2776.45 ave        3932 max           0 min
Histogram: 8 4 4 0 4 12 8 0 26 38
Nghost:        3879.01 ave        5424 max         232 min
Histogram: 8 0 8 0 16 0 8 8 16 40
Neighs:        79213.4 ave      114561 max           0 min
Histogram: 8 4 4 0 8 8 8 8 20 36

Total # of neighbors = 8238191
Ave neighs/atom = 28.530433
Neighbor list builds = 0
Dangerous builds = 0
The dot product: -6.18692460291571e-09
Setting atom values ...
  1 settings made for x
  1 settings made for y
  1 settings made for z
Setting up cg style minimization ...
  Unit style    : metal
  Current step  : 2186
Per MPI rank memory allocation (min/avg/max) = 5.441 | 5.816 | 6.074 Mbytes
Step PotEng KinEng TotEng v_fx v_fy v_fz 
    2186   -1152449.3            0   -1152449.3 0.0099055326 0.0090360719 0.0017216971 
    2324   -1152449.3            0   -1152449.3 6.1634798e-06 7.3636562e-06 8.1308071e-06 
Loop time of 1.62212 on 104 procs for 138 steps with 288751 atoms

99.9% CPU use with 104 MPI tasks x 1 OpenMP threads

Minimization stats:
  Stopping criterion = energy tolerance
  Energy initial, next-to-last, final = 
     -1152449.29545731  -1152449.29660027  -1152449.29660027
  Force two-norm initial, final = 0.15632217 0.00015639299
  Force max component initial, final = 0.11711916 2.1718162e-05
  Final line search alpha, max atom move = 1.0000000 2.1718162e-05
  Iterations, force evaluations = 138 276

MPI task timing breakdown:
Section |  min time  |  avg time  |  max time  |%varavg| %total
---------------------------------------------------------------
Pair    | 0.42499    | 1.1678     | 1.5099     |  28.9 | 72.00
Neigh   | 0          | 0          | 0          |   0.0 |  0.00
Comm    | 0.026307   | 0.2637     | 0.78363    |  42.6 | 16.26
Output  | 0          | 0          | 0          |   0.0 |  0.00
Modify  | 1.6358e-05 | 0.0022878  | 0.0048935  |   2.2 |  0.14
Other   |            | 0.1883     |            |       | 11.61

Nlocal:        2776.45 ave        3930 max           0 min
Histogram: 8 4 4 0 4 12 8 0 26 38
Nghost:        3879.05 ave        5424 max         232 min
Histogram: 8 0 8 0 16 0 8 8 16 40
Neighs:        79213.4 ave      114487 max           0 min
Histogram: 8 4 4 0 8 8 8 8 20 36

Total # of neighbors = 8238191
Ave neighs/atom = 28.530433
Neighbor list builds = 0
Dangerous builds = 0
The dot product: 2.98280383845827e-09
Setting atom values ...
  1 settings made for x
  1 settings made for y
  1 settings made for z
Setting up cg style minimization ...
  Unit style    : metal
  Current step  : 2324
Per MPI rank memory allocation (min/avg/max) = 5.441 | 5.816 | 6.074 Mbytes
Step PotEng KinEng TotEng v_fx v_fy v_fz 
    2324   -1152449.3            0   -1152449.3  0.013146382  0.012040292 0.0022295441 
    2449   -1152449.3            0   -1152449.3 1.0850044e-05  1.60993e-05 2.7041065e-05 
Loop time of 1.45668 on 104 procs for 125 steps with 288751 atoms

99.9% CPU use with 104 MPI tasks x 1 OpenMP threads

Minimization stats:
  Stopping criterion = energy tolerance
  Energy initial, next-to-last, final = 
     -1152449.27397303  -1152449.27513279  -1152449.27513279
  Force two-norm initial, final = 0.15845858 0.00019295819
  Force max component initial, final = 0.11941291 3.4737019e-05
  Final line search alpha, max atom move = 1.0000000 3.4737019e-05
  Iterations, force evaluations = 125 250

MPI task timing breakdown:
Section |  min time  |  avg time  |  max time  |%varavg| %total
---------------------------------------------------------------
Pair    | 0.37873    | 1.0495     | 1.362      |  27.6 | 72.05
Neigh   | 0          | 0          | 0          |   0.0 |  0.00
Comm    | 0.028479   | 0.23661    | 0.71922    |  40.7 | 16.24
Output  | 0          | 0          | 0          |   0.0 |  0.00
Modify  | 1.5321e-05 | 0.0020674  | 0.0044107  |   2.1 |  0.14
Other   |            | 0.1685     |            |       | 11.57

Nlocal:        2776.45 ave        3930 max           0 min
Histogram: 8 4 4 0 4 12 8 0 26 38
Nghost:        3879.09 ave        5424 max         232 min
Histogram: 8 0 8 0 16 0 8 8 16 40
Neighs:        79213.3 ave      114487 max           0 min
Histogram: 8 4 4 0 8 8 8 8 20 36

Total # of neighbors = 8238188
Ave neighs/atom = 28.530422
Neighbor list builds = 0
Dangerous builds = 0
The dot product: 2.28672563809779e-08
Setting atom values ...
  1 settings made for x
  1 settings made for y
  1 settings made for z
Setting up cg style minimization ...
  Unit style    : metal
  Current step  : 2449
Per MPI rank memory allocation (min/avg/max) = 5.441 | 5.816 | 6.074 Mbytes
Step PotEng KinEng TotEng v_fx v_fy v_fz 
    2449   -1152449.3            0   -1152449.3  0.016259823  0.015007673 0.0024842626 
    2586   -1152449.3            0   -1152449.3 8.5424276e-07 1.2336566e-05 4.7529066e-05 
Loop time of 1.59753 on 104 procs for 137 steps with 288751 atoms

99.9% CPU use with 104 MPI tasks x 1 OpenMP threads

Minimization stats:
  Stopping criterion = energy tolerance
  Energy initial, next-to-last, final = 
      -1152449.2510252  -1152449.25221179  -1152449.25221179
  Force two-norm initial, final = 0.16098555 0.00018704424
  Force max component initial, final = 0.1218445 4.7529066e-05
  Final line search alpha, max atom move = 1.0000000 4.7529066e-05
  Iterations, force evaluations = 137 274

MPI task timing breakdown:
Section |  min time  |  avg time  |  max time  |%varavg| %total
---------------------------------------------------------------
Pair    | 0.41352    | 1.1577     | 1.5065     |  29.0 | 72.47
Neigh   | 0          | 0          | 0          |   0.0 |  0.00
Comm    | 0.028043   | 0.26193    | 0.79398    |  42.5 | 16.40
Output  | 0          | 0          | 0          |   0.0 |  0.00
Modify  | 1.6609e-05 | 0.0022662  | 0.0048805  |   2.2 |  0.14
Other   |            | 0.1757     |            |       | 11.00

Nlocal:        2776.45 ave        3930 max           0 min
Histogram: 8 4 4 0 4 12 8 0 26 38
Nghost:        3879.09 ave        5424 max         232 min
Histogram: 8 0 8 0 16 0 8 8 16 40
Neighs:        79213.3 ave      114487 max           0 min
Histogram: 8 4 4 0 8 8 8 8 20 36

Total # of neighbors = 8238188
Ave neighs/atom = 28.530422
Neighbor list builds = 0
Dangerous builds = 0
The dot product: 4.64488383135458e-09
Setting atom values ...
  1 settings made for x
  1 settings made for y
  1 settings made for z
Setting up cg style minimization ...
  Unit style    : metal
  Current step  : 2586
Per MPI rank memory allocation (min/avg/max) = 5.441 | 5.816 | 6.074 Mbytes
Step PotEng KinEng TotEng v_fx v_fy v_fz 
    2586   -1152449.2            0   -1152449.2  0.019160512  0.017912959 0.0025205074 
    2722   -1152449.2            0   -1152449.2 -2.0369237e-06 -6.3699293e-06 -1.8589625e-05 
Loop time of 1.60725 on 104 procs for 136 steps with 288751 atoms

99.9% CPU use with 104 MPI tasks x 1 OpenMP threads

Minimization stats:
  Stopping criterion = energy tolerance
  Energy initial, next-to-last, final = 
     -1152449.22661796  -1152449.22784187  -1152449.22784187
  Force two-norm initial, final = 0.1639817 0.00017414387
  Force max component initial, final = 0.12450591 1.8589625e-05
  Final line search alpha, max atom move = 1.0000000 1.8589625e-05
  Iterations, force evaluations = 136 272

MPI task timing breakdown:
Section |  min time  |  avg time  |  max time  |%varavg| %total
---------------------------------------------------------------
Pair    | 0.41148    | 1.1525     | 1.5126     |  29.2 | 71.71
Neigh   | 0          | 0          | 0          |   0.0 |  0.00
Comm    | 0.03297    | 0.26215    | 0.78672    |  42.2 | 16.31
Output  | 0          | 0          | 0          |   0.0 |  0.00
Modify  | 1.5802e-05 | 0.0022556  | 0.0048251  |   2.2 |  0.14
Other   |            | 0.1904     |            |       | 11.84

Nlocal:        2776.45 ave        3930 max           0 min
Histogram: 8 4 4 0 4 12 8 0 26 38
Nghost:        3879.07 ave        5424 max         232 min
Histogram: 8 0 8 0 16 0 8 8 16 40
Neighs:        79213.3 ave      114487 max           0 min
Histogram: 8 4 4 0 8 8 8 8 20 36

Total # of neighbors = 8238188
Ave neighs/atom = 28.530422
Neighbor list builds = 0
Dangerous builds = 0
The dot product: -1.51957456987211e-08
Setting atom values ...
  1 settings made for x
  1 settings made for y
  1 settings made for z
Setting up cg style minimization ...
  Unit style    : metal
  Current step  : 2722
Per MPI rank memory allocation (min/avg/max) = 5.441 | 5.816 | 6.074 Mbytes
Step PotEng KinEng TotEng v_fx v_fy v_fz 
    2722   -1152449.2            0   -1152449.2  0.021780065  0.020698802 0.0022553402 
    2890   -1152449.2            0   -1152449.2 1.9679574e-05 1.0389744e-05 -3.1959342e-05 
Loop time of 1.9696 on 104 procs for 168 steps with 288751 atoms

99.9% CPU use with 104 MPI tasks x 1 OpenMP threads

Minimization stats:
  Stopping criterion = energy tolerance
  Energy initial, next-to-last, final = 
     -1152449.20076325  -1152449.20203476  -1152449.20203476
  Force two-norm initial, final = 0.16739474 0.00016162223
  Force max component initial, final = 0.12731069 3.1959342e-05
  Final line search alpha, max atom move = 1.0000000 3.1959342e-05
  Iterations, force evaluations = 168 336

MPI task timing breakdown:
Section |  min time  |  avg time  |  max time  |%varavg| %total
---------------------------------------------------------------
Pair    | 0.50868    | 1.4197     | 1.8439     |  32.1 | 72.08
Neigh   | 0          | 0          | 0          |   0.0 |  0.00
Comm    | 0.037691   | 0.32351    | 0.97679    |  46.7 | 16.43
Output  | 0          | 0          | 0          |   0.0 |  0.00
Modify  | 2.1262e-05 | 0.0027797  | 0.0059313  |   2.5 |  0.14
Other   |            | 0.2236     |            |       | 11.35

Nlocal:        2776.45 ave        3930 max           0 min
Histogram: 8 4 4 0 4 12 8 0 26 38
Nghost:        3879.07 ave        5424 max         232 min
Histogram: 8 0 8 0 16 0 8 8 16 40
Neighs:        79213.3 ave      114488 max           0 min
Histogram: 8 4 4 0 8 8 8 8 20 36

Total # of neighbors = 8238183
Ave neighs/atom = 28.530405
Neighbor list builds = 0
Dangerous builds = 0
The dot product: 1.30920274723819e-07
Setting atom values ...
  1 settings made for x
  1 settings made for y
  1 settings made for z
Setting up cg style minimization ...
  Unit style    : metal
  Current step  : 2890
Per MPI rank memory allocation (min/avg/max) = 5.441 | 5.816 | 6.074 Mbytes
Step PotEng KinEng TotEng v_fx v_fy v_fz 
    2890   -1152449.2            0   -1152449.2   0.02521573  0.024383006 0.0015151492 
    3000   -1152449.2            0   -1152449.2 -7.8585122e-06 1.571918e-06 3.6837981e-05 
    3048   -1152449.2            0   -1152449.2 4.196074e-06 9.6409545e-06 2.2967385e-05 
Loop time of 1.85693 on 104 procs for 158 steps with 288751 atoms

99.9% CPU use with 104 MPI tasks x 1 OpenMP threads

Minimization stats:
  Stopping criterion = energy tolerance
  Energy initial, next-to-last, final = 
     -1152449.17348637  -1152449.17482759  -1152449.17482759
  Force two-norm initial, final = 0.171435 0.00013293284
  Force max component initial, final = 0.13023494 2.2967385e-05
  Final line search alpha, max atom move = 1.0000000 2.2967385e-05
  Iterations, force evaluations = 158 316

MPI task timing breakdown:
Section |  min time  |  avg time  |  max time  |%varavg| %total
---------------------------------------------------------------
Pair    | 0.48274    | 1.3365     | 1.7289     |  31.2 | 71.97
Neigh   | 0          | 0          | 0          |   0.0 |  0.00
Comm    | 0.029804   | 0.30479    | 0.92125    |  45.5 | 16.41
Output  | 0.00022923 | 0.00023984 | 0.00039531 |   0.0 |  0.01
Modify  | 1.8727e-05 | 0.0026166  | 0.005582   |   2.4 |  0.14
Other   |            | 0.2128     |            |       | 11.46

Nlocal:        2776.45 ave        3930 max           0 min
Histogram: 8 4 4 0 4 12 8 0 26 38
Nghost:        3879.11 ave        5425 max         232 min
Histogram: 8 0 8 0 16 0 8 8 16 40
Neighs:        79213.3 ave      114488 max           0 min
Histogram: 8 4 4 0 8 8 8 8 20 36

Total # of neighbors = 8238183
Ave neighs/atom = 28.530405
Neighbor list builds = 0
Dangerous builds = 0
The dot product: 4.84303757334685e-08
Setting atom values ...
  1 settings made for x
  1 settings made for y
  1 settings made for z
Setting up cg style minimization ...
  Unit style    : metal
  Current step  : 3048
Per MPI rank memory allocation (min/avg/max) = 5.441 | 5.816 | 6.074 Mbytes
Step PotEng KinEng TotEng v_fx v_fy v_fz 
    3048   -1152449.1            0   -1152449.1    0.0303414  0.029079217 -0.0035948173 
    3194   -1152449.1            0   -1152449.1 3.7549645e-06 3.2774799e-06 -1.7456203e-06 
Loop time of 1.70012 on 104 procs for 146 steps with 288751 atoms

99.9% CPU use with 104 MPI tasks x 1 OpenMP threads

Minimization stats:
  Stopping criterion = energy tolerance
  Energy initial, next-to-last, final = 
     -1152449.14482432  -1152449.14628883  -1152449.14628883
  Force two-norm initial, final = 0.17602588 0.00012767348
  Force max component initial, final = 0.13342558 2.3105242e-05
  Final line search alpha, max atom move = 1.0000000 2.3105242e-05
  Iterations, force evaluations = 146 292

MPI task timing breakdown:
Section |  min time  |  avg time  |  max time  |%varavg| %total
---------------------------------------------------------------
Pair    | 0.43899    | 1.2274     | 1.595      |  29.8 | 72.20
Neigh   | 0          | 0          | 0          |   0.0 |  0.00
Comm    | 0.030935   | 0.27724    | 0.83878    |  43.8 | 16.31
Output  | 0          | 0          | 0          |   0.0 |  0.00
Modify  | 1.7924e-05 | 0.0024154  | 0.0051763  |   2.3 |  0.14
Other   |            | 0.193      |            |       | 11.35

Nlocal:        2776.45 ave        3930 max           0 min
Histogram: 8 4 4 0 4 12 8 0 26 38
Nghost:        3879.11 ave        5425 max         232 min
Histogram: 8 0 8 0 16 0 8 8 16 40
Neighs:        79213.3 ave      114488 max           0 min
Histogram: 8 4 4 0 8 8 8 8 20 36

Total # of neighbors = 8238185
Ave neighs/atom = 28.530412
Neighbor list builds = 0
Dangerous builds = 0
The dot product: 5.47003392614822e-08
Setting atom values ...
  1 settings made for x
  1 settings made for y
  1 settings made for z
Setting up cg style minimization ...
  Unit style    : metal
  Current step  : 3194
Per MPI rank memory allocation (min/avg/max) = 5.441 | 5.816 | 6.074 Mbytes
Step PotEng KinEng TotEng v_fx v_fy v_fz 
    3194   -1152449.1            0   -1152449.1  0.039003073  0.036311292 -0.017104192 
    3330   -1152449.1            0   -1152449.1 1.270026e-05 1.3707111e-05 2.1098456e-06 
Loop time of 1.61062 on 104 procs for 136 steps with 288751 atoms

99.9% CPU use with 104 MPI tasks x 1 OpenMP threads

Minimization stats:
  Stopping criterion = energy tolerance
  Energy initial, next-to-last, final = 
     -1152449.11471664  -1152449.11645712  -1152449.11645712
  Force two-norm initial, final = 0.18327336 0.00010627946
  Force max component initial, final = 0.1370768 2.6232905e-05
  Final line search alpha, max atom move = 1.0000000 2.6232905e-05
  Iterations, force evaluations = 136 272

MPI task timing breakdown:
Section |  min time  |  avg time  |  max time  |%varavg| %total
---------------------------------------------------------------
Pair    | 0.41383    | 1.1443     | 1.4842     |  28.8 | 71.05
Neigh   | 0          | 0          | 0          |   0.0 |  0.00
Comm    | 0.034846   | 0.26073    | 0.77421    |  42.1 | 16.19
Output  | 0          | 0          | 0          |   0.0 |  0.00
Modify  | 1.8565e-05 | 0.0022547  | 0.0048133  |   2.2 |  0.14
Other   |            | 0.2034     |            |       | 12.63

Nlocal:        2776.45 ave        3930 max           0 min
Histogram: 8 4 4 0 4 12 8 0 26 38
Nghost:        3879.11 ave        5425 max         232 min
Histogram: 8 0 8 0 16 0 8 8 16 40
Neighs:        79213.3 ave      114488 max           0 min
Histogram: 8 4 4 0 8 8 8 8 20 36

Total # of neighbors = 8238183
Ave neighs/atom = 28.530405
Neighbor list builds = 0
Dangerous builds = 0
The dot product: 2.61474854742557e-07
Setting atom values ...
  1 settings made for x
  1 settings made for y
  1 settings made for z
Setting up cg style minimization ...
  Unit style    : metal
  Current step  : 3330
Per MPI rank memory allocation (min/avg/max) = 5.441 | 5.816 | 6.074 Mbytes
Step PotEng KinEng TotEng v_fx v_fy v_fz 
    3330   -1152449.1            0   -1152449.1  0.047953466  0.046404305 -0.029220601 
    3452   -1152449.1            0   -1152449.1 -5.0550167e-06 -9.3131446e-06 -1.5587897e-05 
Loop time of 1.42098 on 104 procs for 122 steps with 288751 atoms

99.9% CPU use with 104 MPI tasks x 1 OpenMP threads

Minimization stats:
  Stopping criterion = energy tolerance
  Energy initial, next-to-last, final = 
     -1152449.08328262  -1152449.08534812  -1152449.08534812
  Force two-norm initial, final = 0.19296979 0.00016354749
  Force max component initial, final = 0.14129114 3.3261185e-05
  Final line search alpha, max atom move = 1.0000000 3.3261185e-05
  Iterations, force evaluations = 122 244

MPI task timing breakdown:
Section |  min time  |  avg time  |  max time  |%varavg| %total
---------------------------------------------------------------
Pair    | 0.36861    | 1.0298     | 1.3315     |  27.4 | 72.47
Neigh   | 0          | 0          | 0          |   0.0 |  0.00
Comm    | 0.027478   | 0.23252    | 0.70984    |  40.2 | 16.36
Output  | 0          | 0          | 0          |   0.0 |  0.00
Modify  | 1.4832e-05 | 0.0020286  | 0.0043477  |   2.1 |  0.14
Other   |            | 0.1566     |            |       | 11.02

Nlocal:        2776.45 ave        3930 max           0 min
Histogram: 8 4 4 0 4 12 8 0 26 38
Nghost:        3879.11 ave        5425 max         232 min
Histogram: 8 0 8 0 16 0 8 8 16 40
Neighs:        79213.3 ave      114488 max           0 min
Histogram: 8 4 4 0 8 8 8 8 20 36

Total # of neighbors = 8238183
Ave neighs/atom = 28.530405
Neighbor list builds = 0
Dangerous builds = 0
The dot product: -6.97559863558315e-08
Setting atom values ...
  1 settings made for x
  1 settings made for y
  1 settings made for z
Setting up cg style minimization ...
  Unit style    : metal
  Current step  : 3452
Per MPI rank memory allocation (min/avg/max) = 5.441 | 5.816 | 6.074 Mbytes
Step PotEng KinEng TotEng v_fx v_fy v_fz 
    3452   -1152449.1            0   -1152449.1  0.053128706  0.055550713 -0.037864357 
    3572   -1152449.1            0   -1152449.1 -2.2479612e-05 -3.8149158e-05 -4.9777902e-05 
Loop time of 1.38748 on 104 procs for 120 steps with 288751 atoms

99.9% CPU use with 104 MPI tasks x 1 OpenMP threads

Minimization stats:
  Stopping criterion = energy tolerance
  Energy initial, next-to-last, final = 
     -1152449.05062947  -1152449.05296237  -1152449.05296237
  Force two-norm initial, final = 0.20166403 0.00026341759
  Force max component initial, final = 0.14555474 5.6184885e-05
  Final line search alpha, max atom move = 1.0000000 5.6184885e-05
  Iterations, force evaluations = 120 240

MPI task timing breakdown:
Section |  min time  |  avg time  |  max time  |%varavg| %total
---------------------------------------------------------------
Pair    | 0.36337    | 1.0074     | 1.3079     |  27.1 | 72.60
Neigh   | 0          | 0          | 0          |   0.0 |  0.00
Comm    | 0.025634   | 0.22643    | 0.68404    |  39.9 | 16.32
Output  | 0          | 0          | 0          |   0.0 |  0.00
Modify  | 1.3965e-05 | 0.0019886  | 0.0042286  |   2.1 |  0.14
Other   |            | 0.1517     |            |       | 10.93

Nlocal:        2776.45 ave        3930 max           0 min
Histogram: 8 4 4 0 4 12 8 0 26 38
Nghost:        3879.11 ave        5425 max         232 min
Histogram: 8 0 8 0 16 0 8 8 16 40
Neighs:        79213.3 ave      114488 max           0 min
Histogram: 8 4 4 0 8 8 8 8 20 36

Total # of neighbors = 8238182
Ave neighs/atom = 28.530402
Neighbor list builds = 0
Dangerous builds = 0
The dot product: -3.91150786172617e-07
Setting atom values ...
  1 settings made for x
  1 settings made for y
  1 settings made for z
Setting up cg style minimization ...
  Unit style    : metal
  Current step  : 3572
Per MPI rank memory allocation (min/avg/max) = 5.441 | 5.816 | 6.074 Mbytes
Step PotEng KinEng TotEng v_fx v_fy v_fz 
    3572     -1152449            0     -1152449  0.055071421  0.062034662 -0.050373587 
    3798     -1152449            0     -1152449 2.7252386e-06 3.2432898e-06 -1.6334677e-06 
Loop time of 2.64844 on 104 procs for 226 steps with 288751 atoms

99.9% CPU use with 104 MPI tasks x 1 OpenMP threads

Minimization stats:
  Stopping criterion = energy tolerance
  Energy initial, next-to-last, final = 
     -1152449.01682301  -1152449.01940822  -1152449.01940822
  Force two-norm initial, final = 0.2099469 3.1676741e-05
  Force max component initial, final = 0.14970374 3.6046859e-06
  Final line search alpha, max atom move = 1.0000000 3.6046859e-06
  Iterations, force evaluations = 226 452

MPI task timing breakdown:
Section |  min time  |  avg time  |  max time  |%varavg| %total
---------------------------------------------------------------
Pair    | 0.68832    | 1.9144     | 2.4776     |  37.2 | 72.28
Neigh   | 0          | 0          | 0          |   0.0 |  0.00
Comm    | 0.05211    | 0.43311    | 1.3061     |  54.8 | 16.35
Output  | 0          | 0          | 0          |   0.0 |  0.00
Modify  | 2.6023e-05 | 0.0037409  | 0.0080279  |   2.9 |  0.14
Other   |            | 0.2972     |            |       | 11.22

Nlocal:        2776.45 ave        3930 max           0 min
Histogram: 8 4 4 0 4 12 8 0 26 38
Nghost:        3879.09 ave        5425 max         232 min
Histogram: 8 0 8 0 16 0 8 8 16 40
Neighs:        79213.2 ave      114487 max           0 min
Histogram: 8 4 4 0 8 8 8 8 20 36

Total # of neighbors = 8238178
Ave neighs/atom = 28.530388
Neighbor list builds = 0
Dangerous builds = 0
The dot product: 1.05948888599314e-07
Setting atom values ...
  1 settings made for x
  1 settings made for y
  1 settings made for z
Setting up cg style minimization ...
  Unit style    : metal
  Current step  : 3798
Per MPI rank memory allocation (min/avg/max) = 5.441 | 5.816 | 6.074 Mbytes
Step PotEng KinEng TotEng v_fx v_fy v_fz 
    3798     -1152449            0     -1152449   0.05362515  0.065097516 -0.068680841 
    3996     -1152449            0     -1152449 1.3311313e-05 1.8095897e-05 -5.4744922e-06 
Loop time of 2.30004 on 104 procs for 198 steps with 288751 atoms

99.9% CPU use with 104 MPI tasks x 1 OpenMP threads

Minimization stats:
  Stopping criterion = energy tolerance
  Energy initial, next-to-last, final = 
     -1152448.98211248  -1152448.98489346  -1152448.98489346
  Force two-norm initial, final = 0.21846873 0.00010528931
  Force max component initial, final = 0.15357382 1.8095897e-05
  Final line search alpha, max atom move = 1.0000000 1.8095897e-05
  Iterations, force evaluations = 198 396

MPI task timing breakdown:
Section |  min time  |  avg time  |  max time  |%varavg| %total
---------------------------------------------------------------
Pair    | 0.60244    | 1.6619     | 2.1594     |  34.6 | 72.26
Neigh   | 0          | 0          | 0          |   0.0 |  0.00
Comm    | 0.040205   | 0.37606    | 1.1272     |  51.0 | 16.35
Output  | 0          | 0          | 0          |   0.0 |  0.00
Modify  | 2.2896e-05 | 0.0032776  | 0.0070457  |   2.7 |  0.14
Other   |            | 0.2588     |            |       | 11.25

Nlocal:        2776.45 ave        3930 max           0 min
Histogram: 8 4 4 0 4 12 8 0 26 38
Nghost:        3879.00 ave        5425 max         232 min
Histogram: 8 0 8 0 16 0 8 8 16 40
Neighs:        79213.2 ave      114487 max           0 min
Histogram: 8 4 4 0 8 8 8 8 20 36

Total # of neighbors = 8238178
Ave neighs/atom = 28.530388
Neighbor list builds = 0
Dangerous builds = 0
The dot product: 5.14624195781792e-07
Setting atom values ...
  1 settings made for x
  1 settings made for y
  1 settings made for z
Setting up cg style minimization ...
  Unit style    : metal
  Current step  : 3996
Per MPI rank memory allocation (min/avg/max) = 5.441 | 5.816 | 6.074 Mbytes
Step PotEng KinEng TotEng v_fx v_fy v_fz 
    3996   -1152448.9            0   -1152448.9  0.047418163  0.063612749 -0.081749845 
    4000   -1152448.9            0   -1152448.9 -0.0035322698 -0.005003415 0.0038704332 
    4330     -1152449            0     -1152449 -8.9867823e-06 -1.8196357e-05 -3.5972403e-05 
Loop time of 3.8946 on 104 procs for 334 steps with 288751 atoms

99.9% CPU use with 104 MPI tasks x 1 OpenMP threads

Minimization stats:
  Stopping criterion = energy tolerance
  Energy initial, next-to-last, final = 
     -1152448.94672951  -1152448.98110308  -1152448.98110308
  Force two-norm initial, final = 0.22437369 0.00016823077
  Force max component initial, final = 0.15707599 4.7182602e-05
  Final line search alpha, max atom move = 1.0000000 4.7182602e-05
  Iterations, force evaluations = 334 666

MPI task timing breakdown:
Section |  min time  |  avg time  |  max time  |%varavg| %total
---------------------------------------------------------------
Pair    | 1.0152     | 2.809      | 3.6541     |  44.9 | 72.13
Neigh   | 3.1516e-05 | 0.008812   | 0.012847   |   3.9 |  0.23
Comm    | 0.066271   | 0.63888    | 1.9249     |  65.8 | 16.40
Output  | 0.00015321 | 0.00015518 | 0.00022324 |   0.0 |  0.00
Modify  | 3.8457e-05 | 0.0055007  | 0.011779   |   3.5 |  0.14
Other   |            | 0.4322     |            |       | 11.10

Nlocal:        2776.45 ave        3944 max           0 min
Histogram: 8 4 4 0 4 12 8 0 27 37
Nghost:        3879.00 ave        5426 max         232 min
Histogram: 8 0 8 0 16 0 8 8 16 40
Neighs:        79213.3 ave      114934 max           0 min
Histogram: 8 4 4 0 10 6 8 8 23 33

Total # of neighbors = 8238179
Ave neighs/atom = 28.530391
Neighbor list builds = 3
Dangerous builds = 0
The dot product: 1.80350194296258e-06
Setting atom values ...
  1 settings made for x
  1 settings made for y
  1 settings made for z
Setting up cg style minimization ...
  Unit style    : metal
  Current step  : 4330
Per MPI rank memory allocation (min/avg/max) = 5.441 | 5.816 | 6.074 Mbytes
Step PotEng KinEng TotEng v_fx v_fy v_fz 
    4330     -1152449            0     -1152449  0.021506388  0.051696378  -0.14003087 
    4515     -1152449            0     -1152449 -9.5914128e-06 -1.4345086e-05 -1.9447609e-05 
Loop time of 2.1585 on 104 procs for 185 steps with 288751 atoms

99.9% CPU use with 104 MPI tasks x 1 OpenMP threads

Minimization stats:
  Stopping criterion = energy tolerance
  Energy initial, next-to-last, final = 
     -1152448.95875188  -1152448.96263147  -1152448.96263147
  Force two-norm initial, final = 0.25577437 0.00018843776
  Force max component initial, final = 0.16442728 3.7029874e-05
  Final line search alpha, max atom move = 1.0000000 3.7029874e-05
  Iterations, force evaluations = 185 370

MPI task timing breakdown:
Section |  min time  |  avg time  |  max time  |%varavg| %total
---------------------------------------------------------------
Pair    | 0.55596    | 1.5576     | 2.0352     |  33.9 | 72.16
Neigh   | 0          | 0          | 0          |   0.0 |  0.00
Comm    | 0.037313   | 0.35244    | 1.0514     |  49.5 | 16.33
Output  | 0          | 0          | 0          |   0.0 |  0.00
Modify  | 2.7495e-05 | 0.0030576  | 0.0065363  |   2.6 |  0.14
Other   |            | 0.2454     |            |       | 11.37

Nlocal:        2776.45 ave        3943 max           0 min
Histogram: 8 4 4 0 4 12 8 0 28 36
Nghost:        3879.05 ave        5425 max         232 min
Histogram: 8 0 8 0 16 0 8 8 16 40
Neighs:        79213.3 ave      114901 max           0 min
Histogram: 8 4 4 0 10 6 8 8 22 34

Total # of neighbors = 8238183
Ave neighs/atom = 28.530405
Neighbor list builds = 0
Dangerous builds = 0
The dot product: 3.67427663812092e-07
Setting atom values ...
  1 settings made for x
  1 settings made for y
  1 settings made for z
Setting up cg style minimization ...
  Unit style    : metal
  Current step  : 4515
Per MPI rank memory allocation (min/avg/max) = 5.441 | 5.816 | 6.074 Mbytes
Step PotEng KinEng TotEng v_fx v_fy v_fz 
    4515   -1152448.9            0   -1152448.9 0.0058870976  0.025018891 -0.068549298 
    4676   -1152448.9            0   -1152448.9 2.6823176e-06 -3.4287412e-06 3.8793967e-05 
Loop time of 1.87164 on 104 procs for 161 steps with 288751 atoms

99.9% CPU use with 104 MPI tasks x 1 OpenMP threads

Minimization stats:
  Stopping criterion = energy tolerance
  Energy initial, next-to-last, final = 
     -1152448.94019037  -1152448.94255371  -1152448.94255371
  Force two-norm initial, final = 0.22360341 0.00012763081
  Force max component initial, final = 0.16590661 3.8793967e-05
  Final line search alpha, max atom move = 1.0000000 3.8793967e-05
  Iterations, force evaluations = 161 322

MPI task timing breakdown:
Section |  min time  |  avg time  |  max time  |%varavg| %total
---------------------------------------------------------------
Pair    | 0.48349    | 1.3565     | 1.7659     |  31.5 | 72.48
Neigh   | 0          | 0          | 0          |   0.0 |  0.00
Comm    | 0.036124   | 0.30726    | 0.9374     |  46.2 | 16.42
Output  | 0          | 0          | 0          |   0.0 |  0.00
Modify  | 1.8951e-05 | 0.0026654  | 0.0057064  |   2.4 |  0.14
Other   |            | 0.2052     |            |       | 10.96

Nlocal:        2776.45 ave        3947 max           0 min
Histogram: 8 4 4 0 4 12 8 0 28 36
Nghost:        3879.07 ave        5427 max         232 min
Histogram: 8 0 8 0 16 0 8 8 16 40
Neighs:        79213.3 ave      115013 max           0 min
Histogram: 8 4 4 0 10 6 8 8 24 32

Total # of neighbors = 8238184
Ave neighs/atom = 28.530409
Neighbor list builds = 0
Dangerous builds = 0
The dot product: -5.28961757272504e-07
Setting atom values ...
  1 settings made for x
  1 settings made for y
  1 settings made for z
Setting up cg style minimization ...
  Unit style    : metal
  Current step  : 4676
Per MPI rank memory allocation (min/avg/max) = 5.441 | 5.816 | 6.074 Mbytes
Step PotEng KinEng TotEng v_fx v_fy v_fz 
    4676   -1152448.9            0   -1152448.9 0.0010498843  0.012794469 -0.041415329 
    4842   -1152448.9            0   -1152448.9 3.1087471e-06 4.416891e-06 4.6522375e-06 
Loop time of 1.95003 on 104 procs for 166 steps with 288751 atoms

99.9% CPU use with 104 MPI tasks x 1 OpenMP threads

Minimization stats:
  Stopping criterion = energy tolerance
  Energy initial, next-to-last, final = 
     -1152448.92010647  -1152448.92239406  -1152448.92239406
  Force two-norm initial, final = 0.22079671 0.00010326215
  Force max component initial, final = 0.16764731 1.2719087e-05
  Final line search alpha, max atom move = 1.0000000 1.2719087e-05
  Iterations, force evaluations = 166 332

MPI task timing breakdown:
Section |  min time  |  avg time  |  max time  |%varavg| %total
---------------------------------------------------------------
Pair    | 0.50815    | 1.4005     | 1.8174     |  31.8 | 71.82
Neigh   | 0          | 0          | 0          |   0.0 |  0.00
Comm    | 0.033286   | 0.31805    | 0.9559     |  46.5 | 16.31
Output  | 0          | 0          | 0          |   0.0 |  0.00
Modify  | 1.9455e-05 | 0.0027514  | 0.0059388  |   2.5 |  0.14
Other   |            | 0.2287     |            |       | 11.73

Nlocal:        2776.45 ave        3947 max           0 min
Histogram: 8 4 4 0 4 12 8 0 28 36
Nghost:        3879.07 ave        5426 max         232 min
Histogram: 8 0 8 0 16 0 8 8 16 40
Neighs:        79213.3 ave      115013 max           0 min
Histogram: 8 4 4 0 10 6 8 8 24 32

Total # of neighbors = 8238185
Ave neighs/atom = 28.530412
Neighbor list builds = 0
Dangerous builds = 0
The dot product: -2.84002454615069e-08
Setting atom values ...
  1 settings made for x
  1 settings made for y
  1 settings made for z
Setting up cg style minimization ...
  Unit style    : metal
  Current step  : 4842
Per MPI rank memory allocation (min/avg/max) = 5.441 | 5.816 | 6.074 Mbytes
Step PotEng KinEng TotEng v_fx v_fy v_fz 
    4842   -1152448.9            0   -1152448.9 -0.00053975418 0.0079109662 -0.030273166 
    4982   -1152448.9            0   -1152448.9 7.0589625e-06 1.4745054e-05 -6.2502398e-06 
Loop time of 1.64121 on 104 procs for 140 steps with 288751 atoms

99.9% CPU use with 104 MPI tasks x 1 OpenMP threads

Minimization stats:
  Stopping criterion = energy tolerance
  Energy initial, next-to-last, final = 
     -1152448.90013924  -1152448.90212818  -1152448.90212818
  Force two-norm initial, final = 0.22078831 0.00018958094
  Force max component initial, final = 0.16965501 2.7989581e-05
  Final line search alpha, max atom move = 1.0000000 2.7989581e-05
  Iterations, force evaluations = 140 280

MPI task timing breakdown:
Section |  min time  |  avg time  |  max time  |%varavg| %total
---------------------------------------------------------------
Pair    | 0.42265    | 1.1807     | 1.5386     |  29.4 | 71.94
Neigh   | 0          | 0          | 0          |   0.0 |  0.00
Comm    | 0.032282   | 0.267      | 0.80705    |  42.8 | 16.27
Output  | 0          | 0          | 0          |   0.0 |  0.00
Modify  | 1.6425e-05 | 0.0023192  | 0.0049538  |   2.3 |  0.14
Other   |            | 0.1912     |            |       | 11.65

Nlocal:        2776.45 ave        3948 max           0 min
Histogram: 8 4 4 0 4 12 8 0 28 36
Nghost:        3879.09 ave        5426 max         232 min
Histogram: 8 0 8 0 16 0 8 8 16 40
Neighs:        79213.3 ave      115037 max           0 min
Histogram: 8 4 4 0 10 6 8 8 24 32

Total # of neighbors = 8238182
Ave neighs/atom = 28.530402
Neighbor list builds = 0
Dangerous builds = 0
The dot product: 4.40700345000255e-08
Setting atom values ...
  1 settings made for x
  1 settings made for y
  1 settings made for z
Setting up cg style minimization ...
  Unit style    : metal
  Current step  : 4982
Per MPI rank memory allocation (min/avg/max) = 5.441 | 5.816 | 6.074 Mbytes
Step PotEng KinEng TotEng v_fx v_fy v_fz 
    4982   -1152448.9            0   -1152448.9 -0.00043483563 0.0055261302  -0.02031631 
    5000   -1152448.9            0   -1152448.9 0.00037618941 0.00077633725 -0.00027697656 
    5176   -1152448.9            0   -1152448.9 -5.3791377e-06 -9.5863442e-06 -9.0511495e-07 
Loop time of 2.25044 on 104 procs for 194 steps with 288751 atoms

99.9% CPU use with 104 MPI tasks x 1 OpenMP threads

Minimization stats:
  Stopping criterion = energy tolerance
  Energy initial, next-to-last, final = 
     -1152448.87881177  -1152448.88061965  -1152448.88061965
  Force two-norm initial, final = 0.21933152 7.5232384e-05
  Force max component initial, final = 0.17178443 1.5543613e-05
  Final line search alpha, max atom move = 1.0000000 1.5543613e-05
  Iterations, force evaluations = 194 388

MPI task timing breakdown:
Section |  min time  |  avg time  |  max time  |%varavg| %total
---------------------------------------------------------------
Pair    | 0.58588    | 1.6247     | 2.1119     |  34.3 | 72.20
Neigh   | 0          | 0          | 0          |   0.0 |  0.00
Comm    | 0.040398   | 0.36568    | 1.101      |  50.4 | 16.25
Output  | 0.00015506 | 0.00015747 | 0.00024557 |   0.0 |  0.01
Modify  | 2.2569e-05 | 0.0032086  | 0.0068303  |   2.7 |  0.14
Other   |            | 0.2567     |            |       | 11.40

Nlocal:        2776.45 ave        3947 max           0 min
Histogram: 8 4 4 0 4 12 8 0 28 36
Nghost:        3879.07 ave        5426 max         232 min
Histogram: 8 0 8 0 16 0 8 8 16 40
Neighs:        79213.3 ave      115013 max           0 min
Histogram: 8 4 4 0 10 6 8 8 24 32

Total # of neighbors = 8238180
Ave neighs/atom = 28.530395
Neighbor list builds = 0
Dangerous builds = 0
The dot product: 2.73714114644305e-09
Setting atom values ...
  1 settings made for x
  1 settings made for y
  1 settings made for z
Setting up cg style minimization ...
  Unit style    : metal
  Current step  : 5176
Per MPI rank memory allocation (min/avg/max) = 5.441 | 5.816 | 6.074 Mbytes
Step PotEng KinEng TotEng v_fx v_fy v_fz 
    5176   -1152448.9            0   -1152448.9 -0.0002405449 0.0038507209 -0.013476065 
    5437   -1152448.9            0   -1152448.9 3.7577916e-08 8.6533807e-08 -5.5306978e-08 
Loop time of 3.05482 on 104 procs for 261 steps with 288751 atoms

99.9% CPU use with 104 MPI tasks x 1 OpenMP threads

Minimization stats:
  Stopping criterion = energy tolerance
  Energy initial, next-to-last, final = 
     -1152448.85530449  -1152448.85722391  -1152448.85722391
  Force two-norm initial, final = 0.22318041 7.6463244e-06
  Force max component initial, final = 0.17394303 1.5150180e-06
  Final line search alpha, max atom move = 1.0000000 1.5150180e-06
  Iterations, force evaluations = 261 522

MPI task timing breakdown:
Section |  min time  |  avg time  |  max time  |%varavg| %total
---------------------------------------------------------------
Pair    | 0.78985    | 2.2047     | 2.8826     |  40.1 | 72.17
Neigh   | 0          | 0          | 0          |   0.0 |  0.00
Comm    | 0.057504   | 0.50073    | 1.5158     |  58.5 | 16.39
Output  | 0          | 0          | 0          |   0.0 |  0.00
Modify  | 3.195e-05  | 0.0043112  | 0.0091856  |   3.1 |  0.14
Other   |            | 0.345      |            |       | 11.29

Nlocal:        2776.45 ave        3946 max           0 min
Histogram: 8 4 4 0 4 12 8 0 28 36
Nghost:        3879.05 ave        5426 max         232 min
Histogram: 8 0 8 0 16 0 8 8 16 40
Neighs:        79213.3 ave      114981 max           0 min
Histogram: 8 4 4 0 10 6 8 8 24 32

Total # of neighbors = 8238179
Ave neighs/atom = 28.530391
Neighbor list builds = 0
Dangerous builds = 0
The dot product: -1.0598661707727e-11
Setting up cg style minimization ...
  Unit style    : metal
  Current step  : 5437
Per MPI rank memory allocation (min/avg/max) = 5.441 | 5.816 | 6.074 Mbytes
Step PotEng KinEng TotEng v_fx v_fy v_fz 
    5437   -1152448.9            0   -1152448.9   -1.0602532   0.57809633   0.18411347 
    5716   -1152449.5            0   -1152449.5 1.4735927e-06 6.3248111e-09 1.3218006e-05 
Loop time of 3.23634 on 104 procs for 279 steps with 288751 atoms

99.9% CPU use with 104 MPI tasks x 1 OpenMP threads

Minimization stats:
  Stopping criterion = energy tolerance
  Energy initial, next-to-last, final = 
     -1152448.85722391  -1152449.45035262  -1152449.45035262
  Force two-norm initial, final = 1.2215686 6.4532758e-05
  Force max component initial, final = 1.0602532 1.3218006e-05
  Final line search alpha, max atom move = 1.0000000 1.3218006e-05
  Iterations, force evaluations = 279 554

MPI task timing breakdown:
Section |  min time  |  avg time  |  max time  |%varavg| %total
---------------------------------------------------------------
Pair    | 0.84475    | 2.3248     | 3.035      |  40.9 | 71.83
Neigh   | 3.0375e-05 | 0.0088316  | 0.012838   |   3.9 |  0.27
Comm    | 0.060266   | 0.52706    | 1.5735     |  60.2 | 16.29
Output  | 0          | 0          | 0          |   0.0 |  0.00
Modify  | 2.9643e-05 | 0.0029801  | 0.0076283  |   3.4 |  0.09
Other   |            | 0.3726     |            |       | 11.51

Nlocal:        2776.45 ave        3944 max           0 min
Histogram: 8 4 4 0 4 12 8 0 28 36
Nghost:        3878.99 ave        5425 max         232 min
Histogram: 8 0 8 0 16 0 8 8 16 40
Neighs:        79213.2 ave      114911 max           0 min
Histogram: 8 4 4 0 10 6 8 8 22 34

Total # of neighbors = 8238178
Ave neighs/atom = 28.530388
Neighbor list builds = 3
Dangerous builds = 0
OMP_NUM_THREADS environment is not set. Defaulting to 1 thread. (../comm.cpp:94)
  using 1 OpenMP thread(s) per MPI task
Reading data file ...
  orthogonal box = (-122.39241 -121.13707 -37.090501) to (122.39241 121.13707 37.090501)
  13 by 4 by 2 MPI processor grid
  reading atoms ...
  288751 atoms
  read_data CPU = 0.350 seconds
199981 atoms in group inner
88770 atoms in group outer
1 atoms in group carbon
Neighbor list info ...
  update every 1 steps, delay 0 steps, check yes
  max neighbors/atom: 2000, page size: 100000
  master list distance cutoff = 5.6
  ghost atom cutoff = 5.6
  binsize = 2.8, bins = 88 87 27
  1 neighbor lists, perpetual/occasional/extra = 1 0 0
  (1) pair eam/alloy, perpetual
      attributes: half, newton on
      pair build: half/bin/atomonly/newton
      stencil: half/bin/3d/newton
      bin: standard
Setting up cg style minimization ...
  Unit style    : metal
  Current step  : 0
Per MPI rank memory allocation (min/avg/max) = 5.441 | 5.816 | 6.074 Mbytes
Step v_fx v_fy v_fz PotEng KinEng TotEng 
       0    0.2180813    1.7903291    2.4093214   -1152447.8            0   -1152447.8 
     154 8.2709578e-06 1.2065278e-05 -4.804586e-05   -1152449.5            0   -1152449.5 
Loop time of 1.80318 on 104 procs for 154 steps with 288751 atoms

99.9% CPU use with 104 MPI tasks x 1 OpenMP threads

Minimization stats:
  Stopping criterion = energy tolerance
  Energy initial, next-to-last, final = 
     -1152447.79529993  -1152449.45035259  -1152449.45035259
  Force two-norm initial, final = 10.045660 0.00019011833
  Force max component initial, final = 6.1177189 4.8045860e-05
  Final line search alpha, max atom move = 1.0000000 4.8045860e-05
  Iterations, force evaluations = 154 307

MPI task timing breakdown:
Section |  min time  |  avg time  |  max time  |%varavg| %total
---------------------------------------------------------------
Pair    | 0.47586    | 1.2957     | 1.688      |  30.4 | 71.85
Neigh   | 3.0465e-05 | 0.0087658  | 0.012748   |   3.9 |  0.49
Comm    | 0.029403   | 0.29457    | 0.87312    |  44.8 | 16.34
Output  | 0          | 0          | 0          |   0.0 |  0.00
Modify  | 1.7944e-05 | 0.0016607  | 0.0043018  |   2.5 |  0.09
Other   |            | 0.2025     |            |       | 11.23

Nlocal:        2776.45 ave        3959 max           0 min
Histogram: 8 4 4 0 4 12 8 2 28 34
Nghost:        3879.01 ave        5424 max         232 min
Histogram: 8 0 8 0 16 0 8 8 16 40
Neighs:        79213.5 ave      115391 max           0 min
Histogram: 8 4 4 0 10 6 8 8 24 32

Total # of neighbors = 8238204
Ave neighs/atom = 28.530478
Neighbor list builds = 3
Dangerous builds = 0
Setting atom values ...
  1 settings made for x
  1 settings made for y
  1 settings made for z
Setting up cg style minimization ...
  Unit style    : metal
  Current step  : 154
Per MPI rank memory allocation (min/avg/max) = 5.441 | 5.816 | 6.074 Mbytes
Step PotEng KinEng TotEng v_fx v_fy v_fz 
     154   -1152449.4            0   -1152449.4 -0.050987195  0.019398012   -0.0707369 
     362   -1152449.4            0   -1152449.4 1.5583248e-06 1.0186265e-05 -7.405471e-06 
Loop time of 2.41726 on 104 procs for 208 steps with 288751 atoms

99.9% CPU use with 104 MPI tasks x 1 OpenMP threads

Minimization stats:
  Stopping criterion = energy tolerance
  Energy initial, next-to-last, final = 
     -1152449.44525223  -1152449.44858471  -1152449.44858471
  Force two-norm initial, final = 0.27318394 0.00010867651
  Force max component initial, final = 0.11091443 1.0186265e-05
  Final line search alpha, max atom move = 1.0000000 1.0186265e-05
  Iterations, force evaluations = 208 416

MPI task timing breakdown:
Section |  min time  |  avg time  |  max time  |%varavg| %total
---------------------------------------------------------------
Pair    | 0.62887    | 1.7473     | 2.2763     |  35.8 | 72.28
Neigh   | 0          | 0          | 0          |   0.0 |  0.00
Comm    | 0.037444   | 0.39341    | 1.1783     |  52.8 | 16.28
Output  | 0          | 0          | 0          |   0.0 |  0.00
Modify  | 2.6745e-05 | 0.0034334  | 0.0073948  |   2.8 |  0.14
Other   |            | 0.2731     |            |       | 11.30

Nlocal:        2776.45 ave        3961 max           0 min
Histogram: 8 4 4 0 6 10 8 2 28 34
Nghost:        3878.99 ave        5426 max         232 min
Histogram: 8 0 8 0 16 0 8 8 16 40
Neighs:        79213.4 ave      115454 max           0 min
Histogram: 8 4 4 0 10 6 8 8 24 32

Total # of neighbors = 8238198
Ave neighs/atom = 28.530457
Neighbor list builds = 0
Dangerous builds = 0
Setting atom values ...
  1 settings made for x
  1 settings made for y
  1 settings made for z
Setting up cg style minimization ...
  Unit style    : metal
  Current step  : 362
Per MPI rank memory allocation (min/avg/max) = 5.441 | 5.816 | 6.074 Mbytes
Step PotEng KinEng TotEng v_fx v_fy v_fz 
     362   -1152449.4            0   -1152449.4  -0.02955036  0.017948868 -0.062350807 
     544   -1152449.4            0   -1152449.4 1.7627049e-05 2.0349104e-07 2.2893782e-05 
Loop time of 2.16335 on 104 procs for 182 steps with 288751 atoms

99.9% CPU use with 104 MPI tasks x 1 OpenMP threads

Minimization stats:
  Stopping criterion = energy tolerance
  Energy initial, next-to-last, final = 
     -1152449.44396014  -1152449.44549978  -1152449.44549978
  Force two-norm initial, final = 0.18499476 0.0001280407
  Force max component initial, final = 0.080093301 2.2893782e-05
  Final line search alpha, max atom move = 1.0000000 2.2893782e-05
  Iterations, force evaluations = 182 364

MPI task timing breakdown:
Section |  min time  |  avg time  |  max time  |%varavg| %total
---------------------------------------------------------------
Pair    | 0.5629     | 1.5378     | 2.0011     |  33.2 | 71.08
Neigh   | 0          | 0          | 0          |   0.0 |  0.00
Comm    | 0.033296   | 0.3539     | 1.0455     |  48.6 | 16.36
Output  | 0          | 0          | 0          |   0.0 |  0.00
Modify  | 2.3225e-05 | 0.0030066  | 0.0064649  |   2.6 |  0.14
Other   |            | 0.2687     |            |       | 12.42

Nlocal:        2776.45 ave        3961 max           0 min
Histogram: 8 4 4 0 6 10 8 2 28 34
Nghost:        3879.01 ave        5424 max         232 min
Histogram: 8 0 8 0 16 0 8 8 16 40
Neighs:        79213.5 ave      115464 max           0 min
Histogram: 8 4 4 0 10 6 8 8 24 32

Total # of neighbors = 8238200
Ave neighs/atom = 28.530464
Neighbor list builds = 0
Dangerous builds = 0
The dot product: -1.04871826422888e-07
Setting atom values ...
  1 settings made for x
  1 settings made for y
  1 settings made for z
Setting up cg style minimization ...
  Unit style    : metal
  Current step  : 544
Per MPI rank memory allocation (min/avg/max) = 5.441 | 5.816 | 6.074 Mbytes
Step PotEng KinEng TotEng v_fx v_fy v_fz 
     544   -1152449.4            0   -1152449.4 -0.022925258  0.014483573 -0.065068483 
     684   -1152449.4            0   -1152449.4 1.4525318e-05 5.9356345e-06 1.2599857e-05 
Loop time of 1.63033 on 104 procs for 140 steps with 288751 atoms

99.9% CPU use with 104 MPI tasks x 1 OpenMP threads

Minimization stats:
  Stopping criterion = energy tolerance
  Energy initial, next-to-last, final = 
     -1152449.43945052  -1152449.44095844  -1152449.44095844
  Force two-norm initial, final = 0.18092588 9.2177190e-05
  Force max component initial, final = 0.082557669 1.7704282e-05
  Final line search alpha, max atom move = 1.0000000 1.7704282e-05
  Iterations, force evaluations = 140 280

MPI task timing breakdown:
Section |  min time  |  avg time  |  max time  |%varavg| %total
---------------------------------------------------------------
Pair    | 0.42464    | 1.1769     | 1.5376     |  29.3 | 72.19
Neigh   | 0          | 0          | 0          |   0.0 |  0.00
Comm    | 0.025544   | 0.26594    | 0.79584    |  43.1 | 16.31
Output  | 0          | 0          | 0          |   0.0 |  0.00
Modify  | 1.7543e-05 | 0.002317   | 0.0050051  |   2.3 |  0.14
Other   |            | 0.1851     |            |       | 11.36

Nlocal:        2776.45 ave        3961 max           0 min
Histogram: 8 4 4 0 6 10 8 2 28 34
Nghost:        3879.03 ave        5424 max         232 min
Histogram: 8 0 8 0 16 0 8 8 16 40
Neighs:        79213.5 ave      115464 max           0 min
Histogram: 8 4 4 0 10 6 8 8 24 32

Total # of neighbors = 8238201
Ave neighs/atom = 28.530467
Neighbor list builds = 0
Dangerous builds = 0
The dot product: -2.63677927343174e-08
Setting atom values ...
  1 settings made for x
  1 settings made for y
  1 settings made for z
Setting up cg style minimization ...
  Unit style    : metal
  Current step  : 684
Per MPI rank memory allocation (min/avg/max) = 5.441 | 5.816 | 6.074 Mbytes
Step PotEng KinEng TotEng v_fx v_fy v_fz 
     684   -1152449.4            0   -1152449.4 -0.018557151 0.0095960168 -0.063721694 
     856   -1152449.4            0   -1152449.4 -2.6465615e-06 2.3587871e-08 -5.4908695e-06 
Loop time of 2.02029 on 104 procs for 172 steps with 288751 atoms

99.9% CPU use with 104 MPI tasks x 1 OpenMP threads

Minimization stats:
  Stopping criterion = energy tolerance
  Energy initial, next-to-last, final = 
      -1152449.4334695  -1152449.43494439  -1152449.43494439
  Force two-norm initial, final = 0.17718356 1.5796716e-05
  Force max component initial, final = 0.083516435 5.4908695e-06
  Final line search alpha, max atom move = 1.0000000 5.4908695e-06
  Iterations, force evaluations = 172 344

MPI task timing breakdown:
Section |  min time  |  avg time  |  max time  |%varavg| %total
---------------------------------------------------------------
Pair    | 0.5204     | 1.4481     | 1.8908     |  32.6 | 71.68
Neigh   | 0          | 0          | 0          |   0.0 |  0.00
Comm    | 0.030367   | 0.32731    | 0.97746    |  47.9 | 16.20
Output  | 0          | 0          | 0          |   0.0 |  0.00
Modify  | 2.1553e-05 | 0.0028455  | 0.0061365  |   2.5 |  0.14
Other   |            | 0.242      |            |       | 11.98

Nlocal:        2776.45 ave        3960 max           0 min
Histogram: 8 4 4 0 4 12 8 2 28 34
Nghost:        3879.03 ave        5424 max         232 min
Histogram: 8 0 8 0 16 0 8 8 16 40
Neighs:        79213.5 ave      115432 max           0 min
Histogram: 8 4 4 0 10 6 8 8 24 32

Total # of neighbors = 8238202
Ave neighs/atom = 28.530471
Neighbor list builds = 0
Dangerous builds = 0
The dot product: 2.7706724491912e-08
Setting atom values ...
  1 settings made for x
  1 settings made for y
  1 settings made for z
Setting up cg style minimization ...
  Unit style    : metal
  Current step  : 856
[...]
Histogram: 8 0 8 0 16 0 8 8 16 40
Neighs:        79213.2 ave      115430 max           0 min
Histogram: 8 4 4 0 10 6 8 8 24 32

Total # of neighbors = 8238174
Ave neighs/atom = 28.530374
Neighbor list builds = 0
Dangerous builds = 0
The dot product: -4.67863135293023e-08
Setting atom values ...
  1 settings made for x
  1 settings made for y
  1 settings made for z
Setting up cg style minimization ...
  Unit style    : metal
  Current step  : 27792
Per MPI rank memory allocation (min/avg/max) = 5.441 | 5.816 | 6.074 Mbytes
Step PotEng KinEng TotEng v_fx v_fy v_fz 
   27792   -1152449.1            0   -1152449.1 0.0067155905 -0.0028209066 0.0096198822 
   27960   -1152449.1            0   -1152449.1 7.9652935e-06 4.601018e-06 1.142334e-05 
Loop time of 1.97586 on 104 procs for 168 steps with 288751 atoms

99.9% CPU use with 104 MPI tasks x 1 OpenMP threads

Minimization stats:
  Stopping criterion = energy tolerance
  Energy initial, next-to-last, final = 
     -1152449.10618866  -1152449.10754858  -1152449.10754858
  Force two-norm initial, final = 0.16201349 0.00014431458
  Force max component initial, final = 0.076818654 1.1423340e-05
  Final line search alpha, max atom move = 1.0000000 1.1423340e-05
  Iterations, force evaluations = 168 336

MPI task timing breakdown:
Section |  min time  |  avg time  |  max time  |%varavg| %total
---------------------------------------------------------------
Pair    | 0.51007    | 1.4109     | 1.8513     |  32.1 | 71.41
Neigh   | 0          | 0          | 0          |   0.0 |  0.00
Comm    | 0.030301   | 0.32239    | 0.95305    |  46.9 | 16.32
Output  | 0          | 0          | 0          |   0.0 |  0.00
Modify  | 2.0639e-05 | 0.0027811  | 0.0059315  |   2.5 |  0.14
Other   |            | 0.2398     |            |       | 12.13

Nlocal:        2776.45 ave        3960 max           0 min
Histogram: 8 4 4 0 4 12 8 6 24 34
Nghost:        3879.11 ave        5427 max         232 min
Histogram: 8 0 8 0 16 0 8 8 16 40
Neighs:        79213.2 ave      115423 max           0 min
Histogram: 8 4 4 0 10 6 8 8 24 32

Total # of neighbors = 8238172
Ave neighs/atom = 28.530367
Neighbor list builds = 0
Dangerous builds = 0
The dot product: 8.9624111356256e-09
Setting atom values ...
  1 settings made for x
  1 settings made for y
  1 settings made for z
Setting up cg style minimization ...
  Unit style    : metal
  Current step  : 27960
Per MPI rank memory allocation (min/avg/max) = 5.441 | 5.816 | 6.074 Mbytes
Step PotEng KinEng TotEng v_fx v_fy v_fz 
   27960   -1152449.1            0   -1152449.1  0.005826354 -0.0021201088 0.0083555307 
   28000   -1152449.1            0   -1152449.1 -0.00018817397 -0.00026923378 -0.0002700991 
   28109   -1152449.1            0   -1152449.1 1.4117031e-06 1.5081518e-05 2.0356064e-06 
Loop time of 1.76148 on 104 procs for 149 steps with 288751 atoms

99.9% CPU use with 104 MPI tasks x 1 OpenMP threads

Minimization stats:
  Stopping criterion = energy tolerance
  Energy initial, next-to-last, final = 
     -1152449.08636324  -1152449.08776119  -1152449.08776119
  Force two-norm initial, final = 0.16179622 0.00023846031
  Force max component initial, final = 0.077188551 2.3174082e-05
  Final line search alpha, max atom move = 1.0000000 2.3174082e-05
  Iterations, force evaluations = 149 298

MPI task timing breakdown:
Section |  min time  |  avg time  |  max time  |%varavg| %total
---------------------------------------------------------------
Pair    | 0.45313    | 1.256      | 1.6528     |  30.4 | 71.30
Neigh   | 0          | 0          | 0          |   0.0 |  0.00
Comm    | 0.026447   | 0.2911     | 0.85505    |  44.0 | 16.53
Output  | 0.000143   | 0.00015277 | 0.00027016 |   0.0 |  0.01
Modify  | 1.8356e-05 | 0.002467   | 0.0052905  |   2.3 |  0.14
Other   |            | 0.2118     |            |       | 12.02

Nlocal:        2776.45 ave        3960 max           0 min
Histogram: 8 4 4 0 4 12 8 6 24 34
Nghost:        3879.14 ave        5427 max         232 min
Histogram: 8 0 8 0 16 0 8 8 16 40
Neighs:        79213.2 ave      115423 max           0 min
Histogram: 8 4 4 0 10 6 8 8 24 32

Total # of neighbors = 8238172
Ave neighs/atom = 28.530367
Neighbor list builds = 0
Dangerous builds = 0
The dot product: -2.59977291202913e-08
Setting atom values ...
  1 settings made for x
  1 settings made for y
  1 settings made for z
Setting up cg style minimization ...
  Unit style    : metal
  Current step  : 28109
Per MPI rank memory allocation (min/avg/max) = 5.441 | 5.816 | 6.074 Mbytes
Step PotEng KinEng TotEng v_fx v_fy v_fz 
   28109   -1152449.1            0   -1152449.1  0.005069655 -0.0015396328 0.0072781482 
   28290   -1152449.1            0   -1152449.1 -1.653894e-05 -4.3956805e-06 -2.3740525e-05 
Loop time of 2.12327 on 104 procs for 181 steps with 288751 atoms

99.9% CPU use with 104 MPI tasks x 1 OpenMP threads

Minimization stats:
  Stopping criterion = energy tolerance
  Energy initial, next-to-last, final = 
     -1152449.06553066  -1152449.06691563  -1152449.06691563
  Force two-norm initial, final = 0.16182733 0.00010462981
  Force max component initial, final = 0.077548169 2.3740525e-05
  Final line search alpha, max atom move = 1.0000000 2.3740525e-05
  Iterations, force evaluations = 181 362

MPI task timing breakdown:
Section |  min time  |  avg time  |  max time  |%varavg| %total
---------------------------------------------------------------
Pair    | 0.54934    | 1.5197     | 2.0032     |  33.4 | 71.57
Neigh   | 0          | 0          | 0          |   0.0 |  0.00
Comm    | 0.031785   | 0.3483     | 1.027      |  48.4 | 16.40
Output  | 0          | 0          | 0          |   0.0 |  0.00
Modify  | 2.2285e-05 | 0.0029874  | 0.0064008  |   2.6 |  0.14
Other   |            | 0.2523     |            |       | 11.88

Nlocal:        2776.45 ave        3960 max           0 min
Histogram: 8 4 4 0 4 12 8 6 24 34
Nghost:        3879.14 ave        5427 max         232 min
Histogram: 8 0 8 0 16 0 8 8 16 40
Neighs:        79213.2 ave      115423 max           0 min
Histogram: 8 4 4 0 10 6 8 8 24 32

Total # of neighbors = 8238171
Ave neighs/atom = 28.530364
Neighbor list builds = 0
Dangerous builds = 0
The dot product: -2.26601023497282e-08
Setting atom values ...
  1 settings made for x
  1 settings made for y
  1 settings made for z
Setting up cg style minimization ...
  Unit style    : metal
  Current step  : 28290
Per MPI rank memory allocation (min/avg/max) = 5.441 | 5.816 | 6.074 Mbytes
Step PotEng KinEng TotEng v_fx v_fy v_fz 
   28290     -1152449            0     -1152449 0.0042612685 -0.0011400431 0.0061228672 
   28473     -1152449            0     -1152449 -1.3343115e-05 -8.0428445e-06 -1.9157382e-05 
Loop time of 2.14634 on 104 procs for 183 steps with 288751 atoms

99.9% CPU use with 104 MPI tasks x 1 OpenMP threads

Minimization stats:
  Stopping criterion = energy tolerance
  Energy initial, next-to-last, final = 
       -1152449.043531  -1152449.04488317  -1152449.04488317
  Force two-norm initial, final = 0.16193429 0.00010477703
  Force max component initial, final = 0.077819322 1.9157382e-05
  Final line search alpha, max atom move = 1.0000000 1.9157382e-05
  Iterations, force evaluations = 183 366

MPI task timing breakdown:
Section |  min time  |  avg time  |  max time  |%varavg| %total
---------------------------------------------------------------
Pair    | 0.55385    | 1.5429     | 2.0193     |  33.7 | 71.88
Neigh   | 0          | 0          | 0          |   0.0 |  0.00
Comm    | 0.031754   | 0.35645    | 1.063      |  49.2 | 16.61
Output  | 0          | 0          | 0          |   0.0 |  0.00
Modify  | 2.2268e-05 | 0.0030254  | 0.0064499  |   2.6 |  0.14
Other   |            | 0.244      |            |       | 11.37

Nlocal:        2776.45 ave        3960 max           0 min
Histogram: 8 4 4 0 4 12 8 6 24 34
Nghost:        3879.18 ave        5427 max         232 min
Histogram: 8 0 8 0 16 0 8 8 16 40
Neighs:        79213.2 ave      115423 max           0 min
Histogram: 8 4 4 0 10 6 8 8 24 32

Total # of neighbors = 8238170
Ave neighs/atom = 28.530360
Neighbor list builds = 0
Dangerous builds = 0
The dot product: -8.19190155299513e-09
Setting atom values ...
  1 settings made for x
  1 settings made for y
  1 settings made for z
Setting up cg style minimization ...
  Unit style    : metal
  Current step  : 28473
Per MPI rank memory allocation (min/avg/max) = 5.441 | 5.816 | 6.074 Mbytes
Step PotEng KinEng TotEng v_fx v_fy v_fz 
   28473     -1152449            0     -1152449 0.0034331578 -0.0010373297 0.0049367421 
   28673     -1152449            0     -1152449 8.1160416e-06 1.4635407e-05 1.1635131e-05 
Loop time of 2.34868 on 104 procs for 200 steps with 288751 atoms

99.9% CPU use with 104 MPI tasks x 1 OpenMP threads

Minimization stats:
  Stopping criterion = energy tolerance
  Energy initial, next-to-last, final = 
     -1152449.02022492  -1152449.02155686  -1152449.02155686
  Force two-norm initial, final = 0.16218948 7.8119426e-05
  Force max component initial, final = 0.07806282 1.7637127e-05
  Final line search alpha, max atom move = 1.0000000 1.7637127e-05
  Iterations, force evaluations = 200 400

MPI task timing breakdown:
Section |  min time  |  avg time  |  max time  |%varavg| %total
---------------------------------------------------------------
Pair    | 0.61106    | 1.6796     | 2.2164     |  35.0 | 71.51
Neigh   | 0          | 0          | 0          |   0.0 |  0.00
Comm    | 0.035236   | 0.38403    | 1.1349     |  50.8 | 16.35
Output  | 0          | 0          | 0          |   0.0 |  0.00
Modify  | 2.4443e-05 | 0.0033005  | 0.007056   |   2.7 |  0.14
Other   |            | 0.2817     |            |       | 11.99

Nlocal:        2776.45 ave        3960 max           0 min
Histogram: 8 4 4 0 4 12 8 6 24 34
Nghost:        3879.18 ave        5427 max         232 min
Histogram: 8 0 8 0 16 0 8 8 16 40
Neighs:        79213.2 ave      115423 max           0 min
Histogram: 8 4 4 0 10 6 8 8 24 32

Total # of neighbors = 8238171
Ave neighs/atom = 28.530364
Neighbor list builds = 0
Dangerous builds = 0
The dot product: -1.03091606802665e-08
Setting atom values ...
  1 settings made for x
  1 settings made for y
  1 settings made for z
Setting up cg style minimization ...
  Unit style    : metal
  Current step  : 28673
Per MPI rank memory allocation (min/avg/max) = 5.441 | 5.816 | 6.074 Mbytes
Step PotEng KinEng TotEng v_fx v_fy v_fz 
   28673     -1152449            0     -1152449 0.0025630861 -0.0012128973 0.0036889912 
   28858     -1152449            0     -1152449 -8.8496636e-06 -5.4450971e-06 -1.2710175e-05 
Loop time of 2.16265 on 104 procs for 185 steps with 288751 atoms

99.9% CPU use with 104 MPI tasks x 1 OpenMP threads

Minimization stats:
  Stopping criterion = energy tolerance
  Energy initial, next-to-last, final = 
     -1152448.99552399  -1152448.99683774  -1152448.99683774
  Force two-norm initial, final = 0.1626375 0.00011546736
  Force max component initial, final = 0.078273401 2.3376591e-05
  Final line search alpha, max atom move = 1.0000000 2.3376591e-05
  Iterations, force evaluations = 185 370

MPI task timing breakdown:
Section |  min time  |  avg time  |  max time  |%varavg| %total
---------------------------------------------------------------
Pair    | 0.56006    | 1.5571     | 2.0383     |  33.8 | 72.00
Neigh   | 0          | 0          | 0          |   0.0 |  0.00
Comm    | 0.032109   | 0.35644    | 1.0563     |  49.6 | 16.48
Output  | 0          | 0          | 0          |   0.0 |  0.00
Modify  | 2.2706e-05 | 0.0030622  | 0.006542   |   2.6 |  0.14
Other   |            | 0.246      |            |       | 11.38

Nlocal:        2776.45 ave        3960 max           0 min
Histogram: 8 4 4 0 4 12 8 6 24 34
Nghost:        3879.20 ave        5427 max         232 min
Histogram: 8 0 8 0 16 0 8 8 16 40
Neighs:        79213.2 ave      115423 max           0 min
Histogram: 8 4 4 0 10 6 8 8 24 32

Total # of neighbors = 8238173
Ave neighs/atom = 28.530370
Neighbor list builds = 0
Dangerous builds = 0
The dot product: 1.23114924963872e-09
Setting atom values ...
  1 settings made for x
  1 settings made for y
  1 settings made for z
Setting up cg style minimization ...
  Unit style    : metal
  Current step  : 28858
Per MPI rank memory allocation (min/avg/max) = 5.441 | 5.816 | 6.074 Mbytes
Step PotEng KinEng TotEng v_fx v_fy v_fz 
   28858     -1152449            0     -1152449  0.001627017 -0.0016422482 0.0023458955 
   29000     -1152449            0     -1152449 -1.2921339e-05 2.9021485e-06 -1.8595027e-05 
   29046     -1152449            0     -1152449 1.8129321e-05 2.7264181e-05 2.5980237e-05 
Loop time of 2.19858 on 104 procs for 188 steps with 288751 atoms

99.9% CPU use with 104 MPI tasks x 1 OpenMP threads

Minimization stats:
  Stopping criterion = energy tolerance
  Energy initial, next-to-last, final = 
     -1152448.96932691  -1152448.97062665  -1152448.97062665
  Force two-norm initial, final = 0.16331637 0.00011232955
  Force max component initial, final = 0.078498047 2.7264181e-05
  Final line search alpha, max atom move = 1.0000000 2.7264181e-05
  Iterations, force evaluations = 188 376

MPI task timing breakdown:
Section |  min time  |  avg time  |  max time  |%varavg| %total
---------------------------------------------------------------
Pair    | 0.57201    | 1.5821     | 2.0662     |  34.0 | 71.96
Neigh   | 0          | 0          | 0          |   0.0 |  0.00
Comm    | 0.034294   | 0.36049    | 1.0831     |  50.4 | 16.40
Output  | 0.00017489 | 0.00018358 | 0.00037329 |   0.0 |  0.01
Modify  | 2.3097e-05 | 0.0031104  | 0.0066258  |   2.6 |  0.14
Other   |            | 0.2527     |            |       | 11.49

Nlocal:        2776.45 ave        3960 max           0 min
Histogram: 8 4 4 0 4 12 8 6 24 34
Nghost:        3879.22 ave        5427 max         232 min
Histogram: 8 0 8 0 16 0 8 8 16 40
Neighs:        79213.2 ave      115422 max           0 min
Histogram: 8 4 4 0 10 6 8 8 24 32

Total # of neighbors = 8238171
Ave neighs/atom = 28.530364
Neighbor list builds = 0
Dangerous builds = 0
The dot product: -3.32570799350558e-08
Setting atom values ...
  1 settings made for x
  1 settings made for y
  1 settings made for z
Setting up cg style minimization ...
  Unit style    : metal
  Current step  : 29046
Per MPI rank memory allocation (min/avg/max) = 5.441 | 5.816 | 6.074 Mbytes
Step PotEng KinEng TotEng v_fx v_fy v_fz 
   29046   -1152448.9            0   -1152448.9 0.00078668378 -0.0020873473  0.001140295 
   29274   -1152448.9            0   -1152448.9 -2.3832893e-06 -1.727218e-06 -3.4208217e-06 
Loop time of 2.66296 on 104 procs for 228 steps with 288751 atoms

99.9% CPU use with 104 MPI tasks x 1 OpenMP threads

Minimization stats:
  Stopping criterion = energy tolerance
  Energy initial, next-to-last, final = 
     -1152448.94154406  -1152448.94283803  -1152448.94283803
  Force two-norm initial, final = 0.16418311 2.3445337e-05
  Force max component initial, final = 0.078642883 4.3353125e-06
  Final line search alpha, max atom move = 1.0000000 4.3353125e-06
  Iterations, force evaluations = 228 456

MPI task timing breakdown:
Section |  min time  |  avg time  |  max time  |%varavg| %total
---------------------------------------------------------------
Pair    | 0.69016    | 1.9194     | 2.5061     |  37.7 | 72.08
Neigh   | 0          | 0          | 0          |   0.0 |  0.00
Comm    | 0.039692   | 0.44142    | 1.3226     |  55.2 | 16.58
Output  | 0          | 0          | 0          |   0.0 |  0.00
Modify  | 2.7596e-05 | 0.0037698  | 0.0080188  |   2.9 |  0.14
Other   |            | 0.2983     |            |       | 11.20

Nlocal:        2776.45 ave        3960 max           0 min
Histogram: 8 4 4 0 4 12 8 6 24 34
Nghost:        3879.17 ave        5426 max         232 min
Histogram: 8 0 8 0 16 0 8 8 16 40
Neighs:        79213.2 ave      115421 max           0 min
Histogram: 8 4 4 0 10 6 8 8 24 32

Total # of neighbors = 8238172
Ave neighs/atom = 28.530367
Neighbor list builds = 0
Dangerous builds = 0
The dot product: 2.97914257501314e-09
Setting atom values ...
  1 settings made for x
  1 settings made for y
  1 settings made for z
Setting up cg style minimization ...
  Unit style    : metal
  Current step  : 29274
Per MPI rank memory allocation (min/avg/max) = 5.441 | 5.816 | 6.074 Mbytes
Step PotEng KinEng TotEng v_fx v_fy v_fz 
   29274   -1152448.9            0   -1152448.9 5.4310654e-05 -0.0024593789 9.0136613e-05 
   29445   -1152448.9            0   -1152448.9 2.9359432e-06 8.1258283e-06 4.1827866e-06 
Loop time of 2.00386 on 104 procs for 171 steps with 288751 atoms

99.9% CPU use with 104 MPI tasks x 1 OpenMP threads

Minimization stats:
  Stopping criterion = energy tolerance
  Energy initial, next-to-last, final = 
     -1152448.91210559   -1152448.9133993   -1152448.9133993
  Force two-norm initial, final = 0.16524093 0.00022018967
  Force max component initial, final = 0.07878874 1.2858370e-05
  Final line search alpha, max atom move = 1.0000000 1.2858370e-05
  Iterations, force evaluations = 171 342

MPI task timing breakdown:
Section |  min time  |  avg time  |  max time  |%varavg| %total
---------------------------------------------------------------
Pair    | 0.51965    | 1.4368     | 1.8896     |  32.4 | 71.70
Neigh   | 0          | 0          | 0          |   0.0 |  0.00
Comm    | 0.031167   | 0.32829    | 0.97008    |  47.3 | 16.38
Output  | 0          | 0          | 0          |   0.0 |  0.00
Modify  | 2.3214e-05 | 0.0028276  | 0.0060287  |   2.5 |  0.14
Other   |            | 0.2359     |            |       | 11.77

Nlocal:        2776.45 ave        3960 max           0 min
Histogram: 8 4 4 0 4 12 8 6 24 34
Nghost:        3879.08 ave        5426 max         232 min
Histogram: 8 0 8 0 16 0 8 8 16 40
Neighs:        79213.2 ave      115413 max           0 min
Histogram: 8 4 4 0 10 6 8 8 24 32

Total # of neighbors = 8238170
Ave neighs/atom = 28.530360
Neighbor list builds = 0
Dangerous builds = 0
The dot product: -1.23742446547339e-08
Setting atom values ...
  1 settings made for x
  1 settings made for y
  1 settings made for z
Setting up cg style minimization ...
  Unit style    : metal
  Current step  : 29445
Per MPI rank memory allocation (min/avg/max) = 5.441 | 5.816 | 6.074 Mbytes
Step PotEng KinEng TotEng v_fx v_fy v_fz 
   29445   -1152448.9            0   -1152448.9 -0.00040653977 -0.0024685643 -0.00057077817 
   29625   -1152448.9            0   -1152448.9 -2.2869264e-06 1.7036435e-05 -3.3836351e-06 
Loop time of 2.11499 on 104 procs for 180 steps with 288751 atoms

99.9% CPU use with 104 MPI tasks x 1 OpenMP threads

Minimization stats:
  Stopping criterion = energy tolerance
  Energy initial, next-to-last, final = 
     -1152448.88095215  -1152448.88224857  -1152448.88224857
  Force two-norm initial, final = 0.16640613 0.00016228503
  Force max component initial, final = 0.078928794 1.7036435e-05
  Final line search alpha, max atom move = 1.0000000 1.7036435e-05
  Iterations, force evaluations = 180 360

MPI task timing breakdown:
Section |  min time  |  avg time  |  max time  |%varavg| %total
---------------------------------------------------------------
Pair    | 0.54532    | 1.5171     | 1.9954     |  33.5 | 71.73
Neigh   | 0          | 0          | 0          |   0.0 |  0.00
Comm    | 0.031068   | 0.35094    | 1.0338     |  48.6 | 16.59
Output  | 0          | 0          | 0          |   0.0 |  0.00
Modify  | 2.1923e-05 | 0.0029768  | 0.0063735  |   2.6 |  0.14
Other   |            | 0.244      |            |       | 11.54

Nlocal:        2776.45 ave        3960 max           0 min
Histogram: 8 4 4 0 4 12 8 6 24 34
Nghost:        3879.05 ave        5426 max         232 min
Histogram: 8 0 8 0 16 0 8 8 16 40
Neighs:        79213.2 ave      115413 max           0 min
Histogram: 8 4 4 0 10 6 8 8 24 32

Total # of neighbors = 8238169
Ave neighs/atom = 28.530357
Neighbor list builds = 0
Dangerous builds = 0
The dot product: -2.03812769494122e-08
