LAMMPS (29 Oct 2020)
OMP_NUM_THREADS environment is not set. Defaulting to 1 thread. (../comm.cpp:94)
  using 1 OpenMP thread(s) per MPI task
OMP_NUM_THREADS environment is not set. Defaulting to 1 thread. (../comm.cpp:94)
  using 1 OpenMP thread(s) per MPI task
Reading data file ...
  orthogonal box = (-122.39241 -121.13707 -37.090501) to (122.39241 121.13707 37.090501)
  13 by 8 by 2 MPI processor grid
  reading atoms ...
  288751 atoms
  read_data CPU = 0.380 seconds
199981 atoms in group inner
88770 atoms in group outer
1 atoms in group carbon
Neighbor list info ...
  update every 1 steps, delay 0 steps, check yes
  max neighbors/atom: 2000, page size: 100000
  master list distance cutoff = 5.6
  ghost atom cutoff = 5.6
  binsize = 2.8, bins = 88 87 27
  1 neighbor lists, perpetual/occasional/extra = 1 0 0
  (1) pair eam/alloy, perpetual
      attributes: half, newton on
      pair build: half/bin/atomonly/newton
      stencil: half/bin/3d/newton
      bin: standard
Setting up cg style minimization ...
  Unit style    : metal
  Current step  : 0
Per MPI rank memory allocation (min/avg/max) = 5.425 | 5.522 | 5.555 Mbytes
Step v_fx v_fy v_fz PotEng KinEng TotEng 
       0    0.4804174   -29.782659   -50.006174   -1152433.4            0   -1152433.4 
     187 -5.8861972e-06 1.0342213e-05 -6.8833382e-06   -1152449.5            0   -1152449.5 
Loop time of 1.22951 on 208 procs for 187 steps with 288751 atoms

99.8% CPU use with 208 MPI tasks x 1 OpenMP threads

Minimization stats:
  Stopping criterion = energy tolerance
  Energy initial, next-to-last, final = 
     -1152433.44638747  -1152449.45035275  -1152449.45035275
  Force two-norm initial, final = 87.270834 4.5062598e-05
  Force max component initial, final = 57.161222 1.0714893e-05
  Final line search alpha, max atom move = 1.0000000 1.0714893e-05
  Iterations, force evaluations = 187 366

MPI task timing breakdown:
Section |  min time  |  avg time  |  max time  |%varavg| %total
---------------------------------------------------------------
Pair    | 5.3777e-05 | 0.82147    | 1.0954     |  29.9 | 66.81
Neigh   | 2.6671e-05 | 0.0092585  | 0.014032   |   4.5 |  0.75
Comm    | 0.0011057  | 0.16616    | 0.69097    |  37.3 | 13.51
Output  | 0          | 0          | 0          |   0.0 |  0.00
Modify  | 1.7183e-05 | 0.00097886 | 0.0027019  |   0.0 |  0.08
Other   |            | 0.2316     |            |       | 18.84

Nlocal:        1388.23 ave        2041 max           0 min
Histogram: 28 4 0 16 8 0 8 12 96 36
Nghost:        2437.42 ave        3379 max           0 min
Histogram: 24 0 8 8 16 4 12 4 30 102
Neighs:        39606.8 ave       59805 max           0 min
Histogram: 28 4 4 14 6 2 10 8 106 26

Total # of neighbors = 8238207
Ave neighs/atom = 28.530488
Neighbor list builds = 6
Dangerous builds = 1
Setting atom values ...
  1 settings made for x
  1 settings made for y
  1 settings made for z
Setting up cg style minimization ...
  Unit style    : metal
  Current step  : 187
Per MPI rank memory allocation (min/avg/max) = 5.425 | 5.522 | 5.555 Mbytes
Step PotEng KinEng TotEng v_fx v_fy v_fz 
     187   -1152449.4            0   -1152449.4  0.019854825  0.010645286 -0.022138212 
     370   -1152449.5            0   -1152449.5 -1.0114591e-06 1.5596876e-06 2.925933e-06 
Loop time of 1.2397 on 208 procs for 183 steps with 288751 atoms

99.9% CPU use with 208 MPI tasks x 1 OpenMP threads

Minimization stats:
  Stopping criterion = energy tolerance
  Energy initial, next-to-last, final = 
     -1152449.44954603  -1152449.45010978  -1152449.45010978
  Force two-norm initial, final = 0.11492059 5.9474974e-05
  Force max component initial, final = 0.051185001 5.1840860e-06
  Final line search alpha, max atom move = 1.0000000 5.1840860e-06
  Iterations, force evaluations = 183 366

MPI task timing breakdown:
Section |  min time  |  avg time  |  max time  |%varavg| %total
---------------------------------------------------------------
Pair    | 5.0806e-05 | 0.82184    | 1.104      |  30.5 | 66.29
Neigh   | 0          | 0          | 0          |   0.0 |  0.00
Comm    | 5.5721e-05 | 0.16677    | 0.69858    |  37.5 | 13.45
Output  | 0          | 0          | 0          |   0.0 |  0.00
Modify  | 1.6392e-05 | 0.0015113  | 0.0033759  |   2.2 |  0.12
Other   |            | 0.2496     |            |       | 20.13

Nlocal:        1388.23 ave        2041 max           0 min
Histogram: 28 4 0 16 8 0 8 12 96 36
Nghost:        2437.42 ave        3379 max           0 min
Histogram: 24 0 8 8 16 4 12 4 30 102
Neighs:        39606.7 ave       59807 max           0 min
Histogram: 28 4 4 14 6 2 10 8 106 26

Total # of neighbors = 8238197
Ave neighs/atom = 28.530454
Neighbor list builds = 0
Dangerous builds = 0
Setting atom values ...
  1 settings made for x
  1 settings made for y
  1 settings made for z
Setting up cg style minimization ...
  Unit style    : metal
  Current step  : 370
Per MPI rank memory allocation (min/avg/max) = 5.425 | 5.522 | 5.555 Mbytes
Step PotEng KinEng TotEng v_fx v_fy v_fz 
     370   -1152449.4            0   -1152449.4  0.032222878  0.026199826 -0.046564707 
     534   -1152449.4            0   -1152449.4 7.6488867e-06 3.093193e-06 -1.4459307e-05 
Loop time of 1.0746 on 208 procs for 164 steps with 288751 atoms

99.9% CPU use with 208 MPI tasks x 1 OpenMP threads

Minimization stats:
  Stopping criterion = energy tolerance
  Energy initial, next-to-last, final = 
     -1152449.44678282  -1152449.44853548  -1152449.44853548
  Force two-norm initial, final = 0.20366253 0.00020334914
  Force max component initial, final = 0.088286102 1.7402101e-05
  Final line search alpha, max atom move = 1.0000000 1.7402101e-05
  Iterations, force evaluations = 164 328

MPI task timing breakdown:
Section |  min time  |  avg time  |  max time  |%varavg| %total
---------------------------------------------------------------
Pair    | 4.4478e-05 | 0.73132    | 0.9836     |  28.7 | 68.06
Neigh   | 0          | 0          | 0          |   0.0 |  0.00
Comm    | 4.9382e-05 | 0.14468    | 0.61228    |  35.9 | 13.46
Output  | 0          | 0          | 0          |   0.0 |  0.00
Modify  | 1.4701e-05 | 0.0013534  | 0.0030215  |   2.1 |  0.13
Other   |            | 0.1972     |            |       | 18.36

Nlocal:        1388.23 ave        2041 max           0 min
Histogram: 28 4 0 16 8 0 8 12 96 36
Nghost:        2437.42 ave        3379 max           0 min
Histogram: 24 0 8 8 16 4 12 4 30 102
Neighs:        39606.7 ave       59807 max           0 min
Histogram: 28 4 4 14 6 2 10 8 106 26

Total # of neighbors = 8238200
Ave neighs/atom = 28.530464
Neighbor list builds = 0
Dangerous builds = 0
The dot product: 1.97808762562857e-06
Setting atom values ...
  1 settings made for x
  1 settings made for y
  1 settings made for z
Setting up cg style minimization ...
  Unit style    : metal
  Current step  : 534
Per MPI rank memory allocation (min/avg/max) = 5.425 | 5.522 | 5.555 Mbytes
Step PotEng KinEng TotEng v_fx v_fy v_fz 
     534   -1152449.4            0   -1152449.4  0.027006629  0.031511874 -0.048656927 
     650   -1152449.4            0   -1152449.4 -4.1971309e-06 -2.6109865e-05 -2.2930019e-05 
Loop time of 0.774069 on 208 procs for 116 steps with 288751 atoms

99.9% CPU use with 208 MPI tasks x 1 OpenMP threads

Minimization stats:
  Stopping criterion = energy tolerance
  Energy initial, next-to-last, final = 
     -1152449.44385135  -1152449.44552361  -1152449.44552361
  Force two-norm initial, final = 0.1983487 0.00018764041
  Force max component initial, final = 0.082559482 3.1865670e-05
  Final line search alpha, max atom move = 1.0000000 3.1865670e-05
  Iterations, force evaluations = 116 232

MPI task timing breakdown:
Section |  min time  |  avg time  |  max time  |%varavg| %total
---------------------------------------------------------------
Pair    | 3.3256e-05 | 0.52098    | 0.7013     |  24.3 | 67.30
Neigh   | 0          | 0          | 0          |   0.0 |  0.00
Comm    | 3.8548e-05 | 0.10498    | 0.44257    |  30.2 | 13.56
Output  | 0          | 0          | 0          |   0.0 |  0.00
Modify  | 1.3754e-05 | 0.00096002 | 0.0021603  |   0.0 |  0.12
Other   |            | 0.1471     |            |       | 19.01

Nlocal:        1388.23 ave        2041 max           0 min
Histogram: 28 4 0 16 8 0 8 12 96 36
Nghost:        2437.42 ave        3379 max           0 min
Histogram: 24 0 8 8 16 4 12 4 30 102
Neighs:        39606.7 ave       59807 max           0 min
Histogram: 28 4 4 14 6 2 10 8 106 26

Total # of neighbors = 8238201
Ave neighs/atom = 28.530467
Neighbor list builds = 0
Dangerous builds = 0
The dot product: 9.87304808576571e-07
Setting atom values ...
  1 settings made for x
  1 settings made for y
  1 settings made for z
Setting up cg style minimization ...
  Unit style    : metal
  Current step  : 650
Per MPI rank memory allocation (min/avg/max) = 5.425 | 5.522 | 5.555 Mbytes
Step PotEng KinEng TotEng v_fx v_fy v_fz 
     650   -1152449.4            0   -1152449.4  0.022040273  0.034462781  -0.04592379 
     764   -1152449.4            0   -1152449.4 5.1171006e-06 -1.0486044e-05 -4.574402e-05 
Loop time of 0.748955 on 208 procs for 114 steps with 288751 atoms

99.9% CPU use with 208 MPI tasks x 1 OpenMP threads

Minimization stats:
  Stopping criterion = energy tolerance
  Energy initial, next-to-last, final = 
     -1152449.43942558  -1152449.44103307  -1152449.44103307
  Force two-norm initial, final = 0.19321355 0.00018604939
  Force max component initial, final = 0.077661454 4.5744020e-05
  Final line search alpha, max atom move = 1.0000000 4.5744020e-05
  Iterations, force evaluations = 114 228

MPI task timing breakdown:
Section |  min time  |  avg time  |  max time  |%varavg| %total
---------------------------------------------------------------
Pair    | 3.1489e-05 | 0.50825    | 0.68233    |  23.9 | 67.86
Neigh   | 0          | 0          | 0          |   0.0 |  0.00
Comm    | 3.4924e-05 | 0.10164    | 0.42471    |  29.7 | 13.57
Output  | 0          | 0          | 0          |   0.0 |  0.00
Modify  | 1.0468e-05 | 0.00094195 | 0.0021246  |   0.0 |  0.13
Other   |            | 0.1381     |            |       | 18.44

Nlocal:        1388.23 ave        2041 max           0 min
Histogram: 28 4 0 16 8 0 8 12 96 36
Nghost:        2437.42 ave        3379 max           0 min
Histogram: 24 0 8 8 16 4 12 4 30 102
Neighs:        39606.7 ave       59807 max           0 min
Histogram: 28 4 4 14 6 2 10 8 106 26

Total # of neighbors = 8238202
Ave neighs/atom = 28.530471
Neighbor list builds = 0
Dangerous builds = 0
The dot product: 2.1941961753473e-06
Setting atom values ...
  1 settings made for x
  1 settings made for y
  1 settings made for z
Setting up cg style minimization ...
  Unit style    : metal
  Current step  : 764
Per MPI rank memory allocation (min/avg/max) = 5.425 | 5.522 | 5.555 Mbytes
Step PotEng KinEng TotEng v_fx v_fy v_fz 
     764   -1152449.4            0   -1152449.4  0.018606798  0.036443118 -0.042235323 
     904   -1152449.4            0   -1152449.4 -1.2050397e-06 -7.3797704e-06 -9.7040377e-06 
Loop time of 0.916188 on 208 procs for 140 steps with 288751 atoms

99.9% CPU use with 208 MPI tasks x 1 OpenMP threads

Minimization stats:
  Stopping criterion = energy tolerance
  Energy initial, next-to-last, final = 
     -1152449.43346239  -1152449.43502082  -1152449.43502082
  Force two-norm initial, final = 0.18909099 5.4206162e-05
  Force max component initial, final = 0.073789816 1.0490118e-05
  Final line search alpha, max atom move = 1.0000000 1.0490118e-05
  Iterations, force evaluations = 140 280

MPI task timing breakdown:
Section |  min time  |  avg time  |  max time  |%varavg| %total
---------------------------------------------------------------
Pair    | 3.7994e-05 | 0.62564    | 0.84312    |  26.7 | 68.29
Neigh   | 0          | 0          | 0          |   0.0 |  0.00
Comm    | 4.2148e-05 | 0.12441    | 0.52811    |  33.2 | 13.58
Output  | 0          | 0          | 0          |   0.0 |  0.00
Modify  | 1.2595e-05 | 0.0011537  | 0.0025934  |   2.0 |  0.13
Other   |            | 0.165      |            |       | 18.01

Nlocal:        1388.23 ave        2041 max           0 min
Histogram: 28 4 0 16 8 0 8 12 96 36
Nghost:        2437.42 ave        3379 max           0 min
Histogram: 24 0 8 8 16 4 12 4 30 102
Neighs:        39606.7 ave       59807 max           0 min
Histogram: 28 4 4 14 6 2 10 8 106 26

Total # of neighbors = 8238202
Ave neighs/atom = 28.530471
Neighbor list builds = 0
Dangerous builds = 0
The dot product: 1.96335753827677e-07
Setting atom values ...
  1 settings made for x
  1 settings made for y
  1 settings made for z
Setting up cg style minimization ...
  Unit style    : metal
  Current step  : 904
Per MPI rank memory allocation (min/avg/max) = 5.425 | 5.522 | 5.555 Mbytes
Step PotEng KinEng TotEng v_fx v_fy v_fz 
     904   -1152449.4            0   -1152449.4  0.016496788  0.038425127 -0.039322937 
    1000   -1152449.4            0   -1152449.4 2.8793346e-05 6.0061098e-05 -9.1024159e-05 
    1037   -1152449.4            0   -1152449.4 -6.1537433e-06 -1.5100146e-05 1.2218649e-05 
Loop time of 0.877764 on 208 procs for 133 steps with 288751 atoms

99.9% CPU use with 208 MPI tasks x 1 OpenMP threads

Minimization stats:
  Stopping criterion = energy tolerance
  Energy initial, next-to-last, final = 
     -1152449.42593365  -1152449.42745592  -1152449.42745592
  Force two-norm initial, final = 0.18599767 9.4978625e-05
  Force max component initial, final = 0.070693753 1.9785535e-05
  Final line search alpha, max atom move = 1.0000000 1.9785535e-05
  Iterations, force evaluations = 133 266

MPI task timing breakdown:
Section |  min time  |  avg time  |  max time  |%varavg| %total
---------------------------------------------------------------
Pair    | 3.6251e-05 | 0.59302    | 0.79672    |  25.9 | 67.56
Neigh   | 0          | 0          | 0          |   0.0 |  0.00
Comm    | 4.1103e-05 | 0.11816    | 0.49667    |  32.1 | 13.46
Output  | 0.00012663 | 0.00012907 | 0.00020061 |   0.0 |  0.01
Modify  | 1.1874e-05 | 0.0011017  | 0.0024795  |   1.9 |  0.13
Other   |            | 0.1653     |            |       | 18.84

Nlocal:        1388.23 ave        2041 max           0 min
Histogram: 28 4 0 16 8 0 8 12 96 36
Nghost:        2437.42 ave        3379 max           0 min
Histogram: 24 0 8 8 16 4 12 4 30 102
Neighs:        39606.7 ave       59807 max           0 min
Histogram: 28 4 4 14 6 2 10 8 106 26

Total # of neighbors = 8238201
Ave neighs/atom = 28.530467
Neighbor list builds = 0
Dangerous builds = 0
The dot product: -6.15906504663179e-07
Setting atom values ...
  1 settings made for x
  1 settings made for y
  1 settings made for z
Setting up cg style minimization ...
  Unit style    : metal
  Current step  : 1037
Per MPI rank memory allocation (min/avg/max) = 5.425 | 5.522 | 5.555 Mbytes
Step PotEng KinEng TotEng v_fx v_fy v_fz 
    1037   -1152449.4            0   -1152449.4  0.015315533  0.041026834 -0.037912493 
    1159   -1152449.4            0   -1152449.4 -5.7845067e-06 -2.1875612e-05 -1.189484e-05 
Loop time of 0.825681 on 208 procs for 122 steps with 288751 atoms

99.9% CPU use with 208 MPI tasks x 1 OpenMP threads

Minimization stats:
  Stopping criterion = energy tolerance
  Energy initial, next-to-last, final = 
     -1152449.41682441  -1152449.41832117  -1152449.41832117
  Force two-norm initial, final = 0.18379011 0.00015902517
  Force max component initial, final = 0.067978462 3.1841706e-05
  Final line search alpha, max atom move = 1.0000000 3.1841706e-05
  Iterations, force evaluations = 122 244

MPI task timing breakdown:
Section |  min time  |  avg time  |  max time  |%varavg| %total
---------------------------------------------------------------
Pair    | 3.3492e-05 | 0.54994    | 0.73741    |  24.9 | 66.60
Neigh   | 0          | 0          | 0          |   0.0 |  0.00
Comm    | 3.7105e-05 | 0.11157    | 0.46156    |  30.5 | 13.51
Output  | 0          | 0          | 0          |   0.0 |  0.00
Modify  | 1.1313e-05 | 0.0010096  | 0.0022551  |   1.8 |  0.12
Other   |            | 0.1632     |            |       | 19.76

Nlocal:        1388.23 ave        2041 max           0 min
Histogram: 28 4 0 16 8 0 8 12 96 36
Nghost:        2437.42 ave        3379 max           0 min
Histogram: 24 0 8 8 16 4 12 4 30 102
Neighs:        39606.8 ave       59807 max           0 min
Histogram: 28 4 4 14 6 2 10 8 106 26

Total # of neighbors = 8238204
Ave neighs/atom = 28.530478
Neighbor list builds = 0
Dangerous builds = 0
The dot product: -1.80391762587498e-07
Setting atom values ...
  1 settings made for x
  1 settings made for y
  1 settings made for z
Setting up cg style minimization ...
  Unit style    : metal
  Current step  : 1159
Per MPI rank memory allocation (min/avg/max) = 5.425 | 5.522 | 5.555 Mbytes
Step PotEng KinEng TotEng v_fx v_fy v_fz 
    1159   -1152449.4            0   -1152449.4  0.014688982  0.044572501 -0.038223606 
    1349   -1152449.4            0   -1152449.4 1.7426127e-06 4.3146243e-06 -9.7972667e-06 
Loop time of 1.24607 on 208 procs for 190 steps with 288751 atoms

99.9% CPU use with 208 MPI tasks x 1 OpenMP threads

Minimization stats:
  Stopping criterion = energy tolerance
  Energy initial, next-to-last, final = 
     -1152449.40613478  -1152449.40761544  -1152449.40761544
  Force two-norm initial, final = 0.18238449 6.0394107e-05
  Force max component initial, final = 0.065388624 1.0501603e-05
  Final line search alpha, max atom move = 1.0000000 1.0501603e-05
  Iterations, force evaluations = 190 380

MPI task timing breakdown:
Section |  min time  |  avg time  |  max time  |%varavg| %total
---------------------------------------------------------------
Pair    | 5.2141e-05 | 0.84612    | 1.1378     |  30.9 | 67.90
Neigh   | 0          | 0          | 0          |   0.0 |  0.00
Comm    | 5.8986e-05 | 0.16696    | 0.70714    |  38.7 | 13.40
Output  | 0          | 0          | 0          |   0.0 |  0.00
Modify  | 1.7121e-05 | 0.0015677  | 0.0034921  |   2.3 |  0.13
Other   |            | 0.2314     |            |       | 18.57

Nlocal:        1388.23 ave        2041 max           0 min
Histogram: 28 4 0 16 8 0 8 12 96 36
Nghost:        2437.42 ave        3379 max           0 min
Histogram: 24 0 8 8 16 4 12 4 30 102
Neighs:        39606.7 ave       59807 max           0 min
Histogram: 28 4 4 14 6 2 10 8 106 26

Total # of neighbors = 8238200
Ave neighs/atom = 28.530464
Neighbor list builds = 0
Dangerous builds = 0
The dot product: 2.73623743249524e-07
Setting atom values ...
  1 settings made for x
  1 settings made for y
  1 settings made for z
Setting up cg style minimization ...
  Unit style    : metal
  Current step  : 1349
Per MPI rank memory allocation (min/avg/max) = 5.425 | 5.522 | 5.555 Mbytes
Step PotEng KinEng TotEng v_fx v_fy v_fz 
    1349   -1152449.4            0   -1152449.4  0.014342452  0.049517292 -0.040355304 
    1496   -1152449.4            0   -1152449.4 -2.4082389e-06 -6.8180227e-06 1.8528385e-05 
Loop time of 0.970242 on 208 procs for 147 steps with 288751 atoms

99.9% CPU use with 208 MPI tasks x 1 OpenMP threads

Minimization stats:
  Stopping criterion = energy tolerance
  Energy initial, next-to-last, final = 
     -1152449.39388289  -1152449.39536049  -1152449.39536049
  Force two-norm initial, final = 0.18179716 8.8253579e-05
  Force max component initial, final = 0.062505478 1.8528385e-05
  Final line search alpha, max atom move = 1.0000000 1.8528385e-05
  Iterations, force evaluations = 147 294

MPI task timing breakdown:
Section |  min time  |  avg time  |  max time  |%varavg| %total
---------------------------------------------------------------
Pair    | 4.1224e-05 | 0.6611     | 0.88842    |  27.4 | 68.14
Neigh   | 0          | 0          | 0          |   0.0 |  0.00
Comm    | 4.4381e-05 | 0.13257    | 0.5657     |  34.2 | 13.66
Output  | 0          | 0          | 0          |   0.0 |  0.00
Modify  | 1.3868e-05 | 0.0012106  | 0.0026903  |   2.0 |  0.12
Other   |            | 0.1754     |            |       | 18.07

Nlocal:        1388.23 ave        2041 max           0 min
Histogram: 28 4 0 16 8 0 8 12 96 36
Nghost:        2437.42 ave        3379 max           0 min
Histogram: 24 0 8 8 16 4 12 4 30 102
Neighs:        39606.7 ave       59807 max           0 min
Histogram: 28 4 4 14 6 2 10 8 106 26

Total # of neighbors = 8238198
Ave neighs/atom = 28.530457
Neighbor list builds = 0
Dangerous builds = 0
The dot product: -5.20526329685579e-07
Setting atom values ...
  1 settings made for x
  1 settings made for y
  1 settings made for z
Setting up cg style minimization ...
  Unit style    : metal
  Current step  : 1496
Per MPI rank memory allocation (min/avg/max) = 5.425 | 5.522 | 5.555 Mbytes
Step PotEng KinEng TotEng v_fx v_fy v_fz 
    1496   -1152449.4            0   -1152449.4  0.014183841  0.057254755  -0.04547758 
    1624   -1152449.4            0   -1152449.4 8.1094867e-06 3.4211965e-05 -1.1332054e-06 
Loop time of 0.857079 on 208 procs for 128 steps with 288751 atoms

99.9% CPU use with 208 MPI tasks x 1 OpenMP threads

Minimization stats:
  Stopping criterion = energy tolerance
  Energy initial, next-to-last, final = 
     -1152449.38012192  -1152449.38163619  -1152449.38163619
  Force two-norm initial, final = 0.18275491 0.00018178885
  Force max component initial, final = 0.059350711 3.7230682e-05
  Final line search alpha, max atom move = 1.0000000 3.7230682e-05
  Iterations, force evaluations = 128 256

MPI task timing breakdown:
Section |  min time  |  avg time  |  max time  |%varavg| %total
---------------------------------------------------------------
Pair    | 3.5102e-05 | 0.57191    | 0.76663    |  25.4 | 66.73
Neigh   | 0          | 0          | 0          |   0.0 |  0.00
Comm    | 3.935e-05  | 0.11392    | 0.47976    |  31.7 | 13.29
Output  | 0          | 0          | 0          |   0.0 |  0.00
Modify  | 1.1284e-05 | 0.0010562  | 0.0023619  |   1.9 |  0.12
Other   |            | 0.1702     |            |       | 19.86

Nlocal:        1388.23 ave        2041 max           0 min
Histogram: 28 4 0 16 8 0 8 12 97 35
Nghost:        2437.42 ave        3379 max           0 min
Histogram: 24 0 8 8 16 4 12 4 30 102
Neighs:        39606.7 ave       59797 max           0 min
Histogram: 28 4 4 14 6 2 10 8 106 26

Total # of neighbors = 8238197
Ave neighs/atom = 28.530454
Neighbor list builds = 0
Dangerous builds = 0
The dot product: 1.21797078958637e-06
Setting atom values ...
  1 settings made for x
  1 settings made for y
  1 settings made for z
Setting up cg style minimization ...
  Unit style    : metal
  Current step  : 1624
Per MPI rank memory allocation (min/avg/max) = 5.425 | 5.522 | 5.555 Mbytes
Step PotEng KinEng TotEng v_fx v_fy v_fz 
    1624   -1152449.4            0   -1152449.4  0.013934232  0.072676564 -0.058821065 
    1786   -1152449.4            0   -1152449.4 2.7754898e-08 1.4296787e-06 -2.2425254e-05 
Loop time of 1.08909 on 208 procs for 162 steps with 288751 atoms

99.9% CPU use with 208 MPI tasks x 1 OpenMP threads

Minimization stats:
  Stopping criterion = energy tolerance
  Energy initial, next-to-last, final = 
     -1152449.36505666  -1152449.36702991  -1152449.36702991
  Force two-norm initial, final = 0.18918327 0.00016809551
  Force max component initial, final = 0.072676564 2.7522312e-05
  Final line search alpha, max atom move = 1.0000000 2.7522312e-05
  Iterations, force evaluations = 162 324

MPI task timing breakdown:
Section |  min time  |  avg time  |  max time  |%varavg| %total
---------------------------------------------------------------
Pair    | 4.4421e-05 | 0.72661    | 0.97422    |  28.7 | 66.72
Neigh   | 0          | 0          | 0          |   0.0 |  0.00
Comm    | 4.7998e-05 | 0.14791    | 0.611      |  35.2 | 13.58
Output  | 0          | 0          | 0          |   0.0 |  0.00
Modify  | 1.5236e-05 | 0.0013346  | 0.0029731  |   2.1 |  0.12
Other   |            | 0.2132     |            |       | 19.58

Nlocal:        1388.23 ave        2041 max           0 min
Histogram: 28 4 0 16 8 0 8 12 97 35
Nghost:        2437.42 ave        3379 max           0 min
Histogram: 24 0 8 8 16 4 12 4 30 102
Neighs:        39606.7 ave       59795 max           0 min
Histogram: 28 4 4 14 6 2 10 8 106 26

Total # of neighbors = 8238193
Ave neighs/atom = 28.530440
Neighbor list builds = 0
Dangerous builds = 0
The dot product: 2.0384933683982e-06
Setting atom values ...
  1 settings made for x
  1 settings made for y
  1 settings made for z
Setting up cg style minimization ...
  Unit style    : metal
  Current step  : 1786
Per MPI rank memory allocation (min/avg/max) = 5.425 | 5.522 | 5.555 Mbytes
Step PotEng KinEng TotEng v_fx v_fy v_fz 
    1786   -1152449.4            0   -1152449.4 0.0024567314   0.13055756  -0.11079611 
    2000   -1152449.4            0   -1152449.4 -2.0936844e-06 7.9544477e-06 -2.987795e-05 
    2015   -1152449.4            0   -1152449.4 1.4367329e-06 6.0161492e-06 8.5390783e-06 
Loop time of 1.53737 on 208 procs for 229 steps with 288751 atoms

99.9% CPU use with 208 MPI tasks x 1 OpenMP threads

Minimization stats:
  Stopping criterion = energy tolerance
  Energy initial, next-to-last, final = 
     -1152449.35064405  -1152449.35795581  -1152449.35795581
  Force two-norm initial, final = 0.23273387 5.6066000e-05
  Force max component initial, final = 0.13055756 1.2658770e-05
  Final line search alpha, max atom move = 1.0000000 1.2658770e-05
  Iterations, force evaluations = 229 458

MPI task timing breakdown:
Section |  min time  |  avg time  |  max time  |%varavg| %total
---------------------------------------------------------------
Pair    | 6.2823e-05 | 1.0192     | 1.366      |  33.8 | 66.30
Neigh   | 4.5255e-06 | 0.0015602  | 0.0023185  |   1.9 |  0.10
Comm    | 0.0001767  | 0.20516    | 0.87254    |  42.0 | 13.35
Output  | 9.9012e-05 | 0.00010138 | 0.000189   |   0.0 |  0.01
Modify  | 2.0047e-05 | 0.001884   | 0.0042169  |   2.5 |  0.12
Other   |            | 0.3095     |            |       | 20.13

Nlocal:        1388.23 ave        2041 max           0 min
Histogram: 28 4 0 16 8 0 8 12 97 35
Nghost:        2437.42 ave        3379 max           0 min
Histogram: 24 0 8 8 16 4 12 4 30 102
Neighs:        39606.7 ave       59795 max           0 min
Histogram: 28 4 4 14 6 2 10 8 106 26

Total # of neighbors = 8238191
Ave neighs/atom = 28.530433
Neighbor list builds = 1
Dangerous builds = 0
The dot product: -4.50460366867664e-08
Setting atom values ...
  1 settings made for x
  1 settings made for y
  1 settings made for z
Setting up cg style minimization ...
  Unit style    : metal
  Current step  : 2015
Per MPI rank memory allocation (min/avg/max) = 5.425 | 5.522 | 5.555 Mbytes
Step PotEng KinEng TotEng v_fx v_fy v_fz 
    2015   -1152449.3            0   -1152449.3 -0.058507868   0.18292794  -0.11640108 
    2250   -1152449.4            0   -1152449.4 -4.2012978e-06 5.2289542e-06 -1.2503963e-05 
Loop time of 1.55454 on 208 procs for 235 steps with 288751 atoms

99.9% CPU use with 208 MPI tasks x 1 OpenMP threads

Minimization stats:
  Stopping criterion = energy tolerance
  Energy initial, next-to-last, final = 
     -1152449.34488694  -1152449.35151919  -1152449.35151919
  Force two-norm initial, final = 0.26492791 4.7919465e-05
  Force max component initial, final = 0.18292794 1.2503963e-05
  Final line search alpha, max atom move = 1.0000000 1.2503963e-05
  Iterations, force evaluations = 235 470

MPI task timing breakdown:
Section |  min time  |  avg time  |  max time  |%varavg| %total
---------------------------------------------------------------
Pair    | 6.3924e-05 | 1.0489     | 1.418      |  34.5 | 67.47
Neigh   | 0          | 0          | 0          |   0.0 |  0.00
Comm    | 7.0489e-05 | 0.21028    | 0.88753    |  42.7 | 13.53
Output  | 0          | 0          | 0          |   0.0 |  0.00
Modify  | 2.1155e-05 | 0.0019348  | 0.0043373  |   2.5 |  0.12
Other   |            | 0.2934     |            |       | 18.87

Nlocal:        1388.23 ave        2041 max           0 min
Histogram: 28 4 0 16 8 0 8 12 96 36
Nghost:        2437.42 ave        3379 max           0 min
Histogram: 24 0 8 8 16 4 12 4 30 102
Neighs:        39606.7 ave       59795 max           0 min
Histogram: 28 4 4 14 6 2 10 8 106 26

Total # of neighbors = 8238196
Ave neighs/atom = 28.530450
Neighbor list builds = 0
Dangerous builds = 0
The dot product: 2.26341089924884e-06
Setting atom values ...
  1 settings made for x
  1 settings made for y
  1 settings made for z
Setting up cg style minimization ...
  Unit style    : metal
  Current step  : 2250
Per MPI rank memory allocation (min/avg/max) = 5.425 | 5.522 | 5.555 Mbytes
Step PotEng KinEng TotEng v_fx v_fy v_fz 
    2250   -1152449.3            0   -1152449.3 -0.058377364    0.1062866 -0.056143848 
    2389   -1152449.3            0   -1152449.3 -2.2197342e-05 2.3912815e-05 -3.5366049e-05 
Loop time of 0.936721 on 208 procs for 139 steps with 288751 atoms

99.9% CPU use with 208 MPI tasks x 1 OpenMP threads

Minimization stats:
  Stopping criterion = energy tolerance
  Energy initial, next-to-last, final = 
     -1152449.33983535  -1152449.34337224  -1152449.34337224
  Force two-norm initial, final = 0.19149305 0.00013388891
  Force max component initial, final = 0.1062866 4.1651809e-05
  Final line search alpha, max atom move = 1.0000000 4.1651809e-05
  Iterations, force evaluations = 139 278

MPI task timing breakdown:
Section |  min time  |  avg time  |  max time  |%varavg| %total
---------------------------------------------------------------
Pair    | 3.8188e-05 | 0.622      | 0.8376     |  26.4 | 66.40
Neigh   | 0          | 0          | 0          |   0.0 |  0.00
Comm    | 4.227e-05  | 0.12527    | 0.52065    |  32.5 | 13.37
Output  | 0          | 0          | 0          |   0.0 |  0.00
Modify  | 1.2692e-05 | 0.0011499  | 0.0025661  |   2.0 |  0.12
Other   |            | 0.1883     |            |       | 20.10

Nlocal:        1388.23 ave        2040 max           0 min
Histogram: 28 4 0 16 8 0 8 12 96 36
Nghost:        2437.48 ave        3379 max           0 min
Histogram: 24 0 8 8 16 4 12 4 30 102
Neighs:        39606.7 ave       59772 max           0 min
Histogram: 28 4 4 14 6 2 10 8 104 28

Total # of neighbors = 8238202
Ave neighs/atom = 28.530471
Neighbor list builds = 0
Dangerous builds = 0
The dot product: 5.26297321868932e-06
Setting atom values ...
  1 settings made for x
  1 settings made for y
  1 settings made for z
Setting up cg style minimization ...
  Unit style    : metal
  Current step  : 2389
Per MPI rank memory allocation (min/avg/max) = 5.425 | 5.522 | 5.555 Mbytes
Step PotEng KinEng TotEng v_fx v_fy v_fz 
    2389   -1152449.3            0   -1152449.3 -0.036879891  0.041445035 -0.035962068 
    2639   -1152449.3            0   -1152449.3 -1.3481847e-05 1.294886e-05 -1.5173894e-05 
Loop time of 1.63734 on 208 procs for 250 steps with 288751 atoms

99.9% CPU use with 208 MPI tasks x 1 OpenMP threads

Minimization stats:
  Stopping criterion = energy tolerance
  Energy initial, next-to-last, final = 
     -1152449.33424817  -1152449.34567717  -1152449.34567717
  Force two-norm initial, final = 0.15987345 8.6044715e-05
  Force max component initial, final = 0.062488354 1.5173894e-05
  Final line search alpha, max atom move = 1.0000000 1.5173894e-05
  Iterations, force evaluations = 250 500

MPI task timing breakdown:
Section |  min time  |  avg time  |  max time  |%varavg| %total
---------------------------------------------------------------
Pair    | 6.8383e-05 | 1.1169     | 1.5026     |  35.5 | 68.21
Neigh   | 4.5393e-06 | 0.0015776  | 0.0023508  |   1.9 |  0.10
Comm    | 0.00018912 | 0.22179    | 0.94298    |  44.4 | 13.55
Output  | 0          | 0          | 0          |   0.0 |  0.00
Modify  | 2.2679e-05 | 0.0020554  | 0.004626   |   2.6 |  0.13
Other   |            | 0.295      |            |       | 18.02

Nlocal:        1388.23 ave        2040 max           0 min
Histogram: 28 4 0 16 8 0 8 12 96 36
Nghost:        2437.49 ave        3379 max           0 min
Histogram: 24 0 8 8 16 4 12 4 30 102
Neighs:        39606.7 ave       59772 max           0 min
Histogram: 28 4 4 14 6 2 10 8 104 28

Total # of neighbors = 8238202
Ave neighs/atom = 28.530471
Neighbor list builds = 1
Dangerous builds = 0
The dot product: 2.65628346494965e-06
Setting atom values ...
  1 settings made for x
  1 settings made for y
  1 settings made for z
Setting up cg style minimization ...
  Unit style    : metal
  Current step  : 2639
Per MPI rank memory allocation (min/avg/max) = 5.425 | 5.522 | 5.555 Mbytes
Step PotEng KinEng TotEng v_fx v_fy v_fz 
    2639   -1152449.3            0   -1152449.3  0.022722725 0.0038676717  0.036416139 
    2757   -1152449.3            0   -1152449.3 -2.1566627e-05 4.6433502e-06 -2.8250259e-05 
Loop time of 0.772305 on 208 procs for 118 steps with 288751 atoms

99.9% CPU use with 208 MPI tasks x 1 OpenMP threads

Minimization stats:
  Stopping criterion = energy tolerance
  Energy initial, next-to-last, final = 
     -1152449.34777617  -1152449.34876058  -1152449.34876058
  Force two-norm initial, final = 0.13142316 0.00010236918
  Force max component initial, final = 0.048253463 2.9572923e-05
  Final line search alpha, max atom move = 1.0000000 2.9572923e-05
  Iterations, force evaluations = 118 236

MPI task timing breakdown:
Section |  min time  |  avg time  |  max time  |%varavg| %total
---------------------------------------------------------------
Pair    | 3.2649e-05 | 0.52526    | 0.70824    |  24.3 | 68.01
Neigh   | 0          | 0          | 0          |   0.0 |  0.00
Comm    | 3.591e-05  | 0.10379    | 0.43947    |  30.4 | 13.44
Output  | 0          | 0          | 0          |   0.0 |  0.00
Modify  | 1.0627e-05 | 0.0009754  | 0.002179   |   0.0 |  0.13
Other   |            | 0.1423     |            |       | 18.42

Nlocal:        1388.23 ave        2040 max           0 min
Histogram: 28 4 0 16 8 0 8 12 96 36
Nghost:        2437.44 ave        3379 max           0 min
Histogram: 24 0 8 8 16 4 12 4 30 102
Neighs:        39606.7 ave       59784 max           0 min
Histogram: 28 4 4 14 6 2 10 8 106 26

Total # of neighbors = 8238191
Ave neighs/atom = 28.530433
Neighbor list builds = 0
Dangerous builds = 0
The dot product: -4.28210999235199e-07
Setting atom values ...
  1 settings made for x
  1 settings made for y
  1 settings made for z
Setting up cg style minimization ...
  Unit style    : metal
  Current step  : 2757
Per MPI rank memory allocation (min/avg/max) = 5.425 | 5.522 | 5.555 Mbytes
Step PotEng KinEng TotEng v_fx v_fy v_fz 
    2757   -1152449.3            0   -1152449.3 0.0090827262 0.0064960282  0.018775939 
    2936   -1152449.4            0   -1152449.4 6.8430185e-06 3.4759255e-06 1.3051422e-05 
Loop time of 1.17946 on 208 procs for 179 steps with 288751 atoms

99.9% CPU use with 208 MPI tasks x 1 OpenMP threads

Minimization stats:
  Stopping criterion = energy tolerance
  Energy initial, next-to-last, final = 
     -1152449.34988162  -1152449.35078555  -1152449.35078555
  Force two-norm initial, final = 0.12510951 0.00012891605
  Force max component initial, final = 0.047515018 1.3657249e-05
  Final line search alpha, max atom move = 1.0000000 1.3657249e-05
  Iterations, force evaluations = 179 358

MPI task timing breakdown:
Section |  min time  |  avg time  |  max time  |%varavg| %total
---------------------------------------------------------------
Pair    | 4.894e-05  | 0.80201    | 1.0785     |  30.2 | 68.00
Neigh   | 0          | 0          | 0          |   0.0 |  0.00
Comm    | 5.3904e-05 | 0.16052    | 0.68229    |  37.6 | 13.61
Output  | 0          | 0          | 0          |   0.0 |  0.00
Modify  | 1.6377e-05 | 0.001474   | 0.0033146  |   2.2 |  0.12
Other   |            | 0.2155     |            |       | 18.27

Nlocal:        1388.23 ave        2040 max           0 min
Histogram: 28 4 0 16 8 0 8 12 96 36
Nghost:        2437.44 ave        3379 max           0 min
Histogram: 24 0 8 8 16 4 12 4 30 102
Neighs:        39606.7 ave       59784 max           0 min
Histogram: 28 4 4 14 6 2 10 8 106 26

Total # of neighbors = 8238193
Ave neighs/atom = 28.530440
Neighbor list builds = 0
Dangerous builds = 0
The dot product: 7.10587018705094e-09
Setting atom values ...
  1 settings made for x
  1 settings made for y
  1 settings made for z
Setting up cg style minimization ...
  Unit style    : metal
  Current step  : 2936
Per MPI rank memory allocation (min/avg/max) = 5.425 | 5.522 | 5.555 Mbytes
Step PotEng KinEng TotEng v_fx v_fy v_fz 
    2936   -1152449.4            0   -1152449.4  0.010046542 0.0065095465  0.020270031 
    3000   -1152449.4            0   -1152449.4 0.0003359389 -0.000220619 0.00033871163 
    3162   -1152449.4            0   -1152449.4 -2.0420443e-06 1.8611786e-06 -1.6565051e-06 
Loop time of 1.49228 on 208 procs for 226 steps with 288751 atoms

99.9% CPU use with 208 MPI tasks x 1 OpenMP threads

Minimization stats:
  Stopping criterion = energy tolerance
  Energy initial, next-to-last, final = 
     -1152449.35066612  -1152449.35156739  -1152449.35156739
  Force two-norm initial, final = 0.1255565 2.4095331e-05
  Force max component initial, final = 0.046958082 2.0834846e-06
  Final line search alpha, max atom move = 1.0000000 2.0834846e-06
  Iterations, force evaluations = 226 452

MPI task timing breakdown:
Section |  min time  |  avg time  |  max time  |%varavg| %total
---------------------------------------------------------------
Pair    | 6.1929e-05 | 1.0061     | 1.3554     |  33.7 | 67.42
Neigh   | 0          | 0          | 0          |   0.0 |  0.00
Comm    | 6.8516e-05 | 0.19845    | 0.84196    |  42.3 | 13.30
Output  | 0.0001042  | 0.00010593 | 0.00018096 |   0.0 |  0.01
Modify  | 1.9911e-05 | 0.0018576  | 0.0041709  |   2.5 |  0.12
Other   |            | 0.2857     |            |       | 19.15

Nlocal:        1388.23 ave        2040 max           0 min
Histogram: 28 4 0 16 8 0 8 12 96 36
Nghost:        2437.44 ave        3379 max           0 min
Histogram: 24 0 8 8 16 4 12 4 30 102
Neighs:        39606.7 ave       59784 max           0 min
Histogram: 28 4 4 14 6 2 10 8 106 26

Total # of neighbors = 8238189
Ave neighs/atom = 28.530426
Neighbor list builds = 0
Dangerous builds = 0
The dot product: -1.32481423192483e-09
Setting atom values ...
  1 settings made for x
  1 settings made for y
  1 settings made for z
Setting up cg style minimization ...
  Unit style    : metal
  Current step  : 3162
Per MPI rank memory allocation (min/avg/max) = 5.425 | 5.522 | 5.555 Mbytes
Step PotEng KinEng TotEng v_fx v_fy v_fz 
    3162   -1152449.4            0   -1152449.4 0.0093042412 0.0065594714   0.01924533 
    3351   -1152449.4            0   -1152449.4 -1.3332663e-05 1.0317635e-05 -1.2257694e-05 
Loop time of 1.24621 on 208 procs for 189 steps with 288751 atoms

99.9% CPU use with 208 MPI tasks x 1 OpenMP threads

Minimization stats:
  Stopping criterion = energy tolerance
  Energy initial, next-to-last, final = 
     -1152449.35013029   -1152449.3510234   -1152449.3510234
  Force two-norm initial, final = 0.12499538 0.00010289568
  Force max component initial, final = 0.046342816 2.6601773e-05
  Final line search alpha, max atom move = 1.0000000 2.6601773e-05
  Iterations, force evaluations = 189 378

MPI task timing breakdown:
Section |  min time  |  avg time  |  max time  |%varavg| %total
---------------------------------------------------------------
Pair    | 5.1695e-05 | 0.8472     | 1.1423     |  31.1 | 67.98
Neigh   | 0          | 0          | 0          |   0.0 |  0.00
Comm    | 5.6884e-05 | 0.16907    | 0.72075    |  38.7 | 13.57
Output  | 0          | 0          | 0          |   0.0 |  0.00
Modify  | 1.7823e-05 | 0.001555   | 0.0035449  |   2.3 |  0.12
Other   |            | 0.2284     |            |       | 18.33

Nlocal:        1388.23 ave        2041 max           0 min
Histogram: 28 4 0 16 8 0 8 12 96 36
Nghost:        2437.44 ave        3379 max           0 min
Histogram: 24 0 8 8 16 4 12 4 30 102
Neighs:        39606.7 ave       59815 max           0 min
Histogram: 28 4 4 14 6 2 10 8 106 26

Total # of neighbors = 8238191
Ave neighs/atom = 28.530433
Neighbor list builds = 0
Dangerous builds = 0
The dot product: -8.97440538506758e-09
Setting atom values ...
  1 settings made for x
  1 settings made for y
  1 settings made for z
Setting up cg style minimization ...
  Unit style    : metal
  Current step  : 3351
Per MPI rank memory allocation (min/avg/max) = 5.425 | 5.522 | 5.555 Mbytes
Step PotEng KinEng TotEng v_fx v_fy v_fz 
    3351   -1152449.3            0   -1152449.3  0.008348181 0.0064126795  0.017733275 
    3533   -1152449.3            0   -1152449.3 -1.2907182e-05 -1.4050796e-06 -2.0776025e-05 
Loop time of 1.20649 on 208 procs for 182 steps with 288751 atoms

99.9% CPU use with 208 MPI tasks x 1 OpenMP threads

Minimization stats:
  Stopping criterion = energy tolerance
  Energy initial, next-to-last, final = 
     -1152449.34824749  -1152449.34912799  -1152449.34912799
  Force two-norm initial, final = 0.12404479 0.00013325413
  Force max component initial, final = 0.045703371 3.5808192e-05
  Final line search alpha, max atom move = 1.0000000 3.5808192e-05
  Iterations, force evaluations = 182 364

MPI task timing breakdown:
Section |  min time  |  avg time  |  max time  |%varavg| %total
---------------------------------------------------------------
Pair    | 4.9722e-05 | 0.81248    | 1.0924     |  30.3 | 67.34
Neigh   | 0          | 0          | 0          |   0.0 |  0.00
Comm    | 5.4981e-05 | 0.1622     | 0.68143    |  38.0 | 13.44
Output  | 0          | 0          | 0          |   0.0 |  0.00
Modify  | 1.6293e-05 | 0.0014986  | 0.0033587  |   2.2 |  0.12
Other   |            | 0.2303     |            |       | 19.09

Nlocal:        1388.23 ave        2041 max           0 min
Histogram: 28 4 0 16 8 0 8 12 96 36
Nghost:        2437.46 ave        3379 max           0 min
Histogram: 24 0 8 8 16 4 12 4 30 102
Neighs:        39606.7 ave       59805 max           0 min
Histogram: 28 4 4 14 6 2 10 8 106 26

Total # of neighbors = 8238191
Ave neighs/atom = 28.530433
Neighbor list builds = 0
Dangerous builds = 0
The dot product: -2.41012982243186e-08
Setting atom values ...
  1 settings made for x
  1 settings made for y
  1 settings made for z
Setting up cg style minimization ...
  Unit style    : metal
  Current step  : 3533
Per MPI rank memory allocation (min/avg/max) = 5.425 | 5.522 | 5.555 Mbytes
Step PotEng KinEng TotEng v_fx v_fy v_fz 
    3533   -1152449.3            0   -1152449.3 0.0074062699 0.0059804658   0.01600412 
    3740   -1152449.3            0   -1152449.3 -1.3816205e-05 5.9950341e-06 -1.6413317e-05 
Loop time of 1.357 on 208 procs for 207 steps with 288751 atoms

99.9% CPU use with 208 MPI tasks x 1 OpenMP threads

Minimization stats:
  Stopping criterion = energy tolerance
  Energy initial, next-to-last, final = 
     -1152449.34500877  -1152449.34587506  -1152449.34587506
  Force two-norm initial, final = 0.1230466 6.6005017e-05
  Force max component initial, final = 0.044973074 1.6413317e-05
  Final line search alpha, max atom move = 1.0000000 1.6413317e-05
  Iterations, force evaluations = 207 414

MPI task timing breakdown:
Section |  min time  |  avg time  |  max time  |%varavg| %total
---------------------------------------------------------------
Pair    | 5.6501e-05 | 0.92343    | 1.2444     |  32.4 | 68.05
Neigh   | 0          | 0          | 0          |   0.0 |  0.00
Comm    | 6.243e-05  | 0.18308    | 0.77444    |  40.2 | 13.49
Output  | 0          | 0          | 0          |   0.0 |  0.00
Modify  | 1.8892e-05 | 0.0017031  | 0.0038259  |   2.4 |  0.13
Other   |            | 0.2488     |            |       | 18.33

Nlocal:        1388.23 ave        2041 max           0 min
Histogram: 28 4 0 16 8 0 8 12 96 36
Nghost:        2437.48 ave        3379 max           0 min
Histogram: 24 0 8 8 16 4 12 4 30 102
Neighs:        39606.7 ave       59805 max           0 min
Histogram: 28 4 4 14 6 2 10 8 106 26

Total # of neighbors = 8238190
Ave neighs/atom = 28.530429
Neighbor list builds = 0
Dangerous builds = 0
The dot product: -1.03678068311937e-08
Setting atom values ...
  1 settings made for x
  1 settings made for y
  1 settings made for z
Setting up cg style minimization ...
  Unit style    : metal
  Current step  : 3740
Per MPI rank memory allocation (min/avg/max) = 5.425 | 5.522 | 5.555 Mbytes
Step PotEng KinEng TotEng v_fx v_fy v_fz 
    3740   -1152449.3            0   -1152449.3 0.0066216423 0.0052812213  0.014289915 
    3922   -1152449.3            0   -1152449.3 -2.3810564e-05 1.1053284e-06 -3.5578728e-05 
Loop time of 1.18513 on 208 procs for 182 steps with 288751 atoms

99.9% CPU use with 208 MPI tasks x 1 OpenMP threads

Minimization stats:
  Stopping criterion = energy tolerance
  Energy initial, next-to-last, final = 
     -1152449.34040402  -1152449.34125835  -1152449.34125835
  Force two-norm initial, final = 0.12230013 0.00012964993
  Force max component initial, final = 0.044304503 3.5578728e-05
  Final line search alpha, max atom move = 1.0000000 3.5578728e-05
  Iterations, force evaluations = 182 364

MPI task timing breakdown:
Section |  min time  |  avg time  |  max time  |%varavg| %total
---------------------------------------------------------------
Pair    | 5.0465e-05 | 0.80967    | 1.0908     |  30.2 | 68.32
Neigh   | 0          | 0          | 0          |   0.0 |  0.00
Comm    | 5.4901e-05 | 0.1594     | 0.67648    |  37.8 | 13.45
Output  | 0          | 0          | 0          |   0.0 |  0.00
Modify  | 1.6172e-05 | 0.0014989  | 0.0033592  |   2.2 |  0.13
Other   |            | 0.2146     |            |       | 18.10

Nlocal:        1388.23 ave        2041 max           0 min
Histogram: 28 4 0 16 8 0 8 12 96 36
Nghost:        2437.48 ave        3379 max           0 min
Histogram: 24 0 8 8 16 4 12 4 30 102
Neighs:        39606.7 ave       59805 max           0 min
Histogram: 28 4 4 14 6 2 10 8 106 26

Total # of neighbors = 8238190
Ave neighs/atom = 28.530429
Neighbor list builds = 0
Dangerous builds = 0
The dot product: -2.77209907825778e-08
Setting atom values ...
  1 settings made for x
  1 settings made for y
  1 settings made for z
Setting up cg style minimization ...
  Unit style    : metal
  Current step  : 3922
Per MPI rank memory allocation (min/avg/max) = 5.425 | 5.522 | 5.555 Mbytes
Step PotEng KinEng TotEng v_fx v_fy v_fz 
    3922   -1152449.3            0   -1152449.3  0.006054136 0.0042677544  0.012649126 
    4000   -1152449.3            0   -1152449.3 -0.00013495905 6.4069687e-05 -0.00015637007 
    4109   -1152449.3            0   -1152449.3 1.8171843e-05 -7.879639e-06 2.1644238e-05 
Loop time of 1.22771 on 208 procs for 187 steps with 288751 atoms

99.9% CPU use with 208 MPI tasks x 1 OpenMP threads

Minimization stats:
  Stopping criterion = energy tolerance
  Energy initial, next-to-last, final = 
     -1152449.33441811  -1152449.33526597  -1152449.33526597
  Force two-norm initial, final = 0.12189892 0.00010281713
  Force max component initial, final = 0.044158099 2.1644238e-05
  Final line search alpha, max atom move = 1.0000000 2.1644238e-05
  Iterations, force evaluations = 187 374

MPI task timing breakdown:
Section |  min time  |  avg time  |  max time  |%varavg| %total
---------------------------------------------------------------
Pair    | 5.1369e-05 | 0.83481    | 1.126      |  30.8 | 68.00
Neigh   | 0          | 0          | 0          |   0.0 |  0.00
Comm    | 5.5988e-05 | 0.16702    | 0.70544    |  38.2 | 13.60
Output  | 0.00011782 | 0.00012679 | 0.00020221 |   0.0 |  0.01
Modify  | 1.6805e-05 | 0.0015382  | 0.0034581  |   2.3 |  0.13
Other   |            | 0.2242     |            |       | 18.26

Nlocal:        1388.23 ave        2040 max           0 min
Histogram: 28 4 0 16 8 0 8 12 96 36
Nghost:        2437.47 ave        3379 max           0 min
Histogram: 24 0 8 8 16 4 12 4 30 102
Neighs:        39606.7 ave       59774 max           0 min
Histogram: 28 4 4 14 6 2 10 8 104 28

Total # of neighbors = 8238192
Ave neighs/atom = 28.530436
Neighbor list builds = 0
Dangerous builds = 0
The dot product: 1.13468390041966e-08
Setting atom values ...
  1 settings made for x
  1 settings made for y
  1 settings made for z
Setting up cg style minimization ...
  Unit style    : metal
  Current step  : 4109
Per MPI rank memory allocation (min/avg/max) = 5.425 | 5.522 | 5.555 Mbytes
Step PotEng KinEng TotEng v_fx v_fy v_fz 
    4109   -1152449.3            0   -1152449.3   0.00579097 0.0029406301  0.011215941 
    4279   -1152449.3            0   -1152449.3 2.8294435e-05 -7.6085733e-06 3.7421805e-05 
Loop time of 1.12877 on 208 procs for 170 steps with 288751 atoms

99.9% CPU use with 208 MPI tasks x 1 OpenMP threads

Minimization stats:
  Stopping criterion = energy tolerance
  Energy initial, next-to-last, final = 
     -1152449.32703028  -1152449.32787686  -1152449.32787686
  Force two-norm initial, final = 0.12190042 0.00019677327
  Force max component initial, final = 0.043986645 3.7421805e-05
  Final line search alpha, max atom move = 1.0000000 3.7421805e-05
  Iterations, force evaluations = 170 340

MPI task timing breakdown:
Section |  min time  |  avg time  |  max time  |%varavg| %total
---------------------------------------------------------------
Pair    | 4.7007e-05 | 0.75775    | 1.0224     |  29.2 | 67.13
Neigh   | 0          | 0          | 0          |   0.0 |  0.00
Comm    | 5.4887e-05 | 0.1512     | 0.63484    |  36.2 | 13.39
Output  | 0          | 0          | 0          |   0.0 |  0.00
Modify  | 1.541e-05  | 0.0014025  | 0.0031496  |   2.2 |  0.12
Other   |            | 0.2184     |            |       | 19.35

Nlocal:        1388.23 ave        2040 max           0 min
Histogram: 28 4 0 16 8 0 8 12 96 36
Nghost:        2437.46 ave        3379 max           0 min
Histogram: 24 0 8 8 16 4 12 4 30 102
Neighs:        39606.7 ave       59772 max           0 min
Histogram: 28 4 4 14 6 2 10 8 104 28

Total # of neighbors = 8238189
Ave neighs/atom = 28.530426
Neighbor list builds = 0
Dangerous builds = 0
The dot product: 2.26296296498913e-08
Setting atom values ...
  1 settings made for x
  1 settings made for y
  1 settings made for z
Setting up cg style minimization ...
  Unit style    : metal
  Current step  : 4279
Per MPI rank memory allocation (min/avg/max) = 5.425 | 5.522 | 5.555 Mbytes
Step PotEng KinEng TotEng v_fx v_fy v_fz 
    4279   -1152449.3            0   -1152449.3 0.0057906122 0.0013437627  0.009965791 
    4456   -1152449.3            0   -1152449.3 -4.3340605e-06 1.0485413e-05 1.6437539e-06 
Loop time of 1.18567 on 208 procs for 177 steps with 288751 atoms

99.9% CPU use with 208 MPI tasks x 1 OpenMP threads

Minimization stats:
  Stopping criterion = energy tolerance
  Energy initial, next-to-last, final = 
     -1152449.31820979  -1152449.31906106  -1152449.31906106
  Force two-norm initial, final = 0.12223861 0.00014447582
  Force max component initial, final = 0.043807476 1.1680300e-05
  Final line search alpha, max atom move = 1.0000000 1.1680300e-05
  Iterations, force evaluations = 177 354

MPI task timing breakdown:
Section |  min time  |  avg time  |  max time  |%varavg| %total
---------------------------------------------------------------
Pair    | 4.8582e-05 | 0.79596    | 1.0739     |  30.0 | 67.13
Neigh   | 0          | 0          | 0          |   0.0 |  0.00
Comm    | 5.287e-05  | 0.16211    | 0.68024    |  37.0 | 13.67
Output  | 0          | 0          | 0          |   0.0 |  0.00
Modify  | 1.5981e-05 | 0.0014597  | 0.00328    |   2.2 |  0.12
Other   |            | 0.2261     |            |       | 19.07

Nlocal:        1388.23 ave        2040 max           0 min
Histogram: 28 4 0 16 8 0 8 12 96 36
Nghost:        2437.48 ave        3379 max           0 min
Histogram: 24 0 8 8 16 4 12 4 30 102
Neighs:        39606.7 ave       59772 max           0 min
Histogram: 28 4 4 14 6 2 10 8 104 28

Total # of neighbors = 8238188
Ave neighs/atom = 28.530422
Neighbor list builds = 0
Dangerous builds = 0
The dot product: 8.61047725093987e-11
Setting up cg style minimization ...
  Unit style    : metal
  Current step  : 4456
Per MPI rank memory allocation (min/avg/max) = 5.425 | 5.522 | 5.555 Mbytes
Step PotEng KinEng TotEng v_fx v_fy v_fz 
    4456   -1152449.3            0   -1152449.3  -0.36709437  -0.18915959   0.23880614 
    4696   -1152449.4            0   -1152449.4 1.0827584e-05 5.5717344e-07 2.6356074e-05 
Loop time of 1.5703 on 208 procs for 240 steps with 288751 atoms

99.9% CPU use with 208 MPI tasks x 1 OpenMP threads

Minimization stats:
  Stopping criterion = energy tolerance
  Energy initial, next-to-last, final = 
     -1152449.31906106  -1152449.35157338  -1152449.35157338
  Force two-norm initial, final = 0.4770409 8.5773470e-05
  Force max component initial, final = 0.36709437 2.6356074e-05
  Final line search alpha, max atom move = 1.0000000 2.6356074e-05
  Iterations, force evaluations = 240 480

MPI task timing breakdown:
Section |  min time  |  avg time  |  max time  |%varavg| %total
---------------------------------------------------------------
Pair    | 6.5904e-05 | 1.0672     | 1.4381     |  34.6 | 67.96
Neigh   | 4.536e-06  | 0.0015612  | 0.00233    |   1.9 |  0.10
Comm    | 0.00019998 | 0.21178    | 0.89163    |  43.3 | 13.49
Output  | 0          | 0          | 0          |   0.0 |  0.00
Modify  | 1.8947e-05 | 0.0012763  | 0.003507   |   2.8 |  0.08
Other   |            | 0.2885     |            |       | 18.37

Nlocal:        1388.23 ave        2040 max           0 min
Histogram: 28 4 0 16 8 0 8 12 96 36
Nghost:        2437.45 ave        3379 max           0 min
Histogram: 24 0 8 8 16 4 12 4 30 102
Neighs:        39606.7 ave       59772 max           0 min
Histogram: 28 4 4 14 6 2 10 8 104 28

Total # of neighbors = 8238191
Ave neighs/atom = 28.530433
Neighbor list builds = 1
Dangerous builds = 0
OMP_NUM_THREADS environment is not set. Defaulting to 1 thread. (../comm.cpp:94)
  using 1 OpenMP thread(s) per MPI task
Reading data file ...
  orthogonal box = (-122.39241 -121.13707 -37.090501) to (122.39241 121.13707 37.090501)
  13 by 8 by 2 MPI processor grid
  reading atoms ...
  288751 atoms
  read_data CPU = 0.371 seconds
199981 atoms in group inner
88770 atoms in group outer
1 atoms in group carbon
Neighbor list info ...
  update every 1 steps, delay 0 steps, check yes
  max neighbors/atom: 2000, page size: 100000
  master list distance cutoff = 5.6
  ghost atom cutoff = 5.6
  binsize = 2.8, bins = 88 87 27
  1 neighbor lists, perpetual/occasional/extra = 1 0 0
  (1) pair eam/alloy, perpetual
      attributes: half, newton on
      pair build: half/bin/atomonly/newton
      stencil: half/bin/3d/newton
      bin: standard
Setting up cg style minimization ...
  Unit style    : metal
  Current step  : 0
Per MPI rank memory allocation (min/avg/max) = 5.425 | 5.522 | 5.555 Mbytes
Step v_fx v_fy v_fz PotEng KinEng TotEng 
       0    0.4804174   -29.782659   -50.006174   -1152433.4            0   -1152433.4 
     187 -5.8861972e-06 1.0342213e-05 -6.8833382e-06   -1152449.5            0   -1152449.5 
Loop time of 1.259 on 208 procs for 187 steps with 288751 atoms

99.9% CPU use with 208 MPI tasks x 1 OpenMP threads

Minimization stats:
  Stopping criterion = energy tolerance
  Energy initial, next-to-last, final = 
     -1152433.44638747  -1152449.45035275  -1152449.45035275
  Force two-norm initial, final = 87.270834 4.5062598e-05
  Force max component initial, final = 57.161222 1.0714893e-05
  Final line search alpha, max atom move = 1.0000000 1.0714893e-05
  Iterations, force evaluations = 187 366

MPI task timing breakdown:
Section |  min time  |  avg time  |  max time  |%varavg| %total
---------------------------------------------------------------
Pair    | 5.1533e-05 | 0.82772    | 1.1012     |  30.1 | 65.74
Neigh   | 2.6429e-05 | 0.0093581  | 0.013939   |   4.6 |  0.74
Comm    | 0.00073328 | 0.16823    | 0.69689    |  37.6 | 13.36
Output  | 0          | 0          | 0          |   0.0 |  0.00
Modify  | 1.4751e-05 | 0.00097936 | 0.002705   |   0.0 |  0.08
Other   |            | 0.2527     |            |       | 20.07

Nlocal:        1388.23 ave        2041 max           0 min
Histogram: 28 4 0 16 8 0 8 12 96 36
Nghost:        2437.42 ave        3379 max           0 min
Histogram: 24 0 8 8 16 4 12 4 30 102
Neighs:        39606.8 ave       59805 max           0 min
Histogram: 28 4 4 14 6 2 10 8 106 26

Total # of neighbors = 8238207
Ave neighs/atom = 28.530488
Neighbor list builds = 6
Dangerous builds = 1
Setting atom values ...
  1 settings made for x
  1 settings made for y
  1 settings made for z
Setting up cg style minimization ...
  Unit style    : metal
  Current step  : 187
Per MPI rank memory allocation (min/avg/max) = 5.425 | 5.522 | 5.555 Mbytes
Step PotEng KinEng TotEng v_fx v_fy v_fz 
     187   -1152449.4            0   -1152449.4 -0.028115914 -0.0030497446 -0.026805386 
     391   -1152449.4            0   -1152449.4 -1.5773547e-05 2.6658588e-05 -4.0218745e-05 
Loop time of 1.3336 on 208 procs for 204 steps with 288751 atoms

99.9% CPU use with 208 MPI tasks x 1 OpenMP threads

Minimization stats:
  Stopping criterion = energy tolerance
  Energy initial, next-to-last, final = 
     -1152449.44484475  -1152449.44843204  -1152449.44843204
  Force two-norm initial, final = 0.275548 0.00013646374
  Force max component initial, final = 0.15632961 4.0218745e-05
  Final line search alpha, max atom move = 1.0000000 4.0218745e-05
  Iterations, force evaluations = 204 408

MPI task timing breakdown:
Section |  min time  |  avg time  |  max time  |%varavg| %total
---------------------------------------------------------------
Pair    | 5.5024e-05 | 0.90725    | 1.2259     |  32.0 | 68.03
Neigh   | 0          | 0          | 0          |   0.0 |  0.00
Comm    | 6.091e-05  | 0.17797    | 0.75795    |  40.1 | 13.35
Output  | 0          | 0          | 0          |   0.0 |  0.00
Modify  | 1.8911e-05 | 0.0016813  | 0.0038149  |   2.4 |  0.13
Other   |            | 0.2467     |            |       | 18.50

Nlocal:        1388.23 ave        2041 max           0 min
Histogram: 28 4 0 16 8 0 8 12 96 36
Nghost:        2437.42 ave        3379 max           0 min
Histogram: 24 0 8 8 16 4 12 4 30 102
Neighs:        39606.7 ave       59807 max           0 min
Histogram: 28 4 4 14 6 2 10 8 106 26

Total # of neighbors = 8238197
Ave neighs/atom = 28.530454
Neighbor list builds = 0
Dangerous builds = 0
Setting atom values ...
  1 settings made for x
  1 settings made for y
  1 settings made for z
Setting up cg style minimization ...
  Unit style    : metal
  Current step  : 391
Per MPI rank memory allocation (min/avg/max) = 5.425 | 5.522 | 5.555 Mbytes
Step PotEng KinEng TotEng v_fx v_fy v_fz 
     391   -1152449.4            0   -1152449.4 -0.021619484 -0.0039231709 -0.023357633 
     583   -1152449.4            0   -1152449.4 -4.9724724e-06 8.0198441e-06 -1.4974249e-05 
Loop time of 1.25644 on 208 procs for 192 steps with 288751 atoms

99.9% CPU use with 208 MPI tasks x 1 OpenMP threads

Minimization stats:
  Stopping criterion = energy tolerance
  Energy initial, next-to-last, final = 
     -1152449.44325011  -1152449.44493264  -1152449.44493264
  Force two-norm initial, final = 0.18808874 9.9532252e-05
  Force max component initial, final = 0.10541748 1.4974249e-05
  Final line search alpha, max atom move = 1.0000000 1.4974249e-05
  Iterations, force evaluations = 192 384

MPI task timing breakdown:
Section |  min time  |  avg time  |  max time  |%varavg| %total
---------------------------------------------------------------
Pair    | 5.1863e-05 | 0.85821    | 1.1498     |  31.1 | 68.31
Neigh   | 0          | 0          | 0          |   0.0 |  0.00
Comm    | 5.7358e-05 | 0.1691     | 0.72934    |  39.1 | 13.46
Output  | 0          | 0          | 0          |   0.0 |  0.00
Modify  | 1.7102e-05 | 0.0015802  | 0.0035721  |   2.3 |  0.13
Other   |            | 0.2275     |            |       | 18.11

Nlocal:        1388.23 ave        2041 max           0 min
Histogram: 28 4 0 16 8 0 8 12 96 36
Nghost:        2437.42 ave        3379 max           0 min
Histogram: 24 0 8 8 16 4 12 4 30 102
Neighs:        39606.7 ave       59815 max           0 min
Histogram: 28 4 4 14 6 2 10 8 106 26

Total # of neighbors = 8238197
Ave neighs/atom = 28.530454
Neighbor list builds = 0
Dangerous builds = 0
The dot product: 1.30070747630487e-06
Setting atom values ...
  1 settings made for x
  1 settings made for y
  1 settings made for z
Setting up cg style minimization ...
  Unit style    : metal
  Current step  : 583
Per MPI rank memory allocation (min/avg/max) = 5.425 | 5.522 | 5.555 Mbytes
Step PotEng KinEng TotEng v_fx v_fy v_fz 
     583   -1152449.4            0   -1152449.4 -0.025055374 -0.0088492564 -0.026850619 
     746   -1152449.4            0   -1152449.4 1.708757e-05 -2.5302047e-05 5.8527764e-05 
Loop time of 1.09535 on 208 procs for 163 steps with 288751 atoms

99.9% CPU use with 208 MPI tasks x 1 OpenMP threads

Minimization stats:
  Stopping criterion = energy tolerance
  Energy initial, next-to-last, final = 
     -1152449.43823778  -1152449.43993347  -1152449.43993347
  Force two-norm initial, final = 0.18882433 0.00018246053
  Force max component initial, final = 0.10407089 5.8527764e-05
  Final line search alpha, max atom move = 1.0000000 5.8527764e-05
  Iterations, force evaluations = 163 326

MPI task timing breakdown:
Section |  min time  |  avg time  |  max time  |%varavg| %total
---------------------------------------------------------------
Pair    | 4.41e-05   | 0.73344    | 0.98134    |  28.8 | 66.96
Neigh   | 0          | 0          | 0          |   0.0 |  0.00
Comm    | 4.8766e-05 | 0.14767    | 0.63692    |  35.8 | 13.48
Output  | 0          | 0          | 0          |   0.0 |  0.00
Modify  | 1.5127e-05 | 0.0013456  | 0.0030376  |   2.1 |  0.12
Other   |            | 0.2129     |            |       | 19.44

Nlocal:        1388.23 ave        2041 max           0 min
Histogram: 28 4 0 16 8 0 8 12 96 36
Nghost:        2437.42 ave        3379 max           0 min
Histogram: 24 0 8 8 16 4 12 4 30 102
Neighs:        39606.7 ave       59815 max           0 min
Histogram: 28 4 4 14 6 2 10 8 106 26

Total # of neighbors = 8238197
Ave neighs/atom = 28.530454
Neighbor list builds = 0
Dangerous builds = 0
The dot product: -4.72591380223473e-06
Setting atom values ...
  1 settings made for x
  1 settings made for y
  1 settings made for z
Setting up cg style minimization ...
  Unit style    : metal
  Current step  : 746
Per MPI rank memory allocation (min/avg/max) = 5.425 | 5.522 | 5.555 Mbytes
Step PotEng KinEng TotEng v_fx v_fy v_fz 
     746   -1152449.4            0   -1152449.4 -0.025948738  -0.01379463 -0.027614407 
     881   -1152449.4            0   -1152449.4 7.653492e-06 -9.9038815e-06 2.9577238e-05 
Loop time of 0.883739 on 208 procs for 135 steps with 288751 atoms

99.9% CPU use with 208 MPI tasks x 1 OpenMP threads

Minimization stats:
  Stopping criterion = energy tolerance
  Energy initial, next-to-last, final = 
     -1152449.43199766  -1152449.43369796  -1152449.43369796
  Force two-norm initial, final = 0.18856482 8.5128485e-05
  Force max component initial, final = 0.10137525 2.9577238e-05
  Final line search alpha, max atom move = 1.0000000 2.9577238e-05
  Iterations, force evaluations = 135 270

MPI task timing breakdown:
Section |  min time  |  avg time  |  max time  |%varavg| %total
---------------------------------------------------------------
Pair    | 3.6516e-05 | 0.60435    | 0.81267    |  26.2 | 68.39
Neigh   | 0          | 0          | 0          |   0.0 |  0.00
Comm    | 4.105e-05  | 0.11898    | 0.50743    |  32.8 | 13.46
Output  | 0          | 0          | 0          |   0.0 |  0.00
Modify  | 1.2297e-05 | 0.0011114  | 0.0025358  |   1.9 |  0.13
Other   |            | 0.1593     |            |       | 18.03

Nlocal:        1388.23 ave        2041 max           0 min
Histogram: 28 4 0 16 8 0 8 12 96 36
Nghost:        2437.42 ave        3379 max           0 min
Histogram: 24 0 8 8 16 4 12 4 30 102
Neighs:        39606.7 ave       59815 max           0 min
Histogram: 28 4 4 14 6 2 10 8 106 26

Total # of neighbors = 8238197
Ave neighs/atom = 28.530454
Neighbor list builds = 0
Dangerous builds = 0
The dot product: -1.93468844291374e-06
Setting atom values ...
  1 settings made for x
  1 settings made for y
  1 settings made for z
Setting up cg style minimization ...
  Unit style    : metal
  Current step  : 881
Per MPI rank memory allocation (min/avg/max) = 5.425 | 5.522 | 5.555 Mbytes
Step PotEng KinEng TotEng v_fx v_fy v_fz 
     881   -1152449.4            0   -1152449.4 -0.023249353 -0.015956426 -0.024629217 
    1000   -1152449.4            0   -1152449.4 8.1717786e-07 -3.8004077e-06 8.7669528e-06 
    1007   -1152449.4            0   -1152449.4 -2.4584013e-06 1.0167284e-06 -7.5030914e-06 
Loop time of 0.825044 on 208 procs for 126 steps with 288751 atoms

99.9% CPU use with 208 MPI tasks x 1 OpenMP threads

Minimization stats:
  Stopping criterion = energy tolerance
  Energy initial, next-to-last, final = 
     -1152449.42453146  -1152449.42620138  -1152449.42620138
  Force two-norm initial, final = 0.18675969 9.2877170e-05
  Force max component initial, final = 0.098277802 2.0818155e-05
  Final line search alpha, max atom move = 1.0000000 2.0818155e-05
  Iterations, force evaluations = 126 252

MPI task timing breakdown:
Section |  min time  |  avg time  |  max time  |%varavg| %total
---------------------------------------------------------------
Pair    | 3.4267e-05 | 0.56168    | 0.76002    |  25.2 | 68.08
Neigh   | 0          | 0          | 0          |   0.0 |  0.00
Comm    | 3.8511e-05 | 0.11052    | 0.46581    |  31.5 | 13.40
Output  | 0.00011163 | 0.00011375 | 0.00019354 |   0.0 |  0.01
Modify  | 1.1776e-05 | 0.0010405  | 0.0023569  |   1.9 |  0.13
Other   |            | 0.1517     |            |       | 18.39

Nlocal:        1388.23 ave        2041 max           0 min
Histogram: 28 4 0 16 8 0 8 12 96 36
Nghost:        2437.44 ave        3379 max           0 min
Histogram: 24 0 8 8 16 4 12 4 30 102
Neighs:        39606.7 ave       59815 max           0 min
Histogram: 28 4 4 14 6 2 10 8 106 26

Total # of neighbors = 8238199
Ave neighs/atom = 28.530461
Neighbor list builds = 0
Dangerous builds = 0
The dot product: 3.75450698365051e-07
Setting atom values ...
  1 settings made for x
  1 settings made for y
  1 settings made for z
Setting up cg style minimization ...
  Unit style    : metal
  Current step  : 1007
Per MPI rank memory allocation (min/avg/max) = 5.425 | 5.522 | 5.555 Mbytes
Step PotEng KinEng TotEng v_fx v_fy v_fz 
    1007   -1152449.4            0   -1152449.4 -0.018845629 -0.015193036 -0.019270269 
    1178   -1152449.4            0   -1152449.4 2.0771454e-07 1.2566105e-07 3.0073096e-07 
Loop time of 1.11876 on 208 procs for 171 steps with 288751 atoms

99.9% CPU use with 208 MPI tasks x 1 OpenMP threads

Minimization stats:
  Stopping criterion = energy tolerance
  Energy initial, next-to-last, final = 
     -1152449.41575261  -1152449.41738524  -1152449.41738524
  Force two-norm initial, final = 0.18456381 1.6230885e-05
  Force max component initial, final = 0.095809445 6.1718711e-07
  Final line search alpha, max atom move = 1.0000000 6.1718711e-07
  Iterations, force evaluations = 171 342

MPI task timing breakdown:
Section |  min time  |  avg time  |  max time  |%varavg| %total
---------------------------------------------------------------
Pair    | 4.5877e-05 | 0.76338    | 1.0295     |  29.4 | 68.23
Neigh   | 0          | 0          | 0          |   0.0 |  0.00
Comm    | 5.1002e-05 | 0.1508     | 0.64576    |  36.8 | 13.48
Output  | 0          | 0          | 0          |   0.0 |  0.00
Modify  | 1.4977e-05 | 0.0014075  | 0.0031851  |   2.2 |  0.13
Other   |            | 0.2032     |            |       | 18.16

Nlocal:        1388.23 ave        2041 max           0 min
Histogram: 28 4 0 16 8 0 8 12 96 36
Nghost:        2437.44 ave        3379 max           0 min
Histogram: 24 0 8 8 16 4 12 4 30 102
Neighs:        39606.7 ave       59815 max           0 min
Histogram: 28 4 4 14 6 2 10 8 106 26

Total # of neighbors = 8238199
Ave neighs/atom = 28.530461
Neighbor list builds = 0
Dangerous builds = 0
The dot product: -8.99051030962329e-09
Setting atom values ...
  1 settings made for x
  1 settings made for y
  1 settings made for z
Setting up cg style minimization ...
  Unit style    : metal
  Current step  : 1178
Per MPI rank memory allocation (min/avg/max) = 5.425 | 5.522 | 5.555 Mbytes
Step PotEng KinEng TotEng v_fx v_fy v_fz 
    1178   -1152449.4            0   -1152449.4  -0.01384557 -0.012225392  -0.01316894 
    1324   -1152449.4            0   -1152449.4 6.724172e-07 -6.3513538e-07 3.6086122e-06 
Loop time of 0.965378 on 208 procs for 146 steps with 288751 atoms

99.9% CPU use with 208 MPI tasks x 1 OpenMP threads

Minimization stats:
  Stopping criterion = energy tolerance
  Energy initial, next-to-last, final = 
     -1152449.40559356  -1152449.40720821  -1152449.40720821
  Force two-norm initial, final = 0.18263274 3.2990162e-05
  Force max component initial, final = 0.094312214 3.6086122e-06
  Final line search alpha, max atom move = 1.0000000 3.6086122e-06
  Iterations, force evaluations = 146 292

MPI task timing breakdown:
Section |  min time  |  avg time  |  max time  |%varavg| %total
---------------------------------------------------------------
Pair    | 3.9648e-05 | 0.65495    | 0.88797    |  27.3 | 67.84
Neigh   | 0          | 0          | 0          |   0.0 |  0.00
Comm    | 4.4123e-05 | 0.12985    | 0.54627    |  33.8 | 13.45
Output  | 0          | 0          | 0          |   0.0 |  0.00
Modify  | 1.3798e-05 | 0.001203   | 0.002699   |   2.0 |  0.12
Other   |            | 0.1794     |            |       | 18.58

Nlocal:        1388.23 ave        2041 max           0 min
Histogram: 28 4 0 16 8 0 8 12 96 36
Nghost:        2437.44 ave        3379 max           0 min
Histogram: 24 0 8 8 16 4 12 4 30 102
Neighs:        39606.7 ave       59815 max           0 min
Histogram: 28 4 4 14 6 2 10 8 106 26

Total # of neighbors = 8238200
Ave neighs/atom = 28.530464
Neighbor list builds = 0
Dangerous builds = 0
The dot product: -7.45861841482875e-08
Setting atom values ...
  1 settings made for x
  1 settings made for y
  1 settings made for z
Setting up cg style minimization ...
  Unit style    : metal
  Current step  : 1324
Per MPI rank memory allocation (min/avg/max) = 5.425 | 5.522 | 5.555 Mbytes
Step PotEng KinEng TotEng v_fx v_fy v_fz 
    1324   -1152449.4            0   -1152449.4 -0.0079853672 -0.0072057244 -0.007094911 
    1460   -1152449.4            0   -1152449.4 -1.0220886e-06 1.2487751e-06 -6.743647e-06 
Loop time of 0.891876 on 208 procs for 136 steps with 288751 atoms

99.9% CPU use with 208 MPI tasks x 1 OpenMP threads

Minimization stats:
  Stopping criterion = energy tolerance
  Energy initial, next-to-last, final = 
     -1152449.39404086  -1152449.39567921  -1152449.39567921
  Force two-norm initial, final = 0.18118774 7.0954526e-05
  Force max component initial, final = 0.09393969 6.7436470e-06
  Final line search alpha, max atom move = 1.0000000 6.7436470e-06
  Iterations, force evaluations = 136 272

MPI task timing breakdown:
Section |  min time  |  avg time  |  max time  |%varavg| %total
---------------------------------------------------------------
Pair    | 3.6929e-05 | 0.60858    | 0.82081    |  26.2 | 68.24
Neigh   | 0          | 0          | 0          |   0.0 |  0.00
Comm    | 4.1404e-05 | 0.11966    | 0.51638    |  32.9 | 13.42
Output  | 0          | 0          | 0          |   0.0 |  0.00
Modify  | 1.2598e-05 | 0.0011207  | 0.0025328  |   1.9 |  0.13
Other   |            | 0.1625     |            |       | 18.22

Nlocal:        1388.23 ave        2041 max           0 min
Histogram: 28 4 0 16 8 0 8 12 96 36
Nghost:        2437.44 ave        3379 max           0 min
Histogram: 24 0 8 8 16 4 12 4 30 102
Neighs:        39606.8 ave       59815 max           0 min
Histogram: 28 4 4 14 6 2 10 8 106 26

Total # of neighbors = 8238207
Ave neighs/atom = 28.530488
Neighbor list builds = 0
Dangerous builds = 0
The dot product: 5.74624467888467e-08
Setting atom values ...
  1 settings made for x
  1 settings made for y
  1 settings made for z
Setting up cg style minimization ...
  Unit style    : metal
  Current step  : 1460
Per MPI rank memory allocation (min/avg/max) = 5.425 | 5.522 | 5.555 Mbytes
Step PotEng KinEng TotEng v_fx v_fy v_fz 
    1460   -1152449.4            0   -1152449.4 0.00019313533 0.00025739887 -9.68145e-05 
    1625   -1152449.4            0   -1152449.4 -5.0117904e-06 1.0320162e-06 -1.9684907e-05 
Loop time of 1.0843 on 208 procs for 165 steps with 288751 atoms

99.9% CPU use with 208 MPI tasks x 1 OpenMP threads

Minimization stats:
  Stopping criterion = energy tolerance
  Energy initial, next-to-last, final = 
     -1152449.38116591  -1152449.38301141  -1152449.38301141
  Force two-norm initial, final = 0.18030449 0.00012888083
  Force max component initial, final = 0.094725063 3.3760726e-05
  Final line search alpha, max atom move = 1.0000000 3.3760726e-05
  Iterations, force evaluations = 165 330

MPI task timing breakdown:
Section |  min time  |  avg time  |  max time  |%varavg| %total
---------------------------------------------------------------
Pair    | 4.4596e-05 | 0.73549    | 0.99488    |  28.8 | 67.83
Neigh   | 0          | 0          | 0          |   0.0 |  0.00
Comm    | 4.9446e-05 | 0.14469    | 0.61463    |  36.1 | 13.34
Output  | 0          | 0          | 0          |   0.0 |  0.00
Modify  | 1.5315e-05 | 0.0013589  | 0.003065   |   2.1 |  0.13
Other   |            | 0.2028     |            |       | 18.70

Nlocal:        1388.23 ave        2041 max           0 min
Histogram: 28 4 0 16 8 0 8 12 96 36
Nghost:        2437.44 ave        3379 max           0 min
Histogram: 24 0 8 8 16 4 12 4 30 102
Neighs:        39606.8 ave       59815 max           0 min
Histogram: 28 4 4 14 6 2 10 8 106 26

Total # of neighbors = 8238209
Ave neighs/atom = 28.530495
Neighbor list builds = 0
Dangerous builds = 0
The dot product: -4.56011627138328e-07
Setting atom values ...
  1 settings made for x
  1 settings made for y
  1 settings made for z
Setting up cg style minimization ...
  Unit style    : metal
  Current step  : 1625
Per MPI rank memory allocation (min/avg/max) = 5.425 | 5.522 | 5.555 Mbytes
Step PotEng KinEng TotEng v_fx v_fy v_fz 
    1625   -1152449.4            0   -1152449.4  0.015173906  0.010909234  0.014044185 
    1801   -1152449.4            0   -1152449.4 -5.6946488e-06 1.0273093e-05 -4.5947152e-05 
Loop time of 1.1482 on 208 procs for 176 steps with 288751 atoms

99.9% CPU use with 208 MPI tasks x 1 OpenMP threads

Minimization stats:
  Stopping criterion = energy tolerance
  Energy initial, next-to-last, final = 
     -1152449.36740741  -1152449.36942093  -1152449.36942093
  Force two-norm initial, final = 0.18081045 0.0001764391
  Force max component initial, final = 0.097116307 4.5947152e-05
  Final line search alpha, max atom move = 1.0000000 4.5947152e-05
  Iterations, force evaluations = 176 352

MPI task timing breakdown:
Section |  min time  |  avg time  |  max time  |%varavg| %total
---------------------------------------------------------------
Pair    | 4.7711e-05 | 0.7876     | 1.0578     |  29.8 | 68.59
Neigh   | 0          | 0          | 0          |   0.0 |  0.00
Comm    | 5.2174e-05 | 0.15512    | 0.6666     |  37.5 | 13.51
Output  | 0          | 0          | 0          |   0.0 |  0.00
Modify  | 1.5918e-05 | 0.0014484  | 0.0032844  |   2.2 |  0.13
Other   |            | 0.204      |            |       | 17.77

Nlocal:        1388.23 ave        2041 max           0 min
Histogram: 28 4 0 16 8 0 8 12 96 36
Nghost:        2437.44 ave        3379 max           0 min
Histogram: 24 0 8 8 16 4 12 4 30 102
Neighs:        39606.8 ave       59815 max           0 min
Histogram: 28 4 4 14 6 2 10 8 106 26

Total # of neighbors = 8238211
Ave neighs/atom = 28.530502
Neighbor list builds = 0
Dangerous builds = 0
The dot product: -1.3273046093847e-06
Setting atom values ...
  1 settings made for x
  1 settings made for y
  1 settings made for z
Setting up cg style minimization ...
  Unit style    : metal
  Current step  : 1801
Per MPI rank memory allocation (min/avg/max) = 5.425 | 5.522 | 5.555 Mbytes
Step PotEng KinEng TotEng v_fx v_fy v_fz 
    1801   -1152449.4            0   -1152449.4  0.027500053   0.01638764  0.023914151 
    1984   -1152449.4            0   -1152449.4 -2.1422276e-06 -1.7684987e-06 -5.6552555e-07 
Loop time of 1.2049 on 208 procs for 183 steps with 288751 atoms

99.9% CPU use with 208 MPI tasks x 1 OpenMP threads

Minimization stats:
  Stopping criterion = energy tolerance
  Energy initial, next-to-last, final = 
     -1152449.35281219  -1152449.35497491  -1152449.35497491
  Force two-norm initial, final = 0.18284598 0.00014185061
  Force max component initial, final = 0.10101754 1.0361295e-05
  Final line search alpha, max atom move = 1.0000000 1.0361295e-05
  Iterations, force evaluations = 183 366

MPI task timing breakdown:
Section |  min time  |  avg time  |  max time  |%varavg| %total
---------------------------------------------------------------
Pair    | 4.9521e-05 | 0.8155     | 1.1026     |  30.4 | 67.68
Neigh   | 0          | 0          | 0          |   0.0 |  0.00
Comm    | 5.5839e-05 | 0.16093    | 0.6864     |  37.9 | 13.36
Output  | 0          | 0          | 0          |   0.0 |  0.00
Modify  | 1.6809e-05 | 0.001507   | 0.0034294  |   2.2 |  0.13
Other   |            | 0.227      |            |       | 18.84

Nlocal:        1388.23 ave        2041 max           0 min
Histogram: 28 4 0 16 8 0 8 12 96 36
Nghost:        2437.44 ave        3379 max           0 min
Histogram: 24 0 8 8 16 4 12 4 30 102
Neighs:        39606.8 ave       59815 max           0 min
Histogram: 28 4 4 14 6 2 10 8 106 26

Total # of neighbors = 8238210
Ave neighs/atom = 28.530499
Neighbor list builds = 0
Dangerous builds = 0
The dot product: -1.82927589417809e-07
Setting atom values ...
  1 settings made for x
  1 settings made for y
  1 settings made for z
Setting up cg style minimization ...
  Unit style    : metal
  Current step  : 1984
Per MPI rank memory allocation (min/avg/max) = 5.425 | 5.522 | 5.555 Mbytes
Step PotEng KinEng TotEng v_fx v_fy v_fz 
    1984   -1152449.3            0   -1152449.3  0.034295067  0.017482192  0.025808484 
    2000   -1152449.3            0   -1152449.3 -0.00016975686 -6.4137027e-05 -0.00018244613 
    2188   -1152449.3            0   -1152449.3 -1.5477164e-06 -2.5427887e-06 3.1182196e-06 
Loop time of 1.33273 on 208 procs for 204 steps with 288751 atoms

99.9% CPU use with 208 MPI tasks x 1 OpenMP threads

Minimization stats:
  Stopping criterion = energy tolerance
  Energy initial, next-to-last, final = 
     -1152449.33729265  -1152449.33941547  -1152449.33941547
  Force two-norm initial, final = 0.18367646 9.7265303e-05
  Force max component initial, final = 0.10536302 2.3207396e-05
  Final line search alpha, max atom move = 1.0000000 2.3207396e-05
  Iterations, force evaluations = 204 408

MPI task timing breakdown:
Section |  min time  |  avg time  |  max time  |%varavg| %total
---------------------------------------------------------------
Pair    | 5.4713e-05 | 0.91115    | 1.2252     |  32.1 | 68.37
Neigh   | 0          | 0          | 0          |   0.0 |  0.00
Comm    | 6.0903e-05 | 0.17897    | 0.77413    |  40.3 | 13.43
Output  | 9.172e-05  | 9.4381e-05 | 0.00014339 |   0.0 |  0.01
Modify  | 1.8216e-05 | 0.0016767  | 0.0037754  |   2.4 |  0.13
Other   |            | 0.2408     |            |       | 18.07

Nlocal:        1388.23 ave        2041 max           0 min
Histogram: 28 4 0 16 8 0 8 12 96 36
Nghost:        2437.46 ave        3379 max           0 min
[...]
Nghost:        2437.48 ave        3379 max           0 min
Histogram: 24 0 8 8 16 4 12 4 30 102
Neighs:        39606.8 ave       59440 max           0 min
Histogram: 28 4 4 14 6 0 12 8 98 34

Total # of neighbors = 8238208
Ave neighs/atom = 28.530492
Neighbor list builds = 0
Dangerous builds = 0
The dot product: 2.2194993552563e-07
Setting atom values ...
  1 settings made for x
  1 settings made for y
  1 settings made for z
Setting up cg style minimization ...
  Unit style    : metal
  Current step  : 23532
Per MPI rank memory allocation (min/avg/max) = 5.425 | 5.522 | 5.555 Mbytes
Step PotEng KinEng TotEng v_fx v_fy v_fz 
   23532     -1152449            0     -1152449 -0.0038388677 0.0043482358 -0.0067626348 
   23782     -1152449            0     -1152449 2.8940053e-05 -4.0609831e-05 5.054319e-05 
Loop time of 1.64782 on 208 procs for 250 steps with 288751 atoms

99.9% CPU use with 208 MPI tasks x 1 OpenMP threads

Minimization stats:
  Stopping criterion = energy tolerance
  Energy initial, next-to-last, final = 
     -1152448.96145199  -1152448.96457503  -1152448.96457503
  Force two-norm initial, final = 0.13708806 0.00021194643
  Force max component initial, final = 0.060175995 6.1944603e-05
  Final line search alpha, max atom move = 1.0000000 6.1944603e-05
  Iterations, force evaluations = 250 500

MPI task timing breakdown:
Section |  min time  |  avg time  |  max time  |%varavg| %total
---------------------------------------------------------------
Pair    | 6.8194e-05 | 1.1168     | 1.4929     |  35.4 | 67.77
Neigh   | 4.6701e-06 | 0.0015657  | 0.0022847  |   1.9 |  0.10
Comm    | 0.00020577 | 0.22206    | 0.94717    |  44.1 | 13.48
Output  | 0          | 0          | 0          |   0.0 |  0.00
Modify  | 2.3223e-05 | 0.0020557  | 0.0045994  |   2.6 |  0.12
Other   |            | 0.3053     |            |       | 18.53

Nlocal:        1388.23 ave        2031 max           0 min
Histogram: 28 4 0 16 8 0 8 12 89 43
Nghost:        2437.47 ave        3379 max           0 min
Histogram: 24 0 8 8 16 4 12 4 30 102
Neighs:        39606.8 ave       59463 max           0 min
Histogram: 28 4 4 14 6 0 12 8 98 34

Total # of neighbors = 8238207
Ave neighs/atom = 28.530488
Neighbor list builds = 1
Dangerous builds = 0
The dot product: -2.21028763737669e-06
Setting atom values ...
  1 settings made for x
  1 settings made for y
  1 settings made for z
Setting up cg style minimization ...
  Unit style    : metal
  Current step  : 23782
Per MPI rank memory allocation (min/avg/max) = 5.425 | 5.522 | 5.555 Mbytes
Step PotEng KinEng TotEng v_fx v_fy v_fz 
   23782     -1152449            0     -1152449 0.0033020549 0.00080095707 0.0056626597 
   23979     -1152449            0     -1152449 -9.0706081e-06 1.147614e-05 -1.4566452e-05 
Loop time of 1.28201 on 208 procs for 197 steps with 288751 atoms

99.9% CPU use with 208 MPI tasks x 1 OpenMP threads

Minimization stats:
  Stopping criterion = energy tolerance
  Energy initial, next-to-last, final = 
     -1152448.96703067  -1152448.96809199  -1152448.96809199
  Force two-norm initial, final = 0.13722183 7.1777555e-05
  Force max component initial, final = 0.061155715 2.0134066e-05
  Final line search alpha, max atom move = 1.0000000 2.0134066e-05
  Iterations, force evaluations = 197 394

MPI task timing breakdown:
Section |  min time  |  avg time  |  max time  |%varavg| %total
---------------------------------------------------------------
Pair    | 5.4091e-05 | 0.87797    | 1.1713     |  31.5 | 68.48
Neigh   | 0          | 0          | 0          |   0.0 |  0.00
Comm    | 6.1185e-05 | 0.17163    | 0.74727    |  39.6 | 13.39
Output  | 0          | 0          | 0          |   0.0 |  0.00
Modify  | 1.8719e-05 | 0.0016194  | 0.0036403  |   2.3 |  0.13
Other   |            | 0.2308     |            |       | 18.00

Nlocal:        1388.23 ave        2030 max           0 min
Histogram: 28 4 0 16 8 0 8 12 89 43
Nghost:        2437.47 ave        3379 max           0 min
Histogram: 24 0 8 8 16 4 12 4 30 102
Neighs:        39606.7 ave       59424 max           0 min
Histogram: 28 4 4 14 6 0 12 8 98 34

Total # of neighbors = 8238202
Ave neighs/atom = 28.530471
Neighbor list builds = 0
Dangerous builds = 0
The dot product: 2.24976911810681e-08
Setting atom values ...
  1 settings made for x
  1 settings made for y
  1 settings made for z
Setting up cg style minimization ...
  Unit style    : metal
  Current step  : 23979
Per MPI rank memory allocation (min/avg/max) = 5.425 | 5.522 | 5.555 Mbytes
Step PotEng KinEng TotEng v_fx v_fy v_fz 
   23979     -1152449            0     -1152449 0.00069216463 0.0024911727 0.0013483246 
   24000     -1152449            0     -1152449 -0.00011801145 0.00020016203 -0.00018531129 
   24153     -1152449            0     -1152449 1.4320278e-05 -1.9553657e-05 2.2824642e-05 
Loop time of 1.1337 on 208 procs for 174 steps with 288751 atoms

99.9% CPU use with 208 MPI tasks x 1 OpenMP threads

Minimization stats:
  Stopping criterion = energy tolerance
  Energy initial, next-to-last, final = 
     -1152448.96940694  -1152448.97049557  -1152448.97049557
  Force two-norm initial, final = 0.13780587 0.00019250088
  Force max component initial, final = 0.060904609 4.5367378e-05
  Final line search alpha, max atom move = 1.0000000 4.5367378e-05
  Iterations, force evaluations = 174 348

MPI task timing breakdown:
Section |  min time  |  avg time  |  max time  |%varavg| %total
---------------------------------------------------------------
Pair    | 4.6622e-05 | 0.77641    | 1.0382     |  29.6 | 68.48
Neigh   | 0          | 0          | 0          |   0.0 |  0.00
Comm    | 5.4536e-05 | 0.1527     | 0.65758    |  37.0 | 13.47
Output  | 9.5911e-05 | 9.785e-05  | 0.00015099 |   0.0 |  0.01
Modify  | 1.6354e-05 | 0.0014345  | 0.0032131  |   2.2 |  0.13
Other   |            | 0.2031     |            |       | 17.91

Nlocal:        1388.23 ave        2030 max           0 min
Histogram: 28 4 0 16 8 0 8 12 89 43
Nghost:        2437.47 ave        3379 max           0 min
Histogram: 24 0 8 8 16 4 12 4 30 102
Neighs:        39606.8 ave       59417 max           0 min
Histogram: 28 4 4 14 6 0 12 8 98 34

Total # of neighbors = 8238205
Ave neighs/atom = 28.530481
Neighbor list builds = 0
Dangerous builds = 0
The dot product: -5.2983880063625e-08
Setting atom values ...
  1 settings made for x
  1 settings made for y
  1 settings made for z
Setting up cg style minimization ...
  Unit style    : metal
  Current step  : 24153
Per MPI rank memory allocation (min/avg/max) = 5.425 | 5.522 | 5.555 Mbytes
Step PotEng KinEng TotEng v_fx v_fy v_fz 
   24153     -1152449            0     -1152449 0.0014543024  0.001838564 0.0025772966 
   24357     -1152449            0     -1152449 5.3071244e-06 -7.2722364e-06 8.4185864e-06 
Loop time of 1.32549 on 208 procs for 204 steps with 288751 atoms

99.9% CPU use with 208 MPI tasks x 1 OpenMP threads

Minimization stats:
  Stopping criterion = energy tolerance
  Energy initial, next-to-last, final = 
     -1152448.97070096  -1152448.97180307  -1152448.97180307
  Force two-norm initial, final = 0.13874186 8.1560987e-05
  Force max component initial, final = 0.060677933 2.1529280e-05
  Final line search alpha, max atom move = 1.0000000 2.1529280e-05
  Iterations, force evaluations = 204 408

MPI task timing breakdown:
Section |  min time  |  avg time  |  max time  |%varavg| %total
---------------------------------------------------------------
Pair    | 5.6371e-05 | 0.90814    | 1.2137     |  32.0 | 68.51
Neigh   | 0          | 0          | 0          |   0.0 |  0.00
Comm    | 6.4322e-05 | 0.17787    | 0.76407    |  40.2 | 13.42
Output  | 0          | 0          | 0          |   0.0 |  0.00
Modify  | 1.8952e-05 | 0.0016784  | 0.0037902  |   2.4 |  0.13
Other   |            | 0.2378     |            |       | 17.94

Nlocal:        1388.23 ave        2030 max           0 min
Histogram: 28 4 0 16 8 0 8 12 89 43
Nghost:        2437.48 ave        3379 max           0 min
Histogram: 24 0 8 8 16 4 12 4 30 102
Neighs:        39606.7 ave       59414 max           0 min
Histogram: 28 4 4 14 6 0 12 8 98 34

Total # of neighbors = 8238201
Ave neighs/atom = 28.530467
Neighbor list builds = 0
Dangerous builds = 0
The dot product: -1.85269123501932e-08
Setting atom values ...
  1 settings made for x
  1 settings made for y
  1 settings made for z
Setting up cg style minimization ...
  Unit style    : metal
  Current step  : 24357
Per MPI rank memory allocation (min/avg/max) = 5.425 | 5.522 | 5.555 Mbytes
Step PotEng KinEng TotEng v_fx v_fy v_fz 
   24357     -1152449            0     -1152449  0.002262517    0.0010743 0.0038640355 
   24565     -1152449            0     -1152449 8.1738342e-06 -1.0509784e-05 1.295835e-05 
Loop time of 1.36677 on 208 procs for 208 steps with 288751 atoms

99.9% CPU use with 208 MPI tasks x 1 OpenMP threads

Minimization stats:
  Stopping criterion = energy tolerance
  Energy initial, next-to-last, final = 
     -1152448.97092569  -1152448.97217414  -1152448.97217414
  Force two-norm initial, final = 0.14001391 9.7001841e-05
  Force max component initial, final = 0.060399641 2.1432103e-05
  Final line search alpha, max atom move = 1.0000000 2.1432103e-05
  Iterations, force evaluations = 208 416

MPI task timing breakdown:
Section |  min time  |  avg time  |  max time  |%varavg| %total
---------------------------------------------------------------
Pair    | 5.6777e-05 | 0.92708    | 1.243      |  32.3 | 67.83
Neigh   | 0          | 0          | 0          |   0.0 |  0.00
Comm    | 6.7238e-05 | 0.18249    | 0.78394    |  40.4 | 13.35
Output  | 0          | 0          | 0          |   0.0 |  0.00
Modify  | 1.9615e-05 | 0.0017092  | 0.0038454  |   2.4 |  0.13
Other   |            | 0.2555     |            |       | 18.69

Nlocal:        1388.23 ave        2030 max           0 min
Histogram: 28 4 0 16 8 0 8 12 89 43
Nghost:        2437.49 ave        3379 max           0 min
Histogram: 24 0 8 8 16 4 12 4 30 102
Neighs:        39606.7 ave       59413 max           0 min
Histogram: 28 4 4 14 6 0 12 8 98 34

Total # of neighbors = 8238200
Ave neighs/atom = 28.530464
Neighbor list builds = 0
Dangerous builds = 0
The dot product: -4.40938366963646e-08
Setting atom values ...
  1 settings made for x
  1 settings made for y
  1 settings made for z
Setting up cg style minimization ...
  Unit style    : metal
  Current step  : 24565
Per MPI rank memory allocation (min/avg/max) = 5.425 | 5.522 | 5.555 Mbytes
Step PotEng KinEng TotEng v_fx v_fy v_fz 
   24565     -1152449            0     -1152449 0.0048353672 -0.0023322343 0.0078799351 
   24809     -1152449            0     -1152449 7.0668566e-07 -8.1463369e-07 1.1193491e-06 
Loop time of 1.5808 on 208 procs for 244 steps with 288751 atoms

99.9% CPU use with 208 MPI tasks x 1 OpenMP threads

Minimization stats:
  Stopping criterion = energy tolerance
  Energy initial, next-to-last, final = 
     -1152448.97029692  -1152448.97148197  -1152448.97148197
  Force two-norm initial, final = 0.14138983 2.4160058e-05
  Force max component initial, final = 0.06030861 4.2494237e-06
  Final line search alpha, max atom move = 1.0000000 4.2494237e-06
  Iterations, force evaluations = 244 488

MPI task timing breakdown:
Section |  min time  |  avg time  |  max time  |%varavg| %total
---------------------------------------------------------------
Pair    | 6.5961e-05 | 1.0865     | 1.4514     |  35.0 | 68.73
Neigh   | 0          | 0          | 0          |   0.0 |  0.00
Comm    | 7.5527e-05 | 0.21286    | 0.91284    |  43.9 | 13.47
Output  | 0          | 0          | 0          |   0.0 |  0.00
Modify  | 2.306e-05  | 0.0020045  | 0.0045196  |   2.6 |  0.13
Other   |            | 0.2794     |            |       | 17.68

Nlocal:        1388.23 ave        2030 max           0 min
Histogram: 28 4 0 16 8 0 8 12 89 43
Nghost:        2437.49 ave        3379 max           0 min
Histogram: 24 0 8 8 16 4 12 4 30 102
Neighs:        39606.8 ave       59406 max           0 min
Histogram: 28 4 4 14 6 0 12 8 98 34

Total # of neighbors = 8238204
Ave neighs/atom = 28.530478
Neighbor list builds = 0
Dangerous builds = 0
The dot product: -1.66524963387569e-09
Setting atom values ...
  1 settings made for x
  1 settings made for y
  1 settings made for z
Setting up cg style minimization ...
  Unit style    : metal
  Current step  : 24809
Per MPI rank memory allocation (min/avg/max) = 5.425 | 5.522 | 5.555 Mbytes
Step PotEng KinEng TotEng v_fx v_fy v_fz 
   24809     -1152449            0     -1152449 0.0085995451 -0.0077747311  0.013721643 
   24979     -1152449            0     -1152449 8.0035448e-06 -8.2035912e-06 1.2707449e-05 
Loop time of 1.12151 on 208 procs for 170 steps with 288751 atoms

99.9% CPU use with 208 MPI tasks x 1 OpenMP threads

Minimization stats:
  Stopping criterion = energy tolerance
  Energy initial, next-to-last, final = 
      -1152448.9684171  -1152448.96973664  -1152448.96973664
  Force two-norm initial, final = 0.14393078 0.00018908203
  Force max component initial, final = 0.060154186 4.7213371e-05
  Final line search alpha, max atom move = 1.0000000 4.7213371e-05
  Iterations, force evaluations = 170 340

MPI task timing breakdown:
Section |  min time  |  avg time  |  max time  |%varavg| %total
---------------------------------------------------------------
Pair    | 4.5878e-05 | 0.75919    | 1.0157     |  29.3 | 67.69
Neigh   | 0          | 0          | 0          |   0.0 |  0.00
Comm    | 5.2728e-05 | 0.14968    | 0.6407     |  36.5 | 13.35
Output  | 0          | 0          | 0          |   0.0 |  0.00
Modify  | 1.6066e-05 | 0.0013994  | 0.0031746  |   2.2 |  0.12
Other   |            | 0.2112     |            |       | 18.84

Nlocal:        1388.23 ave        2030 max           0 min
Histogram: 28 4 0 16 8 0 8 12 89 43
Nghost:        2437.49 ave        3379 max           0 min
Histogram: 24 0 8 8 16 4 12 4 30 102
Neighs:        39606.7 ave       59400 max           0 min
Histogram: 28 4 4 14 6 0 12 8 98 34

Total # of neighbors = 8238197
Ave neighs/atom = 28.530454
Neighbor list builds = 0
Dangerous builds = 0
The dot product: -2.34466553137342e-08
Setting atom values ...
  1 settings made for x
  1 settings made for y
  1 settings made for z
Setting up cg style minimization ...
  Unit style    : metal
  Current step  : 24979
Per MPI rank memory allocation (min/avg/max) = 5.425 | 5.522 | 5.555 Mbytes
Step PotEng KinEng TotEng v_fx v_fy v_fz 
   24979     -1152449            0     -1152449  0.011563515 -0.011137648  0.018337608 
   25000     -1152449            0     -1152449 -0.0012693302 0.0011380535 -0.0020180217 
   25252     -1152449            0     -1152449 -1.2396899e-05 1.523611e-05 -1.9460454e-05 
Loop time of 1.77768 on 208 procs for 273 steps with 288751 atoms

99.9% CPU use with 208 MPI tasks x 1 OpenMP threads

Minimization stats:
  Stopping criterion = energy tolerance
  Energy initial, next-to-last, final = 
     -1152448.96559615  -1152448.96776799  -1152448.96776799
  Force two-norm initial, final = 0.14746785 8.5872298e-05
  Force max component initial, final = 0.060362678 1.9460454e-05
  Final line search alpha, max atom move = 1.0000000 1.9460454e-05
  Iterations, force evaluations = 273 546

MPI task timing breakdown:
Section |  min time  |  avg time  |  max time  |%varavg| %total
---------------------------------------------------------------
Pair    | 7.714e-05  | 1.2176     | 1.6318     |  37.1 | 68.49
Neigh   | 0          | 0          | 0          |   0.0 |  0.00
Comm    | 8.8777e-05 | 0.23886    | 1.0172     |  46.3 | 13.44
Output  | 9.3595e-05 | 9.6631e-05 | 0.00014604 |   0.0 |  0.01
Modify  | 2.5956e-05 | 0.0022448  | 0.0050597  |   2.7 |  0.13
Other   |            | 0.3189     |            |       | 17.94

Nlocal:        1388.23 ave        2030 max           0 min
Histogram: 28 4 0 16 8 0 8 12 89 43
Nghost:        2437.50 ave        3379 max           0 min
Histogram: 24 0 8 8 16 4 12 4 30 102
Neighs:        39606.7 ave       59403 max           0 min
Histogram: 28 4 4 14 6 0 12 8 98 34

Total # of neighbors = 8238203
Ave neighs/atom = 28.530474
Neighbor list builds = 0
Dangerous builds = 0
The dot product: 1.63894659052552e-07
Setting atom values ...
  1 settings made for x
  1 settings made for y
  1 settings made for z
Setting up cg style minimization ...
  Unit style    : metal
  Current step  : 25252
Per MPI rank memory allocation (min/avg/max) = 5.425 | 5.522 | 5.555 Mbytes
Step PotEng KinEng TotEng v_fx v_fy v_fz 
   25252     -1152449            0     -1152449  0.015001144 -0.012811613  0.023466763 
   25443     -1152449            0     -1152449 -1.0075124e-05 1.1029886e-05 -1.5634051e-05 
Loop time of 1.23397 on 208 procs for 191 steps with 288751 atoms

99.9% CPU use with 208 MPI tasks x 1 OpenMP threads

Minimization stats:
  Stopping criterion = energy tolerance
  Energy initial, next-to-last, final = 
     -1152448.96323002  -1152448.96459406  -1152448.96459406
  Force two-norm initial, final = 0.15173133 0.00020369618
  Force max component initial, final = 0.062120723 3.6119475e-05
  Final line search alpha, max atom move = 1.0000000 3.6119475e-05
  Iterations, force evaluations = 191 382

MPI task timing breakdown:
Section |  min time  |  avg time  |  max time  |%varavg| %total
---------------------------------------------------------------
Pair    | 5.1097e-05 | 0.85163    | 1.1347     |  31.0 | 69.02
Neigh   | 0          | 0          | 0          |   0.0 |  0.00
Comm    | 6.0929e-05 | 0.16707    | 0.71359    |  39.0 | 13.54
Output  | 0          | 0          | 0          |   0.0 |  0.00
Modify  | 1.8081e-05 | 0.0015702  | 0.0035194  |   2.3 |  0.13
Other   |            | 0.2137     |            |       | 17.32

Nlocal:        1388.23 ave        2028 max           0 min
Histogram: 28 4 0 16 8 0 8 12 89 43
Nghost:        2437.49 ave        3379 max           0 min
Histogram: 24 0 8 8 16 4 12 4 30 102
Neighs:        39606.8 ave       59332 max           0 min
Histogram: 28 4 4 14 6 0 12 8 98 34

Total # of neighbors = 8238212
Ave neighs/atom = 28.530506
Neighbor list builds = 0
Dangerous builds = 0
The dot product: 2.10281322739816e-11
Setting up cg style minimization ...
  Unit style    : metal
  Current step  : 25443
Per MPI rank memory allocation (min/avg/max) = 5.425 | 5.522 | 5.555 Mbytes
Step PotEng KinEng TotEng v_fx v_fy v_fz 
   25443     -1152449            0     -1152449  -0.16206126 -0.0052539942   0.10070127 
   25673     -1152449            0     -1152449 1.0056359e-05 -1.3175726e-05 1.5236188e-05 
Loop time of 1.49102 on 208 procs for 230 steps with 288751 atoms

99.9% CPU use with 208 MPI tasks x 1 OpenMP threads

Minimization stats:
  Stopping criterion = energy tolerance
  Energy initial, next-to-last, final = 
     -1152448.96459406  -1152448.97218777  -1152448.97218777
  Force two-norm initial, final = 0.19087232 0.00012957786
  Force max component initial, final = 0.16206126 1.5236188e-05
  Final line search alpha, max atom move = 1.0000000 1.5236188e-05
  Iterations, force evaluations = 230 460

MPI task timing breakdown:
Section |  min time  |  avg time  |  max time  |%varavg| %total
---------------------------------------------------------------
Pair    | 6.306e-05  | 1.0238     | 1.366      |  34.0 | 68.67
Neigh   | 0          | 0          | 0          |   0.0 |  0.00
Comm    | 7.3458e-05 | 0.1999     | 0.86487    |  42.7 | 13.41
Output  | 0          | 0          | 0          |   0.0 |  0.00
Modify  | 1.8004e-05 | 0.0012229  | 0.0033807  |   2.7 |  0.08
Other   |            | 0.2661     |            |       | 17.85

Nlocal:        1388.23 ave        2027 max           0 min
Histogram: 28 4 0 16 8 0 8 12 89 43
Nghost:        2437.49 ave        3379 max           0 min
Histogram: 24 0 8 8 16 4 12 4 30 102
Neighs:        39606.8 ave       59306 max           0 min
Histogram: 28 4 4 14 6 0 12 8 98 34

Total # of neighbors = 8238217
Ave neighs/atom = 28.530523
Neighbor list builds = 0
Dangerous builds = 0
