LAMMPS (29 Oct 2020)
OMP_NUM_THREADS environment is not set. Defaulting to 1 thread. (../comm.cpp:94)
  using 1 OpenMP thread(s) per MPI task
OMP_NUM_THREADS environment is not set. Defaulting to 1 thread. (../comm.cpp:94)
  using 1 OpenMP thread(s) per MPI task
Reading data file ...
  orthogonal box = (-122.39241 -121.13707 -37.090501) to (122.39241 121.13707 37.090501)
  13 by 8 by 2 MPI processor grid
  reading atoms ...
  288751 atoms
  read_data CPU = 0.464 seconds
199981 atoms in group inner
88770 atoms in group outer
1 atoms in group carbon
Neighbor list info ...
  update every 1 steps, delay 0 steps, check yes
  max neighbors/atom: 2000, page size: 100000
  master list distance cutoff = 5.6
  ghost atom cutoff = 5.6
  binsize = 2.8, bins = 88 87 27
  1 neighbor lists, perpetual/occasional/extra = 1 0 0
  (1) pair eam/alloy, perpetual
      attributes: half, newton on
      pair build: half/bin/atomonly/newton
      stencil: half/bin/3d/newton
      bin: standard
Setting up cg style minimization ...
  Unit style    : metal
  Current step  : 0
Per MPI rank memory allocation (min/avg/max) = 5.425 | 5.522 | 5.555 Mbytes
Step v_fx v_fy v_fz PotEng KinEng TotEng 
       0  -0.21657515    -30.04813   -50.390662   -1152433.3            0   -1152433.3 
     181 2.9984606e-06 -5.0585707e-06 -1.9978062e-05   -1152449.5            0   -1152449.5 
Loop time of 1.20024 on 208 procs for 181 steps with 288751 atoms

99.7% CPU use with 208 MPI tasks x 1 OpenMP threads

Minimization stats:
  Stopping criterion = energy tolerance
  Energy initial, next-to-last, final = 
     -1152433.30951867  -1152449.45035275  -1152449.45035275
  Force two-norm initial, final = 87.912276 5.5012453e-05
  Force max component initial, final = 57.526621 1.9978062e-05
  Final line search alpha, max atom move = 1.0000000 1.9978062e-05
  Iterations, force evaluations = 181 354

MPI task timing breakdown:
Section |  min time  |  avg time  |  max time  |%varavg| %total
---------------------------------------------------------------
Pair    | 5.0887e-05 | 0.79093    | 1.063      |  29.4 | 65.90
Neigh   | 2.242e-05  | 0.007763   | 0.011622   |   4.2 |  0.65
Comm    | 0.00083364 | 0.16003    | 0.66208    |  36.4 | 13.33
Output  | 0          | 0          | 0          |   0.0 |  0.00
Modify  | 1.4744e-05 | 0.00094961 | 0.0026768  |   0.0 |  0.08
Other   |            | 0.2406     |            |       | 20.04

Nlocal:        1388.23 ave        2040 max           0 min
Histogram: 28 4 0 16 8 0 8 12 96 36
Nghost:        2437.42 ave        3379 max           0 min
Histogram: 24 0 8 8 16 4 12 4 30 102
Neighs:        39606.8 ave       59782 max           0 min
Histogram: 28 4 4 14 6 2 10 8 104 28

Total # of neighbors = 8238208
Ave neighs/atom = 28.530492
Neighbor list builds = 5
Dangerous builds = 0
Setting atom values ...
  1 settings made for x
  1 settings made for y
  1 settings made for z
Setting up cg style minimization ...
  Unit style    : metal
  Current step  : 181
Per MPI rank memory allocation (min/avg/max) = 5.425 | 5.522 | 5.555 Mbytes
Step PotEng KinEng TotEng v_fx v_fy v_fz 
     181   -1152449.4            0   -1152449.4  0.019858292  0.010632701 -0.022154433 
     331   -1152449.5            0   -1152449.5 1.7975511e-05 -1.8167931e-05 -4.3829166e-05 
Loop time of 0.985062 on 208 procs for 150 steps with 288751 atoms

99.9% CPU use with 208 MPI tasks x 1 OpenMP threads

Minimization stats:
  Stopping criterion = energy tolerance
  Energy initial, next-to-last, final = 
     -1152449.44954611  -1152449.45010976  -1152449.45010976
  Force two-norm initial, final = 0.11491471 0.00017741562
  Force max component initial, final = 0.051175029 4.3829166e-05
  Final line search alpha, max atom move = 1.0000000 4.3829166e-05
  Iterations, force evaluations = 150 300

MPI task timing breakdown:
Section |  min time  |  avg time  |  max time  |%varavg| %total
---------------------------------------------------------------
Pair    | 4.1971e-05 | 0.67172    | 0.90437    |  27.5 | 68.19
Neigh   | 0          | 0          | 0          |   0.0 |  0.00
Comm    | 4.5199e-05 | 0.13463    | 0.57754    |  34.3 | 13.67
Output  | 0          | 0          | 0          |   0.0 |  0.00
Modify  | 1.4041e-05 | 0.0012343  | 0.0028386  |   2.0 |  0.13
Other   |            | 0.1775     |            |       | 18.02

Nlocal:        1388.23 ave        2041 max           0 min
Histogram: 28 4 0 16 8 0 8 12 96 36
Nghost:        2437.42 ave        3379 max           0 min
Histogram: 24 0 8 8 16 4 12 4 30 102
Neighs:        39606.7 ave       59808 max           0 min
Histogram: 28 4 4 14 6 2 10 8 106 26

Total # of neighbors = 8238197
Ave neighs/atom = 28.530454
Neighbor list builds = 0
Dangerous builds = 0
Setting atom values ...
  1 settings made for x
  1 settings made for y
  1 settings made for z
Setting up cg style minimization ...
  Unit style    : metal
  Current step  : 331
Per MPI rank memory allocation (min/avg/max) = 5.425 | 5.522 | 5.555 Mbytes
Step PotEng KinEng TotEng v_fx v_fy v_fz 
     331   -1152449.4            0   -1152449.4  0.032188848  0.026202712 -0.046628616 
     552   -1152449.4            0   -1152449.4 1.384683e-06 1.9974399e-06 -1.0546368e-06 
Loop time of 1.48486 on 208 procs for 221 steps with 288751 atoms

99.9% CPU use with 208 MPI tasks x 1 OpenMP threads

Minimization stats:
  Stopping criterion = energy tolerance
  Energy initial, next-to-last, final = 
     -1152449.44678371  -1152449.44853581  -1152449.44853581
  Force two-norm initial, final = 0.20363546 2.8317135e-05
  Force max component initial, final = 0.088244747 4.4998713e-06
  Final line search alpha, max atom move = 1.0000000 4.4998713e-06
  Iterations, force evaluations = 221 442

MPI task timing breakdown:
Section |  min time  |  avg time  |  max time  |%varavg| %total
---------------------------------------------------------------
Pair    | 5.9796e-05 | 0.98506    | 1.3284     |  33.3 | 66.34
Neigh   | 0          | 0          | 0          |   0.0 |  0.00
Comm    | 6.56e-05   | 0.19819    | 0.82591    |  40.9 | 13.35
Output  | 0          | 0          | 0          |   0.0 |  0.00
Modify  | 1.9847e-05 | 0.0018243  | 0.004192   |   2.5 |  0.12
Other   |            | 0.2998     |            |       | 20.19

Nlocal:        1388.23 ave        2041 max           0 min
Histogram: 28 4 0 16 8 0 8 12 96 36
Nghost:        2437.42 ave        3379 max           0 min
Histogram: 24 0 8 8 16 4 12 4 30 102
Neighs:        39606.7 ave       59808 max           0 min
Histogram: 28 4 4 14 6 2 10 8 106 26

Total # of neighbors = 8238200
Ave neighs/atom = 28.530464
Neighbor list builds = 0
Dangerous builds = 0
The dot product: 2.29067689698487e-07
Setting atom values ...
  1 settings made for x
  1 settings made for y
  1 settings made for z
Setting up cg style minimization ...
  Unit style    : metal
  Current step  : 552
Per MPI rank memory allocation (min/avg/max) = 5.425 | 5.522 | 5.555 Mbytes
Step PotEng KinEng TotEng v_fx v_fy v_fz 
     552   -1152449.4            0   -1152449.4  0.026962544   0.03152041 -0.048535959 
     671   -1152449.4            0   -1152449.4 -1.651141e-05 -1.304066e-05 3.873383e-05 
Loop time of 0.787059 on 208 procs for 119 steps with 288751 atoms

99.9% CPU use with 208 MPI tasks x 1 OpenMP threads

Minimization stats:
  Stopping criterion = energy tolerance
  Energy initial, next-to-last, final = 
     -1152449.44385236  -1152449.44552413  -1152449.44552413
  Force two-norm initial, final = 0.19829632 0.00015518866
  Force max component initial, final = 0.082531039 3.8733830e-05
  Final line search alpha, max atom move = 1.0000000 3.8733830e-05
  Iterations, force evaluations = 119 238

MPI task timing breakdown:
Section |  min time  |  avg time  |  max time  |%varavg| %total
---------------------------------------------------------------
Pair    | 3.2462e-05 | 0.53429    | 0.71527    |  24.5 | 67.88
Neigh   | 0          | 0          | 0          |   0.0 |  0.00
Comm    | 3.9051e-05 | 0.10712    | 0.44869    |  30.2 | 13.61
Output  | 0          | 0          | 0          |   0.0 |  0.00
Modify  | 1.1639e-05 | 0.00098487 | 0.002262   |   0.0 |  0.13
Other   |            | 0.1447     |            |       | 18.38

Nlocal:        1388.23 ave        2041 max           0 min
Histogram: 28 4 0 16 8 0 8 12 96 36
Nghost:        2437.42 ave        3379 max           0 min
Histogram: 24 0 8 8 16 4 12 4 30 102
Neighs:        39606.7 ave       59808 max           0 min
Histogram: 28 4 4 14 6 2 10 8 106 26

Total # of neighbors = 8238201
Ave neighs/atom = 28.530467
Neighbor list builds = 0
Dangerous builds = 0
The dot product: -3.63420018692231e-06
Setting atom values ...
  1 settings made for x
  1 settings made for y
  1 settings made for z
Setting up cg style minimization ...
  Unit style    : metal
  Current step  : 671
Per MPI rank memory allocation (min/avg/max) = 5.425 | 5.522 | 5.555 Mbytes
Step PotEng KinEng TotEng v_fx v_fy v_fz 
     671   -1152449.4            0   -1152449.4  0.022020496  0.034473293 -0.045829079 
     800   -1152449.4            0   -1152449.4 -1.2009765e-06 7.013174e-06 1.9391766e-05 
Loop time of 0.851872 on 208 procs for 129 steps with 288751 atoms

99.9% CPU use with 208 MPI tasks x 1 OpenMP threads

Minimization stats:
  Stopping criterion = energy tolerance
  Energy initial, next-to-last, final = 
     -1152449.43942656  -1152449.44103378  -1152449.44103378
  Force two-norm initial, final = 0.19317779 9.0257117e-05
  Force max component initial, final = 0.07763249 1.9391766e-05
  Final line search alpha, max atom move = 1.0000000 1.9391766e-05
  Iterations, force evaluations = 129 258

MPI task timing breakdown:
Section |  min time  |  avg time  |  max time  |%varavg| %total
---------------------------------------------------------------
Pair    | 3.5659e-05 | 0.57469    | 0.77563    |  25.4 | 67.46
Neigh   | 0          | 0          | 0          |   0.0 |  0.00
Comm    | 3.8888e-05 | 0.11461    | 0.48501    |  31.5 | 13.45
Output  | 0          | 0          | 0          |   0.0 |  0.00
Modify  | 1.1642e-05 | 0.0010662  | 0.0024278  |   1.9 |  0.13
Other   |            | 0.1615     |            |       | 18.96

Nlocal:        1388.23 ave        2041 max           0 min
Histogram: 28 4 0 16 8 0 8 12 96 36
Nghost:        2437.42 ave        3379 max           0 min
Histogram: 24 0 8 8 16 4 12 4 30 102
Neighs:        39606.7 ave       59808 max           0 min
Histogram: 28 4 4 14 6 2 10 8 106 26

Total # of neighbors = 8238202
Ave neighs/atom = 28.530471
Neighbor list builds = 0
Dangerous builds = 0
The dot product: -8.62428610127931e-07
Setting atom values ...
  1 settings made for x
  1 settings made for y
  1 settings made for z
Setting up cg style minimization ...
  Unit style    : metal
  Current step  : 800
Per MPI rank memory allocation (min/avg/max) = 5.425 | 5.522 | 5.555 Mbytes
Step PotEng KinEng TotEng v_fx v_fy v_fz 
     800   -1152449.4            0   -1152449.4  0.018598267  0.036458086 -0.042150707 
     939   -1152449.4            0   -1152449.4 5.1428985e-07 4.797248e-06 8.2335328e-06 
Loop time of 0.909279 on 208 procs for 139 steps with 288751 atoms

99.9% CPU use with 208 MPI tasks x 1 OpenMP threads

Minimization stats:
  Stopping criterion = energy tolerance
  Energy initial, next-to-last, final = 
     -1152449.43346339   -1152449.4350217   -1152449.4350217
  Force two-norm initial, final = 0.1890739 5.8387044e-05
  Force max component initial, final = 0.07378422 8.2335328e-06
  Final line search alpha, max atom move = 1.0000000 8.2335328e-06
  Iterations, force evaluations = 139 278

MPI task timing breakdown:
Section |  min time  |  avg time  |  max time  |%varavg| %total
---------------------------------------------------------------
Pair    | 3.7187e-05 | 0.62094    | 0.83643    |  26.5 | 68.29
Neigh   | 0          | 0          | 0          |   0.0 |  0.00
Comm    | 4.175e-05  | 0.12398    | 0.52992    |  33.0 | 13.64
Output  | 0          | 0          | 0          |   0.0 |  0.00
Modify  | 1.3155e-05 | 0.0011491  | 0.0026169  |   2.0 |  0.13
Other   |            | 0.1632     |            |       | 17.95

Nlocal:        1388.23 ave        2041 max           0 min
Histogram: 28 4 0 16 8 0 8 12 96 36
Nghost:        2437.42 ave        3379 max           0 min
Histogram: 24 0 8 8 16 4 12 4 30 102
Neighs:        39606.7 ave       59808 max           0 min
Histogram: 28 4 4 14 6 2 10 8 106 26

Total # of neighbors = 8238202
Ave neighs/atom = 28.530471
Neighbor list builds = 0
Dangerous builds = 0
The dot product: -1.97776627488809e-07
Setting atom values ...
  1 settings made for x
  1 settings made for y
  1 settings made for z
Setting up cg style minimization ...
  Unit style    : metal
  Current step  : 939
Per MPI rank memory allocation (min/avg/max) = 5.425 | 5.522 | 5.555 Mbytes
Step PotEng KinEng TotEng v_fx v_fy v_fz 
     939   -1152449.4            0   -1152449.4  0.016496958  0.038436597 -0.039288857 
    1000   -1152449.4            0   -1152449.4 -9.8834978e-06 3.7970084e-05 0.00021867356 
    1059   -1152449.4            0   -1152449.4 7.4394961e-06 1.2770918e-05 -3.2313485e-05 
Loop time of 0.795784 on 208 procs for 120 steps with 288751 atoms

99.9% CPU use with 208 MPI tasks x 1 OpenMP threads

Minimization stats:
  Stopping criterion = energy tolerance
  Energy initial, next-to-last, final = 
     -1152449.42593474  -1152449.42745697  -1152449.42745697
  Force two-norm initial, final = 0.18599354 0.00015921021
  Force max component initial, final = 0.070687266 3.2313485e-05
  Final line search alpha, max atom move = 1.0000000 3.2313485e-05
  Iterations, force evaluations = 120 240

MPI task timing breakdown:
Section |  min time  |  avg time  |  max time  |%varavg| %total
---------------------------------------------------------------
Pair    | 3.3245e-05 | 0.53485    | 0.72297    |  24.6 | 67.21
Neigh   | 0          | 0          | 0          |   0.0 |  0.00
Comm    | 3.6044e-05 | 0.10687    | 0.44602    |  30.1 | 13.43
Output  | 0.00013693 | 0.00014826 | 0.00021912 |   0.0 |  0.02
Modify  | 1.1334e-05 | 0.00099164 | 0.0022398  |   0.0 |  0.12
Other   |            | 0.1529     |            |       | 19.22

Nlocal:        1388.23 ave        2041 max           0 min
Histogram: 28 4 0 16 8 0 8 12 96 36
Nghost:        2437.42 ave        3379 max           0 min
Histogram: 24 0 8 8 16 4 12 4 30 102
Neighs:        39606.7 ave       59808 max           0 min
Histogram: 28 4 4 14 6 2 10 8 106 26

Total # of neighbors = 8238201
Ave neighs/atom = 28.530467
Neighbor list builds = 0
Dangerous builds = 0
The dot product: 1.09767336534846e-06
Setting atom values ...
  1 settings made for x
  1 settings made for y
  1 settings made for z
Setting up cg style minimization ...
  Unit style    : metal
  Current step  : 1059
Per MPI rank memory allocation (min/avg/max) = 5.425 | 5.522 | 5.555 Mbytes
Step PotEng KinEng TotEng v_fx v_fy v_fz 
    1059   -1152449.4            0   -1152449.4  0.015327118  0.041051537 -0.037936245 
    1209   -1152449.4            0   -1152449.4 8.0159026e-07 -2.2954114e-06 -2.0247987e-05 
Loop time of 1.01487 on 208 procs for 150 steps with 288751 atoms

99.9% CPU use with 208 MPI tasks x 1 OpenMP threads

Minimization stats:
  Stopping criterion = energy tolerance
  Energy initial, next-to-last, final = 
     -1152449.41682534  -1152449.41832245  -1152449.41832245
  Force two-norm initial, final = 0.18382997 8.0371631e-05
  Force max component initial, final = 0.068017745 2.0247987e-05
  Final line search alpha, max atom move = 1.0000000 2.0247987e-05
  Iterations, force evaluations = 150 300

MPI task timing breakdown:
Section |  min time  |  avg time  |  max time  |%varavg| %total
---------------------------------------------------------------
Pair    | 4.0703e-05 | 0.67295    | 0.90721    |  27.6 | 66.31
Neigh   | 0          | 0          | 0          |   0.0 |  0.00
Comm    | 4.723e-05  | 0.13623    | 0.57263    |  33.9 | 13.42
Output  | 0          | 0          | 0          |   0.0 |  0.00
Modify  | 1.4317e-05 | 0.0012414  | 0.0028102  |   2.0 |  0.12
Other   |            | 0.2044     |            |       | 20.14

Nlocal:        1388.23 ave        2041 max           0 min
Histogram: 28 4 0 16 8 0 8 12 96 36
Nghost:        2437.42 ave        3379 max           0 min
Histogram: 24 0 8 8 16 4 12 4 30 102
Neighs:        39606.8 ave       59808 max           0 min
Histogram: 28 4 4 14 6 2 10 8 106 26

Total # of neighbors = 8238204
Ave neighs/atom = 28.530478
Neighbor list builds = 0
Dangerous builds = 0
The dot product: 3.75108978700216e-07
Setting atom values ...
  1 settings made for x
  1 settings made for y
  1 settings made for z
Setting up cg style minimization ...
  Unit style    : metal
  Current step  : 1209
Per MPI rank memory allocation (min/avg/max) = 5.425 | 5.522 | 5.555 Mbytes
Step PotEng KinEng TotEng v_fx v_fy v_fz 
    1209   -1152449.4            0   -1152449.4  0.014697021   0.04459229 -0.038233791 
    1353   -1152449.4            0   -1152449.4 -3.2754692e-06 -1.3700021e-05 -1.1844094e-05 
Loop time of 0.957032 on 208 procs for 144 steps with 288751 atoms

99.9% CPU use with 208 MPI tasks x 1 OpenMP threads

Minimization stats:
  Stopping criterion = energy tolerance
  Energy initial, next-to-last, final = 
     -1152449.40613612  -1152449.40761683  -1152449.40761683
  Force two-norm initial, final = 0.18240098 9.1246188e-05
  Force max component initial, final = 0.065393409 1.7833965e-05
  Final line search alpha, max atom move = 1.0000000 1.7833965e-05
  Iterations, force evaluations = 144 288

MPI task timing breakdown:
Section |  min time  |  avg time  |  max time  |%varavg| %total
---------------------------------------------------------------
Pair    | 3.8381e-05 | 0.64054    | 0.86381    |  26.8 | 66.93
Neigh   | 0          | 0          | 0          |   0.0 |  0.00
Comm    | 4.6166e-05 | 0.12752    | 0.53496    |  33.3 | 13.32
Output  | 0          | 0          | 0          |   0.0 |  0.00
Modify  | 1.3092e-05 | 0.0011934  | 0.0028366  |   2.0 |  0.12
Other   |            | 0.1878     |            |       | 19.62

Nlocal:        1388.23 ave        2041 max           0 min
Histogram: 28 4 0 16 8 0 8 12 96 36
Nghost:        2437.42 ave        3379 max           0 min
Histogram: 24 0 8 8 16 4 12 4 30 102
Neighs:        39606.7 ave       59808 max           0 min
Histogram: 28 4 4 14 6 2 10 8 106 26

Total # of neighbors = 8238200
Ave neighs/atom = 28.530464
Neighbor list builds = 0
Dangerous builds = 0
The dot product: -7.35499827422047e-08
Setting atom values ...
  1 settings made for x
  1 settings made for y
  1 settings made for z
Setting up cg style minimization ...
  Unit style    : metal
  Current step  : 1353
Per MPI rank memory allocation (min/avg/max) = 5.425 | 5.522 | 5.555 Mbytes
Step PotEng KinEng TotEng v_fx v_fy v_fz 
    1353   -1152449.4            0   -1152449.4  0.014343042  0.049503008 -0.040296683 
    1509   -1152449.4            0   -1152449.4 7.7927687e-06 2.7782124e-05 -1.4945217e-05 
Loop time of 1.02173 on 208 procs for 156 steps with 288751 atoms

99.9% CPU use with 208 MPI tasks x 1 OpenMP threads

Minimization stats:
  Stopping criterion = energy tolerance
  Energy initial, next-to-last, final = 
     -1152449.39388458  -1152449.39536204  -1152449.39536204
  Force two-norm initial, final = 0.1817785 0.00012798525
  Force max component initial, final = 0.062508126 2.7782124e-05
  Final line search alpha, max atom move = 1.0000000 2.7782124e-05
  Iterations, force evaluations = 156 312

MPI task timing breakdown:
Section |  min time  |  avg time  |  max time  |%varavg| %total
---------------------------------------------------------------
Pair    | 4.1848e-05 | 0.69997    | 0.94131    |  28.1 | 68.51
Neigh   | 0          | 0          | 0          |   0.0 |  0.00
Comm    | 4.7765e-05 | 0.13974    | 0.59223    |  35.0 | 13.68
Output  | 0          | 0          | 0          |   0.0 |  0.00
Modify  | 1.4214e-05 | 0.0012862  | 0.0029208  |   2.1 |  0.13
Other   |            | 0.1807     |            |       | 17.69

Nlocal:        1388.23 ave        2041 max           0 min
Histogram: 28 4 0 16 8 0 8 12 96 36
Nghost:        2437.42 ave        3379 max           0 min
Histogram: 24 0 8 8 16 4 12 4 30 102
Neighs:        39606.7 ave       59808 max           0 min
Histogram: 28 4 4 14 6 2 10 8 106 26

Total # of neighbors = 8238198
Ave neighs/atom = 28.530457
Neighbor list builds = 0
Dangerous builds = 0
The dot product: 9.8002368467817e-07
Setting atom values ...
  1 settings made for x
  1 settings made for y
  1 settings made for z
Setting up cg style minimization ...
  Unit style    : metal
  Current step  : 1509
Per MPI rank memory allocation (min/avg/max) = 5.425 | 5.522 | 5.555 Mbytes
Step PotEng KinEng TotEng v_fx v_fy v_fz 
    1509   -1152449.4            0   -1152449.4  0.014197576  0.057279126 -0.045508979 
    1699   -1152449.4            0   -1152449.4 9.2865042e-07 3.3585785e-06 -9.4775959e-06 
Loop time of 1.29625 on 208 procs for 190 steps with 288751 atoms

99.9% CPU use with 208 MPI tasks x 1 OpenMP threads

Minimization stats:
  Stopping criterion = energy tolerance
  Energy initial, next-to-last, final = 
     -1152449.38012315  -1152449.38163783  -1152449.38163783
  Force two-norm initial, final = 0.18280391 6.4399073e-05
  Force max component initial, final = 0.059339589 9.4775959e-06
  Final line search alpha, max atom move = 1.0000000 9.4775959e-06
  Iterations, force evaluations = 190 380

MPI task timing breakdown:
Section |  min time  |  avg time  |  max time  |%varavg| %total
---------------------------------------------------------------
Pair    | 5.0637e-05 | 0.85202    | 1.1449     |  31.0 | 65.73
Neigh   | 0          | 0          | 0          |   0.0 |  0.00
Comm    | 5.8754e-05 | 0.17526    | 0.70575    |  37.2 | 13.52
Output  | 0          | 0          | 0          |   0.0 |  0.00
Modify  | 1.6935e-05 | 0.0015681  | 0.0035583  |   2.3 |  0.12
Other   |            | 0.2674     |            |       | 20.63

Nlocal:        1388.23 ave        2041 max           0 min
Histogram: 28 4 0 16 8 0 8 12 97 35
Nghost:        2437.42 ave        3379 max           0 min
Histogram: 24 0 8 8 16 4 12 4 30 102
Neighs:        39606.7 ave       59798 max           0 min
Histogram: 28 4 4 14 6 2 10 8 106 26

Total # of neighbors = 8238197
Ave neighs/atom = 28.530454
Neighbor list builds = 0
Dangerous builds = 0
The dot product: 3.56394967294223e-07
Setting atom values ...
  1 settings made for x
  1 settings made for y
  1 settings made for z
Setting up cg style minimization ...
  Unit style    : metal
  Current step  : 1699
Per MPI rank memory allocation (min/avg/max) = 5.425 | 5.522 | 5.555 Mbytes
Step PotEng KinEng TotEng v_fx v_fy v_fz 
    1699   -1152449.4            0   -1152449.4  0.013926071  0.072639354 -0.058925584 
    1863   -1152449.4            0   -1152449.4 -7.033308e-06 -3.4348945e-05 -1.0537031e-05 
Loop time of 1.10173 on 208 procs for 164 steps with 288751 atoms

99.9% CPU use with 208 MPI tasks x 1 OpenMP threads

Minimization stats:
  Stopping criterion = energy tolerance
  Energy initial, next-to-last, final = 
     -1152449.36505804  -1152449.36703151  -1152449.36703151
  Force two-norm initial, final = 0.18918483 0.00014751489
  Force max component initial, final = 0.072639354 3.4348945e-05
  Final line search alpha, max atom move = 1.0000000 3.4348945e-05
  Iterations, force evaluations = 164 328

MPI task timing breakdown:
Section |  min time  |  avg time  |  max time  |%varavg| %total
---------------------------------------------------------------
Pair    | 4.7934e-05 | 0.73455    | 0.99225    |  28.8 | 66.67
Neigh   | 0          | 0          | 0          |   0.0 |  0.00
Comm    | 5.145e-05  | 0.14967    | 0.63042    |  35.3 | 13.58
Output  | 0          | 0          | 0          |   0.0 |  0.00
Modify  | 1.5411e-05 | 0.0013539  | 0.0030866  |   2.1 |  0.12
Other   |            | 0.2162     |            |       | 19.62

Nlocal:        1388.23 ave        2041 max           0 min
Histogram: 28 4 0 16 8 0 8 12 97 35
Nghost:        2437.42 ave        3379 max           0 min
Histogram: 24 0 8 8 16 4 12 4 30 102
Neighs:        39606.7 ave       59798 max           0 min
Histogram: 28 4 4 14 6 2 10 8 106 26

Total # of neighbors = 8238193
Ave neighs/atom = 28.530440
Neighbor list builds = 0
Dangerous builds = 0
The dot product: -2.50992551967153e-06
Setting atom values ...
  1 settings made for x
  1 settings made for y
  1 settings made for z
Setting up cg style minimization ...
  Unit style    : metal
  Current step  : 1863
Per MPI rank memory allocation (min/avg/max) = 5.425 | 5.522 | 5.555 Mbytes
Step PotEng KinEng TotEng v_fx v_fy v_fz 
    1863   -1152449.4            0   -1152449.4  0.002461902   0.13052675  -0.11074986 
    2000   -1152449.4            0   -1152449.4 1.441065e-05 -4.4023114e-05 0.00019440084 
    2072   -1152449.4            0   -1152449.4 -2.860629e-07 5.7962917e-07 -3.5521416e-06 
Loop time of 1.37428 on 208 procs for 209 steps with 288751 atoms

99.9% CPU use with 208 MPI tasks x 1 OpenMP threads

Minimization stats:
  Stopping criterion = energy tolerance
  Energy initial, next-to-last, final = 
     -1152449.35064571  -1152449.35795628  -1152449.35795628
  Force two-norm initial, final = 0.23268319 0.0001187368
  Force max component initial, final = 0.13052675 1.0277169e-05
  Final line search alpha, max atom move = 1.0000000 1.0277169e-05
  Iterations, force evaluations = 209 418

MPI task timing breakdown:
Section |  min time  |  avg time  |  max time  |%varavg| %total
---------------------------------------------------------------
Pair    | 5.7147e-05 | 0.92851    | 1.2631     |  32.3 | 67.56
Neigh   | 4.4755e-06 | 0.0015586  | 0.0023167  |   1.9 |  0.11
Comm    | 0.00018094 | 0.18505    | 0.77191    |  39.7 | 13.47
Output  | 0.00010534 | 0.00010754 | 0.00018267 |   0.0 |  0.01
Modify  | 1.9162e-05 | 0.0017239  | 0.0039462  |   2.4 |  0.13
Other   |            | 0.2573     |            |       | 18.72

Nlocal:        1388.23 ave        2041 max           0 min
Histogram: 28 4 0 16 8 0 8 12 97 35
Nghost:        2437.42 ave        3379 max           0 min
Histogram: 24 0 8 8 16 4 12 4 30 102
Neighs:        39606.7 ave       59798 max           0 min
Histogram: 28 4 4 14 6 2 10 8 106 26

Total # of neighbors = 8238191
Ave neighs/atom = 28.530433
Neighbor list builds = 1
Dangerous builds = 0
The dot product: 7.41493069355181e-07
Setting atom values ...
  1 settings made for x
  1 settings made for y
  1 settings made for z
Setting up cg style minimization ...
  Unit style    : metal
  Current step  : 2072
Per MPI rank memory allocation (min/avg/max) = 5.425 | 5.522 | 5.555 Mbytes
Step PotEng KinEng TotEng v_fx v_fy v_fz 
    2072   -1152449.3            0   -1152449.3 -0.058498827   0.18294393  -0.11639067 
    2300   -1152449.4            0   -1152449.4 -5.5803454e-06 -3.5649795e-06 -2.2117978e-05 
Loop time of 1.51594 on 208 procs for 228 steps with 288751 atoms

99.9% CPU use with 208 MPI tasks x 1 OpenMP threads

Minimization stats:
  Stopping criterion = energy tolerance
  Energy initial, next-to-last, final = 
     -1152449.34488715  -1152449.35151992  -1152449.35151992
  Force two-norm initial, final = 0.2649322 6.5347636e-05
  Force max component initial, final = 0.18294393 2.2117978e-05
  Final line search alpha, max atom move = 1.0000000 2.2117978e-05
  Iterations, force evaluations = 228 456

MPI task timing breakdown:
Section |  min time  |  avg time  |  max time  |%varavg| %total
---------------------------------------------------------------
Pair    | 6.1799e-05 | 1.0182     | 1.3753     |  33.9 | 67.16
Neigh   | 0          | 0          | 0          |   0.0 |  0.00
Comm    | 7.1574e-05 | 0.20501    | 0.85852    |  41.6 | 13.52
Output  | 0          | 0          | 0          |   0.0 |  0.00
Modify  | 2.1441e-05 | 0.0018835  | 0.0042638  |   2.5 |  0.12
Other   |            | 0.2909     |            |       | 19.19

Nlocal:        1388.23 ave        2041 max           0 min
Histogram: 28 4 0 16 8 0 8 12 96 36
Nghost:        2437.42 ave        3379 max           0 min
Histogram: 24 0 8 8 16 4 12 4 30 102
Neighs:        39606.7 ave       59796 max           0 min
Histogram: 28 4 4 14 6 2 10 8 106 26

Total # of neighbors = 8238196
Ave neighs/atom = 28.530450
Neighbor list builds = 0
Dangerous builds = 0
The dot product: 1.79867765099364e-06
Setting atom values ...
  1 settings made for x
  1 settings made for y
  1 settings made for z
Setting up cg style minimization ...
  Unit style    : metal
  Current step  : 2300
Per MPI rank memory allocation (min/avg/max) = 5.425 | 5.522 | 5.555 Mbytes
Step PotEng KinEng TotEng v_fx v_fy v_fz 
    2300   -1152449.3            0   -1152449.3 -0.058379126   0.10629463 -0.056149524 
    2429   -1152449.3            0   -1152449.3 3.1708658e-05 -2.3377939e-05   5.9681e-05 
Loop time of 0.857562 on 208 procs for 129 steps with 288751 atoms

99.9% CPU use with 208 MPI tasks x 1 OpenMP threads

Minimization stats:
  Stopping criterion = energy tolerance
  Energy initial, next-to-last, final = 
     -1152449.33983595  -1152449.34337297  -1152449.34337297
  Force two-norm initial, final = 0.19149827 0.00020410786
  Force max component initial, final = 0.10629463 5.9681000e-05
  Final line search alpha, max atom move = 1.0000000 5.9681000e-05
  Iterations, force evaluations = 129 258

MPI task timing breakdown:
Section |  min time  |  avg time  |  max time  |%varavg| %total
---------------------------------------------------------------
Pair    | 3.4767e-05 | 0.57667    | 0.77656    |  25.4 | 67.25
Neigh   | 0          | 0          | 0          |   0.0 |  0.00
Comm    | 4.0902e-05 | 0.11569    | 0.48438    |  31.2 | 13.49
Output  | 0          | 0          | 0          |   0.0 |  0.00
Modify  | 1.2406e-05 | 0.0010692  | 0.0024271  |   1.9 |  0.12
Other   |            | 0.1641     |            |       | 19.14

Nlocal:        1388.23 ave        2040 max           0 min
Histogram: 28 4 0 16 8 0 8 12 96 36
Nghost:        2437.48 ave        3379 max           0 min
Histogram: 24 0 8 8 16 4 12 4 30 102
Neighs:        39606.7 ave       59773 max           0 min
Histogram: 28 4 4 14 6 2 10 8 104 28

Total # of neighbors = 8238202
Ave neighs/atom = 28.530471
Neighbor list builds = 0
Dangerous builds = 0
The dot product: -7.2021962910413e-06
Setting atom values ...
  1 settings made for x
  1 settings made for y
  1 settings made for z
Setting up cg style minimization ...
  Unit style    : metal
  Current step  : 2429
Per MPI rank memory allocation (min/avg/max) = 5.425 | 5.522 | 5.555 Mbytes
Step PotEng KinEng TotEng v_fx v_fy v_fz 
    2429   -1152449.3            0   -1152449.3 -0.036820072  0.041411354 -0.035872985 
    2671   -1152449.3            0   -1152449.3 -1.1958935e-05 1.467782e-06 -2.268505e-05 
Loop time of 1.58768 on 208 procs for 242 steps with 288751 atoms

99.9% CPU use with 208 MPI tasks x 1 OpenMP threads

Minimization stats:
  Stopping criterion = energy tolerance
  Energy initial, next-to-last, final = 
     -1152449.33424827  -1152449.34567682  -1152449.34567682
  Force two-norm initial, final = 0.15985444 0.0001252812
  Force max component initial, final = 0.062450024 2.7706572e-05
  Final line search alpha, max atom move = 1.0000000 2.7706572e-05
  Iterations, force evaluations = 242 484

MPI task timing breakdown:
Section |  min time  |  avg time  |  max time  |%varavg| %total
---------------------------------------------------------------
Pair    | 6.4359e-05 | 1.0797     | 1.4524     |  34.8 | 68.00
Neigh   | 4.5632e-06 | 0.0015643  | 0.0023283  |   1.9 |  0.10
Comm    | 0.00020525 | 0.21446    | 0.91019    |  43.4 | 13.51
Output  | 0          | 0          | 0          |   0.0 |  0.00
Modify  | 2.2334e-05 | 0.0019924  | 0.0045408  |   2.6 |  0.13
Other   |            | 0.29       |            |       | 18.27

Nlocal:        1388.23 ave        2040 max           0 min
Histogram: 28 4 0 16 8 0 8 12 96 36
Nghost:        2437.49 ave        3379 max           0 min
Histogram: 24 0 8 8 16 4 12 4 30 102
Neighs:        39606.7 ave       59772 max           0 min
Histogram: 28 4 4 14 6 2 10 8 104 28

Total # of neighbors = 8238202
Ave neighs/atom = 28.530471
Neighbor list builds = 1
Dangerous builds = 0
The dot product: 3.19244974451722e-06
Setting atom values ...
  1 settings made for x
  1 settings made for y
  1 settings made for z
Setting up cg style minimization ...
  Unit style    : metal
  Current step  : 2671
Per MPI rank memory allocation (min/avg/max) = 5.425 | 5.522 | 5.555 Mbytes
Step PotEng KinEng TotEng v_fx v_fy v_fz 
    2671   -1152449.3            0   -1152449.3  0.022726588 0.0038555412  0.036411548 
    2794   -1152449.3            0   -1152449.3 8.4537601e-06 -1.0869857e-05 4.2019494e-06 
Loop time of 0.803619 on 208 procs for 123 steps with 288751 atoms

99.9% CPU use with 208 MPI tasks x 1 OpenMP threads

Minimization stats:
  Stopping criterion = energy tolerance
  Energy initial, next-to-last, final = 
     -1152449.34777596  -1152449.34876039  -1152449.34876039
  Force two-norm initial, final = 0.13141539 7.9490314e-05
  Force max component initial, final = 0.048239811 1.9260785e-05
  Final line search alpha, max atom move = 1.0000000 1.9260785e-05
  Iterations, force evaluations = 123 246

MPI task timing breakdown:
Section |  min time  |  avg time  |  max time  |%varavg| %total
---------------------------------------------------------------
Pair    | 3.3492e-05 | 0.54661    | 0.73849    |  24.8 | 68.02
Neigh   | 0          | 0          | 0          |   0.0 |  0.00
Comm    | 3.8026e-05 | 0.10806    | 0.45593    |  30.8 | 13.45
Output  | 0          | 0          | 0          |   0.0 |  0.00
Modify  | 1.1099e-05 | 0.0010157  | 0.0023048  |   1.8 |  0.13
Other   |            | 0.1479     |            |       | 18.41

Nlocal:        1388.23 ave        2040 max           0 min
Histogram: 28 4 0 16 8 0 8 12 96 36
Nghost:        2437.44 ave        3379 max           0 min
Histogram: 24 0 8 8 16 4 12 4 30 102
Neighs:        39606.7 ave       59784 max           0 min
Histogram: 28 4 4 14 6 2 10 8 106 26

Total # of neighbors = 8238191
Ave neighs/atom = 28.530433
Neighbor list builds = 0
Dangerous builds = 0
The dot product: 1.10714662018094e-07
Setting atom values ...
  1 settings made for x
  1 settings made for y
  1 settings made for z
Setting up cg style minimization ...
  Unit style    : metal
  Current step  : 2794
Per MPI rank memory allocation (min/avg/max) = 5.425 | 5.522 | 5.555 Mbytes
Step PotEng KinEng TotEng v_fx v_fy v_fz 
    2794   -1152449.3            0   -1152449.3 0.0091125991  0.006479844  0.018808495 
    2983   -1152449.4            0   -1152449.4 1.8647278e-05 -8.0202337e-06 2.2065012e-05 
Loop time of 1.26783 on 208 procs for 189 steps with 288751 atoms

99.9% CPU use with 208 MPI tasks x 1 OpenMP threads

Minimization stats:
  Stopping criterion = energy tolerance
  Energy initial, next-to-last, final = 
     -1152449.34988145  -1152449.35078545  -1152449.35078545
  Force two-norm initial, final = 0.12512639 9.0826757e-05
  Force max component initial, final = 0.047514142 2.2065012e-05
  Final line search alpha, max atom move = 1.0000000 2.2065012e-05
  Iterations, force evaluations = 189 378

MPI task timing breakdown:
Section |  min time  |  avg time  |  max time  |%varavg| %total
---------------------------------------------------------------
Pair    | 5.2089e-05 | 0.84629    | 1.1391     |  30.9 | 66.75
Neigh   | 0          | 0          | 0          |   0.0 |  0.00
Comm    | 5.8564e-05 | 0.17058    | 0.71826    |  38.2 | 13.45
Output  | 0          | 0          | 0          |   0.0 |  0.00
Modify  | 1.7892e-05 | 0.0015562  | 0.0035634  |   2.3 |  0.12
Other   |            | 0.2494     |            |       | 19.67

Nlocal:        1388.23 ave        2040 max           0 min
Histogram: 28 4 0 16 8 0 8 12 96 36
Nghost:        2437.44 ave        3379 max           0 min
Histogram: 24 0 8 8 16 4 12 4 30 102
Neighs:        39606.7 ave       59784 max           0 min
Histogram: 28 4 4 14 6 2 10 8 106 26

Total # of neighbors = 8238193
Ave neighs/atom = 28.530440
Neighbor list builds = 0
Dangerous builds = 0
The dot product: 2.55761948061357e-09
Setting atom values ...
  1 settings made for x
  1 settings made for y
  1 settings made for z
Setting up cg style minimization ...
  Unit style    : metal
  Current step  : 2983
Per MPI rank memory allocation (min/avg/max) = 5.425 | 5.522 | 5.555 Mbytes
Step PotEng KinEng TotEng v_fx v_fy v_fz 
    2983   -1152449.4            0   -1152449.4  0.010059378   0.00649848  0.020280444 
    3000   -1152449.4            0   -1152449.4 -0.00012664333 -0.00058344891 -0.00064340513 
    3166   -1152449.4            0   -1152449.4 -3.8125644e-06 -9.1722369e-06 -1.2876937e-05 
Loop time of 1.19596 on 208 procs for 183 steps with 288751 atoms

99.9% CPU use with 208 MPI tasks x 1 OpenMP threads

Minimization stats:
  Stopping criterion = energy tolerance
  Energy initial, next-to-last, final = 
     -1152449.35066609  -1152449.35156736  -1152449.35156736
  Force two-norm initial, final = 0.12556565 0.00011658191
  Force max component initial, final = 0.046961814 1.2876937e-05
  Final line search alpha, max atom move = 1.0000000 1.2876937e-05
  Iterations, force evaluations = 183 366

MPI task timing breakdown:
Section |  min time  |  avg time  |  max time  |%varavg| %total
---------------------------------------------------------------
Pair    | 5.0357e-05 | 0.81406    | 1.1006     |  30.3 | 68.07
Neigh   | 0          | 0          | 0          |   0.0 |  0.00
Comm    | 5.6643e-05 | 0.16089    | 0.67886    |  37.5 | 13.45
Output  | 0.00010137 | 0.00010318 | 0.00016885 |   0.0 |  0.01
Modify  | 1.687e-05  | 0.0015116  | 0.0034401  |   2.2 |  0.13
Other   |            | 0.2194     |            |       | 18.34

Nlocal:        1388.23 ave        2040 max           0 min
Histogram: 28 4 0 16 8 0 8 12 96 36
Nghost:        2437.44 ave        3379 max           0 min
Histogram: 24 0 8 8 16 4 12 4 30 102
Neighs:        39606.7 ave       59784 max           0 min
Histogram: 28 4 4 14 6 2 10 8 106 26

Total # of neighbors = 8238189
Ave neighs/atom = 28.530426
Neighbor list builds = 0
Dangerous builds = 0
The dot product: -2.43276649642491e-08
Setting atom values ...
  1 settings made for x
  1 settings made for y
  1 settings made for z
Setting up cg style minimization ...
  Unit style    : metal
  Current step  : 3166
Per MPI rank memory allocation (min/avg/max) = 5.425 | 5.522 | 5.555 Mbytes
Step PotEng KinEng TotEng v_fx v_fy v_fz 
    3166   -1152449.4            0   -1152449.4 0.0093004208 0.0065480405  0.019231579 
    3349   -1152449.4            0   -1152449.4  2.35776e-06 -8.1249752e-07 2.9541959e-06 
Loop time of 1.19859 on 208 procs for 183 steps with 288751 atoms

99.9% CPU use with 208 MPI tasks x 1 OpenMP threads

Minimization stats:
  Stopping criterion = energy tolerance
  Energy initial, next-to-last, final = 
     -1152449.35013038  -1152449.35102349  -1152449.35102349
  Force two-norm initial, final = 0.12498917 0.00011964445
  Force max component initial, final = 0.046336421 6.9188950e-06
  Final line search alpha, max atom move = 1.0000000 6.9188950e-06
  Iterations, force evaluations = 183 366

MPI task timing breakdown:
Section |  min time  |  avg time  |  max time  |%varavg| %total
---------------------------------------------------------------
Pair    | 4.8798e-05 | 0.81971    | 1.1036     |  30.5 | 68.39
Neigh   | 0          | 0          | 0          |   0.0 |  0.00
Comm    | 5.7734e-05 | 0.16327    | 0.69565    |  37.7 | 13.62
Output  | 0          | 0          | 0          |   0.0 |  0.00
Modify  | 1.6705e-05 | 0.0015067  | 0.0034589  |   2.2 |  0.13
Other   |            | 0.2141     |            |       | 17.86

Nlocal:        1388.23 ave        2040 max           0 min
Histogram: 28 4 0 16 8 0 8 12 96 36
Nghost:        2437.44 ave        3379 max           0 min
Histogram: 24 0 8 8 16 4 12 4 30 102
Neighs:        39606.7 ave       59784 max           0 min
Histogram: 28 4 4 14 6 2 10 8 106 26

Total # of neighbors = 8238191
Ave neighs/atom = 28.530433
Neighbor list builds = 0
Dangerous builds = 0
The dot product: 3.29550542405173e-09
Setting atom values ...
  1 settings made for x
  1 settings made for y
  1 settings made for z
Setting up cg style minimization ...
  Unit style    : metal
  Current step  : 3349
Per MPI rank memory allocation (min/avg/max) = 5.425 | 5.522 | 5.555 Mbytes
Step PotEng KinEng TotEng v_fx v_fy v_fz 
    3349   -1152449.3            0   -1152449.3  0.008363347 0.0064012576  0.017747602 
    3546   -1152449.3            0   -1152449.3 9.5064484e-06 -1.135494e-05 5.6321733e-06 
Loop time of 1.2956 on 208 procs for 197 steps with 288751 atoms

99.9% CPU use with 208 MPI tasks x 1 OpenMP threads

Minimization stats:
  Stopping criterion = energy tolerance
  Energy initial, next-to-last, final = 
      -1152449.3482477  -1152449.34912819  -1152449.34912819
  Force two-norm initial, final = 0.12404395 8.3850068e-05
  Force max component initial, final = 0.045686954 1.1354940e-05
  Final line search alpha, max atom move = 1.0000000 1.1354940e-05
  Iterations, force evaluations = 197 394

MPI task timing breakdown:
Section |  min time  |  avg time  |  max time  |%varavg| %total
---------------------------------------------------------------
Pair    | 5.2296e-05 | 0.87735    | 1.1862     |  31.5 | 67.72
Neigh   | 0          | 0          | 0          |   0.0 |  0.00
Comm    | 5.9929e-05 | 0.17344    | 0.73309    |  39.1 | 13.39
Output  | 0          | 0          | 0          |   0.0 |  0.00
Modify  | 1.7546e-05 | 0.0016199  | 0.0036737  |   2.3 |  0.13
Other   |            | 0.2432     |            |       | 18.77

Nlocal:        1388.23 ave        2040 max           0 min
Histogram: 28 4 0 16 8 0 8 12 96 36
Nghost:        2437.46 ave        3379 max           0 min
Histogram: 24 0 8 8 16 4 12 4 30 102
Neighs:        39606.7 ave       59774 max           0 min
Histogram: 28 4 4 14 6 2 10 8 104 28

Total # of neighbors = 8238191
Ave neighs/atom = 28.530433
Neighbor list builds = 0
Dangerous builds = 0
The dot product: -2.61544557455537e-09
Setting atom values ...
  1 settings made for x
  1 settings made for y
  1 settings made for z
Setting up cg style minimization ...
  Unit style    : metal
  Current step  : 3546
Per MPI rank memory allocation (min/avg/max) = 5.425 | 5.522 | 5.555 Mbytes
Step PotEng KinEng TotEng v_fx v_fy v_fz 
    3546   -1152449.3            0   -1152449.3 0.0074289733 0.0059702137  0.016030195 
    3742   -1152449.3            0   -1152449.3 -1.7435653e-06 -1.7880008e-07 -2.8042725e-06 
Loop time of 1.27949 on 208 procs for 196 steps with 288751 atoms

99.9% CPU use with 208 MPI tasks x 1 OpenMP threads

Minimization stats:
  Stopping criterion = energy tolerance
  Energy initial, next-to-last, final = 
     -1152449.34500899  -1152449.34587535  -1152449.34587535
  Force two-norm initial, final = 0.12306677 8.4427783e-05
  Force max component initial, final = 0.044991673 7.1775006e-06
  Final line search alpha, max atom move = 1.0000000 7.1775006e-06
  Iterations, force evaluations = 196 392

MPI task timing breakdown:
Section |  min time  |  avg time  |  max time  |%varavg| %total
---------------------------------------------------------------
Pair    | 5.2761e-05 | 0.8743     | 1.1775     |  31.4 | 68.33
Neigh   | 0          | 0          | 0          |   0.0 |  0.00
Comm    | 5.9654e-05 | 0.17348    | 0.74045    |  39.0 | 13.56
Output  | 0          | 0          | 0          |   0.0 |  0.00
Modify  | 1.8592e-05 | 0.0016156  | 0.0036944  |   2.3 |  0.13
Other   |            | 0.2301     |            |       | 17.98

Nlocal:        1388.23 ave        2041 max           0 min
Histogram: 28 4 0 16 8 0 8 12 96 36
Nghost:        2437.48 ave        3379 max           0 min
Histogram: 24 0 8 8 16 4 12 4 30 102
Neighs:        39606.7 ave       59805 max           0 min
Histogram: 28 4 4 14 6 2 10 8 106 26

Total # of neighbors = 8238190
Ave neighs/atom = 28.530429
Neighbor list builds = 0
Dangerous builds = 0
The dot product: -2.68545889456967e-09
Setting atom values ...
  1 settings made for x
  1 settings made for y
  1 settings made for z
Setting up cg style minimization ...
  Unit style    : metal
  Current step  : 3742
Per MPI rank memory allocation (min/avg/max) = 5.425 | 5.522 | 5.555 Mbytes
Step PotEng KinEng TotEng v_fx v_fy v_fz 
    3742   -1152449.3            0   -1152449.3 0.0066350186 0.0052760129  0.014306375 
    3927   -1152449.3            0   -1152449.3 -6.9566494e-06 1.2949951e-05 -4.6349268e-07 
Loop time of 1.21675 on 208 procs for 185 steps with 288751 atoms

99.9% CPU use with 208 MPI tasks x 1 OpenMP threads

Minimization stats:
  Stopping criterion = energy tolerance
  Energy initial, next-to-last, final = 
     -1152449.34040436  -1152449.34125875  -1152449.34125875
  Force two-norm initial, final = 0.12230947 0.00010739114
  Force max component initial, final = 0.044288716 1.2949951e-05
  Final line search alpha, max atom move = 1.0000000 1.2949951e-05
  Iterations, force evaluations = 185 370

MPI task timing breakdown:
Section |  min time  |  avg time  |  max time  |%varavg| %total
---------------------------------------------------------------
Pair    | 4.9325e-05 | 0.82211    | 1.1113     |  30.4 | 67.57
Neigh   | 0          | 0          | 0          |   0.0 |  0.00
Comm    | 5.695e-05  | 0.16193    | 0.68124    |  37.7 | 13.31
Output  | 0          | 0          | 0          |   0.0 |  0.00
Modify  | 1.6797e-05 | 0.0015258  | 0.0034973  |   2.3 |  0.13
Other   |            | 0.2312     |            |       | 19.00

Nlocal:        1388.23 ave        2040 max           0 min
Histogram: 28 4 0 16 8 0 8 12 96 36
Nghost:        2437.48 ave        3379 max           0 min
Histogram: 24 0 8 8 16 4 12 4 30 102
Neighs:        39606.7 ave       59782 max           0 min
Histogram: 28 4 4 14 6 2 10 8 106 26

Total # of neighbors = 8238190
Ave neighs/atom = 28.530429
Neighbor list builds = 0
Dangerous builds = 0
The dot product: 7.19282906068903e-09
Setting atom values ...
  1 settings made for x
  1 settings made for y
  1 settings made for z
Setting up cg style minimization ...
  Unit style    : metal
  Current step  : 3927
Per MPI rank memory allocation (min/avg/max) = 5.425 | 5.522 | 5.555 Mbytes
Step PotEng KinEng TotEng v_fx v_fy v_fz 
    3927   -1152449.3            0   -1152449.3 0.0060706349 0.0042793646   0.01268339 
    4000   -1152449.3            0   -1152449.3 -8.0108503e-05 3.621903e-05 -9.4245536e-05 
    4112   -1152449.3            0   -1152449.3 -7.3713471e-07 4.1034155e-06 2.1071381e-06 
Loop time of 1.22538 on 208 procs for 185 steps with 288751 atoms

99.9% CPU use with 208 MPI tasks x 1 OpenMP threads

Minimization stats:
  Stopping criterion = energy tolerance
  Energy initial, next-to-last, final = 
     -1152449.33441859  -1152449.33526647  -1152449.33526647
  Force two-norm initial, final = 0.12190596 0.00010589538
  Force max component initial, final = 0.044148491 1.1761423e-05
  Final line search alpha, max atom move = 1.0000000 1.1761423e-05
  Iterations, force evaluations = 185 370

MPI task timing breakdown:
Section |  min time  |  avg time  |  max time  |%varavg| %total
---------------------------------------------------------------
Pair    | 5.1191e-05 | 0.82595    | 1.1155     |  30.6 | 67.40
Neigh   | 0          | 0          | 0          |   0.0 |  0.00
Comm    | 5.7352e-05 | 0.16504    | 0.70324    |  37.9 | 13.47
Output  | 0.00015548 | 0.00015806 | 0.00024575 |   0.0 |  0.01
Modify  | 1.7617e-05 | 0.0015264  | 0.0034569  |   2.3 |  0.12
Other   |            | 0.2327     |            |       | 18.99

Nlocal:        1388.23 ave        2040 max           0 min
Histogram: 28 4 0 16 8 0 8 12 96 36
Nghost:        2437.47 ave        3379 max           0 min
Histogram: 24 0 8 8 16 4 12 4 30 102
Neighs:        39606.7 ave       59782 max           0 min
Histogram: 28 4 4 14 6 2 10 8 106 26

Total # of neighbors = 8238192
Ave neighs/atom = 28.530436
Neighbor list builds = 0
Dangerous builds = 0
The dot product: 3.06936829827659e-09
Setting atom values ...
  1 settings made for x
  1 settings made for y
  1 settings made for z
Setting up cg style minimization ...
  Unit style    : metal
  Current step  : 4112
Per MPI rank memory allocation (min/avg/max) = 5.425 | 5.522 | 5.555 Mbytes
Step PotEng KinEng TotEng v_fx v_fy v_fz 
    4112   -1152449.3            0   -1152449.3 0.0057729593 0.0029533473  0.011198388 
    4276   -1152449.3            0   -1152449.3 6.1779143e-07 -5.7312826e-05 -4.4374028e-05 
Loop time of 1.09835 on 208 procs for 164 steps with 288751 atoms

99.9% CPU use with 208 MPI tasks x 1 OpenMP threads

Minimization stats:
  Stopping criterion = energy tolerance
  Energy initial, next-to-last, final = 
      -1152449.3270309  -1152449.32787744  -1152449.32787744
  Force two-norm initial, final = 0.12189523 0.00023956295
  Force max component initial, final = 0.043986695 5.7312826e-05
  Final line search alpha, max atom move = 1.0000000 5.7312826e-05
  Iterations, force evaluations = 164 328

MPI task timing breakdown:
Section |  min time  |  avg time  |  max time  |%varavg| %total
---------------------------------------------------------------
Pair    | 4.4154e-05 | 0.73081    | 0.98717    |  28.7 | 66.54
Neigh   | 0          | 0          | 0          |   0.0 |  0.00
Comm    | 5.2959e-05 | 0.14646    | 0.61212    |  35.2 | 13.33
Output  | 0          | 0          | 0          |   0.0 |  0.00
Modify  | 1.5469e-05 | 0.0013544  | 0.003088   |   2.1 |  0.12
Other   |            | 0.2197     |            |       | 20.01

Nlocal:        1388.23 ave        2040 max           0 min
Histogram: 28 4 0 16 8 0 8 12 96 36
Nghost:        2437.47 ave        3379 max           0 min
Histogram: 24 0 8 8 16 4 12 4 30 102
Neighs:        39606.7 ave       59772 max           0 min
Histogram: 28 4 4 14 6 2 10 8 104 28

Total # of neighbors = 8238189
Ave neighs/atom = 28.530426
Neighbor list builds = 0
Dangerous builds = 0
The dot product: -3.93841320634796e-08
Setting atom values ...
  1 settings made for x
  1 settings made for y
  1 settings made for z
Setting up cg style minimization ...
  Unit style    : metal
  Current step  : 4276
Per MPI rank memory allocation (min/avg/max) = 5.425 | 5.522 | 5.555 Mbytes
Step PotEng KinEng TotEng v_fx v_fy v_fz 
    4276   -1152449.3            0   -1152449.3 0.0057631736 0.0012965151 0.0098865413 
    4462   -1152449.3            0   -1152449.3 -1.9495818e-07 -2.0101751e-05 -1.6224022e-05 
Loop time of 1.21827 on 208 procs for 186 steps with 288751 atoms

99.9% CPU use with 208 MPI tasks x 1 OpenMP threads

Minimization stats:
  Stopping criterion = energy tolerance
  Energy initial, next-to-last, final = 
     -1152449.31821052  -1152449.31906178  -1152449.31906178
  Force two-norm initial, final = 0.12222076 0.00010546995
  Force max component initial, final = 0.043873052 2.5561947e-05
  Final line search alpha, max atom move = 1.0000000 2.5561947e-05
  Iterations, force evaluations = 186 372

MPI task timing breakdown:
Section |  min time  |  avg time  |  max time  |%varavg| %total
---------------------------------------------------------------
Pair    | 4.938e-05  | 0.83341    | 1.119      |  30.7 | 68.41
Neigh   | 0          | 0          | 0          |   0.0 |  0.00
Comm    | 5.8549e-05 | 0.16607    | 0.70235    |  38.0 | 13.63
Output  | 0          | 0          | 0          |   0.0 |  0.00
Modify  | 1.7274e-05 | 0.0015346  | 0.003496   |   2.3 |  0.13
Other   |            | 0.2173     |            |       | 17.83

Nlocal:        1388.23 ave        2040 max           0 min
Histogram: 28 4 0 16 8 0 8 12 96 36
Nghost:        2437.48 ave        3379 max           0 min
Histogram: 24 0 8 8 16 4 12 4 30 102
Neighs:        39606.7 ave       59772 max           0 min
Histogram: 28 4 4 14 6 2 10 8 104 28

Total # of neighbors = 8238188
Ave neighs/atom = 28.530422
Neighbor list builds = 0
Dangerous builds = 0
The dot product: -7.84373178462068e-09
Setting atom values ...
  1 settings made for x
  1 settings made for y
  1 settings made for z
Setting up cg style minimization ...
  Unit style    : metal
  Current step  : 4462
Per MPI rank memory allocation (min/avg/max) = 5.425 | 5.522 | 5.555 Mbytes
Step PotEng KinEng TotEng v_fx v_fy v_fz 
    4462   -1152449.3            0   -1152449.3 0.0060183306 -0.00052593594  0.008845631 
    4643   -1152449.3            0   -1152449.3 1.7903793e-06 -8.7692794e-09 2.748577e-06 
Loop time of 1.18162 on 208 procs for 181 steps with 288751 atoms

99.9% CPU use with 208 MPI tasks x 1 OpenMP threads

Minimization stats:
  Stopping criterion = energy tolerance
  Energy initial, next-to-last, final = 
     -1152449.30792682  -1152449.30878496  -1152449.30878496
  Force two-norm initial, final = 0.12279341 0.00011931304
  Force max component initial, final = 0.043674444 3.3523215e-06
  Final line search alpha, max atom move = 1.0000000 3.3523215e-06
  Iterations, force evaluations = 181 362

MPI task timing breakdown:
Section |  min time  |  avg time  |  max time  |%varavg| %total
---------------------------------------------------------------
Pair    | 4.8259e-05 | 0.80422    | 1.0874     |  30.1 | 68.06
Neigh   | 0          | 0          | 0          |   0.0 |  0.00
Comm    | 5.5213e-05 | 0.15952    | 0.67627    |  37.2 | 13.50
Output  | 0          | 0          | 0          |   0.0 |  0.00
Modify  | 1.6294e-05 | 0.001496   | 0.0034038  |   2.2 |  0.13
Other   |            | 0.2164     |            |       | 18.31

Nlocal:        1388.23 ave        2040 max           0 min
Histogram: 28 4 0 16 8 0 8 12 96 36
Nghost:        2437.45 ave        3379 max           0 min
Histogram: 24 0 8 8 16 4 12 4 30 102
Neighs:        39606.7 ave       59772 max           0 min
Histogram: 28 4 4 14 6 2 10 8 104 28

Total # of neighbors = 8238188
Ave neighs/atom = 28.530422
Neighbor list builds = 0
Dangerous builds = 0
The dot product: 1.77062404421584e-09
Setting atom values ...
  1 settings made for x
  1 settings made for y
  1 settings made for z
Setting up cg style minimization ...
  Unit style    : metal
  Current step  : 4643
Per MPI rank memory allocation (min/avg/max) = 5.425 | 5.522 | 5.555 Mbytes
Step PotEng KinEng TotEng v_fx v_fy v_fz 
    4643   -1152449.3            0   -1152449.3 0.0066163593 -0.0025426785 0.0081792602 
    4838   -1152449.3            0   -1152449.3 4.655589e-06 -1.9299324e-06 5.6436495e-06 
Loop time of 1.2749 on 208 procs for 195 steps with 288751 atoms

99.9% CPU use with 208 MPI tasks x 1 OpenMP threads

Minimization stats:
  Stopping criterion = energy tolerance
  Energy initial, next-to-last, final = 
      -1152449.2961521  -1152449.29701595  -1152449.29701595
  Force two-norm initial, final = 0.12347017 8.4120074e-05
  Force max component initial, final = 0.043487625 5.6436495e-06
  Final line search alpha, max atom move = 1.0000000 5.6436495e-06
  Iterations, force evaluations = 195 390

MPI task timing breakdown:
Section |  min time  |  avg time  |  max time  |%varavg| %total
---------------------------------------------------------------
Pair    | 5.2383e-05 | 0.87308    | 1.1716     |  31.4 | 68.48
Neigh   | 0          | 0          | 0          |   0.0 |  0.00
Comm    | 6.0509e-05 | 0.17383    | 0.73902    |  38.9 | 13.63
Output  | 0          | 0          | 0          |   0.0 |  0.00
Modify  | 1.8273e-05 | 0.0016086  | 0.0036743  |   2.3 |  0.13
Other   |            | 0.2264     |            |       | 17.76

Nlocal:        1388.23 ave        2040 max           0 min
Histogram: 28 4 0 16 8 0 8 12 96 36
Nghost:        2437.44 ave        3379 max           0 min
Histogram: 24 0 8 8 16 4 12 4 30 102
Neighs:        39606.7 ave       59772 max           0 min
Histogram: 28 4 4 14 6 2 10 8 104 28

Total # of neighbors = 8238189
Ave neighs/atom = 28.530426
Neighbor list builds = 0
Dangerous builds = 0
The dot product: 5.39573142169817e-09
Setting atom values ...
  1 settings made for x
  1 settings made for y
  1 settings made for z
Setting up cg style minimization ...
  Unit style    : metal
  Current step  : 4838
Per MPI rank memory allocation (min/avg/max) = 5.425 | 5.522 | 5.555 Mbytes
Step PotEng KinEng TotEng v_fx v_fy v_fz 
    4838   -1152449.3            0   -1152449.3 0.0076514476 -0.0046796693 0.0080972774 
    5000   -1152449.3            0   -1152449.3 5.0752972e-05 -2.8108494e-05 5.6035725e-05 
    5012   -1152449.3            0   -1152449.3 4.4539798e-06 -3.7699895e-05 -2.3024516e-05 
Loop time of 1.14815 on 208 procs for 174 steps with 288751 atoms

99.9% CPU use with 208 MPI tasks x 1 OpenMP threads

Minimization stats:
  Stopping criterion = energy tolerance
  Energy initial, next-to-last, final = 
     -1152449.28286854  -1152449.28373344  -1152449.28373344
  Force two-norm initial, final = 0.1241153 0.00015545457
  Force max component initial, final = 0.04329229 3.7699895e-05
  Final line search alpha, max atom move = 1.0000000 3.7699895e-05
  Iterations, force evaluations = 174 348

MPI task timing breakdown:
Section |  min time  |  avg time  |  max time  |%varavg| %total
---------------------------------------------------------------
Pair    | 4.6813e-05 | 0.77429    | 1.0505     |  29.6 | 67.44
Neigh   | 0          | 0          | 0          |   0.0 |  0.00
Comm    | 5.3026e-05 | 0.15367    | 0.64404    |  36.4 | 13.38
Output  | 0.00011868 | 0.00012088 | 0.00023292 |   0.0 |  0.01
Modify  | 1.5909e-05 | 0.0014323  | 0.0032964  |   2.2 |  0.12
Other   |            | 0.2186     |            |       | 19.04

Nlocal:        1388.23 ave        2040 max           0 min
Histogram: 28 4 0 16 8 0 8 12 96 36
Nghost:        2437.44 ave        3379 max           0 min
Histogram: 24 0 8 8 16 4 12 4 30 102
Neighs:        39606.7 ave       59772 max           0 min
Histogram: 28 4 4 14 6 2 10 8 104 28

Total # of neighbors = 8238186
Ave neighs/atom = 28.530415
Neighbor list builds = 0
Dangerous builds = 0
The dot product: 1.45405799776373e-08
Setting atom values ...
  1 settings made for x
  1 settings made for y
  1 settings made for z
Setting up cg style minimization ...
  Unit style    : metal
  Current step  : 5012
Per MPI rank memory allocation (min/avg/max) = 5.425 | 5.522 | 5.555 Mbytes
Step PotEng KinEng TotEng v_fx v_fy v_fz 
    5012   -1152449.3            0   -1152449.3  0.009248425 -0.0067589886   0.00894358 
    5191   -1152449.3            0   -1152449.3 -1.1144019e-05 -2.4380054e-06 -1.9164741e-05 
Loop time of 1.17792 on 208 procs for 179 steps with 288751 atoms

99.9% CPU use with 208 MPI tasks x 1 OpenMP threads

Minimization stats:
  Stopping criterion = energy tolerance
  Energy initial, next-to-last, final = 
     -1152449.26807733    -1152449.268936    -1152449.268936
  Force two-norm initial, final = 0.12466478 0.000141545
  Force max component initial, final = 0.043121029 3.6288605e-05
  Final line search alpha, max atom move = 1.0000000 3.6288605e-05
  Iterations, force evaluations = 179 358

MPI task timing breakdown:
Section |  min time  |  avg time  |  max time  |%varavg| %total
---------------------------------------------------------------
Pair    | 4.7708e-05 | 0.8008     | 1.0793     |  30.1 | 67.98
Neigh   | 0          | 0          | 0          |   0.0 |  0.00
Comm    | 5.4261e-05 | 0.1603     | 0.68661    |  37.4 | 13.61
Output  | 0          | 0          | 0          |   0.0 |  0.00
Modify  | 1.5851e-05 | 0.0014734  | 0.0033494  |   2.2 |  0.13
Other   |            | 0.2154     |            |       | 18.28

Nlocal:        1388.23 ave        2040 max           0 min
Histogram: 28 4 0 16 8 0 8 12 96 36
Nghost:        2437.46 ave        3379 max           0 min
Histogram: 24 0 8 8 16 4 12 4 30 102
Neighs:        39606.7 ave       59772 max           0 min
Histogram: 28 4 4 14 6 2 10 8 104 28

Total # of neighbors = 8238187
Ave neighs/atom = 28.530419
Neighbor list builds = 0
Dangerous builds = 0
The dot product: -2.38799584419532e-08
Setting atom values ...
  1 settings made for x
  1 settings made for y
  1 settings made for z
Setting up cg style minimization ...
  Unit style    : metal
  Current step  : 5191
Per MPI rank memory allocation (min/avg/max) = 5.425 | 5.522 | 5.555 Mbytes
Step PotEng KinEng TotEng v_fx v_fy v_fz 
    5191   -1152449.3            0   -1152449.3  0.011588617 -0.0084982367  0.011237919 
    5374   -1152449.3            0   -1152449.3 -1.3306826e-05 6.5462433e-06 -1.5448834e-05 
Loop time of 1.2004 on 208 procs for 183 steps with 288751 atoms

99.9% CPU use with 208 MPI tasks x 1 OpenMP threads

Minimization stats:
  Stopping criterion = energy tolerance
  Energy initial, next-to-last, final = 
     -1152449.25181272  -1152449.25265708  -1152449.25265708
  Force two-norm initial, final = 0.12528347 0.00010992022
  Force max component initial, final = 0.04490636 1.5448834e-05
  Final line search alpha, max atom move = 1.0000000 1.5448834e-05
  Iterations, force evaluations = 183 366

MPI task timing breakdown:
Section |  min time  |  avg time  |  max time  |%varavg| %total
---------------------------------------------------------------
Pair    | 4.8649e-05 | 0.81379    | 1.0998     |  30.3 | 67.79
Neigh   | 0          | 0          | 0          |   0.0 |  0.00
Comm    | 5.6169e-05 | 0.16058    | 0.68179    |  37.6 | 13.38
Output  | 0          | 0          | 0          |   0.0 |  0.00
Modify  | 1.6523e-05 | 0.0015093  | 0.0034555  |   2.2 |  0.13
Other   |            | 0.2245     |            |       | 18.70

Nlocal:        1388.23 ave        2040 max           0 min
Histogram: 28 4 0 16 8 0 8 12 96 36
Nghost:        2437.46 ave        3379 max           0 min
Histogram: 24 0 8 8 16 4 12 4 30 102
Neighs:        39606.7 ave       59762 max           0 min
Histogram: 28 4 4 14 6 2 10 8 104 28

Total # of neighbors = 8238187
Ave neighs/atom = 28.530419
Neighbor list builds = 0
Dangerous builds = 0
The dot product: -4.65626401408824e-08
Setting atom values ...
  1 settings made for x
  1 settings made for y
  1 settings made for z
Setting up cg style minimization ...
  Unit style    : metal
  Current step  : 5374
Per MPI rank memory allocation (min/avg/max) = 5.425 | 5.522 | 5.555 Mbytes
Step PotEng KinEng TotEng v_fx v_fy v_fz 
    5374   -1152449.2            0   -1152449.2  0.015143238 -0.0098621909  0.015775405 
    5605   -1152449.2            0   -1152449.2 -2.1885074e-06 3.3073323e-07 -3.1474055e-06 
Loop time of 1.54576 on 208 procs for 231 steps with 288751 atoms

99.9% CPU use with 208 MPI tasks x 1 OpenMP threads

Minimization stats:
  Stopping criterion = energy tolerance
  Energy initial, next-to-last, final = 
     -1152449.23417573  -1152449.23501393  -1152449.23501393
  Force two-norm initial, final = 0.12680649 1.6523657e-05
  Force max component initial, final = 0.048149383 3.1474055e-06
  Final line search alpha, max atom move = 1.0000000 3.1474055e-06
  Iterations, force evaluations = 231 462

MPI task timing breakdown:
Section |  min time  |  avg time  |  max time  |%varavg| %total
---------------------------------------------------------------
Pair    | 6.2964e-05 | 1.0311     | 1.391      |  34.1 | 66.70
Neigh   | 0          | 0          | 0          |   0.0 |  0.00
Comm    | 7.2237e-05 | 0.20763    | 0.88455    |  42.5 | 13.43
Output  | 0          | 0          | 0          |   0.0 |  0.00
Modify  | 2.1564e-05 | 0.0019001  | 0.0043418  |   2.5 |  0.12
Other   |            | 0.3052     |            |       | 19.74

Nlocal:        1388.23 ave        2040 max           0 min
Histogram: 28 4 0 16 8 0 8 12 96 36
Nghost:        2437.46 ave        3379 max           0 min
Histogram: 24 0 8 8 16 4 12 4 30 102
Neighs:        39606.7 ave       59762 max           0 min
Histogram: 28 4 4 14 6 2 10 8 104 28

Total # of neighbors = 8238185
Ave neighs/atom = 28.530412
Neighbor list builds = 0
Dangerous builds = 0
The dot product: -1.45653986240675e-08
Setting atom values ...
  1 settings made for x
  1 settings made for y
  1 settings made for z
Setting up cg style minimization ...
  Unit style    : metal
  Current step  : 5605
Per MPI rank memory allocation (min/avg/max) = 5.425 | 5.522 | 5.555 Mbytes
Step PotEng KinEng TotEng v_fx v_fy v_fz 
    5605   -1152449.2            0   -1152449.2   0.02075423 -0.010397815   0.02435071 
    5848   -1152449.2            0   -1152449.2 -1.6135303e-05 1.2086759e-07 -2.5266287e-05 
Loop time of 1.58865 on 208 procs for 243 steps with 288751 atoms

99.9% CPU use with 208 MPI tasks x 1 OpenMP threads

Minimization stats:
  Stopping criterion = energy tolerance
  Energy initial, next-to-last, final = 
     -1152449.21545746   -1152449.2493774   -1152449.2493774
  Force two-norm initial, final = 0.1320371 0.00013086961
  Force max component initial, final = 0.051373481 2.5266287e-05
  Final line search alpha, max atom move = 1.0000000 2.5266287e-05
  Iterations, force evaluations = 243 486

MPI task timing breakdown:
Section |  min time  |  avg time  |  max time  |%varavg| %total
---------------------------------------------------------------
Pair    | 6.4551e-05 | 1.0785     | 1.4568     |  34.7 | 67.89
Neigh   | 4.4638e-06 | 0.0015767  | 0.0023524  |   1.9 |  0.10
Comm    | 0.00018088 | 0.21284    | 0.90349    |  43.3 | 13.40
Output  | 0          | 0          | 0          |   0.0 |  0.00
Modify  | 2.1982e-05 | 0.0020051  | 0.0045466  |   2.6 |  0.13
Other   |            | 0.2938     |            |       | 18.49

Nlocal:        1388.23 ave        2040 max           0 min
Histogram: 28 4 0 16 8 0 8 12 96 36
Nghost:        2437.48 ave        3379 max           0 min
Histogram: 24 0 8 8 16 4 12 4 30 102
Neighs:        39606.7 ave       59762 max           0 min
Histogram: 28 4 4 14 6 2 10 8 104 28

Total # of neighbors = 8238187
Ave neighs/atom = 28.530419
Neighbor list builds = 1
Dangerous builds = 0
The dot product: -3.75250236405086e-06
Setting atom values ...
  1 settings made for x
  1 settings made for y
  1 settings made for z
Setting up cg style minimization ...
  Unit style    : metal
  Current step  : 5848
Per MPI rank memory allocation (min/avg/max) = 5.425 | 5.522 | 5.555 Mbytes
Step PotEng KinEng TotEng v_fx v_fy v_fz 
    5848   -1152449.2            0   -1152449.2  0.029495945 -0.037290044   0.02393951 
    6000   -1152449.2            0   -1152449.2 0.00014557914 -8.0034732e-05 0.00023141156 
    6082   -1152449.2            0   -1152449.2 2.7796704e-06 7.5060599e-06 1.4255674e-05 
Loop time of 1.53029 on 208 procs for 234 steps with 288751 atoms

99.9% CPU use with 208 MPI tasks x 1 OpenMP threads

Minimization stats:
  Stopping criterion = energy tolerance
  Energy initial, next-to-last, final = 
     -1152449.24514001  -1152449.24978585  -1152449.24978585
  Force two-norm initial, final = 0.15311865 8.2357544e-05
  Force max component initial, final = 0.055856116 1.4255674e-05
  Final line search alpha, max atom move = 1.0000000 1.4255674e-05
  Iterations, force evaluations = 234 468

MPI task timing breakdown:
Section |  min time  |  avg time  |  max time  |%varavg| %total
---------------------------------------------------------------
Pair    | 6.319e-05  | 1.045      | 1.4103     |  34.4 | 68.29
Neigh   | 0          | 0          | 0          |   0.0 |  0.00
Comm    | 7.1985e-05 | 0.20833    | 0.89238    |  42.6 | 13.61
Output  | 9.3428e-05 | 9.5865e-05 | 0.00019271 |   0.0 |  0.01
Modify  | 2.2173e-05 | 0.0019272  | 0.0044162  |   2.5 |  0.13
Other   |            | 0.2749     |            |       | 17.96

Nlocal:        1388.23 ave        2039 max           0 min
Histogram: 28 4 0 16 8 0 8 12 96 36
Nghost:        2437.48 ave        3379 max           0 min
Histogram: 24 0 8 8 16 4 12 4 30 102
Neighs:        39606.7 ave       59751 max           0 min
Histogram: 28 4 4 14 6 2 10 8 104 28

Total # of neighbors = 8238184
Ave neighs/atom = 28.530409
Neighbor list builds = 0
Dangerous builds = 0
The dot product: 1.32389158529639e-07
Setting atom values ...
  1 settings made for x
  1 settings made for y
  1 settings made for z
Setting up cg style minimization ...
  Unit style    : metal
  Current step  : 6082
Per MPI rank memory allocation (min/avg/max) = 5.425 | 5.522 | 5.555 Mbytes
Step PotEng KinEng TotEng v_fx v_fy v_fz 
    6082   -1152449.3            0   -1152449.3  0.012416765 -0.036097818 -0.0048133317 
    6223   -1152449.3            0   -1152449.3 7.8326401e-06 -6.5599763e-07 1.9265726e-05 
Loop time of 0.922457 on 208 procs for 141 steps with 288751 atoms

99.9% CPU use with 208 MPI tasks x 1 OpenMP threads

Minimization stats:
  Stopping criterion = energy tolerance
  Energy initial, next-to-last, final = 
     -1152449.25138431  -1152449.25295128  -1152449.25295128
  Force two-norm initial, final = 0.15212955 9.3257383e-05
  Force max component initial, final = 0.055028893 1.9265726e-05
  Final line search alpha, max atom move = 1.0000000 1.9265726e-05
  Iterations, force evaluations = 141 282

MPI task timing breakdown:
Section |  min time  |  avg time  |  max time  |%varavg| %total
---------------------------------------------------------------
Pair    | 3.7774e-05 | 0.6267     | 0.84789    |  26.6 | 67.94
Neigh   | 0          | 0          | 0          |   0.0 |  0.00
Comm    | 4.3252e-05 | 0.12341    | 0.52091    |  33.0 | 13.38
Output  | 0          | 0          | 0          |   0.0 |  0.00
Modify  | 1.2709e-05 | 0.0011665  | 0.0026419  |   2.0 |  0.13
Other   |            | 0.1712     |            |       | 18.56

Nlocal:        1388.23 ave        2040 max           0 min
Histogram: 28 4 0 16 8 0 8 12 96 36
Nghost:        2437.44 ave        3379 max           0 min
Histogram: 24 0 8 8 16 4 12 4 30 102
Neighs:        39606.7 ave       59784 max           0 min
Histogram: 28 4 4 14 6 2 10 8 106 26

Total # of neighbors = 8238185
Ave neighs/atom = 28.530412
Neighbor list builds = 0
Dangerous builds = 0
The dot product: 1.85845208334326e-07
Setting atom values ...
  1 settings made for x
  1 settings made for y
  1 settings made for z
Setting up cg style minimization ...
  Unit style    : metal
  Current step  : 6223
Per MPI rank memory allocation (min/avg/max) = 5.425 | 5.522 | 5.555 Mbytes
Step PotEng KinEng TotEng v_fx v_fy v_fz 
    6223   -1152449.3            0   -1152449.3  0.014065796 -0.051374627 -0.014980808 
    6316   -1152449.3            0   -1152449.3 9.5780892e-06 5.7872731e-06 3.0873682e-05 
Loop time of 0.609462 on 208 procs for 93 steps with 288751 atoms

99.9% CPU use with 208 MPI tasks x 1 OpenMP threads

Minimization stats:
  Stopping criterion = energy tolerance
  Energy initial, next-to-last, final = 
     -1152449.25494838   -1152449.2561446   -1152449.2561446
  Force two-norm initial, final = 0.15291799 0.00016649842
  Force max component initial, final = 0.055616108 3.0873682e-05
  Final line search alpha, max atom move = 1.0000000 3.0873682e-05
  Iterations, force evaluations = 93 186

MPI task timing breakdown:
Section |  min time  |  avg time  |  max time  |%varavg| %total
---------------------------------------------------------------
Pair    | 2.5289e-05 | 0.41652    | 0.55996    |  21.7 | 68.34
Neigh   | 0          | 0          | 0          |   0.0 |  0.00
Comm    | 2.9511e-05 | 0.082573   | 0.35468    |  27.0 | 13.55
Output  | 0          | 0          | 0          |   0.0 |  0.00
Modify  | 8.5321e-06 | 0.00076891 | 0.0017648  |   0.0 |  0.13
Other   |            | 0.1096     |            |       | 17.98

Nlocal:        1388.23 ave        2040 max           0 min
Histogram: 28 4 0 16 8 0 8 12 96 36
Nghost:        2437.44 ave        3379 max           0 min
Histogram: 24 0 8 8 16 4 12 4 30 102
Neighs:        39606.6 ave       59784 max           0 min
Histogram: 28 4 4 14 6 2 10 8 106 26

Total # of neighbors = 8238182
Ave neighs/atom = 28.530402
Neighbor list builds = 0
Dangerous builds = 0
The dot product: 6.36601604906627e-08
Setting atom values ...
  1 settings made for x
  1 settings made for y
  1 settings made for z
Setting up cg style minimization ...
  Unit style    : metal
  Current step  : 6316
Per MPI rank memory allocation (min/avg/max) = 5.425 | 5.522 | 5.555 Mbytes
Step PotEng KinEng TotEng v_fx v_fy v_fz 
    6316   -1152449.3            0   -1152449.3   0.01427789 -0.060402585 -0.021198383 
    6552   -1152449.3            0   -1152449.3 -6.7199499e-06 -5.6627344e-06 -2.3361818e-05 
Loop time of 1.56105 on 208 procs for 236 steps with 288751 atoms

99.9% CPU use with 208 MPI tasks x 1 OpenMP threads

Minimization stats:
  Stopping criterion = energy tolerance
  Energy initial, next-to-last, final = 
     -1152449.25745066  -1152449.30024102  -1152449.30024102
  Force two-norm initial, final = 0.15954324 0.00014035978
  Force max component initial, final = 0.060402585 2.3361818e-05
  Final line search alpha, max atom move = 1.0000000 2.3361818e-05
  Iterations, force evaluations = 236 471

MPI task timing breakdown:
Section |  min time  |  avg time  |  max time  |%varavg| %total
---------------------------------------------------------------
Pair    | 6.2425e-05 | 1.0481     | 1.4172     |  34.3 | 67.14
Neigh   | 4.543e-06  | 0.0015658  | 0.0023193  |   1.9 |  0.10
Comm    | 0.00019916 | 0.20861    | 0.8798     |  42.3 | 13.36
Output  | 0          | 0          | 0          |   0.0 |  0.00
Modify  | 2.115e-05  | 0.0019406  | 0.0044518  |   2.5 |  0.12
Other   |            | 0.3008     |            |       | 19.27

Nlocal:        1388.23 ave        2040 max           0 min
Histogram: 28 4 0 16 8 0 8 12 96 36
Nghost:        2437.44 ave        3379 max           0 min
Histogram: 24 0 8 8 16 4 12 4 30 102
Neighs:        39606.7 ave       59784 max           0 min
Histogram: 28 4 4 14 6 2 10 8 106 26

Total # of neighbors = 8238191
Ave neighs/atom = 28.530433
Neighbor list builds = 1
Dangerous builds = 0
The dot product: -3.90572655136062e-07
Setting atom values ...
  1 settings made for x
  1 settings made for y
  1 settings made for z
Setting up cg style minimization ...
  Unit style    : metal
  Current step  : 6552
Per MPI rank memory allocation (min/avg/max) = 5.425 | 5.522 | 5.555 Mbytes
Step PotEng KinEng TotEng v_fx v_fy v_fz 
    6552   -1152449.3            0   -1152449.3 -0.027412215  0.052882604  -0.05759527 
    6776   -1152449.3            0   -1152449.3 -1.8206142e-06 -5.3717019e-07 -6.1229941e-06 
Loop time of 1.4639 on 208 procs for 224 steps with 288751 atoms

99.9% CPU use with 208 MPI tasks x 1 OpenMP threads

Minimization stats:
  Stopping criterion = energy tolerance
  Energy initial, next-to-last, final = 
     -1152449.31122237  -1152449.31338889  -1152449.31338889
  Force two-norm initial, final = 0.16042559 4.8340807e-05
  Force max component initial, final = 0.05759527 1.0989755e-05
  Final line search alpha, max atom move = 1.0000000 1.0989755e-05
  Iterations, force evaluations = 224 448

MPI task timing breakdown:
Section |  min time  |  avg time  |  max time  |%varavg| %total
---------------------------------------------------------------
Pair    | 6.0266e-05 | 1.0012     | 1.3465     |  33.7 | 68.39
Neigh   | 0          | 0          | 0          |   0.0 |  0.00
Comm    | 6.9214e-05 | 0.19895    | 0.84879    |  41.8 | 13.59
Output  | 0          | 0          | 0          |   0.0 |  0.00
Modify  | 2.1008e-05 | 0.0018435  | 0.0042064  |   2.5 |  0.13
Other   |            | 0.2619     |            |       | 17.89

Nlocal:        1388.23 ave        2038 max           0 min
Histogram: 28 4 0 16 8 0 8 12 97 35
Nghost:        2437.48 ave        3379 max           0 min
Histogram: 24 0 8 8 16 4 12 4 30 102
Neighs:        39606.7 ave       59720 max           0 min
Histogram: 28 4 4 14 6 2 10 8 102 30

Total # of neighbors = 8238197
Ave neighs/atom = 28.530454
Neighbor list builds = 0
Dangerous builds = 0
The dot product: 4.79167156743536e-08
Setting atom values ...
  1 settings made for x
  1 settings made for y
  1 settings made for z
Setting up cg style minimization ...
  Unit style    : metal
  Current step  : 6776
Per MPI rank memory allocation (min/avg/max) = 5.425 | 5.522 | 5.555 Mbytes
Step PotEng KinEng TotEng v_fx v_fy v_fz 
    6776   -1152449.3            0   -1152449.3 0.0056498266 -0.070372472 -0.027542055 
    6969   -1152449.3            0   -1152449.3 4.345378e-06 -3.520151e-07 1.3191242e-05 
Loop time of 1.2988 on 208 procs for 193 steps with 288751 atoms

99.9% CPU use with 208 MPI tasks x 1 OpenMP threads

Minimization stats:
  Stopping criterion = energy tolerance
  Energy initial, next-to-last, final = 
      -1152449.3224143  -1152449.32365841  -1152449.32365841
  Force two-norm initial, final = 0.16166884 7.1239692e-05
  Force max component initial, final = 0.070372472 1.3191242e-05
  Final line search alpha, max atom move = 1.0000000 1.3191242e-05
  Iterations, force evaluations = 193 386

MPI task timing breakdown:
Section |  min time  |  avg time  |  max time  |%varavg| %total
---------------------------------------------------------------
Pair    | 5.133e-05  | 0.86036    | 1.169      |  31.2 | 66.24
Neigh   | 0          | 0          | 0          |   0.0 |  0.00
Comm    | 5.9557e-05 | 0.17285    | 0.72006    |  38.1 | 13.31
Output  | 0          | 0          | 0          |   0.0 |  0.00
Modify  | 1.737e-05  | 0.0015906  | 0.0035915  |   2.3 |  0.12
Other   |            | 0.264      |            |       | 20.33

Nlocal:        1388.23 ave        2039 max           0 min
Histogram: 28 4 0 16 8 0 8 12 96 36
Nghost:        2437.45 ave        3379 max           0 min
Histogram: 24 0 8 8 16 4 12 4 30 102
Neighs:        39606.7 ave       59753 max           0 min
Histogram: 28 4 4 14 6 2 10 8 104 28

Total # of neighbors = 8238196
Ave neighs/atom = 28.530450
Neighbor list builds = 0
Dangerous builds = 0
The dot product: -1.03723362413717e-08
Setting atom values ...
  1 settings made for x
  1 settings made for y
  1 settings made for z
Setting up cg style minimization ...
  Unit style    : metal
  Current step  : 6969
Per MPI rank memory allocation (min/avg/max) = 5.425 | 5.522 | 5.555 Mbytes
Step PotEng KinEng TotEng v_fx v_fy v_fz 
    6969   -1152449.3            0   -1152449.3 0.00059328885 -0.054494742 -0.031360482 
    7000   -1152449.3            0   -1152449.3 -9.5276276e-06 0.00022482641 0.00010759635 
    7140   -1152449.3            0   -1152449.3 1.1903117e-05 -2.0190834e-05 2.4332114e-05 
Loop time of 1.13555 on 208 procs for 171 steps with 288751 atoms

99.9% CPU use with 208 MPI tasks x 1 OpenMP threads

Minimization stats:
  Stopping criterion = energy tolerance
  Energy initial, next-to-last, final = 
     -1152449.33111048  -1152449.33230109  -1152449.33230109
  Force two-norm initial, final = 0.15696427 0.00018989534
  Force max component initial, final = 0.054494742 3.7159479e-05
  Final line search alpha, max atom move = 1.0000000 3.7159479e-05
  Iterations, force evaluations = 171 342

MPI task timing breakdown:
Section |  min time  |  avg time  |  max time  |%varavg| %total
---------------------------------------------------------------
Pair    | 4.6343e-05 | 0.76562    | 1.0335     |  29.4 | 67.42
Neigh   | 0          | 0          | 0          |   0.0 |  0.00
Comm    | 5.3461e-05 | 0.15311    | 0.65513    |  36.7 | 13.48
Output  | 9.6944e-05 | 9.914e-05  | 0.00016966 |   0.0 |  0.01
Modify  | 1.6275e-05 | 0.0014083  | 0.0032116  |   2.2 |  0.12
Other   |            | 0.2153     |            |       | 18.96

Nlocal:        1388.23 ave        2039 max           0 min
Histogram: 28 4 0 16 8 0 8 12 96 36
Nghost:        2437.45 ave        3379 max           0 min
Histogram: 24 0 8 8 16 4 12 4 30 102
Neighs:        39606.7 ave       59753 max           0 min
Histogram: 28 4 4 14 6 2 10 8 104 28

Total # of neighbors = 8238197
Ave neighs/atom = 28.530454
Neighbor list builds = 0
Dangerous builds = 0
The dot product: 1.45379723031553e-08
Setting atom values ...
  1 settings made for x
  1 settings made for y
  1 settings made for z
Setting up cg style minimization ...
  Unit style    : metal
[...]
Nghost:        2437.46 ave        3379 max           0 min
Histogram: 24 0 8 8 16 4 12 4 30 102
Neighs:        39606.7 ave       59754 max           0 min
Histogram: 28 4 4 14 6 2 10 8 104 28

Total # of neighbors = 8238203
Ave neighs/atom = 28.530474
Neighbor list builds = 0
Dangerous builds = 0
The dot product: 1.77240083114241e-08
Setting atom values ...
  1 settings made for x
  1 settings made for y
  1 settings made for z
Setting up cg style minimization ...
  Unit style    : metal
  Current step  : 10253
Per MPI rank memory allocation (min/avg/max) = 5.425 | 5.522 | 5.555 Mbytes
Step PotEng KinEng TotEng v_fx v_fy v_fz 
   10253   -1152449.4            0   -1152449.4  0.010277602 -0.021334879  0.023991315 
   10435   -1152449.4            0   -1152449.4 5.6478693e-06 -1.7904739e-05 1.3229742e-05 
Loop time of 1.18865 on 208 procs for 182 steps with 288751 atoms

99.9% CPU use with 208 MPI tasks x 1 OpenMP threads

Minimization stats:
  Stopping criterion = energy tolerance
  Energy initial, next-to-last, final = 
     -1152449.43339161  -1152449.43462225  -1152449.43462225
  Force two-norm initial, final = 0.15776792 0.00010286815
  Force max component initial, final = 0.066579401 1.7904739e-05
  Final line search alpha, max atom move = 1.0000000 1.7904739e-05
  Iterations, force evaluations = 182 364

MPI task timing breakdown:
Section |  min time  |  avg time  |  max time  |%varavg| %total
---------------------------------------------------------------
Pair    | 4.8747e-05 | 0.81308    | 1.0916     |  30.3 | 68.40
Neigh   | 0          | 0          | 0          |   0.0 |  0.00
Comm    | 5.732e-05  | 0.16113    | 0.67784    |  37.9 | 13.56
Output  | 0          | 0          | 0          |   0.0 |  0.00
Modify  | 1.5909e-05 | 0.0014992  | 0.003427   |   2.3 |  0.13
Other   |            | 0.2129     |            |       | 17.91

Nlocal:        1388.23 ave        2039 max           0 min
Histogram: 28 4 0 16 8 0 8 12 96 36
Nghost:        2437.44 ave        3379 max           0 min
Histogram: 24 0 8 8 16 4 12 4 30 102
Neighs:        39606.8 ave       59753 max           0 min
Histogram: 28 4 4 14 6 2 10 8 104 28

Total # of neighbors = 8238204
Ave neighs/atom = 28.530478
Neighbor list builds = 0
Dangerous builds = 0
The dot product: 2.48262522567434e-08
Setting atom values ...
  1 settings made for x
  1 settings made for y
  1 settings made for z
Setting up cg style minimization ...
  Unit style    : metal
  Current step  : 10435
Per MPI rank memory allocation (min/avg/max) = 5.425 | 5.522 | 5.555 Mbytes
Step PotEng KinEng TotEng v_fx v_fy v_fz 
   10435   -1152449.4            0   -1152449.4   0.01192239 -0.016979215  0.027894476 
   10656   -1152449.4            0   -1152449.4 1.8867217e-06 5.0972389e-06 4.3523483e-06 
Loop time of 1.44083 on 208 procs for 221 steps with 288751 atoms

99.9% CPU use with 208 MPI tasks x 1 OpenMP threads

Minimization stats:
  Stopping criterion = energy tolerance
  Energy initial, next-to-last, final = 
     -1152449.43955849  -1152449.44083389  -1152449.44083389
  Force two-norm initial, final = 0.16034833 2.9112875e-05
  Force max component initial, final = 0.067956685 6.9509788e-06
  Final line search alpha, max atom move = 1.0000000 6.9509788e-06
  Iterations, force evaluations = 221 442

MPI task timing breakdown:
Section |  min time  |  avg time  |  max time  |%varavg| %total
---------------------------------------------------------------
Pair    | 5.8954e-05 | 0.98577    | 1.3259     |  33.4 | 68.42
Neigh   | 0          | 0          | 0          |   0.0 |  0.00
Comm    | 7.2121e-05 | 0.19467    | 0.82243    |  41.8 | 13.51
Output  | 0          | 0          | 0          |   0.0 |  0.00
Modify  | 2.0004e-05 | 0.0018178  | 0.0041779  |   2.5 |  0.13
Other   |            | 0.2586     |            |       | 17.95

Nlocal:        1388.23 ave        2040 max           0 min
Histogram: 28 4 0 16 8 0 8 12 96 36
Nghost:        2437.45 ave        3379 max           0 min
Histogram: 24 0 8 8 16 4 12 4 30 102
Neighs:        39606.8 ave       59776 max           0 min
Histogram: 28 4 4 14 6 2 10 8 104 28

Total # of neighbors = 8238207
Ave neighs/atom = 28.530488
Neighbor list builds = 0
Dangerous builds = 0
The dot product: 9.31588894837059e-09
Setting atom values ...
  1 settings made for x
  1 settings made for y
  1 settings made for z
Setting up cg style minimization ...
  Unit style    : metal
  Current step  : 10656
Per MPI rank memory allocation (min/avg/max) = 5.425 | 5.522 | 5.555 Mbytes
Step PotEng KinEng TotEng v_fx v_fy v_fz 
   10656   -1152449.4            0   -1152449.4  0.013183308 -0.013539648  0.030941447 
   10867   -1152449.4            0   -1152449.4 -2.7758622e-06 -3.084736e-06 -6.471022e-06 
Loop time of 1.37698 on 208 procs for 211 steps with 288751 atoms

99.9% CPU use with 208 MPI tasks x 1 OpenMP threads

Minimization stats:
  Stopping criterion = energy tolerance
  Energy initial, next-to-last, final = 
     -1152449.44417567  -1152449.44549066  -1152449.44549066
  Force two-norm initial, final = 0.16285327 4.4167271e-05
  Force max component initial, final = 0.069268044 6.4710220e-06
  Final line search alpha, max atom move = 1.0000000 6.4710220e-06
  Iterations, force evaluations = 211 422

MPI task timing breakdown:
Section |  min time  |  avg time  |  max time  |%varavg| %total
---------------------------------------------------------------
Pair    | 5.6169e-05 | 0.94087    | 1.2666     |  32.6 | 68.33
Neigh   | 0          | 0          | 0          |   0.0 |  0.00
Comm    | 6.8392e-05 | 0.18558    | 0.77904    |  40.7 | 13.48
Output  | 0          | 0          | 0          |   0.0 |  0.00
Modify  | 1.8454e-05 | 0.00174    | 0.0039856  |   2.4 |  0.13
Other   |            | 0.2488     |            |       | 18.07

Nlocal:        1388.23 ave        2040 max           0 min
Histogram: 28 4 0 16 8 0 8 12 96 36
Nghost:        2437.46 ave        3379 max           0 min
Histogram: 24 0 8 8 16 4 12 4 30 102
Neighs:        39606.8 ave       59776 max           0 min
Histogram: 28 4 4 14 6 2 10 8 104 28

Total # of neighbors = 8238206
Ave neighs/atom = 28.530485
Neighbor list builds = 0
Dangerous builds = 0
The dot product: -1.53343668969702e-08
Setting atom values ...
  1 settings made for x
  1 settings made for y
  1 settings made for z
Setting up cg style minimization ...
  Unit style    : metal
  Current step  : 10867
Per MPI rank memory allocation (min/avg/max) = 5.425 | 5.522 | 5.555 Mbytes
Step PotEng KinEng TotEng v_fx v_fy v_fz 
   10867   -1152449.4            0   -1152449.4  0.014061342 -0.011135634  0.033138621 
   11000   -1152449.4            0   -1152449.4 -2.2696847e-05 3.4202514e-06 -5.3402708e-05 
   11046   -1152449.4            0   -1152449.4 2.9062495e-06 6.8563919e-06 6.7942385e-06 
Loop time of 1.16894 on 208 procs for 179 steps with 288751 atoms

99.9% CPU use with 208 MPI tasks x 1 OpenMP threads

Minimization stats:
  Stopping criterion = energy tolerance
  Energy initial, next-to-last, final = 
     -1152449.44724228  -1152449.44858799  -1152449.44858799
  Force two-norm initial, final = 0.16494385 0.00012392432
  Force max component initial, final = 0.070502618 1.5930067e-05
  Final line search alpha, max atom move = 1.0000000 1.5930067e-05
  Iterations, force evaluations = 179 358

MPI task timing breakdown:
Section |  min time  |  avg time  |  max time  |%varavg| %total
---------------------------------------------------------------
Pair    | 5.1671e-05 | 0.79852    | 1.0731     |  30.0 | 68.31
Neigh   | 0          | 0          | 0          |   0.0 |  0.00
Comm    | 5.6387e-05 | 0.15744    | 0.66753    |  37.6 | 13.47
Output  | 0.0001591  | 0.00016122 | 0.00026125 |   0.0 |  0.01
Modify  | 1.607e-05  | 0.0014731  | 0.0033801  |   2.2 |  0.13
Other   |            | 0.2113     |            |       | 18.08

Nlocal:        1388.23 ave        2040 max           0 min
Histogram: 28 4 0 16 8 0 8 12 96 36
Nghost:        2437.46 ave        3379 max           0 min
Histogram: 24 0 8 8 16 4 12 4 30 102
Neighs:        39606.7 ave       59776 max           0 min
Histogram: 28 4 4 14 6 2 10 8 104 28

Total # of neighbors = 8238202
Ave neighs/atom = 28.530471
Neighbor list builds = 0
Dangerous builds = 0
The dot product: 2.1204648904551e-08
Setting atom values ...
  1 settings made for x
  1 settings made for y
  1 settings made for z
Setting up cg style minimization ...
  Unit style    : metal
  Current step  : 11046
Per MPI rank memory allocation (min/avg/max) = 5.425 | 5.522 | 5.555 Mbytes
Step PotEng KinEng TotEng v_fx v_fy v_fz 
   11046   -1152449.4            0   -1152449.4  0.014611609 -0.0094675621  0.034604514 
   11230   -1152449.5            0   -1152449.5 3.0261214e-06 -6.7308957e-06 7.1853633e-06 
Loop time of 1.26165 on 208 procs for 184 steps with 288751 atoms

99.8% CPU use with 208 MPI tasks x 1 OpenMP threads

Minimization stats:
  Stopping criterion = energy tolerance
  Energy initial, next-to-last, final = 
     -1152449.44877844  -1152449.45014573  -1152449.45014573
  Force two-norm initial, final = 0.16645654 0.00010247423
  Force max component initial, final = 0.071666841 1.1671054e-05
  Final line search alpha, max atom move = 1.0000000 1.1671054e-05
  Iterations, force evaluations = 184 368

MPI task timing breakdown:
Section |  min time  |  avg time  |  max time  |%varavg| %total
---------------------------------------------------------------
Pair    | 4.9023e-05 | 0.82512    | 1.1089     |  30.5 | 65.40
Neigh   | 0          | 0          | 0          |   0.0 |  0.00
Comm    | 5.991e-05  | 0.16911    | 0.68849    |  37.2 | 13.40
Output  | 0          | 0          | 0          |   0.0 |  0.00
Modify  | 1.6102e-05 | 0.0015178  | 0.0034548  |   2.3 |  0.12
Other   |            | 0.2659     |            |       | 21.08

Nlocal:        1388.23 ave        2040 max           0 min
Histogram: 28 4 0 16 8 0 8 12 96 36
Nghost:        2437.42 ave        3379 max           0 min
Histogram: 24 0 8 8 16 4 12 4 30 102
Neighs:        39606.7 ave       59774 max           0 min
Histogram: 28 4 4 14 6 2 10 8 104 28

Total # of neighbors = 8238199
Ave neighs/atom = 28.530461
Neighbor list builds = 0
Dangerous builds = 0
The dot product: 1.04752788494949e-08
Setting atom values ...
  1 settings made for x
  1 settings made for y
  1 settings made for z
Setting up cg style minimization ...
  Unit style    : metal
  Current step  : 11230
Per MPI rank memory allocation (min/avg/max) = 5.425 | 5.522 | 5.555 Mbytes
Step PotEng KinEng TotEng v_fx v_fy v_fz 
   11230   -1152449.4            0   -1152449.4   0.01341051  -0.01218192  0.031940651 
   11418   -1152449.5            0   -1152449.5 1.4723734e-06 -5.1790666e-06  3.51158e-06 
Loop time of 1.25695 on 208 procs for 188 steps with 288751 atoms

99.9% CPU use with 208 MPI tasks x 1 OpenMP threads

Minimization stats:
  Stopping criterion = energy tolerance
  Energy initial, next-to-last, final = 
     -1152449.44879118  -1152449.45015045  -1152449.45015045
  Force two-norm initial, final = 0.16606981 9.7540685e-05
  Force max component initial, final = 0.072788041 1.0181196e-05
  Final line search alpha, max atom move = 1.0000000 1.0181196e-05
  Iterations, force evaluations = 188 376

MPI task timing breakdown:
Section |  min time  |  avg time  |  max time  |%varavg| %total
---------------------------------------------------------------
Pair    | 5.0092e-05 | 0.84       | 1.1259     |  30.8 | 66.83
Neigh   | 0          | 0          | 0          |   0.0 |  0.00
Comm    | 6.1435e-05 | 0.16927    | 0.73145    |  38.5 | 13.47
Output  | 0          | 0          | 0          |   0.0 |  0.00
Modify  | 1.7211e-05 | 0.0015463  | 0.0035577  |   2.3 |  0.12
Other   |            | 0.2461     |            |       | 19.58

Nlocal:        1388.23 ave        2040 max           0 min
Histogram: 28 4 0 16 8 0 8 12 96 36
Nghost:        2437.42 ave        3379 max           0 min
Histogram: 24 0 8 8 16 4 12 4 30 102
Neighs:        39606.7 ave       59774 max           0 min
Histogram: 28 4 4 14 6 2 10 8 104 28

Total # of neighbors = 8238199
Ave neighs/atom = 28.530461
Neighbor list builds = 0
Dangerous builds = 0
The dot product: 3.68743570426566e-09
Setting atom values ...
  1 settings made for x
  1 settings made for y
  1 settings made for z
Setting up cg style minimization ...
  Unit style    : metal
  Current step  : 11418
Per MPI rank memory allocation (min/avg/max) = 5.425 | 5.522 | 5.555 Mbytes
Step PotEng KinEng TotEng v_fx v_fy v_fz 
   11418   -1152449.4            0   -1152449.4  0.010207765 -0.019816385  0.024420592 
   11681   -1152449.4            0   -1152449.4 1.1782101e-07 -4.2821886e-07 2.8175837e-07 
Loop time of 1.71665 on 208 procs for 263 steps with 288751 atoms

99.9% CPU use with 208 MPI tasks x 1 OpenMP threads

Minimization stats:
  Stopping criterion = energy tolerance
  Energy initial, next-to-last, final = 
     -1152449.44709012  -1152449.44844321  -1152449.44844321
  Force two-norm initial, final = 0.16511495 3.7927798e-06
  Force max component initial, final = 0.07386808 7.8737959e-07
  Final line search alpha, max atom move = 1.0000000 7.8737959e-07
  Iterations, force evaluations = 263 526

MPI task timing breakdown:
Section |  min time  |  avg time  |  max time  |%varavg| %total
---------------------------------------------------------------
Pair    | 7.0548e-05 | 1.1741     | 1.5793     |  36.4 | 68.40
Neigh   | 0          | 0          | 0          |   0.0 |  0.00
Comm    | 8.2274e-05 | 0.23147    | 0.97832    |  45.7 | 13.48
Output  | 0          | 0          | 0          |   0.0 |  0.00
Modify  | 2.2759e-05 | 0.002161   | 0.0049449  |   2.7 |  0.13
Other   |            | 0.3089     |            |       | 17.99

Nlocal:        1388.23 ave        2040 max           0 min
Histogram: 28 4 0 16 8 0 8 12 96 36
Nghost:        2437.42 ave        3379 max           0 min
Histogram: 24 0 8 8 16 4 12 4 30 102
Neighs:        39606.7 ave       59774 max           0 min
Histogram: 28 4 4 14 6 2 10 8 104 28

Total # of neighbors = 8238195
Ave neighs/atom = 28.530447
Neighbor list builds = 0
Dangerous builds = 0
The dot product: 4.07923846154612e-10
Setting atom values ...
  1 settings made for x
  1 settings made for y
  1 settings made for z
Setting up cg style minimization ...
  Unit style    : metal
  Current step  : 11681
Per MPI rank memory allocation (min/avg/max) = 5.425 | 5.522 | 5.555 Mbytes
Step PotEng KinEng TotEng v_fx v_fy v_fz 
   11681   -1152449.4            0   -1152449.4 0.0083855532 -0.021891933  0.020128309 
   11857   -1152449.4            0   -1152449.4 9.8665359e-07 4.1807315e-06 2.3679417e-06 
Loop time of 1.15581 on 208 procs for 176 steps with 288751 atoms

99.9% CPU use with 208 MPI tasks x 1 OpenMP threads

Minimization stats:
  Stopping criterion = energy tolerance
  Energy initial, next-to-last, final = 
     -1152449.44371882  -1152449.44504211  -1152449.44504211
  Force two-norm initial, final = 0.16435464 0.00014262122
  Force max component initial, final = 0.074941427 7.2231952e-06
  Final line search alpha, max atom move = 1.0000000 7.2231952e-06
  Iterations, force evaluations = 176 352

MPI task timing breakdown:
Section |  min time  |  avg time  |  max time  |%varavg| %total
---------------------------------------------------------------
Pair    | 5.1431e-05 | 0.78738    | 1.0578     |  29.8 | 68.12
Neigh   | 0          | 0          | 0          |   0.0 |  0.00
Comm    | 5.6735e-05 | 0.156      | 0.65267    |  37.2 | 13.50
Output  | 0          | 0          | 0          |   0.0 |  0.00
Modify  | 1.5873e-05 | 0.0014477  | 0.0033106  |   2.2 |  0.13
Other   |            | 0.211      |            |       | 18.25

Nlocal:        1388.23 ave        2040 max           0 min
Histogram: 28 4 0 16 8 0 8 12 96 36
Nghost:        2437.41 ave        3379 max           0 min
Histogram: 24 0 8 8 16 4 12 4 30 102
Neighs:        39606.7 ave       59774 max           0 min
Histogram: 28 4 4 14 6 2 10 8 104 28

Total # of neighbors = 8238196
Ave neighs/atom = 28.530450
Neighbor list builds = 0
Dangerous builds = 0
The dot product: -1.38520447547189e-09
Setting atom values ...
  1 settings made for x
  1 settings made for y
  1 settings made for z
Setting up cg style minimization ...
  Unit style    : metal
  Current step  : 11857
Per MPI rank memory allocation (min/avg/max) = 5.425 | 5.522 | 5.555 Mbytes
Step PotEng KinEng TotEng v_fx v_fy v_fz 
   11857   -1152449.4            0   -1152449.4 0.0086963292 -0.018822331  0.020926967 
   12000   -1152449.4            0   -1152449.4 -3.1593361e-06 -5.1644086e-05 -7.5104454e-06 
   12047   -1152449.4            0   -1152449.4 -1.5955372e-06 1.4333165e-05 -3.8566801e-06 
Loop time of 1.25404 on 208 procs for 190 steps with 288751 atoms

99.9% CPU use with 208 MPI tasks x 1 OpenMP threads

Minimization stats:
  Stopping criterion = energy tolerance
  Energy initial, next-to-last, final = 
     -1152449.43891725  -1152449.44021478  -1152449.44021478
  Force two-norm initial, final = 0.1635999 7.5644765e-05
  Force max component initial, final = 0.075961568 1.4333165e-05
  Final line search alpha, max atom move = 1.0000000 1.4333165e-05
  Iterations, force evaluations = 190 380

MPI task timing breakdown:
Section |  min time  |  avg time  |  max time  |%varavg| %total
---------------------------------------------------------------
Pair    | 5.2531e-05 | 0.84987    | 1.1401     |  31.0 | 67.77
Neigh   | 0          | 0          | 0          |   0.0 |  0.00
Comm    | 6.1745e-05 | 0.17001    | 0.70643    |  38.6 | 13.56
Output  | 0.00011101 | 0.00011433 | 0.00021617 |   0.0 |  0.01
Modify  | 1.6595e-05 | 0.0015627  | 0.0035876  |   2.3 |  0.12
Other   |            | 0.2325     |            |       | 18.54

Nlocal:        1388.23 ave        2040 max           0 min
Histogram: 28 4 0 16 8 0 8 12 96 36
Nghost:        2437.41 ave        3379 max           0 min
Histogram: 24 0 8 8 16 4 12 4 30 102
Neighs:        39606.7 ave       59774 max           0 min
Histogram: 28 4 4 14 6 2 10 8 104 28

Total # of neighbors = 8238196
Ave neighs/atom = 28.530450
Neighbor list builds = 0
Dangerous builds = 0
The dot product: -8.38441176868164e-12
Setting up cg style minimization ...
  Unit style    : metal
  Current step  : 12047
Per MPI rank memory allocation (min/avg/max) = 5.425 | 5.522 | 5.555 Mbytes
Step PotEng KinEng TotEng v_fx v_fy v_fz 
   12047   -1152449.4            0   -1152449.4  -0.25200426 0.00017971044   0.10486614 
   12270   -1152449.5            0   -1152449.5 -5.9562025e-07 3.2888873e-09 -4.415764e-05 
Loop time of 1.44915 on 208 procs for 223 steps with 288751 atoms

99.9% CPU use with 208 MPI tasks x 1 OpenMP threads

Minimization stats:
  Stopping criterion = energy tolerance
  Energy initial, next-to-last, final = 
     -1152449.44021478  -1152449.45035275  -1152449.45035275
  Force two-norm initial, final = 0.27295255 0.00011711518
  Force max component initial, final = 0.25200426 4.4157640e-05
  Final line search alpha, max atom move = 1.0000000 4.4157640e-05
  Iterations, force evaluations = 223 446

MPI task timing breakdown:
Section |  min time  |  avg time  |  max time  |%varavg| %total
---------------------------------------------------------------
Pair    | 6.0747e-05 | 0.99422    | 1.3331     |  33.5 | 68.61
Neigh   | 0          | 0          | 0          |   0.0 |  0.00
Comm    | 7.4552e-05 | 0.19684    | 0.83018    |  41.9 | 13.58
Output  | 0          | 0          | 0          |   0.0 |  0.00
Modify  | 1.6944e-05 | 0.0011865  | 0.0033568  |   2.7 |  0.08
Other   |            | 0.2569     |            |       | 17.73

Nlocal:        1388.23 ave        2040 max           0 min
Histogram: 28 4 0 16 8 0 8 12 96 36
Nghost:        2437.43 ave        3379 max           0 min
Histogram: 24 0 8 8 16 4 12 4 30 102
Neighs:        39606.7 ave       59774 max           0 min
Histogram: 28 4 4 14 6 2 10 8 104 28

Total # of neighbors = 8238195
Ave neighs/atom = 28.530447
Neighbor list builds = 0
Dangerous builds = 0
