LAMMPS (29 Oct 2020)
OMP_NUM_THREADS environment is not set. Defaulting to 1 thread. (../comm.cpp:94)
  using 1 OpenMP thread(s) per MPI task
OMP_NUM_THREADS environment is not set. Defaulting to 1 thread. (../comm.cpp:94)
  using 1 OpenMP thread(s) per MPI task
Reading data file ...
  orthogonal box = (-122.39241 -121.13707 -37.090501) to (122.39241 121.13707 37.090501)
  13 by 4 by 2 MPI processor grid
  reading atoms ...
  288751 atoms
  read_data CPU = 0.377 seconds
199981 atoms in group inner
88770 atoms in group outer
1 atoms in group carbon
Neighbor list info ...
  update every 1 steps, delay 0 steps, check yes
  max neighbors/atom: 2000, page size: 100000
  master list distance cutoff = 5.6
  ghost atom cutoff = 5.6
  binsize = 2.8, bins = 88 87 27
  1 neighbor lists, perpetual/occasional/extra = 1 0 0
  (1) pair eam/alloy, perpetual
      attributes: half, newton on
      pair build: half/bin/atomonly/newton
      stencil: half/bin/3d/newton
      bin: standard
Setting up cg style minimization ...
  Unit style    : metal
  Current step  : 0
Per MPI rank memory allocation (min/avg/max) = 5.441 | 5.816 | 6.074 Mbytes
Step v_fx v_fy v_fz PotEng KinEng TotEng 
       0    13.323123   -22.059981    13.036199   -1152441.8            0   -1152441.8 
     228 -1.6082559e-05 2.3274244e-05 -2.900143e-05     -1152449            0     -1152449 
Loop time of 2.75481 on 104 procs for 228 steps with 288751 atoms

99.8% CPU use with 104 MPI tasks x 1 OpenMP threads

Minimization stats:
  Stopping criterion = energy tolerance
  Energy initial, next-to-last, final = 
      -1152441.8376807  -1152448.97218769  -1152448.97218769
  Force two-norm initial, final = 47.120808 0.00019382898
  Force max component initial, final = 28.147649 2.9001430e-05
  Final line search alpha, max atom move = 1.0000000 2.9001430e-05
  Iterations, force evaluations = 228 453

MPI task timing breakdown:
Section |  min time  |  avg time  |  max time  |%varavg| %total
---------------------------------------------------------------
Pair    | 0.7169     | 1.917      | 2.4952     |  36.9 | 69.59
Neigh   | 8.5926e-05 | 0.023528   | 0.03414    |   6.3 |  0.85
Comm    | 0.046648   | 0.44502    | 1.2928     |  53.0 | 16.15
Output  | 0          | 0          | 0          |   0.0 |  0.00
Modify  | 2.6159e-05 | 0.002444   | 0.0063234  |   3.1 |  0.09
Other   |            | 0.3668     |            |       | 13.32

Nlocal:        2776.45 ave        3947 max           0 min
Histogram: 8 4 4 0 4 12 8 0 28 36
Nghost:        3879.03 ave        5425 max         232 min
Histogram: 8 0 8 0 16 0 8 8 16 40
Neighs:        79213.7 ave      115012 max           0 min
Histogram: 8 4 4 0 10 6 8 8 23 33

Total # of neighbors = 8238221
Ave neighs/atom = 28.530537
Neighbor list builds = 8
Dangerous builds = 1
Setting atom values ...
  1 settings made for x
  1 settings made for y
  1 settings made for z
Setting up cg style minimization ...
  Unit style    : metal
  Current step  : 228
Per MPI rank memory allocation (min/avg/max) = 5.441 | 5.816 | 6.074 Mbytes
Step PotEng KinEng TotEng v_fx v_fy v_fz 
     228     -1152449            0     -1152449 -0.031555674  0.038524971 -0.0052963574 
     509     -1152449            0     -1152449 3.9067234e-05 -2.921212e-05 4.3473201e-05 
Loop time of 3.33589 on 104 procs for 281 steps with 288751 atoms

99.9% CPU use with 104 MPI tasks x 1 OpenMP threads

Minimization stats:
  Stopping criterion = energy tolerance
  Energy initial, next-to-last, final = 
     -1152448.96721054   -1152448.9704232   -1152448.9704232
  Force two-norm initial, final = 0.24889721 0.00019496459
  Force max component initial, final = 0.13913159 4.7681726e-05
  Final line search alpha, max atom move = 1.0000000 4.7681726e-05
  Iterations, force evaluations = 281 562

MPI task timing breakdown:
Section |  min time  |  avg time  |  max time  |%varavg| %total
---------------------------------------------------------------
Pair    | 0.85205    | 2.3786     | 3.1146     |  41.7 | 71.30
Neigh   | 0          | 0          | 0          |   0.0 |  0.00
Comm    | 0.060823   | 0.54784    | 1.6107     |  60.4 | 16.42
Output  | 0          | 0          | 0          |   0.0 |  0.00
Modify  | 3.8099e-05 | 0.0046325  | 0.010049   |   3.2 |  0.14
Other   |            | 0.4048     |            |       | 12.13

Nlocal:        2776.45 ave        3948 max           0 min
Histogram: 8 4 4 0 4 12 8 1 27 36
Nghost:        3879.14 ave        5426 max         232 min
Histogram: 8 0 8 0 16 0 8 8 16 40
Neighs:        79213.5 ave      115004 max           0 min
Histogram: 8 4 4 0 10 6 8 8 24 32

Total # of neighbors = 8238206
Ave neighs/atom = 28.530485
Neighbor list builds = 0
Dangerous builds = 0
Setting atom values ...
  1 settings made for x
  1 settings made for y
  1 settings made for z
Setting up cg style minimization ...
  Unit style    : metal
  Current step  : 509
Per MPI rank memory allocation (min/avg/max) = 5.441 | 5.816 | 6.074 Mbytes
Step PotEng KinEng TotEng v_fx v_fy v_fz 
     509     -1152449            0     -1152449 -0.042467379  0.055247676 -0.0045362852 
     943     -1152449            0     -1152449 3.5643328e-05 -2.39949e-05 2.0198063e-05 
Loop time of 5.07343 on 104 procs for 434 steps with 288751 atoms

99.9% CPU use with 104 MPI tasks x 1 OpenMP threads

Minimization stats:
  Stopping criterion = energy tolerance
  Energy initial, next-to-last, final = 
     -1152448.96329385  -1152448.96711281  -1152448.96711281
  Force two-norm initial, final = 0.24282173 0.00022629098
  Force max component initial, final = 0.099757567 5.7062220e-05
  Final line search alpha, max atom move = 1.0000000 5.7062220e-05
  Iterations, force evaluations = 434 868

MPI task timing breakdown:
Section |  min time  |  avg time  |  max time  |%varavg| %total
---------------------------------------------------------------
Pair    | 1.3061     | 3.6406     | 4.7581     |  51.7 | 71.76
Neigh   | 0          | 0          | 0          |   0.0 |  0.00
Comm    | 0.078448   | 0.82689    | 2.4736     |  75.5 | 16.30
Output  | 0          | 0          | 0          |   0.0 |  0.00
Modify  | 5.2028e-05 | 0.0071474  | 0.015423   |   4.0 |  0.14
Other   |            | 0.5988     |            |       | 11.80

Nlocal:        2776.45 ave        3947 max           0 min
Histogram: 8 4 4 0 4 12 8 1 27 36
Nghost:        3879.12 ave        5427 max         232 min
Histogram: 8 0 8 0 16 0 8 8 16 40
Neighs:        79213.5 ave      114976 max           0 min
Histogram: 8 4 4 0 10 6 8 8 24 32

Total # of neighbors = 8238200
Ave neighs/atom = 28.530464
Neighbor list builds = 0
Dangerous builds = 0
The dot product: 1.62088738673553e-05
The angle: 70.0379707981318
Setting atom values ...
  1 settings made for x
  1 settings made for y
  1 settings made for z
Setting up cg style minimization ...
  Unit style    : metal
  Current step  : 943
Per MPI rank memory allocation (min/avg/max) = 5.441 | 5.816 | 6.074 Mbytes
Step PotEng KinEng TotEng v_fx v_fy v_fz 
     943     -1152449            0     -1152449 -0.055701329  0.064605145 0.0046087072 
    1000     -1152449            0     -1152449 -0.00032918198 0.00030962819 4.2808972e-06 
    1134     -1152449            0     -1152449 -1.7692307e-05 1.484201e-05 -3.4222154e-07 
Loop time of 2.24255 on 104 procs for 191 steps with 288751 atoms

99.9% CPU use with 104 MPI tasks x 1 OpenMP threads

Minimization stats:
  Stopping criterion = energy tolerance
  Energy initial, next-to-last, final = 
     -1152448.95866922  -1152448.96493384  -1152448.96493384
  Force two-norm initial, final = 0.28778187 0.00020479085
  Force max component initial, final = 0.11096078 4.2313660e-05
  Final line search alpha, max atom move = 1.0000000 4.2313660e-05
  Iterations, force evaluations = 191 382

MPI task timing breakdown:
Section |  min time  |  avg time  |  max time  |%varavg| %total
---------------------------------------------------------------
Pair    | 0.57502    | 1.6137     | 2.0927     |  34.3 | 71.96
Neigh   | 0          | 0          | 0          |   0.0 |  0.00
Comm    | 0.039842   | 0.37145    | 1.1334     |  50.5 | 16.56
Output  | 0.00016421 | 0.00017346 | 0.00031237 |   0.0 |  0.01
Modify  | 2.3268e-05 | 0.0031495  | 0.006786   |   2.7 |  0.14
Other   |            | 0.2541     |            |       | 11.33

Nlocal:        2776.45 ave        3947 max           0 min
Histogram: 8 4 4 0 4 12 8 1 27 36
Nghost:        3879.10 ave        5425 max         232 min
Histogram: 8 0 8 0 16 0 8 8 16 40
Neighs:        79213.5 ave      114978 max           0 min
Histogram: 8 4 4 0 10 6 8 8 24 32

Total # of neighbors = 8238208
Ave neighs/atom = 28.530492
Neighbor list builds = 0
Dangerous builds = 0
The dot product: -4.59809610804934e-06
The angle: 101.483586349238
Setting atom values ...
  1 settings made for x
  1 settings made for y
  1 settings made for z
Setting up cg style minimization ...
  Unit style    : metal
  Current step  : 1134
Per MPI rank memory allocation (min/avg/max) = 5.441 | 5.816 | 6.074 Mbytes
Step PotEng KinEng TotEng v_fx v_fy v_fz 
    1134     -1152449            0     -1152449 -0.071301875   0.05472249  0.016462363 
    1358     -1152449            0     -1152449 -2.2153354e-08 5.8744957e-07 1.4780464e-07 
Loop time of 2.62204 on 104 procs for 224 steps with 288751 atoms

99.9% CPU use with 104 MPI tasks x 1 OpenMP threads

Minimization stats:
  Stopping criterion = energy tolerance
  Energy initial, next-to-last, final = 
      -1152448.9566545   -1152448.9628258   -1152448.9628258
  Force two-norm initial, final = 0.31722785 5.2584904e-05
  Force max component initial, final = 0.13917868 1.2568238e-05
  Final line search alpha, max atom move = 1.0000000 1.2568238e-05
  Iterations, force evaluations = 224 448

MPI task timing breakdown:
Section |  min time  |  avg time  |  max time  |%varavg| %total
---------------------------------------------------------------
Pair    | 0.67325    | 1.8794     | 2.4484     |  37.1 | 71.68
Neigh   | 0          | 0          | 0          |   0.0 |  0.00
Comm    | 0.044498   | 0.42672    | 1.2778     |  54.1 | 16.27
Output  | 0          | 0          | 0          |   0.0 |  0.00
Modify  | 2.6952e-05 | 0.0036991  | 0.0079537  |   2.9 |  0.14
Other   |            | 0.3122     |            |       | 11.91

Nlocal:        2776.45 ave        3949 max           0 min
Histogram: 8 4 4 0 4 12 8 0 28 36
Nghost:        3879.10 ave        5425 max         232 min
Histogram: 8 0 8 0 16 0 8 8 16 40
Neighs:        79213.6 ave      115066 max           0 min
Histogram: 8 4 4 0 10 6 8 8 24 32

Total # of neighbors = 8238212
Ave neighs/atom = 28.530506
Neighbor list builds = 0
Dangerous builds = 0
The dot product: 9.62263519135917e-09
The angle: 89.0904109198161
Setting atom values ...
  1 settings made for x
  1 settings made for y
  1 settings made for z
Setting up cg style minimization ...
  Unit style    : metal
  Current step  : 1358
Per MPI rank memory allocation (min/avg/max) = 5.441 | 5.816 | 6.074 Mbytes
Step PotEng KinEng TotEng v_fx v_fy v_fz 
    1358     -1152449            0     -1152449 -0.086216192  0.057749903  0.020262703 
    1591     -1152449            0     -1152449 -1.313229e-06 1.8149088e-06 5.2536792e-07 
Loop time of 2.74684 on 104 procs for 233 steps with 288751 atoms

99.9% CPU use with 104 MPI tasks x 1 OpenMP threads

Minimization stats:
  Stopping criterion = energy tolerance
  Energy initial, next-to-last, final = 
      -1152448.9537737  -1152448.95933603  -1152448.95933603
  Force two-norm initial, final = 0.32435554 3.9696083e-05
  Force max component initial, final = 0.14249722 8.1390403e-06
  Final line search alpha, max atom move = 1.0000000 8.1390403e-06
  Iterations, force evaluations = 233 466

MPI task timing breakdown:
Section |  min time  |  avg time  |  max time  |%varavg| %total
---------------------------------------------------------------
Pair    | 0.70358    | 1.9668     | 2.5647     |  38.0 | 71.60
Neigh   | 0          | 0          | 0          |   0.0 |  0.00
Comm    | 0.050143   | 0.44612    | 1.3252     |  55.2 | 16.24
Output  | 0          | 0          | 0          |   0.0 |  0.00
Modify  | 2.9198e-05 | 0.0038475  | 0.008362   |   2.9 |  0.14
Other   |            | 0.33       |            |       | 12.02

Nlocal:        2776.45 ave        3951 max           0 min
Histogram: 8 4 4 0 4 12 8 0 30 34
Nghost:        3879.07 ave        5425 max         232 min
Histogram: 8 0 8 0 16 0 8 8 16 40
Neighs:        79213.6 ave      115149 max           0 min
Histogram: 8 4 4 0 10 6 8 8 24 32

Total # of neighbors = 8238211
Ave neighs/atom = 28.530502
Neighbor list builds = 0
Dangerous builds = 0
The dot product: 8.09526853255736e-08
The angle: 87.9838072365282
Setting atom values ...
  1 settings made for x
  1 settings made for y
  1 settings made for z
Setting up cg style minimization ...
  Unit style    : metal
  Current step  : 1591
Per MPI rank memory allocation (min/avg/max) = 5.441 | 5.816 | 6.074 Mbytes
Step PotEng KinEng TotEng v_fx v_fy v_fz 
    1591   -1152448.9            0   -1152448.9 -0.098281307  0.065195314  0.018743468 
    1853     -1152449            0     -1152449 1.2984266e-06 -1.7618956e-06 -4.3101258e-07 
Loop time of 3.04039 on 104 procs for 262 steps with 288751 atoms

99.9% CPU use with 104 MPI tasks x 1 OpenMP threads

Minimization stats:
  Stopping criterion = energy tolerance
  Energy initial, next-to-last, final = 
     -1152448.94927528  -1152448.95471039  -1152448.95471039
  Force two-norm initial, final = 0.32502319 1.1291009e-05
  Force max component initial, final = 0.13888535 3.4341872e-06
  Final line search alpha, max atom move = 1.0000000 3.4341872e-06
  Iterations, force evaluations = 262 524

MPI task timing breakdown:
Section |  min time  |  avg time  |  max time  |%varavg| %total
---------------------------------------------------------------
Pair    | 0.79073    | 2.194      | 2.8582     |  40.1 | 72.16
Neigh   | 0          | 0          | 0          |   0.0 |  0.00
Comm    | 0.05132    | 0.49389    | 1.4831     |  58.9 | 16.24
Output  | 0          | 0          | 0          |   0.0 |  0.00
Modify  | 3.1479e-05 | 0.0043191  | 0.0092882  |   3.1 |  0.14
Other   |            | 0.3482     |            |       | 11.45

Nlocal:        2776.45 ave        3953 max           0 min
Histogram: 8 4 4 0 4 12 8 0 30 34
Nghost:        3879.02 ave        5424 max         232 min
Histogram: 8 0 8 0 16 0 8 8 16 40
Neighs:        79213.5 ave      115208 max           0 min
Histogram: 8 4 4 0 10 6 8 8 24 32

Total # of neighbors = 8238206
Ave neighs/atom = 28.530485
Neighbor list builds = 0
Dangerous builds = 0
The dot product: -9.7978263275596e-08
The angle: 92.5174084367312
Setting atom values ...
  1 settings made for x
  1 settings made for y
  1 settings made for z
Setting up cg style minimization ...
  Unit style    : metal
  Current step  : 1853
Per MPI rank memory allocation (min/avg/max) = 5.441 | 5.816 | 6.074 Mbytes
Step PotEng KinEng TotEng v_fx v_fy v_fz 
    1853   -1152448.9            0   -1152448.9  -0.10735886  0.071077329  0.014396073 
    2000   -1152448.9            0   -1152448.9 2.0488979e-05 -2.8839582e-05 -5.4125701e-06 
    2056   -1152448.9            0   -1152448.9 1.2081399e-05 -1.7011174e-05 -3.1925553e-06 
Loop time of 2.35651 on 104 procs for 203 steps with 288751 atoms

99.9% CPU use with 104 MPI tasks x 1 OpenMP threads

Minimization stats:
  Stopping criterion = energy tolerance
  Energy initial, next-to-last, final = 
     -1152448.94328682  -1152448.94832753  -1152448.94832753
  Force two-norm initial, final = 0.32308692 0.00012270442
  Force max component initial, final = 0.13301024 2.2672849e-05
  Final line search alpha, max atom move = 1.0000000 2.2672849e-05
  Iterations, force evaluations = 203 406

MPI task timing breakdown:
Section |  min time  |  avg time  |  max time  |%varavg| %total
---------------------------------------------------------------
Pair    | 0.60947    | 1.7074     | 2.2268     |  35.3 | 72.46
Neigh   | 0          | 0          | 0          |   0.0 |  0.00
Comm    | 0.037735   | 0.3821     | 1.152      |  52.3 | 16.21
Output  | 0.00012743 | 0.00012976 | 0.00027766 |   0.0 |  0.01
Modify  | 2.4898e-05 | 0.0033499  | 0.0072451  |   2.7 |  0.14
Other   |            | 0.2635     |            |       | 11.18

Nlocal:        2776.45 ave        3955 max           0 min
Histogram: 8 4 4 0 4 12 8 0 30 34
Nghost:        3879.06 ave        5424 max         232 min
Histogram: 8 0 8 0 16 0 8 8 16 40
Neighs:        79213.5 ave      115277 max           0 min
Histogram: 8 4 4 0 10 6 8 8 24 32

Total # of neighbors = 8238200
Ave neighs/atom = 28.530464
Neighbor list builds = 0
Dangerous builds = 0
The dot product: -1.08820535778679e-06
The angle: 92.955196092925
Setting atom values ...
  1 settings made for x
  1 settings made for y
  1 settings made for z
Setting up cg style minimization ...
  Unit style    : metal
  Current step  : 2056
Per MPI rank memory allocation (min/avg/max) = 5.441 | 5.816 | 6.074 Mbytes
Step PotEng KinEng TotEng v_fx v_fy v_fz 
    2056   -1152448.9            0   -1152448.9   -0.1141413  0.077388589  0.008185422 
    2245   -1152448.9            0   -1152448.9 1.0587634e-05 -1.6125535e-05 -2.0041592e-06 
Loop time of 2.19703 on 104 procs for 189 steps with 288751 atoms

99.9% CPU use with 104 MPI tasks x 1 OpenMP threads

Minimization stats:
  Stopping criterion = energy tolerance
  Energy initial, next-to-last, final = 
      -1152448.9354119  -1152448.94023166  -1152448.94023166
  Force two-norm initial, final = 0.31944052 0.00014311807
  Force max component initial, final = 0.12463611 3.8050565e-05
  Final line search alpha, max atom move = 1.0000000 3.8050565e-05
  Iterations, force evaluations = 189 378

MPI task timing breakdown:
Section |  min time  |  avg time  |  max time  |%varavg| %total
---------------------------------------------------------------
Pair    | 0.56938    | 1.5853     | 2.068      |  34.1 | 72.16
Neigh   | 0          | 0          | 0          |   0.0 |  0.00
Comm    | 0.032592   | 0.35605    | 1.0758     |  50.3 | 16.21
Output  | 0          | 0          | 0          |   0.0 |  0.00
Modify  | 2.3157e-05 | 0.0031198  | 0.0067408  |   2.6 |  0.14
Other   |            | 0.2525     |            |       | 11.49

Nlocal:        2776.45 ave        3955 max           0 min
Histogram: 8 4 4 0 4 12 8 0 30 34
Nghost:        3879.03 ave        5424 max         232 min
Histogram: 8 0 8 0 16 0 8 8 16 40
Neighs:        79213.5 ave      115284 max           0 min
Histogram: 8 4 4 0 10 6 8 8 24 32

Total # of neighbors = 8238205
Ave neighs/atom = 28.530481
Neighbor list builds = 0
Dangerous builds = 0
The dot product: -8.45977876338061e-07
The angle: 92.5000019486601
Setting atom values ...
  1 settings made for x
  1 settings made for y
  1 settings made for z
Setting up cg style minimization ...
  Unit style    : metal
  Current step  : 2245
Per MPI rank memory allocation (min/avg/max) = 5.441 | 5.816 | 6.074 Mbytes
Step PotEng KinEng TotEng v_fx v_fy v_fz 
    2245   -1152448.9            0   -1152448.9  -0.11662356  0.078967868 0.0016647852 
    2522   -1152448.9            0   -1152448.9 -2.4432744e-07 2.0297963e-07 7.6801241e-09 
Loop time of 3.23177 on 104 procs for 277 steps with 288751 atoms

99.9% CPU use with 104 MPI tasks x 1 OpenMP threads

Minimization stats:
  Stopping criterion = energy tolerance
  Energy initial, next-to-last, final = 
      -1152448.9257327  -1152448.93023525  -1152448.93023525
  Force two-norm initial, final = 0.31466681 3.8071498e-06
  Force max component initial, final = 0.11662356 1.1932132e-06
  Final line search alpha, max atom move = 1.0000000 1.1932132e-06
  Iterations, force evaluations = 277 554

MPI task timing breakdown:
Section |  min time  |  avg time  |  max time  |%varavg| %total
---------------------------------------------------------------
Pair    | 0.84411    | 2.3386     | 3.0346     |  41.0 | 72.36
Neigh   | 0          | 0          | 0          |   0.0 |  0.00
Comm    | 0.061106   | 0.52924    | 1.6083     |  61.1 | 16.38
Output  | 0          | 0          | 0          |   0.0 |  0.00
Modify  | 3.6097e-05 | 0.0045753  | 0.0098326  |   3.2 |  0.14
Other   |            | 0.3594     |            |       | 11.12

Nlocal:        2776.45 ave        3957 max           0 min
Histogram: 8 4 4 0 4 12 8 2 28 34
Nghost:        3879.03 ave        5424 max         232 min
Histogram: 8 0 8 0 16 0 8 8 16 40
Neighs:        79213.5 ave      115343 max           0 min
Histogram: 8 4 4 0 10 6 8 8 24 32

Total # of neighbors = 8238201
Ave neighs/atom = 28.530467
Neighbor list builds = 0
Dangerous builds = 0
The dot product: 1.19902267314411e-08
The angle: 87.8373416397917
Setting atom values ...
  1 settings made for x
  1 settings made for y
  1 settings made for z
Setting up cg style minimization ...
  Unit style    : metal
  Current step  : 2522
Per MPI rank memory allocation (min/avg/max) = 5.441 | 5.816 | 6.074 Mbytes
Step PotEng KinEng TotEng v_fx v_fy v_fz 
    2522   -1152448.9            0   -1152448.9  -0.10238638  0.085443561 -0.0018150125 
    2716   -1152448.9            0   -1152448.9 1.6415848e-05 -1.8789804e-05 -1.845945e-07 
Loop time of 2.27589 on 104 procs for 194 steps with 288751 atoms

99.9% CPU use with 104 MPI tasks x 1 OpenMP threads

Minimization stats:
  Stopping criterion = energy tolerance
  Energy initial, next-to-last, final = 
     -1152448.91352673  -1152448.91779526  -1152448.91779526
  Force two-norm initial, final = 0.30669288 0.00011897527
  Force max component initial, final = 0.12006719 1.9438108e-05
  Final line search alpha, max atom move = 1.0000000 1.9438108e-05
  Iterations, force evaluations = 194 388

MPI task timing breakdown:
Section |  min time  |  avg time  |  max time  |%varavg| %total
---------------------------------------------------------------
Pair    | 0.58232    | 1.6313     | 2.1358     |  34.7 | 71.68
Neigh   | 0          | 0          | 0          |   0.0 |  0.00
Comm    | 0.032936   | 0.37088    | 1.1182     |  50.7 | 16.30
Output  | 0          | 0          | 0          |   0.0 |  0.00
Modify  | 2.3169e-05 | 0.003206   | 0.0068937  |   2.7 |  0.14
Other   |            | 0.2705     |            |       | 11.89

Nlocal:        2776.45 ave        3957 max           0 min
Histogram: 8 4 4 0 4 12 8 2 28 34
Nghost:        3879.11 ave        5424 max         232 min
Histogram: 8 0 8 0 16 0 8 8 16 40
Neighs:        79213.5 ave      115343 max           0 min
Histogram: 8 4 4 0 10 6 8 8 24 32

Total # of neighbors = 8238200
Ave neighs/atom = 28.530464
Neighbor list builds = 0
Dangerous builds = 0
The dot product: -6.41661421486434e-07
The angle: 91.4736082251526
Setting atom values ...
  1 settings made for x
  1 settings made for y
  1 settings made for z
Setting up cg style minimization ...
  Unit style    : metal
  Current step  : 2716
Per MPI rank memory allocation (min/avg/max) = 5.441 | 5.816 | 6.074 Mbytes
Step PotEng KinEng TotEng v_fx v_fy v_fz 
    2716   -1152448.9            0   -1152448.9 -0.089849045  0.091414132 -0.0034089884 
    2898   -1152448.9            0   -1152448.9 9.1048301e-06 -1.2241712e-05 1.1775763e-07 
Loop time of 2.14387 on 104 procs for 182 steps with 288751 atoms

99.9% CPU use with 104 MPI tasks x 1 OpenMP threads

Minimization stats:
  Stopping criterion = energy tolerance
  Energy initial, next-to-last, final = 
     -1152448.89811862  -1152448.90235591  -1152448.90235591
  Force two-norm initial, final = 0.30246277 0.00015299025
  Force max component initial, final = 0.12423521 1.9106494e-05
  Final line search alpha, max atom move = 1.0000000 1.9106494e-05
  Iterations, force evaluations = 182 364

MPI task timing breakdown:
Section |  min time  |  avg time  |  max time  |%varavg| %total
---------------------------------------------------------------
Pair    | 0.54842    | 1.5369     | 2.0144     |  33.7 | 71.69
Neigh   | 0          | 0          | 0          |   0.0 |  0.00
Comm    | 0.037285   | 0.35251    | 1.0407     |  48.6 | 16.44
Output  | 0          | 0          | 0          |   0.0 |  0.00
Modify  | 2.2438e-05 | 0.0030057  | 0.0064654  |   2.6 |  0.14
Other   |            | 0.2514     |            |       | 11.73

Nlocal:        2776.45 ave        3957 max           0 min
Histogram: 8 4 4 0 4 12 8 2 28 34
Nghost:        3879.15 ave        5425 max         232 min
Histogram: 8 0 8 0 16 0 8 8 16 40
Neighs:        79213.5 ave      115343 max           0 min
Histogram: 8 4 4 0 10 6 8 8 24 32

Total # of neighbors = 8238199
Ave neighs/atom = 28.530461
Neighbor list builds = 0
Dangerous builds = 0
The dot product: -2.74324600772919e-07
The angle: 91.030258182745
Setting atom values ...
  1 settings made for x
  1 settings made for y
  1 settings made for z
Setting up cg style minimization ...
  Unit style    : metal
  Current step  : 2898
Per MPI rank memory allocation (min/avg/max) = 5.441 | 5.816 | 6.074 Mbytes
Step PotEng KinEng TotEng v_fx v_fy v_fz 
    2898   -1152448.9            0   -1152448.9  -0.08246996  0.094068231 -0.0046108891 
    3000   -1152448.9            0   -1152448.9 -0.00016558178 0.00019778842 -8.7085657e-06 
    3123   -1152448.9            0   -1152448.9  7.66147e-06 -9.4501723e-06 3.8456985e-07 
Loop time of 2.61806 on 104 procs for 225 steps with 288751 atoms

99.9% CPU use with 104 MPI tasks x 1 OpenMP threads

Minimization stats:
  Stopping criterion = energy tolerance
  Energy initial, next-to-last, final = 
     -1152448.87965282  -1152448.88399496  -1152448.88399496
  Force two-norm initial, final = 0.30019939 9.2900106e-05
  Force max component initial, final = 0.12797281 1.7664436e-05
  Final line search alpha, max atom move = 1.0000000 1.7664436e-05
  Iterations, force evaluations = 225 450

MPI task timing breakdown:
Section |  min time  |  avg time  |  max time  |%varavg| %total
---------------------------------------------------------------
Pair    | 0.67466    | 1.8837     | 2.4628     |  37.2 | 71.95
Neigh   | 0          | 0          | 0          |   0.0 |  0.00
Comm    | 0.048068   | 0.42667    | 1.2836     |  54.6 | 16.30
Output  | 0.00012797 | 0.00014032 | 0.000289   |   0.0 |  0.01
Modify  | 2.7685e-05 | 0.0037106  | 0.0080182  |   2.9 |  0.14
Other   |            | 0.3039     |            |       | 11.61

Nlocal:        2776.45 ave        3958 max           0 min
Histogram: 8 4 4 0 4 12 8 2 28 34
Nghost:        3879.15 ave        5425 max         232 min
Histogram: 8 0 8 0 16 0 8 8 16 40
Neighs:        79213.4 ave      115376 max           0 min
Histogram: 8 4 4 0 10 6 8 8 24 32

Total # of neighbors = 8238198
Ave neighs/atom = 28.530457
Neighbor list builds = 0
Dangerous builds = 0
The dot product: 1.33553870663453e-09
The angle: 89.9937132572756
Setting atom values ...
  1 settings made for x
  1 settings made for y
  1 settings made for z
Setting up cg style minimization ...
  Unit style    : metal
  Current step  : 3123
Per MPI rank memory allocation (min/avg/max) = 5.441 | 5.816 | 6.074 Mbytes
Step PotEng KinEng TotEng v_fx v_fy v_fz 
    3123   -1152448.9            0   -1152448.9 -0.074306999  0.088209864 -0.0039271314 
    3275   -1152448.9            0   -1152448.9 -2.145697e-05 2.8615073e-05 -9.4208663e-07 
Loop time of 1.77357 on 104 procs for 152 steps with 288751 atoms

99.9% CPU use with 104 MPI tasks x 1 OpenMP threads

Minimization stats:
  Stopping criterion = energy tolerance
  Energy initial, next-to-last, final = 
     -1152448.85880098  -1152448.86439121  -1152448.86439121
  Force two-norm initial, final = 0.29750551 0.00028859745
  Force max component initial, final = 0.12919417 3.9151419e-05
  Final line search alpha, max atom move = 1.0000000 3.9151419e-05
  Iterations, force evaluations = 152 304

MPI task timing breakdown:
Section |  min time  |  avg time  |  max time  |%varavg| %total
---------------------------------------------------------------
Pair    | 0.45873    | 1.2803     | 1.6664     |  30.5 | 72.19
Neigh   | 0          | 0          | 0          |   0.0 |  0.00
Comm    | 0.030991   | 0.28828    | 0.87373    |  45.1 | 16.25
Output  | 0          | 0          | 0          |   0.0 |  0.00
Modify  | 1.8787e-05 | 0.0025119  | 0.0054195  |   2.4 |  0.14
Other   |            | 0.2025     |            |       | 11.42

Nlocal:        2776.45 ave        3958 max           0 min
Histogram: 8 4 4 0 4 12 8 2 28 34
Nghost:        3879.15 ave        5425 max         232 min
Histogram: 8 0 8 0 16 0 8 8 16 40
Neighs:        79213.4 ave      115376 max           0 min
Histogram: 8 4 4 0 10 6 8 8 24 32

Total # of neighbors = 8238193
Ave neighs/atom = 28.530440
Neighbor list builds = 0
Dangerous builds = 0
The dot product: -1.64452871257644e-06
The angle: 92.6344698842395
Setting atom values ...
  1 settings made for x
  1 settings made for y
  1 settings made for z
Setting up cg style minimization ...
  Unit style    : metal
  Current step  : 3275
Per MPI rank memory allocation (min/avg/max) = 5.441 | 5.816 | 6.074 Mbytes
Step PotEng KinEng TotEng v_fx v_fy v_fz 
    3275   -1152448.8            0   -1152448.8 -0.059698862  0.064935338 0.00053879502 
    3490   -1152448.8            0   -1152448.8 1.1896298e-05 -1.2392758e-05 -5.2940308e-08 
Loop time of 2.48829 on 104 procs for 215 steps with 288751 atoms

99.9% CPU use with 104 MPI tasks x 1 OpenMP threads

Minimization stats:
  Stopping criterion = energy tolerance
  Energy initial, next-to-last, final = 
     -1152448.83790979  -1152448.84246239  -1152448.84246239
  Force two-norm initial, final = 0.2944927 8.8012136e-05
  Force max component initial, final = 0.12301283 2.1693593e-05
  Final line search alpha, max atom move = 1.0000000 2.1693593e-05
  Iterations, force evaluations = 215 430

MPI task timing breakdown:
Section |  min time  |  avg time  |  max time  |%varavg| %total
---------------------------------------------------------------
Pair    | 0.64324    | 1.7995     | 2.3443     |  36.4 | 72.32
Neigh   | 0          | 0          | 0          |   0.0 |  0.00
Comm    | 0.038343   | 0.40368    | 1.2161     |  53.7 | 16.22
Output  | 0          | 0          | 0          |   0.0 |  0.00
Modify  | 2.5619e-05 | 0.0035476  | 0.0076663  |   2.8 |  0.14
Other   |            | 0.2815     |            |       | 11.31

Nlocal:        2776.45 ave        3960 max           0 min
Histogram: 8 4 4 0 4 12 8 2 28 34
Nghost:        3879.13 ave        5425 max         232 min
Histogram: 8 0 8 0 16 0 8 8 16 40
Neighs:        79213.4 ave      115420 max           0 min
Histogram: 8 4 4 0 10 6 8 8 24 32

Total # of neighbors = 8238192
Ave neighs/atom = 28.530436
Neighbor list builds = 0
Dangerous builds = 0
The dot product: 5.12147028831025e-07
The angle: 88.2915854736225
Setting atom values ...
  1 settings made for x
  1 settings made for y
  1 settings made for z
Setting up cg style minimization ...
  Unit style    : metal
  Current step  : 3490
Per MPI rank memory allocation (min/avg/max) = 5.441 | 5.816 | 6.074 Mbytes
Step PotEng KinEng TotEng v_fx v_fy v_fz 
    3490   -1152448.8            0   -1152448.8 -0.061084034  0.074455301 0.0042535403 
    3677   -1152448.8            0   -1152448.8 2.3513982e-05 -2.7351665e-05 -1.4771528e-06 
Loop time of 2.16158 on 104 procs for 187 steps with 288751 atoms

99.9% CPU use with 104 MPI tasks x 1 OpenMP threads

Minimization stats:
  Stopping criterion = energy tolerance
  Energy initial, next-to-last, final = 
     -1152448.81289201   -1152448.8175803   -1152448.8175803
  Force two-norm initial, final = 0.3005603 0.00019980958
  Force max component initial, final = 0.11965177 4.9942874e-05
  Final line search alpha, max atom move = 1.0000000 4.9942874e-05
  Iterations, force evaluations = 187 374

MPI task timing breakdown:
Section |  min time  |  avg time  |  max time  |%varavg| %total
---------------------------------------------------------------
Pair    | 0.56176    | 1.5725     | 2.0394     |  33.9 | 72.75
Neigh   | 0          | 0          | 0          |   0.0 |  0.00
Comm    | 0.040234   | 0.35193    | 1.0694     |  50.3 | 16.28
Output  | 0          | 0          | 0          |   0.0 |  0.00
Modify  | 2.247e-05  | 0.0030866  | 0.0066546  |   2.6 |  0.14
Other   |            | 0.2341     |            |       | 10.83

Nlocal:        2776.45 ave        3960 max           0 min
Histogram: 8 4 4 0 4 12 8 2 28 34
Nghost:        3879.03 ave        5423 max         232 min
Histogram: 8 0 8 0 16 0 8 8 16 40
Neighs:        79213.4 ave      115428 max           0 min
Histogram: 8 4 4 0 10 6 8 8 24 32

Total # of neighbors = 8238191
Ave neighs/atom = 28.530433
Neighbor list builds = 0
Dangerous builds = 0
The dot product: 9.63134608692788e-07
The angle: 88.4711842776761
Setting atom values ...
  1 settings made for x
  1 settings made for y
  1 settings made for z
Setting up cg style minimization ...
  Unit style    : metal
  Current step  : 3677
Per MPI rank memory allocation (min/avg/max) = 5.441 | 5.816 | 6.074 Mbytes
Step PotEng KinEng TotEng v_fx v_fy v_fz 
    3677   -1152448.8            0   -1152448.8  -0.05841922  0.078084972 0.0075157104 
    3918   -1152448.8            0   -1152448.8 5.0629703e-06 -5.6328979e-06 -4.9177201e-07 
Loop time of 2.79013 on 104 procs for 241 steps with 288751 atoms

99.9% CPU use with 104 MPI tasks x 1 OpenMP threads

Minimization stats:
  Stopping criterion = energy tolerance
  Energy initial, next-to-last, final = 
     -1152448.78510313   -1152448.7895705   -1152448.7895705
  Force two-norm initial, final = 0.30384794 2.8744141e-05
  Force max component initial, final = 0.12045324 5.9318199e-06
  Final line search alpha, max atom move = 1.0000000 5.9318199e-06
  Iterations, force evaluations = 241 482

MPI task timing breakdown:
Section |  min time  |  avg time  |  max time  |%varavg| %total
---------------------------------------------------------------
Pair    | 0.72192    | 2.0149     | 2.6289     |  38.4 | 72.21
Neigh   | 0          | 0          | 0          |   0.0 |  0.00
Comm    | 0.046672   | 0.45338    | 1.3657     |  56.7 | 16.25
Output  | 0          | 0          | 0          |   0.0 |  0.00
Modify  | 2.9062e-05 | 0.003974   | 0.0085539  |   3.0 |  0.14
Other   |            | 0.3179     |            |       | 11.39

Nlocal:        2776.45 ave        3960 max           0 min
Histogram: 8 4 4 0 4 12 8 2 28 34
Nghost:        3879.07 ave        5423 max         232 min
Histogram: 8 0 8 0 16 0 8 8 16 40
Neighs:        79213.4 ave      115431 max           0 min
Histogram: 8 4 4 0 10 6 8 8 24 32

Total # of neighbors = 8238190
Ave neighs/atom = 28.530429
Neighbor list builds = 0
Dangerous builds = 0
The dot product: 9.95115991444797e-08
The angle: 89.2487603267072
Setting atom values ...
  1 settings made for x
  1 settings made for y
  1 settings made for z
Setting up cg style minimization ...
  Unit style    : metal
  Current step  : 3918
Per MPI rank memory allocation (min/avg/max) = 5.441 | 5.816 | 6.074 Mbytes
Step PotEng KinEng TotEng v_fx v_fy v_fz 
    3918   -1152448.8            0   -1152448.8 -0.065160879  0.088141549 0.0099414765 
    4000   -1152448.8            0   -1152448.8 -0.00044560232 0.00048964586 5.1239809e-05 
    4082   -1152448.8            0   -1152448.8 -1.7465486e-05 2.6806421e-05 3.1356389e-06 
Loop time of 1.92264 on 104 procs for 164 steps with 288751 atoms

99.9% CPU use with 104 MPI tasks x 1 OpenMP threads

Minimization stats:
  Stopping criterion = energy tolerance
  Energy initial, next-to-last, final = 
     -1152448.75397618  -1152448.75816147  -1152448.75816147
  Force two-norm initial, final = 0.30879426 0.00021743041
  Force max component initial, final = 0.12337564 2.6806421e-05
  Final line search alpha, max atom move = 1.0000000 2.6806421e-05
  Iterations, force evaluations = 164 328

MPI task timing breakdown:
Section |  min time  |  avg time  |  max time  |%varavg| %total
---------------------------------------------------------------
Pair    | 0.49243    | 1.3866     | 1.8031     |  31.9 | 72.12
Neigh   | 0          | 0          | 0          |   0.0 |  0.00
Comm    | 0.042487   | 0.31525    | 0.95409    |  47.0 | 16.40
Output  | 9.6597e-05 | 9.8923e-05 | 0.00023765 |   0.0 |  0.01
Modify  | 1.9619e-05 | 0.0027136  | 0.0058431  |   2.5 |  0.14
Other   |            | 0.218      |            |       | 11.34

Nlocal:        2776.45 ave        3960 max           0 min
Histogram: 8 4 4 0 4 12 8 2 28 34
Nghost:        3879.03 ave        5423 max         232 min
Histogram: 8 0 8 0 16 0 8 8 16 40
Neighs:        79213.4 ave      115431 max           0 min
Histogram: 8 4 4 0 10 6 8 8 24 32

Total # of neighbors = 8238189
Ave neighs/atom = 28.530426
Neighbor list builds = 0
Dangerous builds = 0
The dot product: 5.23958000788733e-08
The angle: 89.9066159853464
Setting atom values ...
  1 settings made for x
  1 settings made for y
  1 settings made for z
Setting up cg style minimization ...
  Unit style    : metal
  Current step  : 4082
Per MPI rank memory allocation (min/avg/max) = 5.441 | 5.816 | 6.074 Mbytes
Step PotEng KinEng TotEng v_fx v_fy v_fz 
    4082   -1152448.7            0   -1152448.7 -0.073102243  0.098982212   0.01100546 
    4308   -1152448.7            0   -1152448.7 -9.8509337e-07 9.7790995e-07 9.7215944e-08 
Loop time of 2.63986 on 104 procs for 226 steps with 288751 atoms

99.9% CPU use with 104 MPI tasks x 1 OpenMP threads

Minimization stats:
  Stopping criterion = energy tolerance
  Energy initial, next-to-last, final = 
     -1152448.71920461  -1152448.72326824  -1152448.72326824
  Force two-norm initial, final = 0.31238651 2.6874803e-05
  Force max component initial, final = 0.12280419 6.3195880e-06
  Final line search alpha, max atom move = 1.0000000 6.3195880e-06
  Iterations, force evaluations = 226 452

MPI task timing breakdown:
Section |  min time  |  avg time  |  max time  |%varavg| %total
---------------------------------------------------------------
Pair    | 0.68218    | 1.8981     | 2.482      |  37.2 | 71.90
Neigh   | 0          | 0          | 0          |   0.0 |  0.00
Comm    | 0.038785   | 0.4318     | 1.3058     |  55.0 | 16.36
Output  | 0          | 0          | 0          |   0.0 |  0.00
Modify  | 2.843e-05  | 0.0037376  | 0.0080402  |   2.9 |  0.14
Other   |            | 0.3062     |            |       | 11.60

Nlocal:        2776.45 ave        3960 max           0 min
Histogram: 8 4 4 0 4 12 8 2 28 34
Nghost:        3879.09 ave        5424 max         232 min
Histogram: 8 0 8 0 16 0 8 8 16 40
Neighs:        79213.3 ave      115431 max           0 min
Histogram: 8 4 4 0 10 6 8 8 24 32

Total # of neighbors = 8238187
Ave neighs/atom = 28.530419
Neighbor list builds = 0
Dangerous builds = 0
The dot product: 1.15329862184135e-08
The angle: 89.5251046828496
Setting atom values ...
  1 settings made for x
  1 settings made for y
  1 settings made for z
Setting up cg style minimization ...
  Unit style    : metal
  Current step  : 4308
Per MPI rank memory allocation (min/avg/max) = 5.441 | 5.816 | 6.074 Mbytes
Step PotEng KinEng TotEng v_fx v_fy v_fz 
    4308   -1152448.7            0   -1152448.7 -0.079190085   0.10425788  0.010267994 
    4480   -1152448.7            0   -1152448.7 2.9477481e-05 -3.6770337e-05 -3.5527638e-06 
Loop time of 2.00052 on 104 procs for 172 steps with 288751 atoms

99.9% CPU use with 104 MPI tasks x 1 OpenMP threads

Minimization stats:
  Stopping criterion = energy tolerance
  Energy initial, next-to-last, final = 
     -1152448.68099361  -1152448.68496526  -1152448.68496526
  Force two-norm initial, final = 0.31281225 0.00014013939
  Force max component initial, final = 0.11995595 3.8377805e-05
  Final line search alpha, max atom move = 1.0000000 3.8377805e-05
  Iterations, force evaluations = 172 344

MPI task timing breakdown:
Section |  min time  |  avg time  |  max time  |%varavg| %total
---------------------------------------------------------------
Pair    | 0.51796    | 1.4511     | 1.8887     |  32.6 | 72.54
Neigh   | 0          | 0          | 0          |   0.0 |  0.00
Comm    | 0.035358   | 0.32938    | 0.99212    |  48.0 | 16.46
Output  | 0          | 0          | 0          |   0.0 |  0.00
Modify  | 2.0829e-05 | 0.0028401  | 0.0061227  |   2.5 |  0.14
Other   |            | 0.2172     |            |       | 10.86

Nlocal:        2776.45 ave        3960 max           0 min
Histogram: 8 4 4 0 4 12 8 2 28 34
Nghost:        3879.09 ave        5424 max         232 min
Histogram: 8 0 8 0 16 0 8 8 16 40
Neighs:        79213.3 ave      115430 max           0 min
Histogram: 8 4 4 0 10 6 8 8 24 32

Total # of neighbors = 8238187
Ave neighs/atom = 28.530419
Neighbor list builds = 0
Dangerous builds = 0
The dot product: -6.27355883812443e-07
The angle: 90.7605827858471
Setting atom values ...
  1 settings made for x
  1 settings made for y
  1 settings made for z
Setting up cg style minimization ...
  Unit style    : metal
  Current step  : 4480
Per MPI rank memory allocation (min/avg/max) = 5.441 | 5.816 | 6.074 Mbytes
Step PotEng KinEng TotEng v_fx v_fy v_fz 
    4480   -1152448.6            0   -1152448.6 -0.084885627   0.10392323 0.0081791723 
    4659   -1152448.6            0   -1152448.6 3.7811192e-06 -6.5608785e-06 -5.9122599e-07 
Loop time of 2.10431 on 104 procs for 179 steps with 288751 atoms

99.9% CPU use with 104 MPI tasks x 1 OpenMP threads

Minimization stats:
  Stopping criterion = energy tolerance
  Energy initial, next-to-last, final = 
     -1152448.63949399  -1152448.64335108  -1152448.64335108
  Force two-norm initial, final = 0.31097315 9.9471089e-05
  Force max component initial, final = 0.12268255 1.4527571e-05
  Final line search alpha, max atom move = 1.0000000 1.4527571e-05
  Iterations, force evaluations = 179 358

MPI task timing breakdown:
Section |  min time  |  avg time  |  max time  |%varavg| %total
---------------------------------------------------------------
Pair    | 0.53765    | 1.5087     | 1.973      |  33.4 | 71.70
Neigh   | 0          | 0          | 0          |   0.0 |  0.00
Comm    | 0.031111   | 0.34246    | 1.0238     |  48.7 | 16.27
Output  | 0          | 0          | 0          |   0.0 |  0.00
Modify  | 2.1639e-05 | 0.0029549  | 0.0063609  |   2.6 |  0.14
Other   |            | 0.2502     |            |       | 11.89

Nlocal:        2776.45 ave        3960 max           0 min
Histogram: 8 4 4 0 4 12 8 2 28 34
Nghost:        3879.12 ave        5424 max         232 min
Histogram: 8 0 8 0 16 0 8 8 16 40
Neighs:        79213.3 ave      115430 max           0 min
Histogram: 8 4 4 0 10 6 8 8 24 32

Total # of neighbors = 8238187
Ave neighs/atom = 28.530419
Neighbor list builds = 0
Dangerous builds = 0
The dot product: -1.22645536050322e-07
The angle: 90.9252033429619
Setting atom values ...
  1 settings made for x
  1 settings made for y
  1 settings made for z
Setting up cg style minimization ...
  Unit style    : metal
  Current step  : 4659
Per MPI rank memory allocation (min/avg/max) = 5.441 | 5.816 | 6.074 Mbytes
Step PotEng KinEng TotEng v_fx v_fy v_fz 
    4659   -1152448.6            0   -1152448.6 -0.091346983  0.098155632 0.0051654844 
    4827   -1152448.6            0   -1152448.6 -1.851462e-05 2.3959139e-05 1.4602024e-06 
Loop time of 1.96008 on 104 procs for 168 steps with 288751 atoms

99.9% CPU use with 104 MPI tasks x 1 OpenMP threads

Minimization stats:
  Stopping criterion = energy tolerance
  Energy initial, next-to-last, final = 
     -1152448.59482891   -1152448.5985564   -1152448.5985564
  Force two-norm initial, final = 0.30795511 0.00015844637
  Force max component initial, final = 0.12654439 2.4252033e-05
  Final line search alpha, max atom move = 1.0000000 2.4252033e-05
  Iterations, force evaluations = 168 336

MPI task timing breakdown:
Section |  min time  |  avg time  |  max time  |%varavg| %total
---------------------------------------------------------------
Pair    | 0.50402    | 1.414      | 1.8407     |  32.3 | 72.14
Neigh   | 0          | 0          | 0          |   0.0 |  0.00
Comm    | 0.033701   | 0.3183     | 0.95253    |  47.1 | 16.24
Output  | 0          | 0          | 0          |   0.0 |  0.00
Modify  | 2.0049e-05 | 0.0027767  | 0.0059962  |   2.5 |  0.14
Other   |            | 0.225      |            |       | 11.48

Nlocal:        2776.45 ave        3960 max           0 min
Histogram: 8 4 4 0 4 12 8 2 28 34
Nghost:        3879.07 ave        5424 max         232 min
Histogram: 8 0 8 0 16 0 8 8 16 40
Neighs:        79213.3 ave      115413 max           0 min
Histogram: 8 4 4 0 10 6 8 8 24 32

Total # of neighbors = 8238188
Ave neighs/atom = 28.530422
Neighbor list builds = 0
Dangerous builds = 0
The dot product: 5.10506660731819e-07
The angle: 89.0350708894896
Setting atom values ...
  1 settings made for x
  1 settings made for y
  1 settings made for z
Setting up cg style minimization ...
  Unit style    : metal
  Current step  : 4827
Per MPI rank memory allocation (min/avg/max) = 5.441 | 5.816 | 6.074 Mbytes
Step PotEng KinEng TotEng v_fx v_fy v_fz 
    4827   -1152448.5            0   -1152448.5 -0.097770205   0.08755656 0.0016277133 
    4998   -1152448.6            0   -1152448.6 6.2678034e-06 -1.38959e-05 -8.2121394e-07 
Loop time of 1.98427 on 104 procs for 171 steps with 288751 atoms

99.9% CPU use with 104 MPI tasks x 1 OpenMP threads

Minimization stats:
  Stopping criterion = energy tolerance
  Energy initial, next-to-last, final = 
     -1152448.54724883   -1152448.5508539   -1152448.5508539
  Force two-norm initial, final = 0.30394968 0.00014785863
  Force max component initial, final = 0.13054392 3.3485379e-05
  Final line search alpha, max atom move = 1.0000000 3.3485379e-05
  Iterations, force evaluations = 171 342

MPI task timing breakdown:
Section |  min time  |  avg time  |  max time  |%varavg| %total
---------------------------------------------------------------
Pair    | 0.51509    | 1.4341     | 1.8687     |  32.4 | 72.27
Neigh   | 0          | 0          | 0          |   0.0 |  0.00
Comm    | 0.031867   | 0.32242    | 0.96894    |  47.8 | 16.25
Output  | 0          | 0          | 0          |   0.0 |  0.00
Modify  | 2.0537e-05 | 0.0028253  | 0.006086   |   2.5 |  0.14
Other   |            | 0.2249     |            |       | 11.34

Nlocal:        2776.45 ave        3960 max           0 min
Histogram: 8 4 4 0 4 12 8 2 28 34
Nghost:        3879.05 ave        5424 max         232 min
Histogram: 8 0 8 0 16 0 8 8 16 40
Neighs:        79213.4 ave      115412 max           0 min
Histogram: 8 4 4 0 10 6 8 8 24 32

Total # of neighbors = 8238193
Ave neighs/atom = 28.530440
Neighbor list builds = 0
Dangerous builds = 0
The dot product: -2.6228165210476e-07
The angle: 90.9844234703825
Setting atom values ...
  1 settings made for x
  1 settings made for y
  1 settings made for z
Setting up cg style minimization ...
  Unit style    : metal
  Current step  : 4998
Per MPI rank memory allocation (min/avg/max) = 5.441 | 5.816 | 6.074 Mbytes
Step PotEng KinEng TotEng v_fx v_fy v_fz 
    4998   -1152448.5            0   -1152448.5  -0.12519802  0.061001993 -0.0052183378 
    5000   -1152448.5            0   -1152448.5 -0.043204084  0.016103651 -0.002174323 
    5288   -1152449.3            0   -1152449.3 4.9998566e-06 1.6105342e-05 1.608384e-06 
Loop time of 3.43638 on 104 procs for 290 steps with 288751 atoms

99.9% CPU use with 104 MPI tasks x 1 OpenMP threads

Minimization stats:
  Stopping criterion = energy tolerance
  Energy initial, next-to-last, final = 
     -1152448.49772183   -1152449.2888346   -1152449.2888346
  Force two-norm initial, final = 0.30751276 0.0002350761
  Force max component initial, final = 0.13420971 3.7047432e-05
  Final line search alpha, max atom move = 1.0000000 3.7047432e-05
  Iterations, force evaluations = 290 574

MPI task timing breakdown:
Section |  min time  |  avg time  |  max time  |%varavg| %total
---------------------------------------------------------------
Pair    | 0.89113    | 2.4316     | 3.1662     |  41.7 | 70.76
Neigh   | 7.1395e-05 | 0.020697   | 0.029948   |   5.9 |  0.60
Comm    | 0.06029    | 0.55531    | 1.6306     |  60.6 | 16.16
Output  | 8.9217e-05 | 9.833e-05  | 0.00014568 |   0.0 |  0.00
Modify  | 3.5781e-05 | 0.0047313  | 0.010207   |   3.3 |  0.14
Other   |            | 0.4239     |            |       | 12.34

Nlocal:        2776.45 ave        3953 max           0 min
Histogram: 8 4 4 0 4 12 8 2 28 34
Nghost:        3879.14 ave        5425 max         232 min
Histogram: 8 0 8 0 16 0 8 8 16 40
Neighs:        79213.6 ave      115157 max           0 min
Histogram: 8 4 4 0 10 6 8 8 24 32

Total # of neighbors = 8238216
Ave neighs/atom = 28.530519
Neighbor list builds = 7
Dangerous builds = 0
The dot product: -4.0288015633403e-06
The angle: 103.758270629664
Setting atom values ...
  1 settings made for x
  1 settings made for y
  1 settings made for z
Setting up cg style minimization ...
  Unit style    : metal
  Current step  : 5288
Per MPI rank memory allocation (min/avg/max) = 5.441 | 5.816 | 6.074 Mbytes
Step PotEng KinEng TotEng v_fx v_fy v_fz 
    5288   -1152449.3            0   -1152449.3   0.43131777 -0.025007112   0.73207586 
    5524   -1152449.4            0   -1152449.4 -1.9212131e-05 -6.3208046e-06 -3.3096874e-05 
Loop time of 2.74246 on 104 procs for 236 steps with 288751 atoms

99.9% CPU use with 104 MPI tasks x 1 OpenMP threads

Minimization stats:
  Stopping criterion = energy tolerance
  Energy initial, next-to-last, final = 
     -1152449.30300489  -1152449.40024497  -1152449.40024497
  Force two-norm initial, final = 0.88143153 0.00019446189
  Force max component initial, final = 0.73207586 3.3096874e-05
  Final line search alpha, max atom move = 1.0000000 3.3096874e-05
  Iterations, force evaluations = 236 472

MPI task timing breakdown:
Section |  min time  |  avg time  |  max time  |%varavg| %total
---------------------------------------------------------------
Pair    | 0.7156     | 1.9782     | 2.5735     |  37.9 | 72.13
Neigh   | 2.0474e-05 | 0.0059186  | 0.008557   |   3.2 |  0.22
Comm    | 0.046017   | 0.44507    | 1.3407     |  56.1 | 16.23
Output  | 0          | 0          | 0          |   0.0 |  0.00
Modify  | 2.8058e-05 | 0.0038922  | 0.0083842  |   3.0 |  0.14
Other   |            | 0.3094     |            |       | 11.28

Nlocal:        2776.45 ave        3960 max           0 min
Histogram: 8 4 4 0 4 12 8 4 26 34
Nghost:        3879.02 ave        5425 max         232 min
Histogram: 8 0 8 0 16 0 8 8 16 40
Neighs:        79213.5 ave      115405 max           0 min
Histogram: 8 4 4 0 10 6 8 8 24 32

Total # of neighbors = 8238199
Ave neighs/atom = 28.530461
Neighbor list builds = 2
Dangerous builds = 0
The dot product: -5.83962883336393e-06
The angle: 98.6590810546379
Setting atom values ...
  1 settings made for x
  1 settings made for y
  1 settings made for z
Setting up cg style minimization ...
  Unit style    : metal
  Current step  : 5524
Per MPI rank memory allocation (min/avg/max) = 5.441 | 5.816 | 6.074 Mbytes
Step PotEng KinEng TotEng v_fx v_fy v_fz 
    5524   -1152449.4            0   -1152449.4  -0.10281302  0.048287766  -0.11911332 
    5658   -1152449.4            0   -1152449.4 -4.2901705e-06 -2.249335e-05 -7.6124702e-06 
Loop time of 1.56255 on 104 procs for 134 steps with 288751 atoms

99.9% CPU use with 104 MPI tasks x 1 OpenMP threads

Minimization stats:
  Stopping criterion = energy tolerance
  Energy initial, next-to-last, final = 
     -1152449.41299979  -1152449.41746491  -1152449.41746491
  Force two-norm initial, final = 0.29959177 0.00014155305
  Force max component initial, final = 0.12898813 3.1317108e-05
  Final line search alpha, max atom move = 1.0000000 3.1317108e-05
  Iterations, force evaluations = 134 268

MPI task timing breakdown:
Section |  min time  |  avg time  |  max time  |%varavg| %total
---------------------------------------------------------------
Pair    | 0.40353    | 1.1331     | 1.4751     |  28.8 | 72.52
Neigh   | 0          | 0          | 0          |   0.0 |  0.00
Comm    | 0.027993   | 0.25605    | 0.77989    |  42.7 | 16.39
Output  | 0          | 0          | 0          |   0.0 |  0.00
Modify  | 1.6496e-05 | 0.0022159  | 0.0047791  |   2.2 |  0.14
Other   |            | 0.1711     |            |       | 10.95

Nlocal:        2776.45 ave        3960 max           0 min
Histogram: 8 4 4 0 4 12 8 4 26 34
Nghost:        3879.07 ave        5425 max         232 min
Histogram: 8 0 8 0 16 0 8 8 16 40
Neighs:        79213.4 ave      115431 max           0 min
Histogram: 8 4 4 0 10 6 8 8 24 32

Total # of neighbors = 8238196
Ave neighs/atom = 28.530450
Neighbor list builds = 0
Dangerous builds = 0
The dot product: 6.49877346840892e-08
The angle: 89.845695391626
Setting atom values ...
  1 settings made for x
  1 settings made for y
  1 settings made for z
Setting up cg style minimization ...
  Unit style    : metal
  Current step  : 5658
Per MPI rank memory allocation (min/avg/max) = 5.441 | 5.816 | 6.074 Mbytes
Step PotEng KinEng TotEng v_fx v_fy v_fz 
    5658   -1152449.4            0   -1152449.4 -0.036002957  0.023504033 -0.042739135 
    5885   -1152449.4            0   -1152449.4 5.5478814e-06 5.7701061e-06 7.5602485e-06 
Loop time of 2.6398 on 104 procs for 227 steps with 288751 atoms

99.9% CPU use with 104 MPI tasks x 1 OpenMP threads

Minimization stats:
  Stopping criterion = energy tolerance
  Energy initial, next-to-last, final = 
     -1152449.42725511  -1152449.43042501  -1152449.43042501
  Force two-norm initial, final = 0.25868791 3.1617805e-05
  Force max component initial, final = 0.1277223 9.2916344e-06
  Final line search alpha, max atom move = 1.0000000 9.2916344e-06
  Iterations, force evaluations = 227 454

MPI task timing breakdown:
Section |  min time  |  avg time  |  max time  |%varavg| %total
---------------------------------------------------------------
Pair    | 0.68118    | 1.9001     | 2.4868     |  37.4 | 71.98
Neigh   | 0          | 0          | 0          |   0.0 |  0.00
Comm    | 0.038469   | 0.42849    | 1.2939     |  54.9 | 16.23
Output  | 0          | 0          | 0          |   0.0 |  0.00
Modify  | 2.6901e-05 | 0.0037447  | 0.0080698  |   2.9 |  0.14
Other   |            | 0.3075     |            |       | 11.65

Nlocal:        2776.45 ave        3960 max           0 min
Histogram: 8 4 4 0 4 12 8 4 26 34
Nghost:        3879.11 ave        5425 max         232 min
Histogram: 8 0 8 0 16 0 8 8 16 40
Neighs:        79213.4 ave      115431 max           0 min
Histogram: 8 4 4 0 10 6 8 8 24 32

Total # of neighbors = 8238195
Ave neighs/atom = 28.530447
Neighbor list builds = 0
Dangerous builds = 0
The dot product: -1.31302131915253e-08
The angle: 90.068326412542
Setting atom values ...
  1 settings made for x
  1 settings made for y
  1 settings made for z
Setting up cg style minimization ...
  Unit style    : metal
  Current step  : 5885
Per MPI rank memory allocation (min/avg/max) = 5.441 | 5.816 | 6.074 Mbytes
Step PotEng KinEng TotEng v_fx v_fy v_fz 
    5885   -1152449.4            0   -1152449.4 -0.043115756  0.022259801  -0.05188727 
    6000   -1152449.4            0   -1152449.4 -3.209291e-05 0.00016310069 -2.3266083e-05 
    6101   -1152449.4            0   -1152449.4 -5.2851034e-06 -5.5174289e-06 -7.2244548e-06 
Loop time of 2.52214 on 104 procs for 216 steps with 288751 atoms

99.9% CPU use with 104 MPI tasks x 1 OpenMP threads

Minimization stats:
  Stopping criterion = energy tolerance
  Energy initial, next-to-last, final = 
     -1152449.43701401  -1152449.44029137  -1152449.44029137
  Force two-norm initial, final = 0.26440807 4.7339932e-05
  Force max component initial, final = 0.12614366 1.3162955e-05
  Final line search alpha, max atom move = 1.0000000 1.3162955e-05
  Iterations, force evaluations = 216 432

MPI task timing breakdown:
Section |  min time  |  avg time  |  max time  |%varavg| %total
---------------------------------------------------------------
Pair    | 0.6484     | 1.8252     | 2.3564     |  36.6 | 72.37
Neigh   | 0          | 0          | 0          |   0.0 |  0.00
Comm    | 0.043716   | 0.41463    | 1.2477     |  54.0 | 16.44
Output  | 9.4941e-05 | 0.00010054 | 0.00024316 |   0.0 |  0.00
Modify  | 2.6011e-05 | 0.0035691  | 0.0077597  |   2.8 |  0.14
Other   |            | 0.2786     |            |       | 11.05

Nlocal:        2776.45 ave        3961 max           0 min
Histogram: 8 4 4 0 6 10 8 3 27 34
Nghost:        3879.11 ave        5425 max         232 min
Histogram: 8 0 8 0 16 0 8 8 16 40
Neighs:        79213.4 ave      115445 max           0 min
Histogram: 8 4 4 0 10 6 8 8 24 32

Total # of neighbors = 8238197
Ave neighs/atom = 28.530454
Neighbor list builds = 0
Dangerous builds = 0
The dot product: 2.6998971424464e-08
The angle: 89.8528848516271
Setting atom values ...
  1 settings made for x
  1 settings made for y
  1 settings made for z
Setting up cg style minimization ...
  Unit style    : metal
  Current step  : 6101
Per MPI rank memory allocation (min/avg/max) = 5.441 | 5.816 | 6.074 Mbytes
Step PotEng KinEng TotEng v_fx v_fy v_fz 
    6101   -1152449.4            0   -1152449.4 -0.040191517  0.023778055 -0.048322523 
    6288   -1152449.4            0   -1152449.4 1.8922054e-05 -1.5936309e-05 2.2248874e-05 
Loop time of 2.19 on 104 procs for 187 steps with 288751 atoms

99.9% CPU use with 104 MPI tasks x 1 OpenMP threads

Minimization stats:
  Stopping criterion = energy tolerance
  Energy initial, next-to-last, final = 
     -1152449.44376052  -1152449.44708456  -1152449.44708456
  Force two-norm initial, final = 0.26579857 0.00016183563
  Force max component initial, final = 0.1244877 2.2248874e-05
  Final line search alpha, max atom move = 1.0000000 2.2248874e-05
  Iterations, force evaluations = 187 374

MPI task timing breakdown:
Section |  min time  |  avg time  |  max time  |%varavg| %total
---------------------------------------------------------------
Pair    | 0.56278    | 1.5731     | 2.0568     |  34.0 | 71.83
Neigh   | 0          | 0          | 0          |   0.0 |  0.00
Comm    | 0.03249    | 0.3548     | 1.0687     |  50.2 | 16.20
Output  | 0          | 0          | 0          |   0.0 |  0.00
Modify  | 2.2395e-05 | 0.0030804  | 0.0066495  |   2.6 |  0.14
Other   |            | 0.259      |            |       | 11.83

Nlocal:        2776.45 ave        3961 max           0 min
Histogram: 8 4 4 0 6 10 8 2 28 34
Nghost:        3879.07 ave        5424 max         232 min
Histogram: 8 0 8 0 16 0 8 8 16 40
Neighs:        79213.4 ave      115445 max           0 min
Histogram: 8 4 4 0 10 6 8 8 24 32

Total # of neighbors = 8238196
Ave neighs/atom = 28.530450
Neighbor list builds = 0
Dangerous builds = 0
The dot product: -6.29110849010472e-08
The angle: 90.1083357639467
Setting atom values ...
  1 settings made for x
  1 settings made for y
  1 settings made for z
Setting up cg style minimization ...
  Unit style    : metal
  Current step  : 6288
Per MPI rank memory allocation (min/avg/max) = 5.441 | 5.816 | 6.074 Mbytes
Step PotEng KinEng TotEng v_fx v_fy v_fz 
    6288   -1152449.4            0   -1152449.4 -0.040178997  0.019387875 -0.048977776 
    6489   -1152449.5            0   -1152449.5 2.4965925e-06 -1.5189432e-05 1.5740568e-06 
Loop time of 2.35 on 104 procs for 201 steps with 288751 atoms

99.9% CPU use with 104 MPI tasks x 1 OpenMP threads

Minimization stats:
  Stopping criterion = energy tolerance
  Energy initial, next-to-last, final = 
     -1152449.44680374  -1152449.45020617  -1152449.45020617
  Force two-norm initial, final = 0.26638192 0.00014326286
  Force max component initial, final = 0.12284164 2.7247220e-05
  Final line search alpha, max atom move = 1.0000000 2.7247220e-05
  Iterations, force evaluations = 201 402

MPI task timing breakdown:
Section |  min time  |  avg time  |  max time  |%varavg| %total
---------------------------------------------------------------
Pair    | 0.60396    | 1.6923     | 2.216      |  35.2 | 72.01
Neigh   | 0          | 0          | 0          |   0.0 |  0.00
Comm    | 0.035874   | 0.38309    | 1.1434     |  51.7 | 16.30
Output  | 0          | 0          | 0          |   0.0 |  0.00
Modify  | 2.4724e-05 | 0.0033096  | 0.0071713  |   2.7 |  0.14
Other   |            | 0.2713     |            |       | 11.54

Nlocal:        2776.45 ave        3961 max           0 min
Histogram: 8 4 4 0 6 10 8 2 28 34
Nghost:        3879.07 ave        5424 max         232 min
Histogram: 8 0 8 0 16 0 8 8 16 40
Neighs:        79213.4 ave      115455 max           0 min
Histogram: 8 4 4 0 10 6 8 8 24 32

Total # of neighbors = 8238197
Ave neighs/atom = 28.530454
Neighbor list builds = 0
Dangerous builds = 0
The dot product: -9.78844177813697e-09
The angle: 90.0362449424869
Setting atom values ...
  1 settings made for x
  1 settings made for y
  1 settings made for z
Setting up cg style minimization ...
  Unit style    : metal
  Current step  : 6489
Per MPI rank memory allocation (min/avg/max) = 5.441 | 5.816 | 6.074 Mbytes
Step PotEng KinEng TotEng v_fx v_fy v_fz 
    6489   -1152449.4            0   -1152449.4 -0.049395213 0.0072158552 -0.062160726 
    6681   -1152449.4            0   -1152449.4 -7.4150947e-06 -3.9091957e-05 -1.3536988e-05 
Loop time of 2.22583 on 104 procs for 192 steps with 288751 atoms

99.9% CPU use with 104 MPI tasks x 1 OpenMP threads

Minimization stats:
  Stopping criterion = energy tolerance
  Energy initial, next-to-last, final = 
     -1152449.44586078  -1152449.44934145  -1152449.44934145
  Force two-norm initial, final = 0.27011747 0.0001762822
  Force max component initial, final = 0.12097639 3.9091957e-05
  Final line search alpha, max atom move = 1.0000000 3.9091957e-05
  Iterations, force evaluations = 192 384

MPI task timing breakdown:
Section |  min time  |  avg time  |  max time  |%varavg| %total
---------------------------------------------------------------
Pair    | 0.57653    | 1.6122     | 2.0999     |  34.4 | 72.43
Neigh   | 0          | 0          | 0          |   0.0 |  0.00
Comm    | 0.032639   | 0.36171    | 1.096      |  50.9 | 16.25
Output  | 0          | 0          | 0          |   0.0 |  0.00
Modify  | 2.2741e-05 | 0.0031637  | 0.0068308  |   2.7 |  0.14
Other   |            | 0.2488     |            |       | 11.18

Nlocal:        2776.45 ave        3961 max           0 min
Histogram: 8 4 4 0 6 10 8 2 28 34
Nghost:        3879.01 ave        5424 max         232 min
Histogram: 8 0 8 0 16 0 8 8 16 40
Neighs:        79213.4 ave      115455 max           0 min
Histogram: 8 4 4 0 10 6 8 8 24 32

Total # of neighbors = 8238197
Ave neighs/atom = 28.530454
Neighbor list builds = 0
Dangerous builds = 0
The dot product: 9.9735975252962e-08
The angle: 89.8640345586825
Setting atom values ...
  1 settings made for x
  1 settings made for y
  1 settings made for z
Setting up cg style minimization ...
  Unit style    : metal
  Current step  : 6681
Per MPI rank memory allocation (min/avg/max) = 5.441 | 5.816 | 6.074 Mbytes
Step PotEng KinEng TotEng v_fx v_fy v_fz 
    6681   -1152449.4            0   -1152449.4 -0.049827401  0.010260174  -0.06283389 
    6906   -1152449.4            0   -1152449.4 -1.072395e-06 3.0667298e-06 -1.0476214e-06 
Loop time of 2.62076 on 104 procs for 225 steps with 288751 atoms

99.9% CPU use with 104 MPI tasks x 1 OpenMP threads

Minimization stats:
  Stopping criterion = energy tolerance
  Energy initial, next-to-last, final = 
     -1152449.44131813  -1152449.44473241  -1152449.44473241
  Force two-norm initial, final = 0.26762645 4.3735462e-05
  Force max component initial, final = 0.11868214 8.3935130e-06
  Final line search alpha, max atom move = 1.0000000 8.3935130e-06
  Iterations, force evaluations = 225 450

MPI task timing breakdown:
Section |  min time  |  avg time  |  max time  |%varavg| %total
---------------------------------------------------------------
Pair    | 0.67605    | 1.8924     | 2.4708     |  37.2 | 72.21
Neigh   | 0          | 0          | 0          |   0.0 |  0.00
Comm    | 0.040828   | 0.42454    | 1.2753     |  55.1 | 16.20
Output  | 0          | 0          | 0          |   0.0 |  0.00
Modify  | 2.74e-05   | 0.0037005  | 0.0079941  |   2.9 |  0.14
Other   |            | 0.3001     |            |       | 11.45

Nlocal:        2776.45 ave        3961 max           0 min
Histogram: 8 4 4 0 6 10 8 2 28 34
Nghost:        3879.01 ave        5424 max         232 min
Histogram: 8 0 8 0 16 0 8 8 16 40
Neighs:        79213.5 ave      115455 max           0 min
Histogram: 8 4 4 0 10 6 8 8 24 32

Total # of neighbors = 8238200
Ave neighs/atom = 28.530464
Neighbor list builds = 0
Dangerous builds = 0
The dot product: 2.22071715964923e-09
The angle: 89.9627257663439
Setting atom values ...
  1 settings made for x
  1 settings made for y
  1 settings made for z
Setting up cg style minimization ...
  Unit style    : metal
  Current step  : 6906
Per MPI rank memory allocation (min/avg/max) = 5.441 | 5.816 | 6.074 Mbytes
Step PotEng KinEng TotEng v_fx v_fy v_fz 
    6906   -1152449.4            0   -1152449.4 -0.047658841  0.018571796 -0.059590564 
    7000   -1152449.4            0   -1152449.4 -0.00018088197 -0.00025016312 -0.00026122606 
    7111   -1152449.4            0   -1152449.4 5.7957816e-06 1.0595066e-05 8.6521741e-06 
Loop time of 2.38903 on 104 procs for 205 steps with 288751 atoms

99.9% CPU use with 104 MPI tasks x 1 OpenMP threads

Minimization stats:
  Stopping criterion = energy tolerance
  Energy initial, next-to-last, final = 
     -1152449.43311135  -1152449.43637956  -1152449.43637956
  Force two-norm initial, final = 0.26240952 0.00011783079
  Force max component initial, final = 0.11705091 1.0595066e-05
  Final line search alpha, max atom move = 1.0000000 1.0595066e-05
  Iterations, force evaluations = 205 410

MPI task timing breakdown:
Section |  min time  |  avg time  |  max time  |%varavg| %total
---------------------------------------------------------------
Pair    | 0.61857    | 1.7168     | 2.2349     |  35.4 | 71.86
Neigh   | 0          | 0          | 0          |   0.0 |  0.00
Comm    | 0.036533   | 0.38512    | 1.1565     |  52.3 | 16.12
Output  | 0.00015177 | 0.00016345 | 0.00031484 |   0.0 |  0.01
Modify  | 2.5501e-05 | 0.0033804  | 0.0072983  |   2.7 |  0.14
Other   |            | 0.2836     |            |       | 11.87

Nlocal:        2776.45 ave        3961 max           0 min
Histogram: 8 4 4 0 6 10 8 2 28 34
Nghost:        3879.03 ave        5424 max         232 min
Histogram: 8 0 8 0 16 0 8 8 16 40
Neighs:        79213.5 ave      115465 max           0 min
Histogram: 8 4 4 0 10 6 8 8 24 32

Total # of neighbors = 8238202
Ave neighs/atom = 28.530471
Neighbor list builds = 0
Dangerous builds = 0
The dot product: -4.08385197038532e-08
The angle: 90.1575017888311
Setting atom values ...
  1 settings made for x
  1 settings made for y
  1 settings made for z
Setting up cg style minimization ...
  Unit style    : metal
  Current step  : 7111
Per MPI rank memory allocation (min/avg/max) = 5.441 | 5.816 | 6.074 Mbytes
Step PotEng KinEng TotEng v_fx v_fy v_fz 
    7111   -1152449.4            0   -1152449.4 -0.044951942  0.029935023  -0.05521839 
    7327   -1152449.4            0   -1152449.4 -6.4003439e-06 2.1522601e-06 -8.0956391e-06 
Loop time of 2.50875 on 104 procs for 216 steps with 288751 atoms

99.9% CPU use with 104 MPI tasks x 1 OpenMP threads

Minimization stats:
  Stopping criterion = energy tolerance
  Energy initial, next-to-last, final = 
     -1152449.42128546  -1152449.42438342  -1152449.42438342
  Force two-norm initial, final = 0.25733837 6.7787532e-05
  Force max component initial, final = 0.11846429 1.1250418e-05
  Final line search alpha, max atom move = 1.0000000 1.1250418e-05
  Iterations, force evaluations = 216 432

MPI task timing breakdown:
Section |  min time  |  avg time  |  max time  |%varavg| %total
---------------------------------------------------------------
Pair    | 0.64936    | 1.8224     | 2.3647     |  36.6 | 72.64
Neigh   | 0          | 0          | 0          |   0.0 |  0.00
Comm    | 0.04326    | 0.40983    | 1.2377     |  54.3 | 16.34
Output  | 0          | 0          | 0          |   0.0 |  0.00
Modify  | 2.5771e-05 | 0.0035623  | 0.0077117  |   2.8 |  0.14
Other   |            | 0.273      |            |       | 10.88

Nlocal:        2776.45 ave        3960 max           0 min
Histogram: 8 4 4 0 4 12 8 2 28 34
Nghost:        3879.01 ave        5424 max         232 min
Histogram: 8 0 8 0 16 0 8 8 16 40
Neighs:        79213.5 ave      115434 max           0 min
Histogram: 8 4 4 0 10 6 8 8 24 32

Total # of neighbors = 8238209
Ave neighs/atom = 28.530495
Neighbor list builds = 0
Dangerous builds = 0
The dot product: 3.23901919858511e-08
The angle: 89.8239607694562
Setting atom values ...
  1 settings made for x
  1 settings made for y
  1 settings made for z
Setting up cg style minimization ...
  Unit style    : metal
  Current step  : 7327
Per MPI rank memory allocation (min/avg/max) = 5.441 | 5.816 | 6.074 Mbytes
Step PotEng KinEng TotEng v_fx v_fy v_fz 
    7327   -1152449.4            0   -1152449.4 -0.040945234  0.048197716 -0.048324178 
    7572   -1152449.4            0   -1152449.4 1.6135092e-06 3.3806341e-06 2.488394e-06 
Loop time of 2.84388 on 104 procs for 245 steps with 288751 atoms

99.9% CPU use with 104 MPI tasks x 1 OpenMP threads

Minimization stats:
  Stopping criterion = energy tolerance
  Energy initial, next-to-last, final = 
     -1152449.40617518   -1152449.4091384   -1152449.4091384
  Force two-norm initial, final = 0.25472991 1.5530880e-05
  Force max component initial, final = 0.1194075 3.3806341e-06
  Final line search alpha, max atom move = 1.0000000 3.3806341e-06
  Iterations, force evaluations = 245 490

MPI task timing breakdown:
Section |  min time  |  avg time  |  max time  |%varavg| %total
---------------------------------------------------------------
Pair    | 0.73619    | 2.0507     | 2.6809     |  38.8 | 72.11
Neigh   | 0          | 0          | 0          |   0.0 |  0.00
Comm    | 0.042323   | 0.46146    | 1.3929     |  57.2 | 16.23
Output  | 0          | 0          | 0          |   0.0 |  0.00
Modify  | 2.9226e-05 | 0.0040318  | 0.0087346  |   3.0 |  0.14
Other   |            | 0.3277     |            |       | 11.52

Nlocal:        2776.45 ave        3960 max           0 min
Histogram: 8 4 4 0 4 12 8 2 28 34
Nghost:        3879.09 ave        5424 max         232 min
Histogram: 8 0 8 0 16 0 8 8 16 40
Neighs:        79213.5 ave      115435 max           0 min
Histogram: 8 4 4 0 10 6 8 8 24 32

Total # of neighbors = 8238209
Ave neighs/atom = 28.530495
Neighbor list builds = 0
Dangerous builds = 0
The dot product: 1.3045994381991e-09
The angle: 89.9833787335229
Setting atom values ...
  1 settings made for x
  1 settings made for y
  1 settings made for z
Setting up cg style minimization ...
  Unit style    : metal
  Current step  : 7572
Per MPI rank memory allocation (min/avg/max) = 5.441 | 5.816 | 6.074 Mbytes
Step PotEng KinEng TotEng v_fx v_fy v_fz 
    7572   -1152449.4            0   -1152449.4 -0.035584393  0.072811943 -0.039126646 
    7722   -1152449.4            0   -1152449.4 -3.2793143e-05 -2.0191873e-06 -4.3423504e-05 
Loop time of 1.74535 on 104 procs for 150 steps with 288751 atoms

99.9% CPU use with 104 MPI tasks x 1 OpenMP threads

Minimization stats:
  Stopping criterion = energy tolerance
  Energy initial, next-to-last, final = 
      -1152449.3888723  -1152449.39279943  -1152449.39279943
  Force two-norm initial, final = 0.26071633 0.00019300103
  Force max component initial, final = 0.11921963 4.3423504e-05
  Final line search alpha, max atom move = 1.0000000 4.3423504e-05
  Iterations, force evaluations = 150 300

MPI task timing breakdown:
Section |  min time  |  avg time  |  max time  |%varavg| %total
---------------------------------------------------------------
Pair    | 0.45193    | 1.2665     | 1.649      |  30.5 | 72.56
Neigh   | 0          | 0          | 0          |   0.0 |  0.00
Comm    | 0.031661   | 0.28626    | 0.86274    |  44.9 | 16.40
Output  | 0          | 0          | 0          |   0.0 |  0.00
Modify  | 1.8217e-05 | 0.0024749  | 0.0053241  |   2.4 |  0.14
Other   |            | 0.1901     |            |       | 10.89

Nlocal:        2776.45 ave        3960 max           0 min
Histogram: 8 4 4 0 4 12 8 2 28 34
Nghost:        3879.08 ave        5424 max         232 min
Histogram: 8 0 8 0 16 0 8 8 16 40
Neighs:        79213.5 ave      115442 max           0 min
Histogram: 8 4 4 0 10 6 8 8 24 32

Total # of neighbors = 8238209
Ave neighs/atom = 28.530495
Neighbor list builds = 0
Dangerous builds = 0
The dot product: 4.80622453799186e-08
The angle: 89.9494280833139
Setting atom values ...
  1 settings made for x
  1 settings made for y
  1 settings made for z
Setting up cg style minimization ...
  Unit style    : metal
  Current step  : 7722
Per MPI rank memory allocation (min/avg/max) = 5.441 | 5.816 | 6.074 Mbytes
Step PotEng KinEng TotEng v_fx v_fy v_fz 
    7722   -1152449.4            0   -1152449.4 -0.032068971   0.08773412 -0.035027282 
    7850   -1152449.4            0   -1152449.4 -2.4954657e-05 2.2311016e-05 -3.1106936e-05 
Loop time of 1.51328 on 104 procs for 128 steps with 288751 atoms

99.8% CPU use with 104 MPI tasks x 1 OpenMP threads

Minimization stats:
  Stopping criterion = energy tolerance
  Energy initial, next-to-last, final = 
     -1152449.37382878  -1152449.37797179  -1152449.37797179
  Force two-norm initial, final = 0.26131896 0.00022061662
  Force max component initial, final = 0.11404859 5.1951533e-05
  Final line search alpha, max atom move = 1.0000000 5.1951533e-05
  Iterations, force evaluations = 128 256

MPI task timing breakdown:
Section |  min time  |  avg time  |  max time  |%varavg| %total
---------------------------------------------------------------
Pair    | 0.38531    | 1.0787     | 1.4106     |  28.3 | 71.28
Neigh   | 0          | 0          | 0          |   0.0 |  0.00
Comm    | 0.022327   | 0.24634    | 0.72656    |  40.6 | 16.28
Output  | 0          | 0          | 0          |   0.0 |  0.00
Modify  | 1.5566e-05 | 0.0021266  | 0.0045694  |   2.2 |  0.14
Other   |            | 0.1861     |            |       | 12.30

Nlocal:        2776.45 ave        3960 max           0 min
Histogram: 8 4 4 0 4 12 8 2 28 34
Nghost:        3879.08 ave        5424 max         232 min
Histogram: 8 0 8 0 16 0 8 8 16 40
Neighs:        79213.5 ave      115439 max           0 min
Histogram: 8 4 4 0 10 6 8 8 24 32

Total # of neighbors = 8238208
Ave neighs/atom = 28.530492
Neighbor list builds = 0
Dangerous builds = 0
The dot product: 3.70189818014275e-07
The angle: 89.5358373501327
Setting atom values ...
  1 settings made for x
  1 settings made for y
  1 settings made for z
Setting up cg style minimization ...
  Unit style    : metal
  Current step  : 7850
Per MPI rank memory allocation (min/avg/max) = 5.441 | 5.816 | 6.074 Mbytes
Step PotEng KinEng TotEng v_fx v_fy v_fz 
    7850   -1152449.4            0   -1152449.4 -0.030526965  0.081598402 -0.035540515 
    7954   -1152449.4            0   -1152449.4 -1.864902e-05 -4.3182751e-05 -2.730466e-05 
Loop time of 1.21523 on 104 procs for 104 steps with 288751 atoms

99.9% CPU use with 104 MPI tasks x 1 OpenMP threads

Minimization stats:
  Stopping criterion = energy tolerance
  Energy initial, next-to-last, final = 
     -1152449.35944448  -1152449.36281589  -1152449.36281589
  Force two-norm initial, final = 0.25087173 0.00022987472
  Force max component initial, final = 0.10799826 4.4733657e-05
  Final line search alpha, max atom move = 1.0000000 4.4733657e-05
  Iterations, force evaluations = 104 208

MPI task timing breakdown:
Section |  min time  |  avg time  |  max time  |%varavg| %total
---------------------------------------------------------------
Pair    | 0.31395    | 0.8778     | 1.1447     |  25.4 | 72.23
Neigh   | 0          | 0          | 0          |   0.0 |  0.00
Comm    | 0.02101    | 0.19784    | 0.59835    |  37.4 | 16.28
Output  | 0          | 0          | 0          |   0.0 |  0.00
Modify  | 1.2601e-05 | 0.0017226  | 0.0036995  |   2.0 |  0.14
Other   |            | 0.1379     |            |       | 11.35

Nlocal:        2776.45 ave        3960 max           0 min
Histogram: 8 4 4 0 4 12 8 2 28 34
Nghost:        3879.07 ave        5424 max         232 min
Histogram: 8 0 8 0 16 0 8 8 16 40
Neighs:        79213.5 ave      115439 max           0 min
Histogram: 8 4 4 0 10 6 8 8 24 32

Total # of neighbors = 8238207
Ave neighs/atom = 28.530488
Neighbor list builds = 0
Dangerous builds = 0
The dot product: -3.52793862883663e-07
The angle: 90.3716564806234
Setting atom values ...
  1 settings made for x
  1 settings made for y
  1 settings made for z
Setting up cg style minimization ...
  Unit style    : metal
  Current step  : 7954
Per MPI rank memory allocation (min/avg/max) = 5.441 | 5.816 | 6.074 Mbytes
Step PotEng KinEng TotEng v_fx v_fy v_fz 
    7954   -1152449.3            0   -1152449.3 -0.027272264  0.081211662 -0.032590596 
    8000   -1152449.3            0   -1152449.3 -1.0284628e-05 -3.6342137e-05 -1.5296852e-05 
    8009   -1152449.3            0   -1152449.3 2.2000894e-05 1.7623781e-05 3.0023894e-05 
Loop time of 0.645234 on 104 procs for 55 steps with 288751 atoms

99.9% CPU use with 104 MPI tasks x 1 OpenMP threads

Minimization stats:
  Stopping criterion = energy tolerance
  Energy initial, next-to-last, final = 
     -1152449.34345384   -1152449.3468566   -1152449.3468566
  Force two-norm initial, final = 0.24567068 0.00028081274
  Force max component initial, final = 0.10465314 3.0023894e-05
  Final line search alpha, max atom move = 1.0000000 3.0023894e-05
  Iterations, force evaluations = 55 110

MPI task timing breakdown:
Section |  min time  |  avg time  |  max time  |%varavg| %total
---------------------------------------------------------------
Pair    | 0.16694    | 0.46517    | 0.60706    |  18.5 | 72.09
Neigh   | 0          | 0          | 0          |   0.0 |  0.00
Comm    | 0.0095127  | 0.1048     | 0.31642    |  27.2 | 16.24
Output  | 9.7075e-05 | 0.00010293 | 0.00022476 |   0.0 |  0.02
Modify  | 6.9556e-06 | 0.00091414 | 0.0019847  |   0.0 |  0.14
Other   |            | 0.07425    |            |       | 11.51

Nlocal:        2776.45 ave        3960 max           0 min
Histogram: 8 4 4 0 4 12 8 2 28 34
Nghost:        3879.07 ave        5424 max         232 min
Histogram: 8 0 8 0 16 0 8 8 16 40
Neighs:        79213.5 ave      115439 max           0 min
Histogram: 8 4 4 0 10 6 8 8 24 32

Total # of neighbors = 8238207
Ave neighs/atom = 28.530488
Neighbor list builds = 0
Dangerous builds = 0
The dot product: 1.40223407834348e-07
The angle: 89.8049158666059
Setting atom values ...
  1 settings made for x
  1 settings made for y
  1 settings made for z
Setting up cg style minimization ...
  Unit style    : metal
  Current step  : 8009
Per MPI rank memory allocation (min/avg/max) = 5.441 | 5.816 | 6.074 Mbytes
Step PotEng KinEng TotEng v_fx v_fy v_fz 
    8009   -1152449.3            0   -1152449.3 -0.018465041   0.10000654 -0.021727304 
    8274   -1152449.3            0   -1152449.3 -7.1707915e-06 -1.0393698e-06 -9.5754029e-06 
Loop time of 3.11814 on 104 procs for 265 steps with 288751 atoms

99.9% CPU use with 104 MPI tasks x 1 OpenMP threads

Minimization stats:
  Stopping criterion = energy tolerance
  Energy initial, next-to-last, final = 
     -1152449.32798972  -1152449.34761807  -1152449.34761807
  Force two-norm initial, final = 0.2536913 4.9935755e-05
  Force max component initial, final = 0.10272035 9.5754029e-06
  Final line search alpha, max atom move = 1.0000000 9.5754029e-06
  Iterations, force evaluations = 265 530

MPI task timing breakdown:
Section |  min time  |  avg time  |  max time  |%varavg| %total
---------------------------------------------------------------
Pair    | 0.8033     | 2.2364     | 2.9334     |  40.4 | 71.72
Neigh   | 1.0324e-05 | 0.0029654  | 0.0042919  |   2.2 |  0.10
Comm    | 0.047526   | 0.50723    | 1.5057     |  59.2 | 16.27
[...]

Total # of neighbors = 8238206
Ave neighs/atom = 28.530485
Neighbor list builds = 0
Dangerous builds = 0
The dot product: 2.63694009731318e-08
The angle: 89.9132067183166
Setting atom values ...
  1 settings made for x
  1 settings made for y
  1 settings made for z
Setting up cg style minimization ...
  Unit style    : metal
  Current step  : 12789
Per MPI rank memory allocation (min/avg/max) = 5.441 | 5.816 | 6.074 Mbytes
Step PotEng KinEng TotEng v_fx v_fy v_fz 
   12789   -1152449.4            0   -1152449.4 -0.013180587 -0.068557218 -0.024127052 
   12909   -1152449.4            0   -1152449.4 -1.2110877e-05 2.9049369e-05 -1.8828135e-05 
Loop time of 1.40066 on 104 procs for 120 steps with 288751 atoms

99.9% CPU use with 104 MPI tasks x 1 OpenMP threads

Minimization stats:
  Stopping criterion = energy tolerance
  Energy initial, next-to-last, final = 
      -1152449.3851894  -1152449.38837702  -1152449.38837702
  Force two-norm initial, final = 0.23915209 0.00017062544
  Force max component initial, final = 0.10750499 3.1399490e-05
  Final line search alpha, max atom move = 1.0000000 3.1399490e-05
  Iterations, force evaluations = 120 240

MPI task timing breakdown:
Section |  min time  |  avg time  |  max time  |%varavg| %total
---------------------------------------------------------------
Pair    | 0.36176    | 1.009      | 1.3222     |  27.2 | 72.04
Neigh   | 0          | 0          | 0          |   0.0 |  0.00
Comm    | 0.02295    | 0.22753    | 0.68387    |  39.9 | 16.24
Output  | 0          | 0          | 0          |   0.0 |  0.00
Modify  | 1.4726e-05 | 0.0019807  | 0.0042326  |   2.1 |  0.14
Other   |            | 0.1621     |            |       | 11.57

Nlocal:        2776.45 ave        3960 max           0 min
Histogram: 8 4 4 0 4 12 8 4 26 34
Nghost:        3879.11 ave        5424 max         232 min
Histogram: 8 0 8 0 16 0 8 8 16 40
Neighs:        79213.5 ave      115431 max           0 min
Histogram: 8 4 4 0 10 6 8 8 24 32

Total # of neighbors = 8238207
Ave neighs/atom = 28.530488
Neighbor list builds = 0
Dangerous builds = 0
The dot product: -1.66119067642972e-07
The angle: 90.2595232966266
Setting atom values ...
  1 settings made for x
  1 settings made for y
  1 settings made for z
Setting up cg style minimization ...
  Unit style    : metal
  Current step  : 12909
Per MPI rank memory allocation (min/avg/max) = 5.441 | 5.816 | 6.074 Mbytes
Step PotEng KinEng TotEng v_fx v_fy v_fz 
   12909   -1152449.4            0   -1152449.4 -0.012804162  -0.07025351 -0.024287369 
   13000   -1152449.4            0   -1152449.4 6.1030774e-05 3.3633015e-05 0.00010168643 
   13095   -1152449.4            0   -1152449.4 -1.5215092e-05 -3.8052417e-06 -2.513659e-05 
Loop time of 2.16058 on 104 procs for 186 steps with 288751 atoms

99.9% CPU use with 104 MPI tasks x 1 OpenMP threads

Minimization stats:
  Stopping criterion = energy tolerance
  Energy initial, next-to-last, final = 
     -1152449.39927727  -1152449.40314233  -1152449.40314233
  Force two-norm initial, final = 0.24596116 0.00010771802
  Force max component initial, final = 0.10770169 2.5136590e-05
  Final line search alpha, max atom move = 1.0000000 2.5136590e-05
  Iterations, force evaluations = 186 372

MPI task timing breakdown:
Section |  min time  |  avg time  |  max time  |%varavg| %total
---------------------------------------------------------------
Pair    | 0.56031    | 1.563      | 2.0396     |  33.8 | 72.34
Neigh   | 0          | 0          | 0          |   0.0 |  0.00
Comm    | 0.033154   | 0.34961    | 1.0498     |  49.8 | 16.18
Output  | 9.317e-05  | 9.8372e-05 | 0.00024771 |   0.0 |  0.00
Modify  | 2.2951e-05 | 0.0030663  | 0.0065776  |   2.6 |  0.14
Other   |            | 0.2449     |            |       | 11.33

Nlocal:        2776.45 ave        3960 max           0 min
Histogram: 8 4 4 0 4 12 8 4 26 34
Nghost:        3879.11 ave        5424 max         232 min
Histogram: 8 0 8 0 16 0 8 8 16 40
Neighs:        79213.5 ave      115431 max           0 min
Histogram: 8 4 4 0 10 6 8 8 24 32

Total # of neighbors = 8238207
Ave neighs/atom = 28.530488
Neighbor list builds = 0
Dangerous builds = 0
The dot product: 2.92227799299772e-09
The angle: 89.9943488129553
Setting atom values ...
  1 settings made for x
  1 settings made for y
  1 settings made for z
Setting up cg style minimization ...
  Unit style    : metal
  Current step  : 13095
Per MPI rank memory allocation (min/avg/max) = 5.441 | 5.816 | 6.074 Mbytes
Step PotEng KinEng TotEng v_fx v_fy v_fz 
   13095   -1152449.4            0   -1152449.4 -0.016067976 -0.061524709 -0.030172392 
   13223   -1152449.4            0   -1152449.4 -3.7750947e-05 4.0840783e-05 -5.9215607e-05 
Loop time of 1.52567 on 104 procs for 128 steps with 288751 atoms

99.8% CPU use with 104 MPI tasks x 1 OpenMP threads

Minimization stats:
  Stopping criterion = energy tolerance
  Energy initial, next-to-last, final = 
      -1152449.4155493  -1152449.41866496  -1152449.41866496
  Force two-norm initial, final = 0.24648112 0.00022852924
  Force max component initial, final = 0.10649737 5.9215607e-05
  Final line search alpha, max atom move = 1.0000000 5.9215607e-05
  Iterations, force evaluations = 128 256

MPI task timing breakdown:
Section |  min time  |  avg time  |  max time  |%varavg| %total
---------------------------------------------------------------
Pair    | 0.38928    | 1.0819     | 1.4026     |  28.0 | 70.91
Neigh   | 0          | 0          | 0          |   0.0 |  0.00
Comm    | 0.028049   | 0.24987    | 0.74167    |  40.3 | 16.38
Output  | 0          | 0          | 0          |   0.0 |  0.00
Modify  | 1.5588e-05 | 0.0021121  | 0.0045182  |   2.2 |  0.14
Other   |            | 0.1918     |            |       | 12.57

Nlocal:        2776.45 ave        3960 max           0 min
Histogram: 8 4 4 0 4 12 8 4 26 34
Nghost:        3879.11 ave        5424 max         232 min
Histogram: 8 0 8 0 16 0 8 8 16 40
Neighs:        79213.5 ave      115431 max           0 min
Histogram: 8 4 4 0 10 6 8 8 24 32

Total # of neighbors = 8238208
Ave neighs/atom = 28.530492
Neighbor list builds = 0
Dangerous builds = 0
The dot product: -1.2042923179316e-07
The angle: 90.0849368550421
Setting atom values ...
  1 settings made for x
  1 settings made for y
  1 settings made for z
Setting up cg style minimization ...
  Unit style    : metal
  Current step  : 13223
Per MPI rank memory allocation (min/avg/max) = 5.441 | 5.816 | 6.074 Mbytes
Step PotEng KinEng TotEng v_fx v_fy v_fz 
   13223   -1152449.4            0   -1152449.4 -0.028454579 -0.031898799 -0.048832322 
   13422   -1152449.4            0   -1152449.4 5.7154404e-06 -1.1441589e-05 8.5632852e-06 
Loop time of 2.30981 on 104 procs for 199 steps with 288751 atoms

99.9% CPU use with 104 MPI tasks x 1 OpenMP threads

Minimization stats:
  Stopping criterion = energy tolerance
  Energy initial, next-to-last, final = 
     -1152449.42903016  -1152449.43181988  -1152449.43181988
  Force two-norm initial, final = 0.24291497 0.0001204519
  Force max component initial, final = 0.10666051 2.8018147e-05
  Final line search alpha, max atom move = 1.0000000 2.8018147e-05
  Iterations, force evaluations = 199 398

MPI task timing breakdown:
Section |  min time  |  avg time  |  max time  |%varavg| %total
---------------------------------------------------------------
Pair    | 0.599      | 1.6731     | 2.1815     |  35.0 | 72.43
Neigh   | 0          | 0          | 0          |   0.0 |  0.00
Comm    | 0.041528   | 0.37658    | 1.1331     |  51.1 | 16.30
Output  | 0          | 0          | 0          |   0.0 |  0.00
Modify  | 2.4357e-05 | 0.0032778  | 0.0070272  |   2.7 |  0.14
Other   |            | 0.2569     |            |       | 11.12

Nlocal:        2776.45 ave        3960 max           0 min
Histogram: 8 4 4 0 4 12 8 4 26 34
Nghost:        3879.11 ave        5424 max         232 min
Histogram: 8 0 8 0 16 0 8 8 16 40
Neighs:        79213.5 ave      115431 max           0 min
Histogram: 8 4 4 0 10 6 8 8 24 32

Total # of neighbors = 8238209
Ave neighs/atom = 28.530495
Neighbor list builds = 0
Dangerous builds = 0
The dot product: -7.90979419718262e-09
The angle: 90.0294441994103
Setting atom values ...
  1 settings made for x
  1 settings made for y
  1 settings made for z
Setting up cg style minimization ...
  Unit style    : metal
  Current step  : 13422
Per MPI rank memory allocation (min/avg/max) = 5.441 | 5.816 | 6.074 Mbytes
Step PotEng KinEng TotEng v_fx v_fy v_fz 
   13422   -1152449.4            0   -1152449.4 -0.033706335 -0.019372211 -0.056742864 
   13606   -1152449.4            0   -1152449.4 -1.9326351e-05 -1.0686031e-05 -3.2505052e-05 
Loop time of 2.14564 on 104 procs for 184 steps with 288751 atoms

99.9% CPU use with 104 MPI tasks x 1 OpenMP threads

Minimization stats:
  Stopping criterion = energy tolerance
  Energy initial, next-to-last, final = 
     -1152449.43858762  -1152449.44158569  -1152449.44158569
  Force two-norm initial, final = 0.2501496 0.0001904486
  Force max component initial, final = 0.10769925 3.3845147e-05
  Final line search alpha, max atom move = 1.0000000 3.3845147e-05
  Iterations, force evaluations = 184 368

MPI task timing breakdown:
Section |  min time  |  avg time  |  max time  |%varavg| %total
---------------------------------------------------------------
Pair    | 0.55276    | 1.5464     | 2.0228     |  33.7 | 72.07
Neigh   | 0          | 0          | 0          |   0.0 |  0.00
Comm    | 0.034211   | 0.34754    | 1.0435     |  49.4 | 16.20
Output  | 0          | 0          | 0          |   0.0 |  0.00
Modify  | 2.2713e-05 | 0.0030329  | 0.0065214  |   2.6 |  0.14
Other   |            | 0.2487     |            |       | 11.59

Nlocal:        2776.45 ave        3960 max           0 min
Histogram: 8 4 4 0 4 12 8 4 26 34
Nghost:        3879.12 ave        5424 max         232 min
Histogram: 8 0 8 0 16 0 8 8 16 40
Neighs:        79213.6 ave      115431 max           0 min
Histogram: 8 4 4 0 10 6 8 8 24 32

Total # of neighbors = 8238210
Ave neighs/atom = 28.530499
Neighbor list builds = 0
Dangerous builds = 0
The dot product: 5.79861641302588e-08
The angle: 89.9154556672387
Setting atom values ...
  1 settings made for x
  1 settings made for y
  1 settings made for z
Setting up cg style minimization ...
  Unit style    : metal
  Current step  : 13606
Per MPI rank memory allocation (min/avg/max) = 5.441 | 5.816 | 6.074 Mbytes
Step PotEng KinEng TotEng v_fx v_fy v_fz 
   13606   -1152449.4            0   -1152449.4  -0.03696644 -0.011284872 -0.061740189 
   13796   -1152449.4            0   -1152449.4 -2.2495896e-05 4.8005336e-05 -3.3689203e-05 
Loop time of 2.19493 on 104 procs for 190 steps with 288751 atoms

99.9% CPU use with 104 MPI tasks x 1 OpenMP threads

Minimization stats:
  Stopping criterion = energy tolerance
  Energy initial, next-to-last, final = 
     -1152449.44458399  -1152449.44774826  -1152449.44774826
  Force two-norm initial, final = 0.25666538 0.00017055706
  Force max component initial, final = 0.10884874 4.8005336e-05
  Final line search alpha, max atom move = 1.0000000 4.8005336e-05
  Iterations, force evaluations = 190 380

MPI task timing breakdown:
Section |  min time  |  avg time  |  max time  |%varavg| %total
---------------------------------------------------------------
Pair    | 0.57045    | 1.5953     | 2.0722     |  34.2 | 72.68
Neigh   | 0          | 0          | 0          |   0.0 |  0.00
Comm    | 0.034272   | 0.35804    | 1.0896     |  50.2 | 16.31
Output  | 0          | 0          | 0          |   0.0 |  0.00
Modify  | 2.3324e-05 | 0.0031304  | 0.0067197  |   2.6 |  0.14
Other   |            | 0.2384     |            |       | 10.86

Nlocal:        2776.45 ave        3960 max           0 min
Histogram: 8 4 4 0 4 12 8 3 27 34
Nghost:        3879.09 ave        5425 max         232 min
Histogram: 8 0 8 0 16 0 8 8 16 40
Neighs:        79213.5 ave      115422 max           0 min
Histogram: 8 4 4 0 10 6 8 8 24 32

Total # of neighbors = 8238206
Ave neighs/atom = 28.530485
Neighbor list builds = 0
Dangerous builds = 0
The dot product: 9.64947189888351e-08
The angle: 89.9119816709357
Setting atom values ...
  1 settings made for x
  1 settings made for y
  1 settings made for z
Setting up cg style minimization ...
  Unit style    : metal
  Current step  : 13796
Per MPI rank memory allocation (min/avg/max) = 5.441 | 5.816 | 6.074 Mbytes
Step PotEng KinEng TotEng v_fx v_fy v_fz 
   13796   -1152449.4            0   -1152449.4 -0.038538778 -0.0072800039 -0.064296804 
   13980   -1152449.5            0   -1152449.5 -2.5976003e-05 1.4474566e-05 -4.1981668e-05 
Loop time of 2.13974 on 104 procs for 184 steps with 288751 atoms

99.9% CPU use with 104 MPI tasks x 1 OpenMP threads

Minimization stats:
  Stopping criterion = energy tolerance
  Energy initial, next-to-last, final = 
       -1152449.447018  -1152449.45028106  -1152449.45028106
  Force two-norm initial, final = 0.26056314 0.00019412771
  Force max component initial, final = 0.10988842 4.1981668e-05
  Final line search alpha, max atom move = 1.0000000 4.1981668e-05
  Iterations, force evaluations = 184 368

MPI task timing breakdown:
Section |  min time  |  avg time  |  max time  |%varavg| %total
---------------------------------------------------------------
Pair    | 0.55547    | 1.5455     | 2.0145     |  33.5 | 72.23
Neigh   | 0          | 0          | 0          |   0.0 |  0.00
Comm    | 0.033207   | 0.34628    | 1.0436     |  49.4 | 16.18
Output  | 0          | 0          | 0          |   0.0 |  0.00
Modify  | 2.2545e-05 | 0.0030318  | 0.0064867  |   2.6 |  0.14
Other   |            | 0.245      |            |       | 11.45

Nlocal:        2776.45 ave        3961 max           0 min
Histogram: 8 4 4 0 6 10 8 2 28 34
Nghost:        3879.01 ave        5429 max         232 min
Histogram: 8 0 8 0 16 0 8 8 16 40
Neighs:        79213.4 ave      115445 max           0 min
Histogram: 8 4 4 0 10 6 8 8 24 32

Total # of neighbors = 8238197
Ave neighs/atom = 28.530454
Neighbor list builds = 0
Dangerous builds = 0
The dot product: 1.06995574938342e-07
The angle: 89.8808389698534
Setting atom values ...
  1 settings made for x
  1 settings made for y
  1 settings made for z
Setting up cg style minimization ...
  Unit style    : metal
  Current step  : 13980
Per MPI rank memory allocation (min/avg/max) = 5.441 | 5.816 | 6.074 Mbytes
Step PotEng KinEng TotEng v_fx v_fy v_fz 
   13980   -1152449.4            0   -1152449.4  -0.03179396  -0.01758002 -0.054062103 
   14000   -1152449.4            0   -1152449.4 3.4568149e-06 -0.00012289197 -2.6908496e-06 
   14224   -1152449.4            0   -1152449.4 -7.5078795e-07 -3.272449e-06 -1.4728096e-06 
Loop time of 2.82382 on 104 procs for 244 steps with 288751 atoms

99.9% CPU use with 104 MPI tasks x 1 OpenMP threads

Minimization stats:
  Stopping criterion = energy tolerance
  Energy initial, next-to-last, final = 
     -1152449.44587235  -1152449.44906762  -1152449.44906762
  Force two-norm initial, final = 0.25743176 1.6259953e-05
  Force max component initial, final = 0.11091907 3.2724490e-06
  Final line search alpha, max atom move = 1.0000000 3.2724490e-06
  Iterations, force evaluations = 244 488

MPI task timing breakdown:
Section |  min time  |  avg time  |  max time  |%varavg| %total
---------------------------------------------------------------
Pair    | 0.7364     | 2.0489     | 2.6645     |  38.7 | 72.56
Neigh   | 0          | 0          | 0          |   0.0 |  0.00
Comm    | 0.043758   | 0.45659    | 1.3776     |  57.1 | 16.17
Output  | 0.00010513 | 0.00010723 | 0.00019531 |   0.0 |  0.00
Modify  | 2.9605e-05 | 0.0040151  | 0.0085975  |   3.0 |  0.14
Other   |            | 0.3142     |            |       | 11.13

Nlocal:        2776.45 ave        3961 max           0 min
Histogram: 8 4 4 0 6 10 8 2 28 34
Nghost:        3879.01 ave        5424 max         232 min
Histogram: 8 0 8 0 16 0 8 8 16 40
Neighs:        79213.4 ave      115445 max           0 min
Histogram: 8 4 4 0 10 6 8 8 24 32

Total # of neighbors = 8238198
Ave neighs/atom = 28.530457
Neighbor list builds = 0
Dangerous builds = 0
The dot product: 1.38400931871882e-09
The angle: 89.9783711525189
Setting atom values ...
  1 settings made for x
  1 settings made for y
  1 settings made for z
Setting up cg style minimization ...
  Unit style    : metal
  Current step  : 14224
Per MPI rank memory allocation (min/avg/max) = 5.441 | 5.816 | 6.074 Mbytes
Step PotEng KinEng TotEng v_fx v_fy v_fz 
   14224   -1152449.4            0   -1152449.4 -0.025350028 -0.026776906 -0.044093022 
   14501   -1152449.4            0   -1152449.4 8.0001597e-08 -5.3681637e-07 9.6650233e-08 
Loop time of 3.22937 on 104 procs for 277 steps with 288751 atoms

99.9% CPU use with 104 MPI tasks x 1 OpenMP threads

Minimization stats:
  Stopping criterion = energy tolerance
  Energy initial, next-to-last, final = 
     -1152449.44088388  -1152449.44399809  -1152449.44399809
  Force two-norm initial, final = 0.25483474 2.3951264e-06
  Force max component initial, final = 0.11160689 5.3681637e-07
  Final line search alpha, max atom move = 1.0000000 5.3681637e-07
  Iterations, force evaluations = 277 554

MPI task timing breakdown:
Section |  min time  |  avg time  |  max time  |%varavg| %total
---------------------------------------------------------------
Pair    | 0.8342     | 2.3225     | 3.0356     |  41.2 | 71.92
Neigh   | 0          | 0          | 0          |   0.0 |  0.00
Comm    | 0.060746   | 0.52263    | 1.5683     |  60.3 | 16.18
Output  | 0          | 0          | 0          |   0.0 |  0.00
Modify  | 3.3129e-05 | 0.0045623  | 0.0097654  |   3.2 |  0.14
Other   |            | 0.3796     |            |       | 11.76

Nlocal:        2776.45 ave        3961 max           0 min
Histogram: 8 4 4 0 6 10 8 2 28 34
Nghost:        3879.01 ave        5424 max         232 min
Histogram: 8 0 8 0 16 0 8 8 16 40
Neighs:        79213.4 ave      115457 max           0 min
Histogram: 8 4 4 0 10 6 8 8 24 32

Total # of neighbors = 8238194
Ave neighs/atom = 28.530443
Neighbor list builds = 0
Dangerous builds = 0
The dot product: 1.70125059078911e-10
The angle: 89.9823186244146
Setting up cg style minimization ...
  Unit style    : metal
  Current step  : 14501
Per MPI rank memory allocation (min/avg/max) = 5.441 | 5.816 | 6.074 Mbytes
Step PotEng KinEng TotEng v_fx v_fy v_fz 
   14501   -1152449.4            0   -1152449.4   0.19396531 0.0079583475  -0.11634798 
   14726   -1152449.5            0   -1152449.5 -4.218106e-06 8.5406514e-06 3.861339e-05 
Loop time of 2.60856 on 104 procs for 225 steps with 288751 atoms

99.9% CPU use with 104 MPI tasks x 1 OpenMP threads

Minimization stats:
  Stopping criterion = energy tolerance
  Energy initial, next-to-last, final = 
     -1152449.44399809  -1152449.45035271  -1152449.45035271
  Force two-norm initial, final = 0.22632439 0.00010368451
  Force max component initial, final = 0.19396531 3.8613390e-05
  Final line search alpha, max atom move = 1.0000000 3.8613390e-05
  Iterations, force evaluations = 225 450

MPI task timing breakdown:
Section |  min time  |  avg time  |  max time  |%varavg| %total
---------------------------------------------------------------
Pair    | 0.67911    | 1.8884     | 2.4651     |  37.1 | 72.39
Neigh   | 0          | 0          | 0          |   0.0 |  0.00
Comm    | 0.040873   | 0.42199    | 1.2633     |  54.6 | 16.18
Output  | 0          | 0          | 0          |   0.0 |  0.00
Modify  | 2.5234e-05 | 0.0024131  | 0.0062131  |   3.1 |  0.09
Other   |            | 0.2957     |            |       | 11.34

Nlocal:        2776.45 ave        3961 max           0 min
Histogram: 8 4 4 0 6 10 8 2 28 34
Nghost:        3879.01 ave        5424 max         232 min
Histogram: 8 0 8 0 16 0 8 8 16 40
Neighs:        79213.4 ave      115465 max           0 min
Histogram: 8 4 4 0 10 6 8 8 24 32

Total # of neighbors = 8238195
Ave neighs/atom = 28.530447
Neighbor list builds = 0
Dangerous builds = 0
