LAMMPS (29 Oct 2020)
OMP_NUM_THREADS environment is not set. Defaulting to 1 thread. (../comm.cpp:94)
  using 1 OpenMP thread(s) per MPI task
OMP_NUM_THREADS environment is not set. Defaulting to 1 thread. (../comm.cpp:94)
  using 1 OpenMP thread(s) per MPI task
Reading data file ...
  orthogonal box = (-122.39241 -121.13707 -37.090501) to (122.39241 121.13707 37.090501)
  13 by 4 by 2 MPI processor grid
  reading atoms ...
  288751 atoms
  read_data CPU = 0.369 seconds
199981 atoms in group inner
88770 atoms in group outer
1 atoms in group carbon
Neighbor list info ...
  update every 1 steps, delay 0 steps, check yes
  max neighbors/atom: 2000, page size: 100000
  master list distance cutoff = 5.6
  ghost atom cutoff = 5.6
  binsize = 2.8, bins = 88 87 27
  1 neighbor lists, perpetual/occasional/extra = 1 0 0
  (1) pair eam/alloy, perpetual
      attributes: half, newton on
      pair build: half/bin/atomonly/newton
      stencil: half/bin/3d/newton
      bin: standard
Setting up cg style minimization ...
  Unit style    : metal
  Current step  : 0
Per MPI rank memory allocation (min/avg/max) = 5.441 | 5.816 | 6.074 Mbytes
Step v_fx v_fy v_fz PotEng KinEng TotEng 
       0  -0.16353406    0.7109687   0.70714348   -1152447.8            0   -1152447.8 
     212 1.4021402e-07 -3.7114518e-07 -2.6548182e-06   -1152449.5            0   -1152449.5 
Loop time of 2.50547 on 104 procs for 212 steps with 288751 atoms

99.8% CPU use with 104 MPI tasks x 1 OpenMP threads

Minimization stats:
  Stopping criterion = energy tolerance
  Energy initial, next-to-last, final = 
     -1152447.83872107  -1152449.45035272  -1152449.45035272
  Force two-norm initial, final = 9.8774204 1.3398971e-05
  Force max component initial, final = 4.7208571 2.8254805e-06
  Final line search alpha, max atom move = 1.0000000 2.8254805e-06
  Iterations, force evaluations = 212 423

MPI task timing breakdown:
Section |  min time  |  avg time  |  max time  |%varavg| %total
---------------------------------------------------------------
Pair    | 0.66044    | 1.782      | 2.3112     |  35.6 | 71.12
Neigh   | 2.2129e-05 | 0.0058695  | 0.0085035  |   3.2 |  0.23
Comm    | 0.044725   | 0.40479    | 1.2056     |  52.4 | 16.16
Output  | 0          | 0          | 0          |   0.0 |  0.00
Modify  | 2.5645e-05 | 0.0022826  | 0.0058694  |   3.0 |  0.09
Other   |            | 0.3105     |            |       | 12.39

Nlocal:        2776.45 ave        3960 max           0 min
Histogram: 8 4 4 0 4 12 8 2 28 34
Nghost:        3879.01 ave        5424 max         232 min
Histogram: 8 0 8 0 16 0 8 8 16 40
Neighs:        79213.7 ave      115432 max           0 min
Histogram: 8 4 4 0 10 6 8 8 24 32

Total # of neighbors = 8238223
Ave neighs/atom = 28.530544
Neighbor list builds = 2
Dangerous builds = 0
Setting atom values ...
  1 settings made for x
  1 settings made for y
  1 settings made for z
Setting up cg style minimization ...
  Unit style    : metal
  Current step  : 212
Per MPI rank memory allocation (min/avg/max) = 5.441 | 5.816 | 6.074 Mbytes
Step PotEng KinEng TotEng v_fx v_fy v_fz 
     212   -1152449.4            0   -1152449.4 -0.028165774  0.030812161 -0.011866041 
     404   -1152449.4            0   -1152449.4 1.4445944e-06 -4.702537e-06 -5.6272635e-06 
Loop time of 2.23726 on 104 procs for 192 steps with 288751 atoms

99.9% CPU use with 104 MPI tasks x 1 OpenMP threads

Minimization stats:
  Stopping criterion = energy tolerance
  Energy initial, next-to-last, final = 
     -1152449.44388438  -1152449.44827131  -1152449.44827131
  Force two-norm initial, final = 0.30877771 0.00011699865
  Force max component initial, final = 0.13841474 1.5716147e-05
  Final line search alpha, max atom move = 1.0000000 1.5716147e-05
  Iterations, force evaluations = 192 384

MPI task timing breakdown:
Section |  min time  |  avg time  |  max time  |%varavg| %total
---------------------------------------------------------------
Pair    | 0.58584    | 1.6177     | 2.0944     |  34.2 | 72.31
Neigh   | 0          | 0          | 0          |   0.0 |  0.00
Comm    | 0.034901   | 0.36535    | 1.0982     |  50.9 | 16.33
Output  | 0          | 0          | 0          |   0.0 |  0.00
Modify  | 2.4733e-05 | 0.0031705  | 0.0068029  |   2.7 |  0.14
Other   |            | 0.251      |            |       | 11.22

Nlocal:        2776.45 ave        3961 max           0 min
Histogram: 8 4 4 0 6 10 8 2 28 34
Nghost:        3879.01 ave        5425 max         232 min
Histogram: 8 0 8 0 16 0 8 8 16 40
Neighs:        79213.4 ave      115455 max           0 min
Histogram: 8 4 4 0 10 6 8 8 24 32

Total # of neighbors = 8238198
Ave neighs/atom = 28.530457
Neighbor list builds = 0
Dangerous builds = 0
Setting atom values ...
  1 settings made for x
  1 settings made for y
  1 settings made for z
Setting up cg style minimization ...
  Unit style    : metal
  Current step  : 404
Per MPI rank memory allocation (min/avg/max) = 5.441 | 5.816 | 6.074 Mbytes
Step PotEng KinEng TotEng v_fx v_fy v_fz 
     404   -1152449.4            0   -1152449.4 -0.029370308  0.039864089 -0.010225956 
     528   -1152449.4            0   -1152449.4 7.1369606e-06 6.3274416e-06 4.5174081e-05 
Loop time of 1.44565 on 104 procs for 124 steps with 288751 atoms

99.9% CPU use with 104 MPI tasks x 1 OpenMP threads

Minimization stats:
  Stopping criterion = energy tolerance
  Energy initial, next-to-last, final = 
     -1152449.43931495  -1152449.44288581  -1152449.44288581
  Force two-norm initial, final = 0.2788333 0.00020356098
  Force max component initial, final = 0.11668255 4.5174081e-05
  Final line search alpha, max atom move = 1.0000000 4.5174081e-05
  Iterations, force evaluations = 124 248

MPI task timing breakdown:
Section |  min time  |  avg time  |  max time  |%varavg| %total
---------------------------------------------------------------
Pair    | 0.37949    | 1.042      | 1.3551     |  27.5 | 72.08
Neigh   | 0          | 0          | 0          |   0.0 |  0.00
Comm    | 0.024391   | 0.23482    | 0.70772    |  40.6 | 16.24
Output  | 0          | 0          | 0          |   0.0 |  0.00
Modify  | 1.5125e-05 | 0.0020508  | 0.0043891  |   2.1 |  0.14
Other   |            | 0.1668     |            |       | 11.54

Nlocal:        2776.45 ave        3961 max           0 min
Histogram: 8 4 4 0 6 10 8 2 28 34
Nghost:        3879.01 ave        5424 max         232 min
Histogram: 8 0 8 0 16 0 8 8 16 40
Neighs:        79213.5 ave      115455 max           0 min
Histogram: 8 4 4 0 10 6 8 8 24 32

Total # of neighbors = 8238200
Ave neighs/atom = 28.530464
Neighbor list builds = 0
Dangerous builds = 0
The dot product: -2.86356660769494e-06
The angle: 93.5558933733654
Setting atom values ...
  1 settings made for x
  1 settings made for y
  1 settings made for z
Setting up cg style minimization ...
  Unit style    : metal
  Current step  : 528
Per MPI rank memory allocation (min/avg/max) = 5.441 | 5.816 | 6.074 Mbytes
Step PotEng KinEng TotEng v_fx v_fy v_fz 
     528   -1152449.4            0   -1152449.4 -0.030365506  0.049687115 -0.0043406553 
     655   -1152449.4            0   -1152449.4 -2.6213376e-06 2.6117203e-07 -1.4765627e-05 
Loop time of 1.47735 on 104 procs for 127 steps with 288751 atoms

99.9% CPU use with 104 MPI tasks x 1 OpenMP threads

Minimization stats:
  Stopping criterion = energy tolerance
  Energy initial, next-to-last, final = 
     -1152449.43054735  -1152449.43409196  -1152449.43409196
  Force two-norm initial, final = 0.27778685 0.00015058142
  Force max component initial, final = 0.10877532 1.6189917e-05
  Final line search alpha, max atom move = 1.0000000 1.6189917e-05
  Iterations, force evaluations = 127 254

MPI task timing breakdown:
Section |  min time  |  avg time  |  max time  |%varavg| %total
---------------------------------------------------------------
Pair    | 0.387      | 1.0715     | 1.3973     |  27.9 | 72.53
Neigh   | 0          | 0          | 0          |   0.0 |  0.00
Comm    | 0.022887   | 0.24103    | 0.73103    |  41.7 | 16.31
Output  | 0          | 0          | 0          |   0.0 |  0.00
Modify  | 1.5424e-05 | 0.0021017  | 0.0045528  |   2.2 |  0.14
Other   |            | 0.1627     |            |       | 11.01

Nlocal:        2776.45 ave        3961 max           0 min
Histogram: 8 4 4 0 6 10 8 2 28 34
Nghost:        3879.01 ave        5424 max         232 min
Histogram: 8 0 8 0 16 0 8 8 16 40
Neighs:        79213.5 ave      115455 max           0 min
Histogram: 8 4 4 0 10 6 8 8 24 32

Total # of neighbors = 8238201
Ave neighs/atom = 28.530467
Neighbor list builds = 0
Dangerous builds = 0
The dot product: 7.14273679878329e-07
The angle: 87.2704209718132
Setting atom values ...
  1 settings made for x
  1 settings made for y
  1 settings made for z
Setting up cg style minimization ...
  Unit style    : metal
  Current step  : 655
Per MPI rank memory allocation (min/avg/max) = 5.441 | 5.816 | 6.074 Mbytes
Step PotEng KinEng TotEng v_fx v_fy v_fz 
     655   -1152449.4            0   -1152449.4  -0.03075282  0.058303674 0.0038586383 
     787   -1152449.4            0   -1152449.4 3.5524276e-06 -4.6202538e-06 9.5708821e-06 
Loop time of 1.54021 on 104 procs for 132 steps with 288751 atoms

99.9% CPU use with 104 MPI tasks x 1 OpenMP threads

Minimization stats:
  Stopping criterion = energy tolerance
  Energy initial, next-to-last, final = 
     -1152449.41828255   -1152449.4217946   -1152449.4217946
  Force two-norm initial, final = 0.27658009 0.00011689665
  Force max component initial, final = 0.10187463 1.1900506e-05
  Final line search alpha, max atom move = 1.0000000 1.1900506e-05
  Iterations, force evaluations = 132 264

MPI task timing breakdown:
Section |  min time  |  avg time  |  max time  |%varavg| %total
---------------------------------------------------------------
Pair    | 0.40865    | 1.1092     | 1.4437     |  28.2 | 72.02
Neigh   | 0          | 0          | 0          |   0.0 |  0.00
Comm    | 0.02423    | 0.24906    | 0.746      |  41.8 | 16.17
Output  | 0          | 0          | 0          |   0.0 |  0.00
Modify  | 1.7061e-05 | 0.0021755  | 0.0046849  |   2.2 |  0.14
Other   |            | 0.1797     |            |       | 11.67

Nlocal:        2776.45 ave        3961 max           0 min
Histogram: 8 4 4 0 6 10 8 2 28 34
Nghost:        3879.01 ave        5426 max         232 min
Histogram: 8 0 8 0 16 0 8 8 16 40
Neighs:        79213.5 ave      115455 max           0 min
Histogram: 8 4 4 0 10 6 8 8 24 32

Total # of neighbors = 8238203
Ave neighs/atom = 28.530474
Neighbor list builds = 0
Dangerous builds = 0
The dot product: -5.07507961380917e-07
The angle: 92.5958172547704
Setting atom values ...
  1 settings made for x
  1 settings made for y
  1 settings made for z
Setting up cg style minimization ...
  Unit style    : metal
  Current step  : 787
Per MPI rank memory allocation (min/avg/max) = 5.441 | 5.816 | 6.074 Mbytes
Step PotEng KinEng TotEng v_fx v_fy v_fz 
     787   -1152449.4            0   -1152449.4 -0.031131821  0.066850869  0.013513536 
     911   -1152449.4            0   -1152449.4 -3.7220433e-06 1.6362755e-05 5.228543e-05 
Loop time of 1.4628 on 104 procs for 124 steps with 288751 atoms

99.9% CPU use with 104 MPI tasks x 1 OpenMP threads

Minimization stats:
  Stopping criterion = energy tolerance
  Energy initial, next-to-last, final = 
     -1152449.40244885  -1152449.40592877  -1152449.40592877
  Force two-norm initial, final = 0.27557309 0.0001977453
  Force max component initial, final = 0.10218911 5.2285430e-05
  Final line search alpha, max atom move = 1.0000000 5.2285430e-05
  Iterations, force evaluations = 124 248

MPI task timing breakdown:
Section |  min time  |  avg time  |  max time  |%varavg| %total
---------------------------------------------------------------
Pair    | 0.38054    | 1.0455     | 1.3664     |  27.5 | 71.47
Neigh   | 0          | 0          | 0          |   0.0 |  0.00
Comm    | 0.025654   | 0.23778    | 0.70612    |  40.2 | 16.25
Output  | 0          | 0          | 0          |   0.0 |  0.00
Modify  | 1.4669e-05 | 0.0020523  | 0.004415   |   2.1 |  0.14
Other   |            | 0.1775     |            |       | 12.13

Nlocal:        2776.45 ave        3960 max           0 min
Histogram: 8 4 4 0 4 12 8 2 28 34
Nghost:        3879.01 ave        5427 max         232 min
Histogram: 8 0 8 0 16 0 8 8 16 40
Neighs:        79213.5 ave      115424 max           0 min
Histogram: 8 4 4 0 10 6 8 8 24 32

Total # of neighbors = 8238201
Ave neighs/atom = 28.530467
Neighbor list builds = 0
Dangerous builds = 0
The dot product: -1.42036742176788e-07
The angle: 90.1482020689952
Setting atom values ...
  1 settings made for x
  1 settings made for y
  1 settings made for z
Setting up cg style minimization ...
  Unit style    : metal
  Current step  : 911
Per MPI rank memory allocation (min/avg/max) = 5.441 | 5.816 | 6.074 Mbytes
Step PotEng KinEng TotEng v_fx v_fy v_fz 
     911   -1152449.4            0   -1152449.4 -0.031684995  0.076768482  0.024543167 
    1000   -1152449.4            0   -1152449.4 -3.0675613e-05 4.7373728e-05 -0.00016680693 
    1042   -1152449.4            0   -1152449.4 -7.092624e-06 1.3039138e-05 -2.3819387e-05 
Loop time of 1.52168 on 104 procs for 131 steps with 288751 atoms

99.9% CPU use with 104 MPI tasks x 1 OpenMP threads

Minimization stats:
  Stopping criterion = energy tolerance
  Energy initial, next-to-last, final = 
     -1152449.38302276  -1152449.38648961  -1152449.38648961
  Force two-norm initial, final = 0.27527264 0.00014363654
  Force max component initial, final = 0.10076316 2.4127017e-05
  Final line search alpha, max atom move = 1.0000000 2.4127017e-05
  Iterations, force evaluations = 131 262

MPI task timing breakdown:
Section |  min time  |  avg time  |  max time  |%varavg| %total
---------------------------------------------------------------
Pair    | 0.40175    | 1.0993     | 1.4248     |  28.1 | 72.25
Neigh   | 0          | 0          | 0          |   0.0 |  0.00
Comm    | 0.025029   | 0.24631    | 0.7453     |  41.9 | 16.19
Output  | 0.00015471 | 0.00016138 | 0.000295   |   0.0 |  0.01
Modify  | 1.575e-05  | 0.0021634  | 0.0046543  |   2.2 |  0.14
Other   |            | 0.1737     |            |       | 11.41

Nlocal:        2776.45 ave        3960 max           0 min
Histogram: 8 4 4 0 4 12 8 2 28 34
Nghost:        3879.01 ave        5428 max         232 min
Histogram: 8 0 8 0 16 0 8 8 16 40
Neighs:        79213.4 ave      115424 max           0 min
Histogram: 8 4 4 0 10 6 8 8 24 32

Total # of neighbors = 8238197
Ave neighs/atom = 28.530454
Neighbor list builds = 0
Dangerous builds = 0
The dot product: 7.50813915599607e-07
The angle: 88.4670438066282
Setting atom values ...
  1 settings made for x
  1 settings made for y
  1 settings made for z
Setting up cg style minimization ...
  Unit style    : metal
  Current step  : 1042
Per MPI rank memory allocation (min/avg/max) = 5.441 | 5.816 | 6.074 Mbytes
Step PotEng KinEng TotEng v_fx v_fy v_fz 
    1042   -1152449.4            0   -1152449.4 -0.032855761  0.091916961   0.03979447 
    1180   -1152449.4            0   -1152449.4 4.7627499e-06 -9.4328714e-06 2.1103828e-05 
Loop time of 1.59089 on 104 procs for 138 steps with 288751 atoms

99.9% CPU use with 104 MPI tasks x 1 OpenMP threads

Minimization stats:
  Stopping criterion = energy tolerance
  Energy initial, next-to-last, final = 
     -1152449.36007374  -1152449.36364173  -1152449.36364173
  Force two-norm initial, final = 0.27754069 9.5317625e-05
  Force max component initial, final = 0.0967049 2.1103828e-05
  Final line search alpha, max atom move = 1.0000000 2.1103828e-05
  Iterations, force evaluations = 138 276

MPI task timing breakdown:
Section |  min time  |  avg time  |  max time  |%varavg| %total
---------------------------------------------------------------
Pair    | 0.42065    | 1.1601     | 1.5022     |  29.0 | 72.92
Neigh   | 0          | 0          | 0          |   0.0 |  0.00
Comm    | 0.025022   | 0.25878    | 0.78742    |  43.4 | 16.27
Output  | 0          | 0          | 0          |   0.0 |  0.00
Modify  | 1.6385e-05 | 0.0022731  | 0.0049     |   2.3 |  0.14
Other   |            | 0.1697     |            |       | 10.67

Nlocal:        2776.45 ave        3958 max           0 min
Histogram: 8 4 4 0 4 12 8 2 28 34
Nghost:        3879.01 ave        5428 max         232 min
Histogram: 8 0 8 0 16 0 8 8 16 40
Neighs:        79213.5 ave      115348 max           0 min
Histogram: 8 4 4 0 10 6 8 8 24 32

Total # of neighbors = 8238199
Ave neighs/atom = 28.530461
Neighbor list builds = 0
Dangerous builds = 0
The dot product: -3.13009737948167e-07
The angle: 90.7598925708934
Setting atom values ...
  1 settings made for x
  1 settings made for y
  1 settings made for z
Setting up cg style minimization ...
  Unit style    : metal
  Current step  : 1180
Per MPI rank memory allocation (min/avg/max) = 5.441 | 5.816 | 6.074 Mbytes
Step PotEng KinEng TotEng v_fx v_fy v_fz 
    1180   -1152449.3            0   -1152449.3 -0.034830036   0.12732625  0.071985458 
    1319   -1152449.3            0   -1152449.3 2.2685174e-06 -1.1891401e-05 -2.0762014e-05 
Loop time of 1.60104 on 104 procs for 139 steps with 288751 atoms

99.9% CPU use with 104 MPI tasks x 1 OpenMP threads

Minimization stats:
  Stopping criterion = energy tolerance
  Energy initial, next-to-last, final = 
     -1152449.33418721  -1152449.34161169  -1152449.34161169
  Force two-norm initial, final = 0.29288225 0.00012619984
  Force max component initial, final = 0.12732625 2.0762014e-05
  Final line search alpha, max atom move = 1.0000000 2.0762014e-05
  Iterations, force evaluations = 139 278

MPI task timing breakdown:
Section |  min time  |  avg time  |  max time  |%varavg| %total
---------------------------------------------------------------
Pair    | 0.42585    | 1.1663     | 1.5124     |  29.1 | 72.85
Neigh   | 0          | 0          | 0          |   0.0 |  0.00
Comm    | 0.026259   | 0.25984    | 0.78907    |  43.4 | 16.23
Output  | 0          | 0          | 0          |   0.0 |  0.00
Modify  | 1.659e-05  | 0.002288   | 0.0049297  |   2.3 |  0.14
Other   |            | 0.1726     |            |       | 10.78

Nlocal:        2776.45 ave        3958 max           0 min
Histogram: 8 4 4 0 4 12 8 2 28 34
Nghost:        3879.05 ave        5428 max         232 min
Histogram: 8 0 8 0 16 0 8 8 16 40
Neighs:        79213.4 ave      115348 max           0 min
Histogram: 8 4 4 0 10 6 8 8 24 32

Total # of neighbors = 8238193
Ave neighs/atom = 28.530440
Neighbor list builds = 0
Dangerous builds = 0
The dot product: -6.3028253072579e-06
The angle: 105.203660122291
Setting atom values ...
  1 settings made for x
  1 settings made for y
  1 settings made for z
Setting up cg style minimization ...
  Unit style    : metal
  Current step  : 1319
Per MPI rank memory allocation (min/avg/max) = 5.441 | 5.816 | 6.074 Mbytes
Step PotEng KinEng TotEng v_fx v_fy v_fz 
    1319   -1152449.3            0   -1152449.3  0.022422854   0.27071681   0.16034427 
    1771   -1152449.3            0   -1152449.3 8.335739e-09 1.8018177e-08 3.9722101e-08 
Loop time of 5.301 on 104 procs for 452 steps with 288751 atoms

99.9% CPU use with 104 MPI tasks x 1 OpenMP threads

Minimization stats:
  Stopping criterion = energy tolerance
  Energy initial, next-to-last, final = 
      -1152449.3161276  -1152449.34986785  -1152449.34986785
  Force two-norm initial, final = 0.38722517 1.3578070e-07
  Force max component initial, final = 0.27071681 3.9722101e-08
  Final line search alpha, max atom move = 1.0000000 3.9722101e-08
  Iterations, force evaluations = 452 904

MPI task timing breakdown:
Section |  min time  |  avg time  |  max time  |%varavg| %total
---------------------------------------------------------------
Pair    | 1.3848     | 3.8113     | 4.9462     |  52.4 | 71.90
Neigh   | 2.0624e-05 | 0.0059107  | 0.0085886  |   3.2 |  0.11
Comm    | 0.083369   | 0.87108    | 2.6177     |  77.5 | 16.43
Output  | 0          | 0          | 0          |   0.0 |  0.00
Modify  | 5.6959e-05 | 0.0074566  | 0.016121   |   4.1 |  0.14
Other   |            | 0.6053     |            |       | 11.42

Nlocal:        2776.45 ave        3959 max           0 min
Histogram: 8 4 4 0 4 12 8 2 28 34
Nghost:        3879.07 ave        5427 max         232 min
Histogram: 8 0 8 0 16 0 8 8 16 40
Neighs:        79213.3 ave      115403 max           0 min
Histogram: 8 4 4 0 10 6 8 8 24 32

Total # of neighbors = 8238187
Ave neighs/atom = 28.530419
Neighbor list builds = 2
Dangerous builds = 0
The dot product: 2.17796243554127e-08
The angle: 60.6295476746062
Setting atom values ...
  1 settings made for x
  1 settings made for y
  1 settings made for z
Setting up cg style minimization ...
  Unit style    : metal
  Current step  : 1771
Per MPI rank memory allocation (min/avg/max) = 5.441 | 5.816 | 6.074 Mbytes
Step PotEng KinEng TotEng v_fx v_fy v_fz 
    1771   -1152449.3            0   -1152449.3 -0.059855789 -0.039904586 -0.054575033 
    1998   -1152449.4            0   -1152449.4 5.2691795e-06 3.6039862e-06 4.7309552e-06 
Loop time of 2.62938 on 104 procs for 227 steps with 288751 atoms

99.9% CPU use with 104 MPI tasks x 1 OpenMP threads

Minimization stats:
  Stopping criterion = energy tolerance
  Energy initial, next-to-last, final = 
     -1152449.34912579  -1152449.35156998  -1152449.35156998
  Force two-norm initial, final = 0.20614065 3.4468684e-05
  Force max component initial, final = 0.069254813 5.2691795e-06
  Final line search alpha, max atom move = 1.0000000 5.2691795e-06
  Iterations, force evaluations = 227 454

MPI task timing breakdown:
Section |  min time  |  avg time  |  max time  |%varavg| %total
---------------------------------------------------------------
Pair    | 0.69303    | 1.9063     | 2.4764     |  37.1 | 72.50
Neigh   | 0          | 0          | 0          |   0.0 |  0.00
Comm    | 0.043959   | 0.42733    | 1.2983     |  55.5 | 16.25
Output  | 0          | 0          | 0          |   0.0 |  0.00
Modify  | 2.6817e-05 | 0.0037357  | 0.0080281  |   2.9 |  0.14
Other   |            | 0.292      |            |       | 11.10

Nlocal:        2776.45 ave        3961 max           0 min
Histogram: 8 4 4 0 6 10 8 2 28 34
Nghost:        3879.01 ave        5424 max         232 min
Histogram: 8 0 8 0 16 0 8 8 16 40
Neighs:        79213.4 ave      115465 max           0 min
Histogram: 8 4 4 0 10 6 8 8 24 32

Total # of neighbors = 8238191
Ave neighs/atom = 28.530433
Neighbor list builds = 0
Dangerous builds = 0
The dot product: -2.43487450694116e-07
The angle: 91.756032055455
Setting atom values ...
  1 settings made for x
  1 settings made for y
  1 settings made for z
Setting up cg style minimization ...
  Unit style    : metal
  Current step  : 1998
Per MPI rank memory allocation (min/avg/max) = 5.441 | 5.816 | 6.074 Mbytes
Step PotEng KinEng TotEng v_fx v_fy v_fz 
    1998   -1152449.3            0   -1152449.3 -0.013035317 0.0096671565 -0.027347639 
    2000   -1152449.3            0   -1152449.3 -0.016261657 -0.0044537196 -0.021274326 
    2202   -1152449.3            0   -1152449.3 1.6166421e-05 -1.1378669e-06 2.5477842e-05 
Loop time of 2.35747 on 104 procs for 204 steps with 288751 atoms

99.9% CPU use with 104 MPI tasks x 1 OpenMP threads

Minimization stats:
  Stopping criterion = energy tolerance
  Energy initial, next-to-last, final = 
     -1152449.34791707  -1152449.34991221  -1152449.34991221
  Force two-norm initial, final = 0.18650346 0.00010980098
  Force max component initial, final = 0.068586225 2.5477842e-05
  Final line search alpha, max atom move = 1.0000000 2.5477842e-05
  Iterations, force evaluations = 204 408

MPI task timing breakdown:
Section |  min time  |  avg time  |  max time  |%varavg| %total
---------------------------------------------------------------
Pair    | 0.62528    | 1.7167     | 2.2255     |  35.1 | 72.82
Neigh   | 0          | 0          | 0          |   0.0 |  0.00
Comm    | 0.036461   | 0.38477    | 1.1619     |  52.6 | 16.32
Output  | 9.1393e-05 | 0.00010038 | 0.00015438 |   0.0 |  0.00
Modify  | 2.4321e-05 | 0.0033551  | 0.0072665  |   2.7 |  0.14
Other   |            | 0.2526     |            |       | 10.71

Nlocal:        2776.45 ave        3961 max           0 min
Histogram: 8 4 4 0 6 10 8 2 28 34
Nghost:        3879.01 ave        5424 max         232 min
Histogram: 8 0 8 0 16 0 8 8 16 40
Neighs:        79213.4 ave      115465 max           0 min
Histogram: 8 4 4 0 10 6 8 8 24 32

Total # of neighbors = 8238192
Ave neighs/atom = 28.530436
Neighbor list builds = 0
Dangerous builds = 0
The dot product: -4.87677439490528e-08
The angle: 90.0925365338528
Setting atom values ...
  1 settings made for x
  1 settings made for y
  1 settings made for z
Setting up cg style minimization ...
  Unit style    : metal
  Current step  : 2202
Per MPI rank memory allocation (min/avg/max) = 5.441 | 5.816 | 6.074 Mbytes
Step PotEng KinEng TotEng v_fx v_fy v_fz 
    2202   -1152449.3            0   -1152449.3 -0.010804298 0.0089620693 -0.023510386 
    2506   -1152449.3            0   -1152449.3 7.5539217e-08 3.2289909e-07 -1.3735335e-07 
Loop time of 3.55152 on 104 procs for 304 steps with 288751 atoms

99.9% CPU use with 104 MPI tasks x 1 OpenMP threads

Minimization stats:
  Stopping criterion = energy tolerance
  Energy initial, next-to-last, final = 
     -1152449.34325365  -1152449.34520403  -1152449.34520403
  Force two-norm initial, final = 0.18436565 1.3912368e-06
  Force max component initial, final = 0.067128745 3.2289909e-07
  Final line search alpha, max atom move = 1.0000000 3.2289909e-07
  Iterations, force evaluations = 304 608

MPI task timing breakdown:
Section |  min time  |  avg time  |  max time  |%varavg| %total
---------------------------------------------------------------
Pair    | 0.93278    | 2.5493     | 3.3329     |  43.1 | 71.78
Neigh   | 0          | 0          | 0          |   0.0 |  0.00
Comm    | 0.054044   | 0.57565    | 1.718      |  62.9 | 16.21
Output  | 0          | 0          | 0          |   0.0 |  0.00
Modify  | 3.7587e-05 | 0.0050063  | 0.010745   |   3.3 |  0.14
Other   |            | 0.4216     |            |       | 11.87

Nlocal:        2776.45 ave        3960 max           0 min
Histogram: 8 4 4 0 4 12 8 2 28 34
Nghost:        3879.01 ave        5424 max         232 min
Histogram: 8 0 8 0 16 0 8 8 16 40
Neighs:        79213.4 ave      115434 max           0 min
Histogram: 8 4 4 0 10 6 8 8 24 32

Total # of neighbors = 8238191
Ave neighs/atom = 28.530433
Neighbor list builds = 0
Dangerous builds = 0
The dot product: 5.28036339119647e-10
The angle: 89.915711546923
Setting up cg style minimization ...
  Unit style    : metal
  Current step  : 2506
Per MPI rank memory allocation (min/avg/max) = 5.441 | 5.816 | 6.074 Mbytes
Step PotEng KinEng TotEng v_fx v_fy v_fz 
    2506   -1152449.3            0   -1152449.3   0.15991133 -0.081959227   -0.1047307 
    2772   -1152449.4            0   -1152449.4 -1.6066195e-06 -1.0406398e-06 -3.0856135e-06 
Loop time of 3.13102 on 104 procs for 266 steps with 288751 atoms

99.9% CPU use with 104 MPI tasks x 1 OpenMP threads

Minimization stats:
  Stopping criterion = energy tolerance
  Energy initial, next-to-last, final = 
     -1152449.34520403  -1152449.35157334  -1152449.35157334
  Force two-norm initial, final = 0.20798429 1.2136092e-05
  Force max component initial, final = 0.15991133 3.0856135e-06
  Final line search alpha, max atom move = 1.0000000 3.0856135e-06
  Iterations, force evaluations = 266 532

MPI task timing breakdown:
Section |  min time  |  avg time  |  max time  |%varavg| %total
---------------------------------------------------------------
Pair    | 0.8108     | 2.242      | 2.9292     |  40.3 | 71.60
Neigh   | 0          | 0          | 0          |   0.0 |  0.00
Comm    | 0.057606   | 0.50865    | 1.5232     |  59.2 | 16.25
Output  | 0          | 0          | 0          |   0.0 |  0.00
Modify  | 3.1454e-05 | 0.0028543  | 0.0073965  |   3.3 |  0.09
Other   |            | 0.3776     |            |       | 12.06

Nlocal:        2776.45 ave        3960 max           0 min
Histogram: 8 4 4 0 4 12 8 2 28 34
Nghost:        3879.01 ave        5424 max         232 min
Histogram: 8 0 8 0 16 0 8 8 16 40
Neighs:        79213.4 ave      115434 max           0 min
Histogram: 8 4 4 0 10 6 8 8 24 32

Total # of neighbors = 8238190
Ave neighs/atom = 28.530429
Neighbor list builds = 0
Dangerous builds = 0
2
OMP_NUM_THREADS environment is not set. Defaulting to 1 thread. (../comm.cpp:94)
  using 1 OpenMP thread(s) per MPI task
Reading data file ...
  orthogonal box = (-122.39241 -121.13707 -37.090501) to (122.39241 121.13707 37.090501)
  13 by 4 by 2 MPI processor grid
  reading atoms ...
  288751 atoms
  read_data CPU = 0.348 seconds
199981 atoms in group inner
88770 atoms in group outer
1 atoms in group carbon
Neighbor list info ...
  update every 1 steps, delay 0 steps, check yes
  max neighbors/atom: 2000, page size: 100000
  master list distance cutoff = 5.6
  ghost atom cutoff = 5.6
  binsize = 2.8, bins = 88 87 27
  1 neighbor lists, perpetual/occasional/extra = 1 0 0
  (1) pair eam/alloy, perpetual
      attributes: half, newton on
      pair build: half/bin/atomonly/newton
      stencil: half/bin/3d/newton
      bin: standard
Setting up cg style minimization ...
  Unit style    : metal
  Current step  : 0
Per MPI rank memory allocation (min/avg/max) = 5.441 | 5.816 | 6.074 Mbytes
Step v_fx v_fy v_fz PotEng KinEng TotEng 
       0  -0.16353406    0.7109687   0.70714348   -1152447.8            0   -1152447.8 
     212 1.4021402e-07 -3.7114518e-07 -2.6548182e-06   -1152449.5            0   -1152449.5 
Loop time of 2.46445 on 104 procs for 212 steps with 288751 atoms

99.9% CPU use with 104 MPI tasks x 1 OpenMP threads

Minimization stats:
  Stopping criterion = energy tolerance
  Energy initial, next-to-last, final = 
     -1152447.83872107  -1152449.45035272  -1152449.45035272
  Force two-norm initial, final = 9.8774204 1.3398971e-05
  Force max component initial, final = 4.7208571 2.8254805e-06
  Final line search alpha, max atom move = 1.0000000 2.8254805e-06
  Iterations, force evaluations = 212 423

MPI task timing breakdown:
Section |  min time  |  avg time  |  max time  |%varavg| %total
---------------------------------------------------------------
Pair    | 0.64646    | 1.7777     | 2.3214     |  35.8 | 72.13
Neigh   | 2.031e-05  | 0.0059108  | 0.0085767  |   3.2 |  0.24
Comm    | 0.042536   | 0.40076    | 1.2113     |  52.7 | 16.26
Output  | 0          | 0          | 0          |   0.0 |  0.00
Modify  | 2.4922e-05 | 0.0022715  | 0.0058641  |   3.0 |  0.09
Other   |            | 0.2778     |            |       | 11.27

Nlocal:        2776.45 ave        3960 max           0 min
Histogram: 8 4 4 0 4 12 8 2 28 34
Nghost:        3879.01 ave        5424 max         232 min
Histogram: 8 0 8 0 16 0 8 8 16 40
Neighs:        79213.7 ave      115432 max           0 min
Histogram: 8 4 4 0 10 6 8 8 24 32

Total # of neighbors = 8238223
Ave neighs/atom = 28.530544
Neighbor list builds = 2
Dangerous builds = 0
Setting atom values ...
  1 settings made for x
  1 settings made for y
  1 settings made for z
Setting up cg style minimization ...
  Unit style    : metal
  Current step  : 212
Per MPI rank memory allocation (min/avg/max) = 5.441 | 5.816 | 6.074 Mbytes
Step PotEng KinEng TotEng v_fx v_fy v_fz 
     212   -1152449.4            0   -1152449.4 -0.035071268  0.028643628  0.049876259 
     478   -1152449.4            0   -1152449.4 1.0809925e-06 4.7684449e-07 -1.4145435e-07 
Loop time of 3.11216 on 104 procs for 266 steps with 288751 atoms

99.9% CPU use with 104 MPI tasks x 1 OpenMP threads

Minimization stats:
  Stopping criterion = energy tolerance
  Energy initial, next-to-last, final = 
     -1152449.44568351  -1152449.44865833  -1152449.44865833
  Force two-norm initial, final = 0.25336922 6.0855083e-06
  Force max component initial, final = 0.10980188 1.0809925e-06
  Final line search alpha, max atom move = 1.0000000 1.0809925e-06
  Iterations, force evaluations = 266 532

MPI task timing breakdown:
Section |  min time  |  avg time  |  max time  |%varavg| %total
---------------------------------------------------------------
Pair    | 0.81086    | 2.2422     | 2.9282     |  40.3 | 72.05
Neigh   | 0          | 0          | 0          |   0.0 |  0.00
Comm    | 0.05338    | 0.50616    | 1.5154     |  59.3 | 16.26
Output  | 0          | 0          | 0          |   0.0 |  0.00
Modify  | 3.2255e-05 | 0.004381   | 0.0095336  |   3.1 |  0.14
Other   |            | 0.3594     |            |       | 11.55

Nlocal:        2776.45 ave        3961 max           0 min
Histogram: 8 4 4 0 6 10 8 2 28 34
Nghost:        3879.01 ave        5425 max         232 min
Histogram: 8 0 8 0 16 0 8 8 16 40
Neighs:        79213.4 ave      115455 max           0 min
Histogram: 8 4 4 0 10 6 8 8 24 32

Total # of neighbors = 8238198
Ave neighs/atom = 28.530457
Neighbor list builds = 0
Dangerous builds = 0
Setting atom values ...
  1 settings made for x
  1 settings made for y
  1 settings made for z
Setting up cg style minimization ...
  Unit style    : metal
  Current step  : 478
Per MPI rank memory allocation (min/avg/max) = 5.441 | 5.816 | 6.074 Mbytes
Step PotEng KinEng TotEng v_fx v_fy v_fz 
     478   -1152449.4            0   -1152449.4 -0.041499444  0.034390486   0.07242597 
     755   -1152449.4            0   -1152449.4 8.4920598e-08 -4.1184438e-07 -5.6114393e-07 
Loop time of 3.24591 on 104 procs for 277 steps with 288751 atoms

99.9% CPU use with 104 MPI tasks x 1 OpenMP threads

Minimization stats:
  Stopping criterion = energy tolerance
  Energy initial, next-to-last, final = 
     -1152449.43978499  -1152449.44323164  -1152449.44323164
  Force two-norm initial, final = 0.27588811 4.0412579e-06
  Force max component initial, final = 0.11301767 7.7824386e-07
  Final line search alpha, max atom move = 1.0000000 7.7824386e-07
  Iterations, force evaluations = 277 554

MPI task timing breakdown:
Section |  min time  |  avg time  |  max time  |%varavg| %total
---------------------------------------------------------------
Pair    | 0.84135    | 2.3285     | 3.0647     |  41.1 | 71.74
Neigh   | 0          | 0          | 0          |   0.0 |  0.00
Comm    | 0.055873   | 0.53124    | 1.5701     |  59.4 | 16.37
Output  | 0          | 0          | 0          |   0.0 |  0.00
Modify  | 3.3687e-05 | 0.0045533  | 0.009766   |   3.2 |  0.14
Other   |            | 0.3816     |            |       | 11.76

Nlocal:        2776.45 ave        3961 max           0 min
Histogram: 8 4 4 0 6 10 8 2 28 34
Nghost:        3879.07 ave        5424 max         232 min
Histogram: 8 0 8 0 16 0 8 8 16 40
Neighs:        79213.4 ave      115455 max           0 min
Histogram: 8 4 4 0 10 6 8 8 24 32

Total # of neighbors = 8238198
Ave neighs/atom = 28.530457
Neighbor list builds = 0
Dangerous builds = 0
The dot product: -7.46442209500875e-08
The angle: 96.1106583815963
Setting atom values ...
  1 settings made for x
  1 settings made for y
  1 settings made for z
Setting up cg style minimization ...
  Unit style    : metal
  Current step  : 755
Per MPI rank memory allocation (min/avg/max) = 5.441 | 5.816 | 6.074 Mbytes
Step PotEng KinEng TotEng v_fx v_fy v_fz 
     755   -1152449.4            0   -1152449.4 -0.037812264  0.031999983  0.085263669 
     955   -1152449.4            0   -1152449.4 1.2159165e-05 7.5939477e-07 -1.0385308e-05 
Loop time of 2.31388 on 104 procs for 200 steps with 288751 atoms

99.9% CPU use with 104 MPI tasks x 1 OpenMP threads

Minimization stats:
  Stopping criterion = energy tolerance
  Energy initial, next-to-last, final = 
     -1152449.43127018  -1152449.43466482  -1152449.43466482
  Force two-norm initial, final = 0.27252683 9.0858895e-05
  Force max component initial, final = 0.11759962 1.3547880e-05
  Final line search alpha, max atom move = 1.0000000 1.3547880e-05
  Iterations, force evaluations = 200 400

MPI task timing breakdown:
Section |  min time  |  avg time  |  max time  |%varavg| %total
---------------------------------------------------------------
Pair    | 0.61162    | 1.6794     | 2.1813     |  34.8 | 72.58
Neigh   | 0          | 0          | 0          |   0.0 |  0.00
Comm    | 0.039237   | 0.37692    | 1.1442     |  51.8 | 16.29
Output  | 0          | 0          | 0          |   0.0 |  0.00
Modify  | 2.4122e-05 | 0.0032914  | 0.0070917  |   2.7 |  0.14
Other   |            | 0.2543     |            |       | 10.99

Nlocal:        2776.45 ave        3961 max           0 min
Histogram: 8 4 4 0 6 10 8 2 28 34
Nghost:        3879.07 ave        5424 max         232 min
Histogram: 8 0 8 0 16 0 8 8 16 40
Neighs:        79213.5 ave      115455 max           0 min
Histogram: 8 4 4 0 10 6 8 8 24 32

Total # of neighbors = 8238199
Ave neighs/atom = 28.530461
Neighbor list builds = 0
Dangerous builds = 0
The dot product: -1.02701179409077e-06
The angle: 93.6782560039762
Setting atom values ...
  1 settings made for x
  1 settings made for y
  1 settings made for z
Setting up cg style minimization ...
  Unit style    : metal
  Current step  : 955
Per MPI rank memory allocation (min/avg/max) = 5.441 | 5.816 | 6.074 Mbytes
Step PotEng KinEng TotEng v_fx v_fy v_fz 
     955   -1152449.4            0   -1152449.4 -0.031075944  0.023491066  0.084876084 
    1000   -1152449.4            0   -1152449.4 9.2160774e-05 0.00014963607 0.00019336943 
    1074   -1152449.4            0   -1152449.4 -3.6224721e-05 -6.1281539e-06 3.0926161e-05 
Loop time of 1.38717 on 104 procs for 119 steps with 288751 atoms

99.9% CPU use with 104 MPI tasks x 1 OpenMP threads

Minimization stats:
  Stopping criterion = energy tolerance
  Energy initial, next-to-last, final = 
     -1152449.41972481  -1152449.42301876  -1152449.42301876
  Force two-norm initial, final = 0.26550324 0.00025507123
  Force max component initial, final = 0.12345581 3.6398454e-05
  Final line search alpha, max atom move = 1.0000000 3.6398454e-05
  Iterations, force evaluations = 119 238

MPI task timing breakdown:
Section |  min time  |  avg time  |  max time  |%varavg| %total
---------------------------------------------------------------
Pair    | 0.36245    | 1.0024     | 1.3113     |  26.9 | 72.26
Neigh   | 0          | 0          | 0          |   0.0 |  0.00
Comm    | 0.02419    | 0.22555    | 0.67937    |  39.6 | 16.26
Output  | 9.362e-05  | 0.00010565 | 0.00021394 |   0.0 |  0.01
Modify  | 1.471e-05  | 0.0019633  | 0.0042654  |   2.1 |  0.14
Other   |            | 0.1571     |            |       | 11.33

Nlocal:        2776.45 ave        3961 max           0 min
Histogram: 8 4 4 0 6 10 8 2 28 34
Nghost:        3879.07 ave        5424 max         232 min
Histogram: 8 0 8 0 16 0 8 8 16 40
Neighs:        79213.5 ave      115455 max           0 min
Histogram: 8 4 4 0 10 6 8 8 24 32

Total # of neighbors = 8238201
Ave neighs/atom = 28.530467
Neighbor list builds = 0
Dangerous builds = 0
The dot product: 1.85874081914909e-06
The angle: 87.7818018582237
Setting atom values ...
  1 settings made for x
  1 settings made for y
  1 settings made for z
Setting up cg style minimization ...
  Unit style    : metal
  Current step  : 1074
Per MPI rank memory allocation (min/avg/max) = 5.441 | 5.816 | 6.074 Mbytes
Step PotEng KinEng TotEng v_fx v_fy v_fz 
    1074   -1152449.4            0   -1152449.4  -0.02634137  0.014965476  0.077828613 
    1233   -1152449.4            0   -1152449.4  2.71145e-06 2.8865666e-06  3.62665e-06 
Loop time of 1.84823 on 104 procs for 159 steps with 288751 atoms

99.9% CPU use with 104 MPI tasks x 1 OpenMP threads

Minimization stats:
  Stopping criterion = energy tolerance
  Energy initial, next-to-last, final = 
     -1152449.40498222   -1152449.4081747   -1152449.4081747
  Force two-norm initial, final = 0.25912383 4.2871303e-05
  Force max component initial, final = 0.12693843 1.0893248e-05
  Final line search alpha, max atom move = 1.0000000 1.0893248e-05
  Iterations, force evaluations = 159 318

MPI task timing breakdown:
Section |  min time  |  avg time  |  max time  |%varavg| %total
---------------------------------------------------------------
Pair    | 0.48502    | 1.3355     | 1.7473     |  31.1 | 72.26
Neigh   | 0          | 0          | 0          |   0.0 |  0.00
Comm    | 0.031607   | 0.30184    | 0.90892    |  45.7 | 16.33
Output  | 0          | 0          | 0          |   0.0 |  0.00
Modify  | 1.9283e-05 | 0.0026183  | 0.0056218  |   2.4 |  0.14
Other   |            | 0.2083     |            |       | 11.27

Nlocal:        2776.45 ave        3961 max           0 min
Histogram: 8 4 4 0 6 10 8 3 27 34
Nghost:        3879.05 ave        5424 max         232 min
Histogram: 8 0 8 0 16 0 8 8 16 40
Neighs:        79213.5 ave      115455 max           0 min
Histogram: 8 4 4 0 10 6 8 8 24 32

Total # of neighbors = 8238200
Ave neighs/atom = 28.530464
Neighbor list builds = 0
Dangerous builds = 0
The dot product: 3.17600781652032e-07
The angle: 86.6093415537186
Setting atom values ...
  1 settings made for x
  1 settings made for y
  1 settings made for z
Setting up cg style minimization ...
  Unit style    : metal
  Current step  : 1233
Per MPI rank memory allocation (min/avg/max) = 5.441 | 5.816 | 6.074 Mbytes
Step PotEng KinEng TotEng v_fx v_fy v_fz 
    1233   -1152449.4            0   -1152449.4 -0.024526306 0.0082917278  0.069671703 
    1348   -1152449.4            0   -1152449.4 -2.178042e-05 -3.2900946e-05 -7.1033552e-05 
Loop time of 1.34544 on 104 procs for 115 steps with 288751 atoms

99.9% CPU use with 104 MPI tasks x 1 OpenMP threads

Minimization stats:
  Stopping criterion = energy tolerance
  Energy initial, next-to-last, final = 
     -1152449.38693805   -1152449.3900509   -1152449.3900509
  Force two-norm initial, final = 0.25460724 0.0002897648
  Force max component initial, final = 0.12902833 7.9803985e-05
  Final line search alpha, max atom move = 1.0000000 7.9803985e-05
  Iterations, force evaluations = 115 230

MPI task timing breakdown:
Section |  min time  |  avg time  |  max time  |%varavg| %total
---------------------------------------------------------------
Pair    | 0.35135    | 0.96804    | 1.2696     |  26.5 | 71.95
Neigh   | 0          | 0          | 0          |   0.0 |  0.00
Comm    | 0.02296    | 0.21777    | 0.65626    |  38.8 | 16.19
Output  | 0          | 0          | 0          |   0.0 |  0.00
Modify  | 1.5079e-05 | 0.0018954  | 0.0040507  |   2.1 |  0.14
Other   |            | 0.1577     |            |       | 11.72

Nlocal:        2776.45 ave        3961 max           0 min
Histogram: 8 4 4 0 6 10 8 4 26 34
Nghost:        3879.05 ave        5424 max         232 min
Histogram: 8 0 8 0 16 0 8 8 16 40
Neighs:        79213.5 ave      115455 max           0 min
Histogram: 8 4 4 0 10 6 8 8 24 32

Total # of neighbors = 8238200
Ave neighs/atom = 28.530464
Neighbor list builds = 0
Dangerous builds = 0
The dot product: -3.90341192394414e-06
The angle: 92.7534417684544
Setting atom values ...
  1 settings made for x
  1 settings made for y
  1 settings made for z
Setting up cg style minimization ...
  Unit style    : metal
  Current step  : 1348
Per MPI rank memory allocation (min/avg/max) = 5.441 | 5.816 | 6.074 Mbytes
Step PotEng KinEng TotEng v_fx v_fy v_fz 
    1348   -1152449.4            0   -1152449.4 -0.025998617 0.0029281199  0.063419982 
    1524   -1152449.4            0   -1152449.4 2.2877357e-06 5.6993001e-06 1.8361542e-05 
Loop time of 2.05941 on 104 procs for 176 steps with 288751 atoms

99.9% CPU use with 104 MPI tasks x 1 OpenMP threads

Minimization stats:
  Stopping criterion = energy tolerance
  Energy initial, next-to-last, final = 
     -1152449.36555324  -1152449.36860572  -1152449.36860572
  Force two-norm initial, final = 0.25204942 5.9339592e-05
  Force max component initial, final = 0.13040096 1.8361542e-05
  Final line search alpha, max atom move = 1.0000000 1.8361542e-05
  Iterations, force evaluations = 176 352

MPI task timing breakdown:
Section |  min time  |  avg time  |  max time  |%varavg| %total
---------------------------------------------------------------
Pair    | 0.53498    | 1.4773     | 1.9334     |  32.8 | 71.73
Neigh   | 0          | 0          | 0          |   0.0 |  0.00
Comm    | 0.039313   | 0.33512    | 1.0023     |  47.7 | 16.27
Output  | 0          | 0          | 0          |   0.0 |  0.00
Modify  | 2.1416e-05 | 0.0028975  | 0.0062231  |   2.5 |  0.14
Other   |            | 0.2441     |            |       | 11.85

Nlocal:        2776.45 ave        3961 max           0 min
Histogram: 8 4 4 0 6 10 8 4 26 34
Nghost:        3879.05 ave        5424 max         232 min
Histogram: 8 0 8 0 16 0 8 8 16 40
Neighs:        79213.5 ave      115455 max           0 min
Histogram: 8 4 4 0 10 6 8 8 24 32

Total # of neighbors = 8238201
Ave neighs/atom = 28.530467
Neighbor list builds = 0
Dangerous builds = 0
The dot product: 7.02158444469203e-07
The angle: 87.9216566089597
Setting atom values ...
  1 settings made for x
  1 settings made for y
  1 settings made for z
Setting up cg style minimization ...
  Unit style    : metal
  Current step  : 1524
Per MPI rank memory allocation (min/avg/max) = 5.441 | 5.816 | 6.074 Mbytes
Step PotEng KinEng TotEng v_fx v_fy v_fz 
    1524   -1152449.3            0   -1152449.3 -0.033880965 -0.0026961514  0.064491395 
    1652   -1152449.3            0   -1152449.3 2.2131026e-05 2.0710199e-05 4.8953328e-05 
Loop time of 1.51086 on 104 procs for 128 steps with 288751 atoms

99.9% CPU use with 104 MPI tasks x 1 OpenMP threads

Minimization stats:
  Stopping criterion = energy tolerance
  Energy initial, next-to-last, final = 
      -1152449.3408333  -1152449.34389679  -1152449.34389679
  Force two-norm initial, final = 0.25270142 0.00017449597
  Force max component initial, final = 0.13197695 4.8953328e-05
  Final line search alpha, max atom move = 1.0000000 4.8953328e-05
  Iterations, force evaluations = 128 256

MPI task timing breakdown:
Section |  min time  |  avg time  |  max time  |%varavg| %total
---------------------------------------------------------------
Pair    | 0.39461    | 1.0809     | 1.4158     |  28.0 | 71.54
Neigh   | 0          | 0          | 0          |   0.0 |  0.00
Comm    | 0.028977   | 0.24771    | 0.74157    |  40.6 | 16.40
Output  | 0          | 0          | 0          |   0.0 |  0.00
Modify  | 1.6748e-05 | 0.0021115  | 0.0045164  |   2.2 |  0.14
Other   |            | 0.1801     |            |       | 11.92

Nlocal:        2776.45 ave        3961 max           0 min
Histogram: 8 4 4 0 6 10 8 4 26 34
Nghost:        3879.05 ave        5424 max         232 min
Histogram: 8 0 8 0 16 0 8 8 16 40
Neighs:        79213.5 ave      115455 max           0 min
Histogram: 8 4 4 0 10 6 8 8 24 32

Total # of neighbors = 8238201
Ave neighs/atom = 28.530467
Neighbor list builds = 0
Dangerous builds = 0
The dot product: 1.86012904174268e-06
The angle: 88.1486375143805
Setting atom values ...
  1 settings made for x
  1 settings made for y
  1 settings made for z
Setting up cg style minimization ...
  Unit style    : metal
  Current step  : 1652
Per MPI rank memory allocation (min/avg/max) = 5.441 | 5.816 | 6.074 Mbytes
Step PotEng KinEng TotEng v_fx v_fy v_fz 
    1652   -1152449.3            0   -1152449.3 -0.064852691 -0.017810551  0.088794027 
    1852   -1152449.3            0   -1152449.3 -3.478906e-05 -2.3522271e-05 -4.0654741e-05 
Loop time of 2.32572 on 104 procs for 200 steps with 288751 atoms

99.9% CPU use with 104 MPI tasks x 1 OpenMP threads

Minimization stats:
  Stopping criterion = energy tolerance
  Energy initial, next-to-last, final = 
     -1152449.31318158  -1152449.32244522  -1152449.32244522
  Force two-norm initial, final = 0.26586898 0.00019437264
  Force max component initial, final = 0.13540848 5.3654917e-05
  Final line search alpha, max atom move = 1.0000000 5.3654917e-05
  Iterations, force evaluations = 200 400

MPI task timing breakdown:
Section |  min time  |  avg time  |  max time  |%varavg| %total
---------------------------------------------------------------
Pair    | 0.61227    | 1.6803     | 2.1889     |  34.8 | 72.25
Neigh   | 1.029e-05  | 0.0029628  | 0.0042908  |   2.2 |  0.13
Comm    | 0.0378     | 0.37736    | 1.1392     |  51.7 | 16.23
Output  | 0          | 0          | 0          |   0.0 |  0.00
Modify  | 2.4666e-05 | 0.003293   | 0.0071238  |   2.7 |  0.14
Other   |            | 0.2618     |            |       | 11.26

Nlocal:        2776.45 ave        3961 max           0 min
Histogram: 8 4 4 0 6 10 8 4 26 34
Nghost:        3879.07 ave        5424 max         232 min
Histogram: 8 0 8 0 16 0 8 8 16 40
Neighs:        79213.5 ave      115455 max           0 min
Histogram: 8 4 4 0 10 6 8 8 24 32

Total # of neighbors = 8238199
Ave neighs/atom = 28.530461
Neighbor list builds = 1
Dangerous builds = 0
The dot product: -3.0131188628999e-07
The angle: 90.2953639517474
Setting atom values ...
  1 settings made for x
  1 settings made for y
  1 settings made for z
Setting up cg style minimization ...
  Unit style    : metal
  Current step  : 1852
Per MPI rank memory allocation (min/avg/max) = 5.441 | 5.816 | 6.074 Mbytes
Step PotEng KinEng TotEng v_fx v_fy v_fz 
    1852   -1152449.3            0   -1152449.3  -0.17355953  -0.17989751   0.23818969 
    2000   -1152449.4            0   -1152449.4 -0.00022059393 -0.00016786291 -0.00011276534 
    2099   -1152449.4            0   -1152449.4 1.8523937e-06 -3.1102218e-06 3.1841944e-05 
Loop time of 2.88742 on 104 procs for 247 steps with 288751 atoms

99.9% CPU use with 104 MPI tasks x 1 OpenMP threads

Minimization stats:
  Stopping criterion = energy tolerance
  Energy initial, next-to-last, final = 
     -1152449.29630063   -1152449.3515715   -1152449.3515715
  Force two-norm initial, final = 0.41153961 0.00012069999
  Force max component initial, final = 0.23818969 3.1841944e-05
  Final line search alpha, max atom move = 1.0000000 3.1841944e-05
  Iterations, force evaluations = 247 494

MPI task timing breakdown:
Section |  min time  |  avg time  |  max time  |%varavg| %total
---------------------------------------------------------------
Pair    | 0.75873    | 2.075      | 2.7213     |  38.6 | 71.86
Neigh   | 2.0337e-05 | 0.0059126  | 0.0085985  |   3.2 |  0.20
Comm    | 0.051833   | 0.46712    | 1.4134     |  56.8 | 16.18
Output  | 0.00010044 | 0.00010709 | 0.00025819 |   0.0 |  0.00
Modify  | 3.1083e-05 | 0.0040688  | 0.0087738  |   3.0 |  0.14
Other   |            | 0.3352     |            |       | 11.61

Nlocal:        2776.45 ave        3961 max           0 min
Histogram: 8 4 4 0 6 10 8 4 26 34
Nghost:        3879.05 ave        5424 max         232 min
Histogram: 8 0 8 0 16 0 8 8 16 40
Neighs:        79213.4 ave      115455 max           0 min
Histogram: 8 4 4 0 10 6 8 8 24 32

Total # of neighbors = 8238194
Ave neighs/atom = 28.530443
Neighbor list builds = 2
Dangerous builds = 0
The dot product: 1.34646895403493e-05
The angle: 65.1557135816729
Setting atom values ...
  1 settings made for x
  1 settings made for y
  1 settings made for z
Setting up cg style minimization ...
  Unit style    : metal
  Current step  : 2099
Per MPI rank memory allocation (min/avg/max) = 5.441 | 5.816 | 6.074 Mbytes
Step PotEng KinEng TotEng v_fx v_fy v_fz 
    2099   -1152449.3            0   -1152449.3 -0.013044383  0.011562975 -0.028774628 
    2347   -1152449.4            0   -1152449.4 -3.4183859e-06 -1.2651986e-06 -4.2133403e-06 
Loop time of 2.86797 on 104 procs for 248 steps with 288751 atoms

99.9% CPU use with 104 MPI tasks x 1 OpenMP threads

Minimization stats:
  Stopping criterion = energy tolerance
  Energy initial, next-to-last, final = 
     -1152449.34815178  -1152449.35015226  -1152449.35015226
  Force two-norm initial, final = 0.18691581 1.6026412e-05
  Force max component initial, final = 0.068739261 4.2133403e-06
  Final line search alpha, max atom move = 1.0000000 4.2133403e-06
  Iterations, force evaluations = 248 496

MPI task timing breakdown:
Section |  min time  |  avg time  |  max time  |%varavg| %total
---------------------------------------------------------------
Pair    | 0.75953    | 2.0815     | 2.7051     |  38.7 | 72.58
Neigh   | 0          | 0          | 0          |   0.0 |  0.00
Comm    | 0.048669   | 0.46806    | 1.419      |  57.5 | 16.32
Output  | 0          | 0          | 0          |   0.0 |  0.00
Modify  | 3.0275e-05 | 0.0040844  | 0.0088116  |   3.0 |  0.14
Other   |            | 0.3143     |            |       | 10.96

Nlocal:        2776.45 ave        3961 max           0 min
Histogram: 8 4 4 0 6 10 8 2 28 34
Nghost:        3879.01 ave        5424 max         232 min
Histogram: 8 0 8 0 16 0 8 8 16 40
Neighs:        79213.4 ave      115465 max           0 min
Histogram: 8 4 4 0 10 6 8 8 24 32

Total # of neighbors = 8238192
Ave neighs/atom = 28.530436
Neighbor list builds = 0
Dangerous builds = 0
The dot product: 7.54180792228427e-09
The angle: 89.9224379848204
Setting atom values ...
  1 settings made for x
  1 settings made for y
  1 settings made for z
Setting up cg style minimization ...
  Unit style    : metal
  Current step  : 2347
Per MPI rank memory allocation (min/avg/max) = 5.441 | 5.816 | 6.074 Mbytes
Step PotEng KinEng TotEng v_fx v_fy v_fz 
    2347   -1152449.3            0   -1152449.3 -0.010971165 0.0091561239 -0.023906739 
    2574   -1152449.3            0   -1152449.3 -8.1370435e-06 -9.0812485e-06 -5.3182409e-06 
Loop time of 2.64763 on 104 procs for 227 steps with 288751 atoms

99.9% CPU use with 104 MPI tasks x 1 OpenMP threads

Minimization stats:
  Stopping criterion = energy tolerance
  Energy initial, next-to-last, final = 
     -1152449.34372983  -1152449.34568395  -1152449.34568395
  Force two-norm initial, final = 0.18454406 3.8700630e-05
  Force max component initial, final = 0.067181576 9.0812485e-06
  Final line search alpha, max atom move = 1.0000000 9.0812485e-06
  Iterations, force evaluations = 227 454

MPI task timing breakdown:
Section |  min time  |  avg time  |  max time  |%varavg| %total
---------------------------------------------------------------
Pair    | 0.69024    | 1.9096     | 2.4963     |  37.2 | 72.12
Neigh   | 0          | 0          | 0          |   0.0 |  0.00
Comm    | 0.047442   | 0.42963    | 1.2979     |  54.6 | 16.23
Output  | 0          | 0          | 0          |   0.0 |  0.00
Modify  | 2.7508e-05 | 0.0037412  | 0.0080226  |   2.9 |  0.14
Other   |            | 0.3047     |            |       | 11.51

Nlocal:        2776.45 ave        3960 max           0 min
Histogram: 8 4 4 0 4 12 8 2 28 34
Nghost:        3879.01 ave        5424 max         232 min
Histogram: 8 0 8 0 16 0 8 8 16 40
Neighs:        79213.4 ave      115434 max           0 min
Histogram: 8 4 4 0 10 6 8 8 24 32

Total # of neighbors = 8238191
Ave neighs/atom = 28.530433
Neighbor list builds = 0
Dangerous builds = 0
The dot product: -2.47985584306572e-09
The angle: 90.0106808623078
Setting atom values ...
  1 settings made for x
  1 settings made for y
  1 settings made for z
Setting up cg style minimization ...
  Unit style    : metal
  Current step  : 2574
Per MPI rank memory allocation (min/avg/max) = 5.441 | 5.816 | 6.074 Mbytes
Step PotEng KinEng TotEng v_fx v_fy v_fz 
    2574   -1152449.3            0   -1152449.3 -0.0092971596 0.0073364336 -0.020001586 
    2783   -1152449.3            0   -1152449.3 1.6413148e-05 1.7007534e-05 1.174785e-05 
Loop time of 2.4194 on 104 procs for 209 steps with 288751 atoms

99.9% CPU use with 104 MPI tasks x 1 OpenMP threads

Minimization stats:
  Stopping criterion = energy tolerance
  Energy initial, next-to-last, final = 
     -1152449.33622866  -1152449.33814491  -1152449.33814491
  Force two-norm initial, final = 0.18300068 8.5599922e-05
  Force max component initial, final = 0.06681852 1.7007534e-05
  Final line search alpha, max atom move = 1.0000000 1.7007534e-05
  Iterations, force evaluations = 209 418

MPI task timing breakdown:
Section |  min time  |  avg time  |  max time  |%varavg| %total
---------------------------------------------------------------
Pair    | 0.6348     | 1.753      | 2.2878     |  35.6 | 72.45
Neigh   | 0          | 0          | 0          |   0.0 |  0.00
Comm    | 0.041266   | 0.39546    | 1.1942     |  52.4 | 16.35
Output  | 0          | 0          | 0          |   0.0 |  0.00
Modify  | 2.5793e-05 | 0.0034371  | 0.007394   |   2.8 |  0.14
Other   |            | 0.2675     |            |       | 11.06

Nlocal:        2776.45 ave        3960 max           0 min
Histogram: 8 4 4 0 4 12 8 2 28 34
Nghost:        3879.01 ave        5424 max         232 min
Histogram: 8 0 8 0 16 0 8 8 16 40
Neighs:        79213.4 ave      115434 max           0 min
Histogram: 8 4 4 0 10 6 8 8 24 32

Total # of neighbors = 8238190
Ave neighs/atom = 28.530429
Neighbor list builds = 0
Dangerous builds = 0
The dot product: 2.81650007913779e-10
The angle: 89.9993886047092
Setting up cg style minimization ...
  Unit style    : metal
  Current step  : 2783
Per MPI rank memory allocation (min/avg/max) = 5.441 | 5.816 | 6.074 Mbytes
Step PotEng KinEng TotEng v_fx v_fy v_fz 
    2783   -1152449.3            0   -1152449.3    0.2329752  -0.11967778  -0.15217557 
    3000   -1152449.4            0   -1152449.4 3.1267216e-05 3.4922251e-05 2.610741e-05 
    3002   -1152449.4            0   -1152449.4 1.9562217e-05 2.8697363e-05 1.1879661e-05 
Loop time of 2.55694 on 104 procs for 219 steps with 288751 atoms

99.9% CPU use with 104 MPI tasks x 1 OpenMP threads

Minimization stats:
  Stopping criterion = energy tolerance
  Energy initial, next-to-last, final = 
     -1152449.33814491  -1152449.35157333  -1152449.35157333
  Force two-norm initial, final = 0.30291521 0.00014261224
  Force max component initial, final = 0.2329752 2.8697363e-05
  Final line search alpha, max atom move = 1.0000000 2.8697363e-05
  Iterations, force evaluations = 219 438

MPI task timing breakdown:
Section |  min time  |  avg time  |  max time  |%varavg| %total
---------------------------------------------------------------
Pair    | 0.66829    | 1.8418     | 2.4168     |  36.5 | 72.03
Neigh   | 1.0129e-05 | 0.0029567  | 0.004294   |   2.2 |  0.12
Comm    | 0.045918   | 0.41536    | 1.2501     |  53.4 | 16.24
Output  | 0.00011234 | 0.00011787 | 0.00026565 |   0.0 |  0.00
Modify  | 2.552e-05  | 0.0023421  | 0.0060253  |   3.0 |  0.09
Other   |            | 0.2944     |            |       | 11.51

Nlocal:        2776.45 ave        3960 max           0 min
Histogram: 8 4 4 0 4 12 8 2 28 34
Nghost:        3879.05 ave        5424 max         232 min
Histogram: 8 0 8 0 16 0 8 8 16 40
Neighs:        79213.4 ave      115434 max           0 min
Histogram: 8 4 4 0 10 6 8 8 24 32

Total # of neighbors = 8238193
Ave neighs/atom = 28.530440
Neighbor list builds = 1
Dangerous builds = 0
3
OMP_NUM_THREADS environment is not set. Defaulting to 1 thread. (../comm.cpp:94)
  using 1 OpenMP thread(s) per MPI task
Reading data file ...
  orthogonal box = (-122.39241 -121.13707 -37.090501) to (122.39241 121.13707 37.090501)
  13 by 4 by 2 MPI processor grid
  reading atoms ...
  288751 atoms
  read_data CPU = 0.341 seconds
199981 atoms in group inner
88770 atoms in group outer
1 atoms in group carbon
Neighbor list info ...
  update every 1 steps, delay 0 steps, check yes
  max neighbors/atom: 2000, page size: 100000
  master list distance cutoff = 5.6
  ghost atom cutoff = 5.6
  binsize = 2.8, bins = 88 87 27
  1 neighbor lists, perpetual/occasional/extra = 1 0 0
  (1) pair eam/alloy, perpetual
      attributes: half, newton on
      pair build: half/bin/atomonly/newton
      stencil: half/bin/3d/newton
      bin: standard
Setting up cg style minimization ...
  Unit style    : metal
  Current step  : 0
Per MPI rank memory allocation (min/avg/max) = 5.441 | 5.816 | 6.074 Mbytes
Step v_fx v_fy v_fz PotEng KinEng TotEng 
       0  -0.16353406    0.7109687   0.70714348   -1152447.8            0   -1152447.8 
     212 1.4021402e-07 -3.7114518e-07 -2.6548182e-06   -1152449.5            0   -1152449.5 
Loop time of 2.47444 on 104 procs for 212 steps with 288751 atoms

99.9% CPU use with 104 MPI tasks x 1 OpenMP threads

Minimization stats:
  Stopping criterion = energy tolerance
  Energy initial, next-to-last, final = 
     -1152447.83872107  -1152449.45035272  -1152449.45035272
  Force two-norm initial, final = 9.8774204 1.3398971e-05
  Force max component initial, final = 4.7208571 2.8254805e-06
  Final line search alpha, max atom move = 1.0000000 2.8254805e-06
  Iterations, force evaluations = 212 423

MPI task timing breakdown:
Section |  min time  |  avg time  |  max time  |%varavg| %total
---------------------------------------------------------------
Pair    | 0.65476    | 1.7983     | 2.3306     |  36.0 | 72.67
Neigh   | 2.023e-05  | 0.0059074  | 0.0087326  |   3.2 |  0.24
Comm    | 0.037226   | 0.40989    | 1.2265     |  53.5 | 16.57
Output  | 0          | 0          | 0          |   0.0 |  0.00
Modify  | 2.4594e-05 | 0.0022656  | 0.005828   |   3.0 |  0.09
Other   |            | 0.2581     |            |       | 10.43

Nlocal:        2776.45 ave        3960 max           0 min
Histogram: 8 4 4 0 4 12 8 2 28 34
Nghost:        3879.01 ave        5424 max         232 min
Histogram: 8 0 8 0 16 0 8 8 16 40
Neighs:        79213.7 ave      115432 max           0 min
Histogram: 8 4 4 0 10 6 8 8 24 32

Total # of neighbors = 8238223
Ave neighs/atom = 28.530544
Neighbor list builds = 2
Dangerous builds = 0
Setting atom values ...
  1 settings made for x
  1 settings made for y
  1 settings made for z
Setting up cg style minimization ...
  Unit style    : metal
  Current step  : 212
Per MPI rank memory allocation (min/avg/max) = 5.441 | 5.816 | 6.074 Mbytes
Step PotEng KinEng TotEng v_fx v_fy v_fz 
     212   -1152449.4            0   -1152449.4 -0.0060047604 0.0041967234  0.016721811 
     349   -1152449.4            0   -1152449.4 1.8233411e-06 5.0398943e-07 1.7881437e-05 
Loop time of 1.5871 on 104 procs for 137 steps with 288751 atoms

99.9% CPU use with 104 MPI tasks x 1 OpenMP threads

Minimization stats:
  Stopping criterion = energy tolerance
  Energy initial, next-to-last, final = 
     -1152449.44784432  -1152449.44955349  -1152449.44955349
  Force two-norm initial, final = 0.19437847 7.0245507e-05
  Force max component initial, final = 0.079320235 1.8295205e-05
  Final line search alpha, max atom move = 1.0000000 1.8295205e-05
  Iterations, force evaluations = 137 274

MPI task timing breakdown:
Section |  min time  |  avg time  |  max time  |%varavg| %total
---------------------------------------------------------------
Pair    | 0.41928    | 1.1527     | 1.4957     |  28.8 | 72.63
Neigh   | 0          | 0          | 0          |   0.0 |  0.00
Comm    | 0.023178   | 0.2598     | 0.78178    |  42.9 | 16.37
Output  | 0          | 0          | 0          |   0.0 |  0.00
Modify  | 1.7495e-05 | 0.0022559  | 0.0049354  |   2.2 |  0.14
Other   |            | 0.1724     |            |       | 10.86

Nlocal:        2776.45 ave        3961 max           0 min
Histogram: 8 4 4 0 6 10 8 2 28 34
Nghost:        3879.01 ave        5425 max         232 min
Histogram: 8 0 8 0 16 0 8 8 16 40
Neighs:        79213.4 ave      115455 max           0 min
Histogram: 8 4 4 0 10 6 8 8 24 32

Total # of neighbors = 8238198
Ave neighs/atom = 28.530457
Neighbor list builds = 0
Dangerous builds = 0
Setting atom values ...
  1 settings made for x
  1 settings made for y
  1 settings made for z
Setting up cg style minimization ...
  Unit style    : metal
  Current step  : 349
Per MPI rank memory allocation (min/avg/max) = 5.441 | 5.816 | 6.074 Mbytes
Step PotEng KinEng TotEng v_fx v_fy v_fz 
     349   -1152449.4            0   -1152449.4 -0.023412108  0.016612336  0.025081615 
     485   -1152449.4            0   -1152449.4 6.2535618e-07 -1.1018287e-06 -8.7502461e-06 
Loop time of 1.57893 on 104 procs for 136 steps with 288751 atoms

99.9% CPU use with 104 MPI tasks x 1 OpenMP threads

Minimization stats:
  Stopping criterion = energy tolerance
  Energy initial, next-to-last, final = 
     -1152449.44150538  -1152449.44543931  -1152449.44543931
  Force two-norm initial, final = 0.29561966 0.00011280858
  Force max component initial, final = 0.123885 1.2288921e-05
  Final line search alpha, max atom move = 1.0000000 1.2288921e-05
  Iterations, force evaluations = 136 272

MPI task timing breakdown:
Section |  min time  |  avg time  |  max time  |%varavg| %total
---------------------------------------------------------------
Pair    | 0.41888    | 1.1529     | 1.4917     |  28.8 | 73.02
Neigh   | 0          | 0          | 0          |   0.0 |  0.00
Comm    | 0.024421   | 0.25788    | 0.77835    |  42.9 | 16.33
Output  | 0          | 0          | 0          |   0.0 |  0.00
Modify  | 1.6735e-05 | 0.0022464  | 0.004856   |   2.3 |  0.14
Other   |            | 0.1659     |            |       | 10.51

Nlocal:        2776.45 ave        3961 max           0 min
Histogram: 8 4 4 0 6 10 8 2 28 34
Nghost:        3879.01 ave        5425 max         232 min
Histogram: 8 0 8 0 16 0 8 8 16 40
Neighs:        79213.5 ave      115455 max           0 min
Histogram: 8 4 4 0 10 6 8 8 24 32

Total # of neighbors = 8238202
Ave neighs/atom = 28.530471
Neighbor list builds = 0
Dangerous builds = 0
The dot product: -6.5536447532137e-08
The angle: 90.4247018611207
Setting atom values ...
  1 settings made for x
  1 settings made for y
  1 settings made for z
Setting up cg style minimization ...
  Unit style    : metal
  Current step  : 485
Per MPI rank memory allocation (min/avg/max) = 5.441 | 5.816 | 6.074 Mbytes
Step PotEng KinEng TotEng v_fx v_fy v_fz 
     485   -1152449.4            0   -1152449.4 -0.035797235  0.029785166  0.023929972 
     623   -1152449.4            0   -1152449.4 1.0495518e-06 1.9229289e-06 3.4348225e-05 
Loop time of 1.59329 on 104 procs for 138 steps with 288751 atoms

99.9% CPU use with 104 MPI tasks x 1 OpenMP threads

Minimization stats:
  Stopping criterion = energy tolerance
  Energy initial, next-to-last, final = 
     -1152449.43390431  -1152449.43786211  -1152449.43786211
  Force two-norm initial, final = 0.29634401 0.00011489932
  Force max component initial, final = 0.12601348 3.4348225e-05
  Final line search alpha, max atom move = 1.0000000 3.4348225e-05
  Iterations, force evaluations = 138 276

MPI task timing breakdown:
Section |  min time  |  avg time  |  max time  |%varavg| %total
---------------------------------------------------------------
Pair    | 0.4283     | 1.1639     | 1.5044     |  28.9 | 73.05
Neigh   | 0          | 0          | 0          |   0.0 |  0.00
Comm    | 0.023599   | 0.26013    | 0.78974    |  43.5 | 16.33
Output  | 0          | 0          | 0          |   0.0 |  0.00
Modify  | 1.6994e-05 | 0.0022782  | 0.0049739  |   2.3 |  0.14
Other   |            | 0.167      |            |       | 10.48

Nlocal:        2776.45 ave        3961 max           0 min
Histogram: 8 4 4 0 6 10 8 2 28 34
Nghost:        3879.01 ave        5425 max         232 min
Histogram: 8 0 8 0 16 0 8 8 16 40
Neighs:        79213.5 ave      115455 max           0 min
Histogram: 8 4 4 0 10 6 8 8 24 32

Total # of neighbors = 8238202
Ave neighs/atom = 28.530471
Neighbor list builds = 0
Dangerous builds = 0
The dot product: -2.62695266220912e-07
The angle: 90.4373138959559
Setting atom values ...
  1 settings made for x
  1 settings made for y
  1 settings made for z
Setting up cg style minimization ...
  Unit style    : metal
  Current step  : 623
Per MPI rank memory allocation (min/avg/max) = 5.441 | 5.816 | 6.074 Mbytes
Step PotEng KinEng TotEng v_fx v_fy v_fz 
     623   -1152449.4            0   -1152449.4 -0.042661948  0.041734796  0.023239021 
     786   -1152449.4            0   -1152449.4 -6.5717913e-07 -1.7968837e-06 -3.2549423e-05 
Loop time of 1.89642 on 104 procs for 163 steps with 288751 atoms

99.9% CPU use with 104 MPI tasks x 1 OpenMP threads

Minimization stats:
  Stopping criterion = energy tolerance
  Energy initial, next-to-last, final = 
     -1152449.42281509  -1152449.42677929  -1152449.42677929
  Force two-norm initial, final = 0.29602186 8.3186969e-05
  Force max component initial, final = 0.12704364 3.2549423e-05
  Final line search alpha, max atom move = 1.0000000 3.2549423e-05
  Iterations, force evaluations = 163 326

MPI task timing breakdown:
Section |  min time  |  avg time  |  max time  |%varavg| %total
---------------------------------------------------------------
Pair    | 0.50078    | 1.3859     | 1.7808     |  31.5 | 73.08
Neigh   | 0          | 0          | 0          |   0.0 |  0.00
Comm    | 0.03196    | 0.31326    | 0.93757    |  46.9 | 16.52
Output  | 0          | 0          | 0          |   0.0 |  0.00
Modify  | 2.0504e-05 | 0.0026836  | 0.0057267  |   2.4 |  0.14
Other   |            | 0.1946     |            |       | 10.26

Nlocal:        2776.45 ave        3960 max           0 min
Histogram: 8 4 4 0 4 12 8 2 28 34
Nghost:        3879.01 ave        5425 max         232 min
Histogram: 8 0 8 0 16 0 8 8 16 40
Neighs:        79213.5 ave      115424 max           0 min
Histogram: 8 4 4 0 10 6 8 8 24 32

Total # of neighbors = 8238199
Ave neighs/atom = 28.530461
Neighbor list builds = 0
Dangerous builds = 0
The dot product: 2.21288709424092e-07
The angle: 89.6111403059273
Setting atom values ...
  1 settings made for x
  1 settings made for y
  1 settings made for z
Setting up cg style minimization ...
  Unit style    : metal
  Current step  : 786
Per MPI rank memory allocation (min/avg/max) = 5.441 | 5.816 | 6.074 Mbytes
Step PotEng KinEng TotEng v_fx v_fy v_fz 
     786   -1152449.4            0   -1152449.4 -0.045901512   0.05193281  0.023636456 
     972   -1152449.4            0   -1152449.4 3.8657822e-07 -4.0726586e-08 5.6992144e-06 
Loop time of 2.17873 on 104 procs for 186 steps with 288751 atoms

99.9% CPU use with 104 MPI tasks x 1 OpenMP threads

Minimization stats:
  Stopping criterion = energy tolerance
  Energy initial, next-to-last, final = 
     -1152449.40816209   -1152449.4121135   -1152449.4121135
  Force two-norm initial, final = 0.29478477 3.9346451e-05
  Force max component initial, final = 0.12698083 5.6992144e-06
  Final line search alpha, max atom move = 1.0000000 5.6992144e-06
  Iterations, force evaluations = 186 372

MPI task timing breakdown:
Section |  min time  |  avg time  |  max time  |%varavg| %total
---------------------------------------------------------------
Pair    | 0.56953    | 1.5659     | 2.0301     |  33.7 | 71.87
Neigh   | 0          | 0          | 0          |   0.0 |  0.00
Comm    | 0.033245   | 0.35555    | 1.0605     |  49.4 | 16.32
Output  | 0          | 0          | 0          |   0.0 |  0.00
Modify  | 2.2851e-05 | 0.0030639  | 0.0066066  |   2.6 |  0.14
Other   |            | 0.2542     |            |       | 11.67

Nlocal:        2776.45 ave        3958 max           0 min
Histogram: 8 4 4 0 4 12 8 2 28 34
Nghost:        3879.01 ave        5425 max         232 min
Histogram: 8 0 8 0 16 0 8 8 16 40
Neighs:        79213.5 ave      115348 max           0 min
Histogram: 8 4 4 0 10 6 8 8 24 32

Total # of neighbors = 8238201
Ave neighs/atom = 28.530467
Neighbor list builds = 0
Dangerous builds = 0
The dot product: -6.0088372223416e-08
The angle: 90.6026959339708
Setting atom values ...
  1 settings made for x
  1 settings made for y
  1 settings made for z
Setting up cg style minimization ...
  Unit style    : metal
  Current step  : 972
Per MPI rank memory allocation (min/avg/max) = 5.441 | 5.816 | 6.074 Mbytes
Step PotEng KinEng TotEng v_fx v_fy v_fz 
     972   -1152449.4            0   -1152449.4 -0.047274487   0.06096567  0.025611848 
    1000   -1152449.4            0   -1152449.4 2.5631872e-05 4.4289374e-05 0.0012511847 
    1121   -1152449.4            0   -1152449.4 7.8677206e-07 -1.5157746e-06 -8.6231378e-06 
Loop time of 1.79369 on 104 procs for 149 steps with 288751 atoms

99.9% CPU use with 104 MPI tasks x 1 OpenMP threads

Minimization stats:
  Stopping criterion = energy tolerance
  Energy initial, next-to-last, final = 
     -1152449.38986555  -1152449.39378895  -1152449.39378895
  Force two-norm initial, final = 0.29308046 5.2729844e-05
  Force max component initial, final = 0.12598525 8.6231378e-06
  Final line search alpha, max atom move = 1.0000000 8.6231378e-06
  Iterations, force evaluations = 149 298

MPI task timing breakdown:
Section |  min time  |  avg time  |  max time  |%varavg| %total
---------------------------------------------------------------
Pair    | 0.45748    | 1.2768     | 1.6719     |  30.6 | 71.18
Neigh   | 0          | 0          | 0          |   0.0 |  0.00
Comm    | 0.029212   | 0.29597    | 0.88573    |  44.2 | 16.50
Output  | 9.7148e-05 | 0.00010647 | 0.00018654 |   0.0 |  0.01
Modify  | 1.888e-05  | 0.0024606  | 0.0052846  |   2.3 |  0.14
Other   |            | 0.2184     |            |       | 12.18

Nlocal:        2776.45 ave        3956 max           0 min
Histogram: 8 4 4 0 4 12 8 2 28 34
Nghost:        3879.01 ave        5425 max         232 min
Histogram: 8 0 8 0 16 0 8 8 16 40
Neighs:        79213.4 ave      115289 max           0 min
Histogram: 8 4 4 0 10 6 8 8 24 32

Total # of neighbors = 8238197
Ave neighs/atom = 28.530454
Neighbor list builds = 0
Dangerous builds = 0
The dot product: -6.39113689714379e-08
The angle: 90.4165669606704
Setting atom values ...
  1 settings made for x
  1 settings made for y
  1 settings made for z
Setting up cg style minimization ...
  Unit style    : metal
  Current step  : 1121
Per MPI rank memory allocation (min/avg/max) = 5.441 | 5.816 | 6.074 Mbytes
Step PotEng KinEng TotEng v_fx v_fy v_fz 
    1121   -1152449.4            0   -1152449.4 -0.048049388  0.070085283  0.029633566 
    1241   -1152449.4            0   -1152449.4 -1.9571194e-06 5.2191024e-06 4.1346667e-05 
Loop time of 1.3945 on 104 procs for 120 steps with 288751 atoms

99.9% CPU use with 104 MPI tasks x 1 OpenMP threads

Minimization stats:
  Stopping criterion = energy tolerance
  Energy initial, next-to-last, final = 
     -1152449.36784434  -1152449.37174214  -1152449.37174214
  Force two-norm initial, final = 0.29146703 0.00025535723
  Force max component initial, final = 0.1238489 4.1346667e-05
  Final line search alpha, max atom move = 1.0000000 4.1346667e-05
  Iterations, force evaluations = 120 240

MPI task timing breakdown:
Section |  min time  |  avg time  |  max time  |%varavg| %total
---------------------------------------------------------------
Pair    | 0.3694     | 1.0109     | 1.3095     |  27.0 | 72.49
Neigh   | 0          | 0          | 0          |   0.0 |  0.00
Comm    | 0.020243   | 0.22812    | 0.68378    |  40.1 | 16.36
Output  | 0          | 0          | 0          |   0.0 |  0.00
Modify  | 1.5305e-05 | 0.0019772  | 0.00424    |   2.1 |  0.14
Other   |            | 0.1535     |            |       | 11.01

Nlocal:        2776.45 ave        3955 max           0 min
Histogram: 8 4 4 0 4 12 8 2 28 34
Nghost:        3879.01 ave        5425 max         232 min
Histogram: 8 0 8 0 16 0 8 8 16 40
Neighs:        79213.4 ave      115262 max           0 min
Histogram: 8 4 4 0 10 6 8 8 24 32

Total # of neighbors = 8238195
Ave neighs/atom = 28.530447
Neighbor list builds = 0
Dangerous builds = 0
The dot product: 3.15689690845822e-07
The angle: 89.5664535214585
Setting atom values ...
  1 settings made for x
  1 settings made for y
  1 settings made for z
Setting up cg style minimization ...
  Unit style    : metal
  Current step  : 1241
Per MPI rank memory allocation (min/avg/max) = 5.441 | 5.816 | 6.074 Mbytes
Step PotEng KinEng TotEng v_fx v_fy v_fz 
    1241   -1152449.3            0   -1152449.3 -0.049181209  0.081355002  0.036410377 
    1380   -1152449.3            0   -1152449.3 6.8834667e-07 -3.1846693e-06 -3.2157725e-05 
Loop time of 1.6144 on 104 procs for 139 steps with 288751 atoms

99.9% CPU use with 104 MPI tasks x 1 OpenMP threads

Minimization stats:
  Stopping criterion = energy tolerance
  Energy initial, next-to-last, final = 
     -1152449.34202811   -1152449.3459428   -1152449.3459428
  Force two-norm initial, final = 0.29104003 0.00011734261
  Force max component initial, final = 0.12024851 3.2157725e-05
  Final line search alpha, max atom move = 1.0000000 3.2157725e-05
  Iterations, force evaluations = 139 278

MPI task timing breakdown:
Section |  min time  |  avg time  |  max time  |%varavg| %total
---------------------------------------------------------------
Pair    | 0.42571    | 1.1805     | 1.5243     |  29.2 | 73.12
Neigh   | 0          | 0          | 0          |   0.0 |  0.00
Comm    | 0.024593   | 0.26825    | 0.81136    |  43.8 | 16.62
Output  | 0          | 0          | 0          |   0.0 |  0.00
Modify  | 1.7156e-05 | 0.0022891  | 0.0049065  |   2.3 |  0.14
Other   |            | 0.1634     |            |       | 10.12

Nlocal:        2776.45 ave        3953 max           0 min
Histogram: 8 4 4 0 4 12 8 2 28 34
Nghost:        3879.03 ave        5424 max         232 min
Histogram: 8 0 8 0 16 0 8 8 16 40
Neighs:        79213.4 ave      115193 max           0 min
Histogram: 8 4 4 0 10 6 8 8 24 32

Total # of neighbors = 8238194
Ave neighs/atom = 28.530443
Neighbor list builds = 0
Dangerous builds = 0
The dot product: -4.0332693505664e-07
The angle: 90.7149703257712
Setting atom values ...
  1 settings made for x
  1 settings made for y
  1 settings made for z
Setting up cg style minimization ...
  Unit style    : metal
  Current step  : 1380
Per MPI rank memory allocation (min/avg/max) = 5.441 | 5.816 | 6.074 Mbytes
Step PotEng KinEng TotEng v_fx v_fy v_fz 
    1380   -1152449.3            0   -1152449.3 -0.051873653   0.09931289  0.048732962 
    1520   -1152449.3            0   -1152449.3 3.7261613e-06 -3.7971937e-06 3.5297111e-05 
Loop time of 1.61444 on 104 procs for 140 steps with 288751 atoms

99.9% CPU use with 104 MPI tasks x 1 OpenMP threads

Minimization stats:
  Stopping criterion = energy tolerance
  Energy initial, next-to-last, final = 
      -1152449.3124203   -1152449.3166659   -1152449.3166659
  Force two-norm initial, final = 0.2943551 0.00015638018
  Force max component initial, final = 0.11412495 3.5297111e-05
  Final line search alpha, max atom move = 1.0000000 3.5297111e-05
  Iterations, force evaluations = 140 280

MPI task timing breakdown:
Section |  min time  |  avg time  |  max time  |%varavg| %total
---------------------------------------------------------------
Pair    | 0.43008    | 1.1767     | 1.5252     |  29.1 | 72.89
Neigh   | 0          | 0          | 0          |   0.0 |  0.00
Comm    | 0.024838   | 0.26408    | 0.79155    |  43.2 | 16.36
Output  | 0          | 0          | 0          |   0.0 |  0.00
Modify  | 1.7637e-05 | 0.0023047  | 0.0049498  |   2.3 |  0.14
Other   |            | 0.1713     |            |       | 10.61

Nlocal:        2776.45 ave        3952 max           0 min
Histogram: 8 4 4 0 4 12 8 2 28 34
Nghost:        3879.03 ave        5424 max         232 min
Histogram: 8 0 8 0 16 0 8 8 16 40
Neighs:        79213.4 ave      115161 max           0 min
Histogram: 8 4 4 0 10 6 8 8 24 32

Total # of neighbors = 8238191
Ave neighs/atom = 28.530433
Neighbor list builds = 0
Dangerous builds = 0
The dot product: 6.69587558645981e-07
The angle: 88.9251730392262
Setting atom values ...
  1 settings made for x
  1 settings made for y
  1 settings made for z
Setting up cg style minimization ...
  Unit style    : metal
  Current step  : 1520
Per MPI rank memory allocation (min/avg/max) = 5.441 | 5.816 | 6.074 Mbytes
Step PotEng KinEng TotEng v_fx v_fy v_fz 
    1520   -1152449.3            0   -1152449.3 -0.062315378   0.15874629  0.091983314 
    1715   -1152449.3            0   -1152449.3 1.9113382e-06 -4.5683249e-06 -1.1558562e-06 
Loop time of 2.33021 on 104 procs for 195 steps with 288751 atoms

99.9% CPU use with 104 MPI tasks x 1 OpenMP threads

Minimization stats:
  Stopping criterion = energy tolerance
[...]

Total # of neighbors = 8238191
Ave neighs/atom = 28.530433
Neighbor list builds = 6
Dangerous builds = 0
The dot product: -4.59351847836364e-06
The angle: 110.40620364965
Setting atom values ...
  1 settings made for x
  1 settings made for y
  1 settings made for z
Setting up cg style minimization ...
  Unit style    : metal
  Current step  : 6526
Per MPI rank memory allocation (min/avg/max) = 5.441 | 5.816 | 6.074 Mbytes
Step PotEng KinEng TotEng v_fx v_fy v_fz 
    6526   -1152448.7            0   -1152448.7  0.081296584  -0.19936548   -0.2572981 
    6742   -1152448.7            0   -1152448.7 5.1930454e-06 -4.3280847e-07 -3.3806322e-06 
Loop time of 2.513 on 104 procs for 216 steps with 288751 atoms

99.9% CPU use with 104 MPI tasks x 1 OpenMP threads

Minimization stats:
  Stopping criterion = energy tolerance
  Energy initial, next-to-last, final = 
      -1152448.7161112  -1152448.73217263  -1152448.73217263
  Force two-norm initial, final = 0.38937382 0.00025451025
  Force max component initial, final = 0.2572981 1.6108597e-05
  Final line search alpha, max atom move = 1.0000000 1.6108597e-05
  Iterations, force evaluations = 216 432

MPI task timing breakdown:
Section |  min time  |  avg time  |  max time  |%varavg| %total
---------------------------------------------------------------
Pair    | 0.665      | 1.8317     | 2.3571     |  36.1 | 72.89
Neigh   | 0          | 0          | 0          |   0.0 |  0.00
Comm    | 0.047378   | 0.41961    | 1.2635     |  54.2 | 16.70
Output  | 0          | 0          | 0          |   0.0 |  0.00
Modify  | 2.6227e-05 | 0.0035648  | 0.0076309  |   2.8 |  0.14
Other   |            | 0.2581     |            |       | 10.27

Nlocal:        2776.45 ave        3960 max           0 min
Histogram: 8 4 4 0 4 12 8 4 26 34
Nghost:        3879.12 ave        5427 max         232 min
Histogram: 8 0 8 0 16 0 8 8 16 40
Neighs:        79213.4 ave      115431 max           0 min
Histogram: 8 4 4 0 10 6 8 8 24 32

Total # of neighbors = 8238193
Ave neighs/atom = 28.530440
Neighbor list builds = 0
Dangerous builds = 0
The dot product: 1.97020774400163e-07
The angle: 88.1823700780562
Setting atom values ...
  1 settings made for x
  1 settings made for y
  1 settings made for z
Setting up cg style minimization ...
  Unit style    : metal
  Current step  : 6742
Per MPI rank memory allocation (min/avg/max) = 5.441 | 5.816 | 6.074 Mbytes
Step PotEng KinEng TotEng v_fx v_fy v_fz 
    6742   -1152448.7            0   -1152448.7 0.0069340479  0.039392286  0.044144547 
    6956   -1152448.7            0   -1152448.7 -1.5973825e-06 1.0362386e-06 2.2523355e-06 
Loop time of 2.49389 on 104 procs for 214 steps with 288751 atoms

99.9% CPU use with 104 MPI tasks x 1 OpenMP threads

Minimization stats:
  Stopping criterion = energy tolerance
  Energy initial, next-to-last, final = 
     -1152448.74159978  -1152448.74453843  -1152448.74453843
  Force two-norm initial, final = 0.20922408 8.3093033e-05
  Force max component initial, final = 0.10654482 8.7371272e-06
  Final line search alpha, max atom move = 1.0000000 8.7371272e-06
  Iterations, force evaluations = 214 428

MPI task timing breakdown:
Section |  min time  |  avg time  |  max time  |%varavg| %total
---------------------------------------------------------------
Pair    | 0.65221    | 1.8027     | 2.3236     |  36.2 | 72.28
Neigh   | 0          | 0          | 0          |   0.0 |  0.00
Comm    | 0.035875   | 0.40799    | 1.2215     |  53.5 | 16.36
Output  | 0          | 0          | 0          |   0.0 |  0.00
Modify  | 2.5929e-05 | 0.0035293  | 0.0076038  |   2.8 |  0.14
Other   |            | 0.2797     |            |       | 11.21

Nlocal:        2776.45 ave        3960 max           0 min
Histogram: 8 4 4 0 4 12 8 4 26 34
Nghost:        3879.12 ave        5424 max         232 min
Histogram: 8 0 8 0 16 0 8 8 16 40
Neighs:        79213.4 ave      115422 max           0 min
Histogram: 8 4 4 0 10 6 8 8 24 32

Total # of neighbors = 8238196
Ave neighs/atom = 28.530450
Neighbor list builds = 0
Dangerous builds = 0
The dot product: 2.81862440853065e-08
The angle: 89.4524221768164
Setting atom values ...
  1 settings made for x
  1 settings made for y
  1 settings made for z
Setting up cg style minimization ...
  Unit style    : metal
  Current step  : 6956
Per MPI rank memory allocation (min/avg/max) = 5.441 | 5.816 | 6.074 Mbytes
Step PotEng KinEng TotEng v_fx v_fy v_fz 
    6956   -1152448.8            0   -1152448.8   0.00387099  0.016323475  0.017081621 
    7000   -1152448.8            0   -1152448.8 -4.6154825e-05 -6.0504149e-05 -4.3970732e-05 
    7155   -1152448.8            0   -1152448.8 1.1593407e-05 1.4745827e-06 -5.2948996e-06 
Loop time of 2.30354 on 104 procs for 199 steps with 288751 atoms

99.9% CPU use with 104 MPI tasks x 1 OpenMP threads

Minimization stats:
  Stopping criterion = energy tolerance
  Energy initial, next-to-last, final = 
     -1152448.75219604  -1152448.75483082  -1152448.75483082
  Force two-norm initial, final = 0.20229592 9.5598025e-05
  Force max component initial, final = 0.10534149 2.7680689e-05
  Final line search alpha, max atom move = 1.0000000 2.7680689e-05
  Iterations, force evaluations = 199 398

MPI task timing breakdown:
Section |  min time  |  avg time  |  max time  |%varavg| %total
---------------------------------------------------------------
Pair    | 0.61551    | 1.6895     | 2.1766     |  34.8 | 73.34
Neigh   | 0          | 0          | 0          |   0.0 |  0.00
Comm    | 0.033217   | 0.39048    | 1.1887     |  52.7 | 16.95
Output  | 9.5655e-05 | 0.00010751 | 0.00024935 |   0.0 |  0.00
Modify  | 2.4537e-05 | 0.0032795  | 0.0070832  |   2.7 |  0.14
Other   |            | 0.2202     |            |       |  9.56

Nlocal:        2776.45 ave        3960 max           0 min
Histogram: 8 4 4 0 4 12 8 4 26 34
Nghost:        3879.12 ave        5424 max         232 min
Histogram: 8 0 8 0 16 0 8 8 16 40
Neighs:        79213.4 ave      115422 max           0 min
Histogram: 8 4 4 0 10 6 8 8 24 32

Total # of neighbors = 8238195
Ave neighs/atom = 28.530447
Neighbor list builds = 0
Dangerous builds = 0
The dot product: 3.01423835921862e-09
The angle: 89.9865394657267
Setting atom values ...
  1 settings made for x
  1 settings made for y
  1 settings made for z
Setting up cg style minimization ...
  Unit style    : metal
  Current step  : 7155
Per MPI rank memory allocation (min/avg/max) = 5.441 | 5.816 | 6.074 Mbytes
Step PotEng KinEng TotEng v_fx v_fy v_fz 
    7155   -1152448.8            0   -1152448.8 0.0024799729   0.01783384  0.019414958 
    7425   -1152448.8            0   -1152448.8 5.1109505e-08 2.4826556e-07 2.6021979e-07 
Loop time of 3.11439 on 104 procs for 270 steps with 288751 atoms

99.9% CPU use with 104 MPI tasks x 1 OpenMP threads

Minimization stats:
  Stopping criterion = energy tolerance
  Energy initial, next-to-last, final = 
     -1152448.76063076  -1152448.76322245  -1152448.76322245
  Force two-norm initial, final = 0.20374609 7.4672835e-06
  Force max component initial, final = 0.1060949 2.0686864e-06
  Final line search alpha, max atom move = 1.0000000 2.0686864e-06
  Iterations, force evaluations = 270 540

MPI task timing breakdown:
Section |  min time  |  avg time  |  max time  |%varavg| %total
---------------------------------------------------------------
Pair    | 0.82612    | 2.2736     | 2.9334     |  40.5 | 73.00
Neigh   | 0          | 0          | 0          |   0.0 |  0.00
Comm    | 0.051711   | 0.51397    | 1.555      |  60.7 | 16.50
Output  | 0          | 0          | 0          |   0.0 |  0.00
Modify  | 3.2818e-05 | 0.0044565  | 0.0096436  |   3.2 |  0.14
Other   |            | 0.3224     |            |       | 10.35

Nlocal:        2776.45 ave        3960 max           0 min
Histogram: 8 4 4 0 4 12 8 3 27 34
Nghost:        3879.12 ave        5426 max         232 min
Histogram: 8 0 8 0 16 0 8 8 16 40
Neighs:        79213.4 ave      115431 max           0 min
Histogram: 8 4 4 0 10 6 8 8 24 32

Total # of neighbors = 8238195
Ave neighs/atom = 28.530447
Neighbor list builds = 0
Dangerous builds = 0
The dot product: 2.38635674147782e-09
The angle: 89.623611649053
Setting atom values ...
  1 settings made for x
  1 settings made for y
  1 settings made for z
Setting up cg style minimization ...
  Unit style    : metal
  Current step  : 7425
Per MPI rank memory allocation (min/avg/max) = 5.441 | 5.816 | 6.074 Mbytes
Step PotEng KinEng TotEng v_fx v_fy v_fz 
    7425   -1152448.8            0   -1152448.8 0.00071366187  0.017608042  0.019937139 
    7597   -1152448.8            0   -1152448.8 4.1395186e-05 -2.117446e-06 -2.7468389e-05 
Loop time of 1.99246 on 104 procs for 172 steps with 288751 atoms

99.9% CPU use with 104 MPI tasks x 1 OpenMP threads

Minimization stats:
  Stopping criterion = energy tolerance
  Energy initial, next-to-last, final = 
     -1152448.76715948  -1152448.76973301  -1152448.76973301
  Force two-norm initial, final = 0.20500358 0.00024200648
  Force max component initial, final = 0.10677681 4.4561163e-05
  Final line search alpha, max atom move = 1.0000000 4.4561163e-05
  Iterations, force evaluations = 172 344

MPI task timing breakdown:
Section |  min time  |  avg time  |  max time  |%varavg| %total
---------------------------------------------------------------
Pair    | 0.52953    | 1.4584     | 1.8774     |  32.4 | 73.20
Neigh   | 0          | 0          | 0          |   0.0 |  0.00
Comm    | 0.028989   | 0.3358     | 1.0066     |  48.2 | 16.85
Output  | 0          | 0          | 0          |   0.0 |  0.00
Modify  | 2.0929e-05 | 0.0028374  | 0.006059   |   2.5 |  0.14
Other   |            | 0.1954     |            |       |  9.81

Nlocal:        2776.45 ave        3959 max           0 min
Histogram: 8 4 4 0 4 12 8 3 27 34
Nghost:        3879.14 ave        5428 max         232 min
Histogram: 8 0 8 0 16 0 8 8 16 40
Neighs:        79213.4 ave      115390 max           0 min
Histogram: 8 4 4 0 10 6 8 8 24 32

Total # of neighbors = 8238194
Ave neighs/atom = 28.530443
Neighbor list builds = 0
Dangerous builds = 0
The dot product: -7.12087719582679e-08
The angle: 90.0820508497252
Setting atom values ...
  1 settings made for x
  1 settings made for y
  1 settings made for z
Setting up cg style minimization ...
  Unit style    : metal
  Current step  : 7597
Per MPI rank memory allocation (min/avg/max) = 5.441 | 5.816 | 6.074 Mbytes
Step PotEng KinEng TotEng v_fx v_fy v_fz 
    7597   -1152448.8            0   -1152448.8 -0.00098456551  0.017375691  0.020440361 
    7792   -1152448.8            0   -1152448.8 1.2391169e-05 -8.0860543e-07 -8.3871636e-06 
Loop time of 2.23919 on 104 procs for 195 steps with 288751 atoms

99.9% CPU use with 104 MPI tasks x 1 OpenMP threads

Minimization stats:
  Stopping criterion = energy tolerance
  Energy initial, next-to-last, final = 
     -1152448.77188603  -1152448.77448068  -1152448.77448068
  Force two-norm initial, final = 0.20647329 0.00010495037
  Force max component initial, final = 0.10738354 1.2391169e-05
  Final line search alpha, max atom move = 1.0000000 1.2391169e-05
  Iterations, force evaluations = 195 390

MPI task timing breakdown:
Section |  min time  |  avg time  |  max time  |%varavg| %total
---------------------------------------------------------------
Pair    | 0.60274    | 1.6429     | 2.1158     |  34.3 | 73.37
Neigh   | 0          | 0          | 0          |   0.0 |  0.00
Comm    | 0.032688   | 0.37273    | 1.1408     |  51.8 | 16.65
Output  | 0          | 0          | 0          |   0.0 |  0.00
Modify  | 2.3663e-05 | 0.0032153  | 0.0068579  |   2.7 |  0.14
Other   |            | 0.2204     |            |       |  9.84

Nlocal:        2776.45 ave        3959 max           0 min
Histogram: 8 4 4 0 4 12 8 2 28 34
Nghost:        3879.14 ave        5429 max         232 min
Histogram: 8 0 8 0 16 0 8 8 16 40
Neighs:        79213.4 ave      115390 max           0 min
Histogram: 8 4 4 0 10 6 8 8 24 32

Total # of neighbors = 8238191
Ave neighs/atom = 28.530433
Neighbor list builds = 0
Dangerous builds = 0
The dot product: -2.58885216005254e-08
The angle: 90.0989882833683
Setting atom values ...
  1 settings made for x
  1 settings made for y
  1 settings made for z
Setting up cg style minimization ...
  Unit style    : metal
  Current step  : 7792
Per MPI rank memory allocation (min/avg/max) = 5.441 | 5.816 | 6.074 Mbytes
Step PotEng KinEng TotEng v_fx v_fy v_fz 
    7792   -1152448.8            0   -1152448.8 -0.0026190789  0.016950683  0.020697045 
    8000   -1152448.8            0   -1152448.8 -5.4538981e-07 -1.7862011e-06 -1.6882792e-06 
    8014   -1152448.8            0   -1152448.8 1.7686439e-05 -1.4109441e-06 -1.2201135e-05 
Loop time of 2.57092 on 104 procs for 222 steps with 288751 atoms

99.9% CPU use with 104 MPI tasks x 1 OpenMP threads

Minimization stats:
  Stopping criterion = energy tolerance
  Energy initial, next-to-last, final = 
     -1152448.77502796  -1152448.77766771  -1152448.77766771
  Force two-norm initial, final = 0.2081774 5.6337084e-05
  Force max component initial, final = 0.1078251 1.7686439e-05
  Final line search alpha, max atom move = 1.0000000 1.7686439e-05
  Iterations, force evaluations = 222 444

MPI task timing breakdown:
Section |  min time  |  avg time  |  max time  |%varavg| %total
---------------------------------------------------------------
Pair    | 0.68121    | 1.8797     | 2.4296     |  36.9 | 73.11
Neigh   | 0          | 0          | 0          |   0.0 |  0.00
Comm    | 0.043625   | 0.42979    | 1.2812     |  54.9 | 16.72
Output  | 9.4142e-05 | 0.00010144 | 0.00028021 |   0.0 |  0.00
Modify  | 2.703e-05  | 0.0036558  | 0.0077997  |   2.9 |  0.14
Other   |            | 0.2577     |            |       | 10.02

Nlocal:        2776.45 ave        3959 max           0 min
Histogram: 8 4 4 0 4 12 8 2 28 34
Nghost:        3879.12 ave        5425 max         232 min
Histogram: 8 0 8 0 16 0 8 8 16 40
Neighs:        79213.4 ave      115390 max           0 min
Histogram: 8 4 4 0 10 6 8 8 24 32

Total # of neighbors = 8238189
Ave neighs/atom = 28.530426
Neighbor list builds = 0
Dangerous builds = 0
The dot product: -4.44915312379113e-08
The angle: 90.118384940276
Setting atom values ...
  1 settings made for x
  1 settings made for y
  1 settings made for z
Setting up cg style minimization ...
  Unit style    : metal
  Current step  : 8014
Per MPI rank memory allocation (min/avg/max) = 5.441 | 5.816 | 6.074 Mbytes
Step PotEng KinEng TotEng v_fx v_fy v_fz 
    8014   -1152448.8            0   -1152448.8 0.0060848387  0.016736242   0.01503204 
    8190   -1152448.8            0   -1152448.8 -5.4422039e-05 7.1112031e-06 4.0411382e-05 
Loop time of 2.03277 on 104 procs for 176 steps with 288751 atoms

99.9% CPU use with 104 MPI tasks x 1 OpenMP threads

Minimization stats:
  Stopping criterion = energy tolerance
  Energy initial, next-to-last, final = 
     -1152448.77643754  -1152448.77903098  -1152448.77903098
  Force two-norm initial, final = 0.20839739 0.00023298018
  Force max component initial, final = 0.10812192 5.6850505e-05
  Final line search alpha, max atom move = 1.0000000 5.6850505e-05
  Iterations, force evaluations = 176 352

MPI task timing breakdown:
Section |  min time  |  avg time  |  max time  |%varavg| %total
---------------------------------------------------------------
Pair    | 0.53996    | 1.4802     | 1.9138     |  32.7 | 72.82
Neigh   | 0          | 0          | 0          |   0.0 |  0.00
Comm    | 0.030159   | 0.33609    | 1.0166     |  48.7 | 16.53
Output  | 0          | 0          | 0          |   0.0 |  0.00
Modify  | 2.1543e-05 | 0.0028992  | 0.0062226  |   2.6 |  0.14
Other   |            | 0.2136     |            |       | 10.51

Nlocal:        2776.45 ave        3959 max           0 min
Histogram: 8 4 4 0 4 12 8 2 28 34
Nghost:        3879.09 ave        5424 max         232 min
Histogram: 8 0 8 0 16 0 8 8 16 40
Neighs:        79213.3 ave      115392 max           0 min
Histogram: 8 4 4 0 10 6 8 8 24 32

Total # of neighbors = 8238188
Ave neighs/atom = 28.530422
Neighbor list builds = 0
Dangerous builds = 0
The dot product: 7.04114420381961e-08
The angle: 89.9408092217863
Setting atom values ...
  1 settings made for x
  1 settings made for y
  1 settings made for z
Setting up cg style minimization ...
  Unit style    : metal
  Current step  : 8190
Per MPI rank memory allocation (min/avg/max) = 5.441 | 5.816 | 6.074 Mbytes
Step PotEng KinEng TotEng v_fx v_fy v_fz 
    8190   -1152448.8            0   -1152448.8 0.0069848544  0.016318297   0.01386311 
    8471   -1152448.8            0   -1152448.8 1.4209503e-07 -9.0054524e-09 -9.4655394e-08 
Loop time of 3.27493 on 104 procs for 281 steps with 288751 atoms

99.9% CPU use with 104 MPI tasks x 1 OpenMP threads

Minimization stats:
  Stopping criterion = energy tolerance
  Energy initial, next-to-last, final = 
     -1152448.77530692  -1152448.77788544  -1152448.77788544
  Force two-norm initial, final = 0.20945092 4.3803814e-06
  Force max component initial, final = 0.10839497 2.9879214e-07
  Final line search alpha, max atom move = 1.0000000 2.9879214e-07
  Iterations, force evaluations = 281 562

MPI task timing breakdown:
Section |  min time  |  avg time  |  max time  |%varavg| %total
---------------------------------------------------------------
Pair    | 0.86489    | 2.385      | 3.0932     |  41.5 | 72.83
Neigh   | 0          | 0          | 0          |   0.0 |  0.00
Comm    | 0.052639   | 0.55227    | 1.6514     |  61.6 | 16.86
Output  | 0          | 0          | 0          |   0.0 |  0.00
Modify  | 3.4087e-05 | 0.004627   | 0.0098838  |   3.2 |  0.14
Other   |            | 0.333      |            |       | 10.17

Nlocal:        2776.45 ave        3958 max           0 min
Histogram: 8 4 4 0 4 12 8 2 28 34
Nghost:        3879.09 ave        5424 max         232 min
Histogram: 8 0 8 0 16 0 8 8 16 40
Neighs:        79213.4 ave      115346 max           0 min
Histogram: 8 4 4 0 10 6 8 8 24 32

Total # of neighbors = 8238189
Ave neighs/atom = 28.530426
Neighbor list builds = 0
Dangerous builds = 0
The dot product: -6.15428219744143e-11
The angle: 90.0206239915736
Setting up cg style minimization ...
  Unit style    : metal
  Current step  : 8471
Per MPI rank memory allocation (min/avg/max) = 5.441 | 5.816 | 6.074 Mbytes
Step PotEng KinEng TotEng v_fx v_fy v_fz 
    8471   -1152448.8            0   -1152448.8 -0.029571342  0.054800052 -0.049605933 
    8662   -1152448.8            0   -1152448.8 4.3077988e-06 -1.0658041e-06 -2.7027153e-06 
Loop time of 2.19345 on 104 procs for 191 steps with 288751 atoms

99.9% CPU use with 104 MPI tasks x 1 OpenMP threads

Minimization stats:
  Stopping criterion = energy tolerance
  Energy initial, next-to-last, final = 
     -1152448.77788544  -1152448.77903584  -1152448.77903584
  Force two-norm initial, final = 0.079613181 0.00012218325
  Force max component initial, final = 0.054800052 7.7572215e-06
  Final line search alpha, max atom move = 1.0000000 7.7572215e-06
  Iterations, force evaluations = 191 382

MPI task timing breakdown:
Section |  min time  |  avg time  |  max time  |%varavg| %total
---------------------------------------------------------------
Pair    | 0.58373    | 1.6055     | 2.071      |  34.1 | 73.19
Neigh   | 0          | 0          | 0          |   0.0 |  0.00
Comm    | 0.033131   | 0.36382    | 1.1019     |  51.1 | 16.59
Output  | 0          | 0          | 0          |   0.0 |  0.00
Modify  | 2.1814e-05 | 0.0020542  | 0.0053093  |   2.9 |  0.09
Other   |            | 0.2221     |            |       | 10.13

Nlocal:        2776.45 ave        3958 max           0 min
Histogram: 8 4 4 0 4 12 8 2 28 34
Nghost:        3879.05 ave        5424 max         232 min
Histogram: 8 0 8 0 16 0 8 8 16 40
Neighs:        79213.4 ave      115354 max           0 min
Histogram: 8 4 4 0 10 6 8 8 24 32

Total # of neighbors = 8238190
Ave neighs/atom = 28.530429
Neighbor list builds = 0
Dangerous builds = 0
