LAMMPS (29 Oct 2020)
OMP_NUM_THREADS environment is not set. Defaulting to 1 thread. (../comm.cpp:94)
  using 1 OpenMP thread(s) per MPI task
OMP_NUM_THREADS environment is not set. Defaulting to 1 thread. (../comm.cpp:94)
  using 1 OpenMP thread(s) per MPI task
Reading data file ...
  orthogonal box = (-122.39241 -121.13707 -37.090501) to (122.39241 121.13707 37.090501)
  13 by 4 by 2 MPI processor grid
  reading atoms ...
  288751 atoms
  read_data CPU = 0.441 seconds
199981 atoms in group inner
88770 atoms in group outer
1 atoms in group carbon
Neighbor list info ...
  update every 1 steps, delay 0 steps, check yes
  max neighbors/atom: 2000, page size: 100000
  master list distance cutoff = 5.6
  ghost atom cutoff = 5.6
  binsize = 2.8, bins = 88 87 27
  1 neighbor lists, perpetual/occasional/extra = 1 0 0
  (1) pair eam/alloy, perpetual
      attributes: half, newton on
      pair build: half/bin/atomonly/newton
      stencil: half/bin/3d/newton
      bin: standard
Setting up cg style minimization ...
  Unit style    : metal
  Current step  : 0
Per MPI rank memory allocation (min/avg/max) = 5.441 | 5.816 | 6.074 Mbytes
Step v_fx v_fy v_fz PotEng KinEng TotEng 
       0   -1.6112104  -0.70616075    2.4231358   -1152447.8            0   -1152447.8 
     159 -2.2999087e-05 -9.9323048e-07 2.5626906e-05   -1152449.5            0   -1152449.5 
Loop time of 1.90447 on 104 procs for 159 steps with 288751 atoms

99.8% CPU use with 104 MPI tasks x 1 OpenMP threads

Minimization stats:
  Stopping criterion = energy tolerance
  Energy initial, next-to-last, final = 
     -1152447.79515207  -1152449.45035285  -1152449.45035285
  Force two-norm initial, final = 10.037473 0.00014505249
  Force max component initial, final = 6.0825435 3.5964139e-05
  Final line search alpha, max atom move = 1.0000000 3.5964139e-05
  Iterations, force evaluations = 159 317

MPI task timing breakdown:
Section |  min time  |  avg time  |  max time  |%varavg| %total
---------------------------------------------------------------
Pair    | 0.49916    | 1.3456     | 1.7518     |  30.8 | 70.65
Neigh   | 3.3644e-05 | 0.0093997  | 0.014432   |   4.1 |  0.49
Comm    | 0.048862   | 0.31248    | 0.91651    |  44.8 | 16.41
Output  | 0          | 0          | 0          |   0.0 |  0.00
Modify  | 1.9457e-05 | 0.0017296  | 0.0043824  |   2.6 |  0.09
Other   |            | 0.2353     |            |       | 12.35

Nlocal:        2776.45 ave        3961 max           0 min
Histogram: 8 4 4 0 6 10 8 2 28 34
Nghost:        3879.01 ave        5424 max         232 min
Histogram: 8 0 8 0 16 0 8 8 16 40
Neighs:        79213.5 ave      115455 max           0 min
Histogram: 8 4 4 0 10 6 8 8 24 32

Total # of neighbors = 8238206
Ave neighs/atom = 28.530485
Neighbor list builds = 3
Dangerous builds = 0
Setting atom values ...
  1 settings made for x
  1 settings made for y
  1 settings made for z
Setting up cg style minimization ...
  Unit style    : metal
  Current step  : 159
Per MPI rank memory allocation (min/avg/max) = 5.441 | 5.816 | 6.074 Mbytes
Step PotEng KinEng TotEng v_fx v_fy v_fz 
     159   -1152449.4            0   -1152449.4  0.010886966 -0.014816581 -0.020161035 
     318   -1152449.5            0   -1152449.5 1.4164322e-05 -2.2793709e-06 2.8038724e-05 
Loop time of 1.89245 on 104 procs for 159 steps with 288751 atoms

99.9% CPU use with 104 MPI tasks x 1 OpenMP threads

Minimization stats:
  Stopping criterion = energy tolerance
  Energy initial, next-to-last, final = 
     -1152449.44955128  -1152449.45008161  -1152449.45008161
  Force two-norm initial, final = 0.10847545 0.00011502302
  Force max component initial, final = 0.04825182 2.8038724e-05
  Final line search alpha, max atom move = 1.0000000 2.8038724e-05
  Iterations, force evaluations = 159 318

MPI task timing breakdown:
Section |  min time  |  avg time  |  max time  |%varavg| %total
---------------------------------------------------------------
Pair    | 0.48477    | 1.3468     | 1.7567     |  31.4 | 71.17
Neigh   | 0          | 0          | 0          |   0.0 |  0.00
Comm    | 0.037234   | 0.30889    | 0.906      |  45.3 | 16.32
Output  | 0          | 0          | 0          |   0.0 |  0.00
Modify  | 2.0885e-05 | 0.0026271  | 0.0056195  |   2.4 |  0.14
Other   |            | 0.2341     |            |       | 12.37

Nlocal:        2776.45 ave        3961 max           0 min
Histogram: 8 4 4 0 6 10 8 2 28 34
Nghost:        3879.01 ave        5424 max         232 min
Histogram: 8 0 8 0 16 0 8 8 16 40
Neighs:        79213.4 ave      115455 max           0 min
Histogram: 8 4 4 0 10 6 8 8 24 32

Total # of neighbors = 8238198
Ave neighs/atom = 28.530457
Neighbor list builds = 0
Dangerous builds = 0
Setting atom values ...
  1 settings made for x
  1 settings made for y
  1 settings made for z
Setting up cg style minimization ...
  Unit style    : metal
  Current step  : 318
Per MPI rank memory allocation (min/avg/max) = 5.441 | 5.816 | 6.074 Mbytes
Step PotEng KinEng TotEng v_fx v_fy v_fz 
     318   -1152449.4            0   -1152449.4  0.018354462 -0.022523193 -0.032500298 
     447   -1152449.4            0   -1152449.4 -2.2600964e-05 2.3045884e-05 2.0174436e-05 
Loop time of 1.51103 on 104 procs for 129 steps with 288751 atoms

99.9% CPU use with 104 MPI tasks x 1 OpenMP threads

Minimization stats:
  Stopping criterion = energy tolerance
  Energy initial, next-to-last, final = 
     -1152449.44705506  -1152449.44849468  -1152449.44849468
  Force two-norm initial, final = 0.178215 0.00014658074
  Force max component initial, final = 0.077723247 2.6337353e-05
  Final line search alpha, max atom move = 1.0000000 2.6337353e-05
  Iterations, force evaluations = 129 258

MPI task timing breakdown:
Section |  min time  |  avg time  |  max time  |%varavg| %total
---------------------------------------------------------------
Pair    | 0.39141    | 1.085      | 1.4193     |  28.1 | 71.80
Neigh   | 0          | 0          | 0          |   0.0 |  0.00
Comm    | 0.02504    | 0.2454     | 0.73473    |  41.3 | 16.24
Output  | 0          | 0          | 0          |   0.0 |  0.00
Modify  | 1.6875e-05 | 0.0021315  | 0.0045542  |   2.2 |  0.14
Other   |            | 0.1785     |            |       | 11.81

Nlocal:        2776.45 ave        3961 max           0 min
Histogram: 8 4 4 0 6 10 8 2 28 34
Nghost:        3879.01 ave        5424 max         232 min
Histogram: 8 0 8 0 16 0 8 8 16 40
Neighs:        79213.5 ave      115455 max           0 min
Histogram: 8 4 4 0 10 6 8 8 24 32

Total # of neighbors = 8238200
Ave neighs/atom = 28.530464
Neighbor list builds = 0
Dangerous builds = 0
The dot product: -1.28096373792652e-08
Setting atom values ...
  1 settings made for x
  1 settings made for y
  1 settings made for z
Setting up cg style minimization ...
  Unit style    : metal
  Current step  : 447
Per MPI rank memory allocation (min/avg/max) = 5.441 | 5.816 | 6.074 Mbytes
Step PotEng KinEng TotEng v_fx v_fy v_fz 
     447   -1152449.4            0   -1152449.4  0.018703893 -0.021322936 -0.031815469 
     622   -1152449.4            0   -1152449.4 1.5559887e-05 -8.1509782e-06 2.7516401e-05 
Loop time of 2.08044 on 104 procs for 175 steps with 288751 atoms

99.9% CPU use with 104 MPI tasks x 1 OpenMP threads

Minimization stats:
  Stopping criterion = energy tolerance
  Energy initial, next-to-last, final = 
     -1152449.44403783  -1152449.44546631  -1152449.44546631
  Force two-norm initial, final = 0.17694584 0.00011080829
  Force max component initial, final = 0.075520862 2.7516401e-05
  Final line search alpha, max atom move = 1.0000000 2.7516401e-05
  Iterations, force evaluations = 175 350

MPI task timing breakdown:
Section |  min time  |  avg time  |  max time  |%varavg| %total
---------------------------------------------------------------
Pair    | 0.5322     | 1.4837     | 1.9478     |  33.0 | 71.32
Neigh   | 0          | 0          | 0          |   0.0 |  0.00
Comm    | 0.036746   | 0.34214    | 1.0219     |  47.5 | 16.45
Output  | 0          | 0          | 0          |   0.0 |  0.00
Modify  | 2.1245e-05 | 0.0028985  | 0.0061505  |   2.5 |  0.14
Other   |            | 0.2517     |            |       | 12.10

Nlocal:        2776.45 ave        3961 max           0 min
Histogram: 8 4 4 0 6 10 8 2 28 34
Nghost:        3879.01 ave        5424 max         232 min
Histogram: 8 0 8 0 16 0 8 8 16 40
Neighs:        79213.5 ave      115455 max           0 min
Histogram: 8 4 4 0 10 6 8 8 24 32

Total # of neighbors = 8238201
Ave neighs/atom = 28.530467
Neighbor list builds = 0
Dangerous builds = 0
The dot product: -5.79241294837021e-08
Setting atom values ...
  1 settings made for x
  1 settings made for y
  1 settings made for z
Setting up cg style minimization ...
  Unit style    : metal
  Current step  : 622
Per MPI rank memory allocation (min/avg/max) = 5.441 | 5.816 | 6.074 Mbytes
Step PotEng KinEng TotEng v_fx v_fy v_fz 
     622   -1152449.4            0   -1152449.4  0.019636185 -0.021117451 -0.030860922 
     740   -1152449.4            0   -1152449.4 -1.5984287e-05 8.4980909e-06 -3.8415135e-05 
Loop time of 1.37907 on 104 procs for 118 steps with 288751 atoms

99.9% CPU use with 104 MPI tasks x 1 OpenMP threads

Minimization stats:
  Stopping criterion = energy tolerance
  Energy initial, next-to-last, final = 
     -1152449.43953342  -1152449.44095386  -1152449.44095386
  Force two-norm initial, final = 0.17609784 0.00016444699
  Force max component initial, final = 0.073362535 3.8415135e-05
  Final line search alpha, max atom move = 1.0000000 3.8415135e-05
  Iterations, force evaluations = 118 236

MPI task timing breakdown:
Section |  min time  |  avg time  |  max time  |%varavg| %total
---------------------------------------------------------------
Pair    | 0.358      | 0.99116    | 1.2947     |  26.8 | 71.87
Neigh   | 0          | 0          | 0          |   0.0 |  0.00
Comm    | 0.020985   | 0.22356    | 0.6696     |  39.4 | 16.21
Output  | 0          | 0          | 0          |   0.0 |  0.00
Modify  | 1.4628e-05 | 0.001948   | 0.0041702  |   2.1 |  0.14
Other   |            | 0.1624     |            |       | 11.78

Nlocal:        2776.45 ave        3961 max           0 min
Histogram: 8 4 4 0 6 10 8 2 28 34
Nghost:        3879.01 ave        5424 max         232 min
Histogram: 8 0 8 0 16 0 8 8 16 40
Neighs:        79213.5 ave      115455 max           0 min
Histogram: 8 4 4 0 10 6 8 8 24 32

Total # of neighbors = 8238201
Ave neighs/atom = 28.530467
Neighbor list builds = 0
Dangerous builds = 0
The dot product: 7.4988138363373e-08
Setting atom values ...
  1 settings made for x
  1 settings made for y
  1 settings made for z
Setting up cg style minimization ...
  Unit style    : metal
  Current step  : 740
Per MPI rank memory allocation (min/avg/max) = 5.441 | 5.816 | 6.074 Mbytes
Step PotEng KinEng TotEng v_fx v_fy v_fz 
     740   -1152449.4            0   -1152449.4  0.021019321 -0.021666449 -0.030616848 
     878   -1152449.4            0   -1152449.4 -8.1609179e-06 5.5453396e-06 -1.4939649e-05 
Loop time of 1.61993 on 104 procs for 138 steps with 288751 atoms

99.9% CPU use with 104 MPI tasks x 1 OpenMP threads

Minimization stats:
  Stopping criterion = energy tolerance
  Energy initial, next-to-last, final = 
     -1152449.43351036  -1152449.43492268  -1152449.43492268
  Force two-norm initial, final = 0.17547283 6.1948308e-05
  Force max component initial, final = 0.072631204 1.4939649e-05
  Final line search alpha, max atom move = 1.0000000 1.4939649e-05
  Iterations, force evaluations = 138 276

MPI task timing breakdown:
Section |  min time  |  avg time  |  max time  |%varavg| %total
---------------------------------------------------------------
Pair    | 0.4188     | 1.1669     | 1.5162     |  29.1 | 72.03
Neigh   | 0          | 0          | 0          |   0.0 |  0.00
Comm    | 0.027707   | 0.2636     | 0.78788    |  42.9 | 16.27
Output  | 0          | 0          | 0          |   0.0 |  0.00
Modify  | 1.6926e-05 | 0.0022816  | 0.0048857  |   2.3 |  0.14
Other   |            | 0.1872     |            |       | 11.56

Nlocal:        2776.45 ave        3961 max           0 min
Histogram: 8 4 4 0 6 10 8 2 28 34
Nghost:        3879.01 ave        5424 max         232 min
Histogram: 8 0 8 0 16 0 8 8 16 40
Neighs:        79213.5 ave      115455 max           0 min
Histogram: 8 4 4 0 10 6 8 8 24 32

Total # of neighbors = 8238201
Ave neighs/atom = 28.530467
Neighbor list builds = 0
Dangerous builds = 0
The dot product: 2.79273238130829e-08
Setting atom values ...
  1 settings made for x
  1 settings made for y
  1 settings made for z
Setting up cg style minimization ...
  Unit style    : metal
  Current step  : 878
Per MPI rank memory allocation (min/avg/max) = 5.441 | 5.816 | 6.074 Mbytes
Step PotEng KinEng TotEng v_fx v_fy v_fz 
     878   -1152449.4            0   -1152449.4  0.023000423 -0.022885735 -0.031106001 
     981   -1152449.4            0   -1152449.4 -3.4540215e-05 3.5734477e-05 6.3069099e-05 
Loop time of 1.21628 on 104 procs for 103 steps with 288751 atoms

99.9% CPU use with 104 MPI tasks x 1 OpenMP threads

Minimization stats:
  Stopping criterion = energy tolerance
  Energy initial, next-to-last, final = 
     -1152449.42594494  -1152449.42734787  -1152449.42734787
  Force two-norm initial, final = 0.17503318 0.00028311031
  Force max component initial, final = 0.073086459 6.3069099e-05
  Final line search alpha, max atom move = 1.0000000 6.3069099e-05
  Iterations, force evaluations = 103 206

MPI task timing breakdown:
Section |  min time  |  avg time  |  max time  |%varavg| %total
---------------------------------------------------------------
Pair    | 0.31298    | 0.86689    | 1.1348     |  25.1 | 71.27
Neigh   | 0          | 0          | 0          |   0.0 |  0.00
Comm    | 0.021676   | 0.19611    | 0.58686    |  36.8 | 16.12
Output  | 0          | 0          | 0          |   0.0 |  0.00
Modify  | 1.2896e-05 | 0.001701   | 0.003629   |   1.9 |  0.14
Other   |            | 0.1516     |            |       | 12.46

Nlocal:        2776.45 ave        3961 max           0 min
Histogram: 8 4 4 0 6 10 8 2 28 34
Nghost:        3879.01 ave        5424 max         232 min
Histogram: 8 0 8 0 16 0 8 8 16 40
Neighs:        79213.5 ave      115455 max           0 min
Histogram: 8 4 4 0 10 6 8 8 24 32

Total # of neighbors = 8238203
Ave neighs/atom = 28.530474
Neighbor list builds = 0
Dangerous builds = 0
The dot product: -1.08362615455047e-07
Setting atom values ...
  1 settings made for x
  1 settings made for y
  1 settings made for z
Setting up cg style minimization ...
  Unit style    : metal
  Current step  : 981
Per MPI rank memory allocation (min/avg/max) = 5.441 | 5.816 | 6.074 Mbytes
Step PotEng KinEng TotEng v_fx v_fy v_fz 
     981   -1152449.4            0   -1152449.4  0.025712216 -0.024726424 -0.032557387 
    1000   -1152449.4            0   -1152449.4 0.00030102738 -0.0002330587 0.00050583657 
    1127   -1152449.4            0   -1152449.4 -2.7054759e-06 1.6056088e-06 -1.2232972e-05 
Loop time of 1.70922 on 104 procs for 146 steps with 288751 atoms

99.9% CPU use with 104 MPI tasks x 1 OpenMP threads

Minimization stats:
  Stopping criterion = energy tolerance
  Energy initial, next-to-last, final = 
     -1152449.41682293   -1152449.4182173   -1152449.4182173
  Force two-norm initial, final = 0.17476162 4.4770185e-05
  Force max component initial, final = 0.073807535 1.2232972e-05
  Final line search alpha, max atom move = 1.0000000 1.2232972e-05
  Iterations, force evaluations = 146 292

MPI task timing breakdown:
Section |  min time  |  avg time  |  max time  |%varavg| %total
---------------------------------------------------------------
Pair    | 0.44441    | 1.2327     | 1.6043     |  29.8 | 72.12
Neigh   | 0          | 0          | 0          |   0.0 |  0.00
Comm    | 0.030287   | 0.27882    | 0.83238    |  44.0 | 16.31
Output  | 9.4822e-05 | 0.00010375 | 0.00018604 |   0.0 |  0.01
Modify  | 1.827e-05  | 0.0024093  | 0.0051345  |   2.3 |  0.14
Other   |            | 0.1952     |            |       | 11.42

Nlocal:        2776.45 ave        3960 max           0 min
Histogram: 8 4 4 0 4 12 8 2 28 34
Nghost:        3879.01 ave        5424 max         232 min
Histogram: 8 0 8 0 16 0 8 8 16 40
Neighs:        79213.5 ave      115432 max           0 min
Histogram: 8 4 4 0 10 6 8 8 24 32

Total # of neighbors = 8238203
Ave neighs/atom = 28.530474
Neighbor list builds = 0
Dangerous builds = 0
The dot product: 2.06131717691578e-08
Setting atom values ...
  1 settings made for x
  1 settings made for y
  1 settings made for z
Setting up cg style minimization ...
  Unit style    : metal
  Current step  : 1127
Per MPI rank memory allocation (min/avg/max) = 5.441 | 5.816 | 6.074 Mbytes
Step PotEng KinEng TotEng v_fx v_fy v_fz 
    1127   -1152449.4            0   -1152449.4  0.029417453 -0.027229394 -0.035284802 
    1268   -1152449.4            0   -1152449.4 -8.4355935e-06 7.7495892e-06 8.8074575e-06 
Loop time of 1.63616 on 104 procs for 141 steps with 288751 atoms

99.9% CPU use with 104 MPI tasks x 1 OpenMP threads

Minimization stats:
  Stopping criterion = energy tolerance
  Energy initial, next-to-last, final = 
     -1152449.40614552   -1152449.4075349   -1152449.4075349
  Force two-norm initial, final = 0.17491222 6.9990729e-05
  Force max component initial, final = 0.07479993 1.6695325e-05
  Final line search alpha, max atom move = 1.0000000 1.6695325e-05
  Iterations, force evaluations = 141 282

MPI task timing breakdown:
Section |  min time  |  avg time  |  max time  |%varavg| %total
---------------------------------------------------------------
Pair    | 0.4251     | 1.1831     | 1.5443     |  29.4 | 72.31
Neigh   | 0          | 0          | 0          |   0.0 |  0.00
Comm    | 0.026951   | 0.26544    | 0.79937    |  43.5 | 16.22
Output  | 0          | 0          | 0          |   0.0 |  0.00
Modify  | 1.7661e-05 | 0.0023239  | 0.0049957  |   2.3 |  0.14
Other   |            | 0.1852     |            |       | 11.32

Nlocal:        2776.45 ave        3959 max           0 min
Histogram: 8 4 4 0 4 12 8 2 28 34
Nghost:        3879.01 ave        5424 max         232 min
Histogram: 8 0 8 0 16 0 8 8 16 40
Neighs:        79213.5 ave      115391 max           0 min
Histogram: 8 4 4 0 10 6 8 8 24 32

Total # of neighbors = 8238201
Ave neighs/atom = 28.530467
Neighbor list builds = 0
Dangerous builds = 0
The dot product: -3.82558623959438e-08
Setting atom values ...
  1 settings made for x
  1 settings made for y
  1 settings made for z
Setting up cg style minimization ...
  Unit style    : metal
  Current step  : 1268
Per MPI rank memory allocation (min/avg/max) = 5.441 | 5.816 | 6.074 Mbytes
Step PotEng KinEng TotEng v_fx v_fy v_fz 
    1268   -1152449.4            0   -1152449.4  0.034465259  -0.03039811 -0.039477454 
    1393   -1152449.4            0   -1152449.4 9.9425402e-06 -8.389996e-06 4.0433468e-06 
Loop time of 1.46756 on 104 procs for 125 steps with 288751 atoms

99.9% CPU use with 104 MPI tasks x 1 OpenMP threads

Minimization stats:
  Stopping criterion = energy tolerance
  Energy initial, next-to-last, final = 
     -1152449.39393774  -1152449.39533365  -1152449.39533365
  Force two-norm initial, final = 0.17557076 0.00014849737
  Force max component initial, final = 0.076054309 2.5580690e-05
  Final line search alpha, max atom move = 1.0000000 2.5580690e-05
  Iterations, force evaluations = 125 250

MPI task timing breakdown:
Section |  min time  |  avg time  |  max time  |%varavg| %total
---------------------------------------------------------------
Pair    | 0.37907    | 1.0578     | 1.3853     |  27.8 | 72.08
Neigh   | 0          | 0          | 0          |   0.0 |  0.00
Comm    | 0.027207   | 0.24033    | 0.72303    |  40.7 | 16.38
Output  | 0          | 0          | 0          |   0.0 |  0.00
Modify  | 1.5506e-05 | 0.0020636  | 0.0044108  |   2.1 |  0.14
Other   |            | 0.1674     |            |       | 11.41

Nlocal:        2776.45 ave        3957 max           0 min
Histogram: 8 4 4 0 4 12 8 2 28 34
Nghost:        3879.01 ave        5424 max         232 min
Histogram: 8 0 8 0 16 0 8 8 16 40
Neighs:        79213.4 ave      115327 max           0 min
Histogram: 8 4 4 0 10 6 8 8 24 32

Total # of neighbors = 8238197
Ave neighs/atom = 28.530454
Neighbor list builds = 0
Dangerous builds = 0
The dot product: 2.63514856409245e-08
Setting atom values ...
  1 settings made for x
  1 settings made for y
  1 settings made for z
Setting up cg style minimization ...
  Unit style    : metal
  Current step  : 1393
Per MPI rank memory allocation (min/avg/max) = 5.441 | 5.816 | 6.074 Mbytes
Step PotEng KinEng TotEng v_fx v_fy v_fz 
    1393   -1152449.4            0   -1152449.4  0.043173294 -0.035613637 -0.048449782 
    1522   -1152449.4            0   -1152449.4 1.2885537e-05 -1.0617282e-05 4.1631169e-06 
Loop time of 1.51489 on 104 procs for 129 steps with 288751 atoms

99.9% CPU use with 104 MPI tasks x 1 OpenMP threads

Minimization stats:
  Stopping criterion = energy tolerance
  Energy initial, next-to-last, final = 
     -1152449.38028966  -1152449.38176704  -1152449.38176704
  Force two-norm initial, final = 0.17865738 0.00019256694
  Force max component initial, final = 0.077619169 2.9280583e-05
  Final line search alpha, max atom move = 1.0000000 2.9280583e-05
  Iterations, force evaluations = 129 258

MPI task timing breakdown:
Section |  min time  |  avg time  |  max time  |%varavg| %total
---------------------------------------------------------------
Pair    | 0.39305    | 1.0888     | 1.4239     |  28.2 | 71.88
Neigh   | 0          | 0          | 0          |   0.0 |  0.00
Comm    | 0.024132   | 0.24597    | 0.73974    |  41.5 | 16.24
Output  | 0          | 0          | 0          |   0.0 |  0.00
Modify  | 1.598e-05  | 0.0021329  | 0.0045627  |   2.2 |  0.14
Other   |            | 0.1779     |            |       | 11.75

Nlocal:        2776.45 ave        3952 max           0 min
Histogram: 8 4 4 0 4 12 8 2 28 34
Nghost:        3879.05 ave        5424 max         232 min
Histogram: 8 0 8 0 16 0 8 8 16 40
Neighs:        79213.4 ave      115164 max           0 min
Histogram: 8 4 4 0 10 6 8 8 24 32

Total # of neighbors = 8238198
Ave neighs/atom = 28.530457
Neighbor list builds = 0
Dangerous builds = 0
The dot product: 8.42412549618287e-08
Setting atom values ...
  1 settings made for x
  1 settings made for y
  1 settings made for z
Setting up cg style minimization ...
  Unit style    : metal
  Current step  : 1522
Per MPI rank memory allocation (min/avg/max) = 5.441 | 5.816 | 6.074 Mbytes
Step PotEng KinEng TotEng v_fx v_fy v_fz 
    1522   -1152449.4            0   -1152449.4   0.06145249 -0.044521008 -0.067852323 
    1715   -1152449.4            0   -1152449.4 -1.6504088e-06 2.0726821e-06 -2.0274928e-05 
Loop time of 2.29899 on 104 procs for 193 steps with 288751 atoms

99.9% CPU use with 104 MPI tasks x 1 OpenMP threads

Minimization stats:
  Stopping criterion = energy tolerance
  Energy initial, next-to-last, final = 
     -1152449.36559094  -1152449.36854694  -1152449.36854694
  Force two-norm initial, final = 0.18962385 0.00012130992
  Force max component initial, final = 0.079686546 2.0274928e-05
  Final line search alpha, max atom move = 1.0000000 2.0274928e-05
  Iterations, force evaluations = 193 386

MPI task timing breakdown:
Section |  min time  |  avg time  |  max time  |%varavg| %total
---------------------------------------------------------------
Pair    | 0.58831    | 1.6321     | 2.1228     |  34.4 | 70.99
Neigh   | 0          | 0          | 0          |   0.0 |  0.00
Comm    | 0.045381   | 0.37596    | 1.1035     |  49.8 | 16.35
Output  | 0          | 0          | 0          |   0.0 |  0.00
Modify  | 2.4735e-05 | 0.0031871  | 0.0068003  |   2.7 |  0.14
Other   |            | 0.2878     |            |       | 12.52

Nlocal:        2776.45 ave        3947 max           0 min
Histogram: 8 4 4 0 4 12 8 2 26 36
Nghost:        3879.05 ave        5424 max         232 min
Histogram: 8 0 8 0 16 0 8 8 16 40
Neighs:        79213.4 ave      115012 max           0 min
Histogram: 8 4 4 0 10 6 8 8 24 32

Total # of neighbors = 8238194
Ave neighs/atom = 28.530443
Neighbor list builds = 0
Dangerous builds = 0
The dot product: 5.71992973104557e-07
Setting atom values ...
  1 settings made for x
  1 settings made for y
  1 settings made for z
Setting up cg style minimization ...
  Unit style    : metal
  Current step  : 1715
Per MPI rank memory allocation (min/avg/max) = 5.441 | 5.816 | 6.074 Mbytes
Step PotEng KinEng TotEng v_fx v_fy v_fz 
    1715   -1152449.4            0   -1152449.4   0.15856534  -0.05450147   -0.1293402 
    1984   -1152449.4            0   -1152449.4 -1.164722e-06 2.2612483e-07 1.7874821e-06 
Loop time of 3.13602 on 104 procs for 269 steps with 288751 atoms

99.9% CPU use with 104 MPI tasks x 1 OpenMP threads

Minimization stats:
  Stopping criterion = energy tolerance
  Energy initial, next-to-last, final = 
     -1152449.35469369  -1152449.36172449  -1152449.36172449
  Force two-norm initial, final = 0.25802112 9.1651759e-06
  Force max component initial, final = 0.15856534 2.6270515e-06
  Final line search alpha, max atom move = 1.0000000 2.6270515e-06
  Iterations, force evaluations = 269 538

MPI task timing breakdown:
Section |  min time  |  avg time  |  max time  |%varavg| %total
---------------------------------------------------------------
Pair    | 0.81861    | 2.2558     | 2.9449     |  40.4 | 71.93
Neigh   | 1.0293e-05 | 0.002958   | 0.0043712  |   2.2 |  0.09
Comm    | 0.054959   | 0.50809    | 1.5231     |  59.6 | 16.20
Output  | 0          | 0          | 0          |   0.0 |  0.00
Modify  | 3.2778e-05 | 0.0044281  | 0.0094444  |   3.1 |  0.14
Other   |            | 0.3648     |            |       | 11.63

Nlocal:        2776.45 ave        3951 max           0 min
Histogram: 8 4 4 0 4 12 8 2 28 34
Nghost:        3879.01 ave        5424 max         232 min
Histogram: 8 0 8 0 16 0 8 8 16 40
Neighs:        79213.4 ave      115131 max           0 min
Histogram: 8 4 4 0 10 6 8 8 24 32

Total # of neighbors = 8238197
Ave neighs/atom = 28.530454
Neighbor list builds = 1
Dangerous builds = 0
The dot product: -1.14441529909061e-07
Setting atom values ...
  1 settings made for x
  1 settings made for y
  1 settings made for z
Setting up cg style minimization ...
  Unit style    : metal
  Current step  : 1984
Per MPI rank memory allocation (min/avg/max) = 5.441 | 5.816 | 6.074 Mbytes
Step PotEng KinEng TotEng v_fx v_fy v_fz 
    1984   -1152449.3            0   -1152449.3   0.14258044 -0.013188465 -0.076854761 
    2000   -1152449.4            0   -1152449.4 0.00082091708 0.00047832268 -0.0020922346 
    2228   -1152449.4            0   -1152449.4 -3.0465335e-06 1.377196e-06 -1.6182713e-06 
Loop time of 2.83196 on 104 procs for 244 steps with 288751 atoms

99.9% CPU use with 104 MPI tasks x 1 OpenMP threads

Minimization stats:
  Stopping criterion = energy tolerance
  Energy initial, next-to-last, final = 
      -1152449.3498595  -1152449.35366539  -1152449.35366539
  Force two-norm initial, final = 0.21258809 2.0841157e-05
  Force max component initial, final = 0.14258044 5.2648472e-06
  Final line search alpha, max atom move = 1.0000000 5.2648472e-06
  Iterations, force evaluations = 244 488

MPI task timing breakdown:
Section |  min time  |  avg time  |  max time  |%varavg| %total
---------------------------------------------------------------
Pair    | 0.73973    | 2.0538     | 2.6739     |  38.6 | 72.52
Neigh   | 0          | 0          | 0          |   0.0 |  0.00
Comm    | 0.048251   | 0.46201    | 1.3996     |  57.3 | 16.31
Output  | 9.7075e-05 | 9.9747e-05 | 0.00016921 |   0.0 |  0.00
Modify  | 3.0384e-05 | 0.0040272  | 0.0087312  |   3.0 |  0.14
Other   |            | 0.3121     |            |       | 11.02

Nlocal:        2776.45 ave        3953 max           0 min
Histogram: 8 4 4 0 4 12 8 1 29 34
Nghost:        3879.01 ave        5424 max         232 min
Histogram: 8 0 8 0 16 0 8 8 16 40
Neighs:        79213.5 ave      115197 max           0 min
Histogram: 8 4 4 0 10 6 8 8 24 32

Total # of neighbors = 8238202
Ave neighs/atom = 28.530471
Neighbor list builds = 0
Dangerous builds = 0
The dot product: -7.28206753710271e-08
Setting atom values ...
  1 settings made for x
  1 settings made for y
  1 settings made for z
Setting up cg style minimization ...
  Unit style    : metal
  Current step  : 2228
Per MPI rank memory allocation (min/avg/max) = 5.441 | 5.816 | 6.074 Mbytes
Step PotEng KinEng TotEng v_fx v_fy v_fz 
    2228   -1152449.3            0   -1152449.3  0.079179895 0.0034344523 -0.036976766 
    2377   -1152449.3            0   -1152449.3 8.5327672e-06 6.184675e-06 -1.8548927e-05 
Loop time of 1.72857 on 104 procs for 149 steps with 288751 atoms

99.9% CPU use with 104 MPI tasks x 1 OpenMP threads

Minimization stats:
  Stopping criterion = energy tolerance
  Energy initial, next-to-last, final = 
     -1152449.34238802    -1152449.344725    -1152449.344725
  Force two-norm initial, final = 0.16274625 5.3251463e-05
  Force max component initial, final = 0.07940954 1.8548927e-05
  Final line search alpha, max atom move = 1.0000000 1.8548927e-05
  Iterations, force evaluations = 149 298

MPI task timing breakdown:
Section |  min time  |  avg time  |  max time  |%varavg| %total
---------------------------------------------------------------
Pair    | 0.45087    | 1.2512     | 1.6304     |  30.2 | 72.39
Neigh   | 0          | 0          | 0          |   0.0 |  0.00
Comm    | 0.027234   | 0.28001    | 0.84475    |  44.7 | 16.20
Output  | 0          | 0          | 0          |   0.0 |  0.00
Modify  | 1.8319e-05 | 0.0024594  | 0.0052301  |   2.3 |  0.14
Other   |            | 0.1949     |            |       | 11.27

Nlocal:        2776.45 ave        3953 max           0 min
Histogram: 8 4 4 0 4 12 8 0 30 34
Nghost:        3879.05 ave        5424 max         232 min
Histogram: 8 0 8 0 16 0 8 8 16 40
Neighs:        79213.5 ave      115197 max           0 min
Histogram: 8 4 4 0 10 6 8 8 24 32

Total # of neighbors = 8238203
Ave neighs/atom = 28.530474
Neighbor list builds = 0
Dangerous builds = 0
The dot product: 3.95717221745678e-07
Setting atom values ...
  1 settings made for x
  1 settings made for y
  1 settings made for z
Setting up cg style minimization ...
  Unit style    : metal
  Current step  : 2377
Per MPI rank memory allocation (min/avg/max) = 5.441 | 5.816 | 6.074 Mbytes
Step PotEng KinEng TotEng v_fx v_fy v_fz 
    2377   -1152449.3            0   -1152449.3  0.036253933  0.010088775 -0.028673602 
    2606   -1152449.3            0   -1152449.3 2.4679119e-05 1.412108e-05 -3.5615514e-05 
Loop time of 2.76665 on 104 procs for 229 steps with 288751 atoms

99.9% CPU use with 104 MPI tasks x 1 OpenMP threads

Minimization stats:
  Stopping criterion = energy tolerance
  Energy initial, next-to-last, final = 
     -1152449.33518047  -1152449.34516566  -1152449.34516566
  Force two-norm initial, final = 0.1518062 0.00022567852
  Force max component initial, final = 0.074124888 4.4209623e-05
  Final line search alpha, max atom move = 1.0000000 4.4209623e-05
  Iterations, force evaluations = 229 458

MPI task timing breakdown:
Section |  min time  |  avg time  |  max time  |%varavg| %total
---------------------------------------------------------------
Pair    | 0.70053    | 1.9431     | 2.5414     |  37.7 | 70.23
Neigh   | 1.031e-05  | 0.0029606  | 0.0043646  |   2.2 |  0.11
Comm    | 0.045926   | 0.44802    | 1.3445     |  54.2 | 16.19
Output  | 0          | 0          | 0          |   0.0 |  0.00
Modify  | 2.9514e-05 | 0.0037813  | 0.0081291  |   2.9 |  0.14
Other   |            | 0.3688     |            |       | 13.33

Nlocal:        2776.45 ave        3956 max           0 min
Histogram: 8 4 4 0 4 12 8 0 30 34
Nghost:        3879.01 ave        5424 max         232 min
Histogram: 8 0 8 0 16 0 8 8 16 40
Neighs:        79213.5 ave      115292 max           0 min
Histogram: 8 4 4 0 10 6 8 8 24 32

Total # of neighbors = 8238202
Ave neighs/atom = 28.530471
Neighbor list builds = 1
Dangerous builds = 0
The dot product: 1.64583298301723e-06
Setting atom values ...
  1 settings made for x
  1 settings made for y
  1 settings made for z
Setting up cg style minimization ...
  Unit style    : metal
  Current step  : 2606
Per MPI rank memory allocation (min/avg/max) = 5.441 | 5.816 | 6.074 Mbytes
Step PotEng KinEng TotEng v_fx v_fy v_fz 
    2606   -1152449.3            0   -1152449.3 -0.0049579536 -0.021808641  0.036478911 
    2710   -1152449.3            0   -1152449.3 1.9330049e-06 -2.1605871e-06 3.4152385e-06 
Loop time of 1.22315 on 104 procs for 104 steps with 288751 atoms

99.9% CPU use with 104 MPI tasks x 1 OpenMP threads

Minimization stats:
  Stopping criterion = energy tolerance
  Energy initial, next-to-last, final = 
     -1152449.34736125  -1152449.34836203  -1152449.34836203
  Force two-norm initial, final = 0.13177698 0.00014384669
  Force max component initial, final = 0.052506535 4.5143025e-06
  Final line search alpha, max atom move = 1.0000000 4.5143025e-06
  Iterations, force evaluations = 104 208

MPI task timing breakdown:
Section |  min time  |  avg time  |  max time  |%varavg| %total
---------------------------------------------------------------
Pair    | 0.3171     | 0.87533    | 1.1437     |  25.2 | 71.56
Neigh   | 0          | 0          | 0          |   0.0 |  0.00
Comm    | 0.018325   | 0.19813    | 0.59013    |  36.8 | 16.20
Output  | 0          | 0          | 0          |   0.0 |  0.00
Modify  | 1.3302e-05 | 0.0017207  | 0.0036678  |   2.0 |  0.14
Other   |            | 0.148      |            |       | 12.10

Nlocal:        2776.45 ave        3961 max           0 min
Histogram: 8 4 4 0 6 10 8 2 28 34
Nghost:        3879.01 ave        5424 max         232 min
Histogram: 8 0 8 0 16 0 8 8 16 40
Neighs:        79213.4 ave      115457 max           0 min
Histogram: 8 4 4 0 10 6 8 8 24 32

Total # of neighbors = 8238191
Ave neighs/atom = 28.530433
Neighbor list builds = 0
Dangerous builds = 0
The dot product: 1.36092240446106e-08
Setting atom values ...
  1 settings made for x
  1 settings made for y
  1 settings made for z
Setting up cg style minimization ...
  Unit style    : metal
  Current step  : 2710
Per MPI rank memory allocation (min/avg/max) = 5.441 | 5.816 | 6.074 Mbytes
Step PotEng KinEng TotEng v_fx v_fy v_fz 
    2710   -1152449.3            0   -1152449.3 0.00087026734 -0.010945122  0.018506388 
    2868   -1152449.4            0   -1152449.4 -4.0226412e-05 -2.4243084e-05 4.4745889e-05 
Loop time of 1.85538 on 104 procs for 158 steps with 288751 atoms

99.9% CPU use with 104 MPI tasks x 1 OpenMP threads

Minimization stats:
  Stopping criterion = energy tolerance
  Energy initial, next-to-last, final = 
     -1152449.34965424  -1152449.35055883  -1152449.35055883
  Force two-norm initial, final = 0.12504377 0.00022835995
  Force max component initial, final = 0.052990279 4.5654766e-05
  Final line search alpha, max atom move = 1.0000000 4.5654766e-05
  Iterations, force evaluations = 158 316

MPI task timing breakdown:
Section |  min time  |  avg time  |  max time  |%varavg| %total
---------------------------------------------------------------
Pair    | 0.47985    | 1.3361     | 1.7506     |  31.2 | 72.01
Neigh   | 0          | 0          | 0          |   0.0 |  0.00
Comm    | 0.031792   | 0.30333    | 0.90856    |  45.9 | 16.35
Output  | 0          | 0          | 0          |   0.0 |  0.00
Modify  | 1.9793e-05 | 0.0026164  | 0.0056528  |   2.4 |  0.14
Other   |            | 0.2133     |            |       | 11.50

Nlocal:        2776.45 ave        3961 max           0 min
Histogram: 8 4 4 0 6 10 8 2 28 34
Nghost:        3879.01 ave        5424 max         232 min
Histogram: 8 0 8 0 16 0 8 8 16 40
Neighs:        79213.4 ave      115457 max           0 min
Histogram: 8 4 4 0 10 6 8 8 24 32

Total # of neighbors = 8238193
Ave neighs/atom = 28.530440
Neighbor list builds = 0
Dangerous builds = 0
The dot product: 4.84600454657083e-10
Setting atom values ...
  1 settings made for x
  1 settings made for y
  1 settings made for z
Setting up cg style minimization ...
  Unit style    : metal
  Current step  : 2868
Per MPI rank memory allocation (min/avg/max) = 5.441 | 5.816 | 6.074 Mbytes
Step PotEng KinEng TotEng v_fx v_fy v_fz 
    2868   -1152449.4            0   -1152449.4 0.00053324973 -0.012017858  0.020375779 
    3000   -1152449.4            0   -1152449.4 6.2446135e-06 3.4004461e-05 -5.8337495e-05 
    3057   -1152449.4            0   -1152449.4 -4.0656604e-06 -8.2005657e-06 1.4294684e-05 
Loop time of 2.21021 on 104 procs for 189 steps with 288751 atoms

99.9% CPU use with 104 MPI tasks x 1 OpenMP threads

Minimization stats:
  Stopping criterion = energy tolerance
  Energy initial, next-to-last, final = 
     -1152449.35063158  -1152449.35153377  -1152449.35153377
  Force two-norm initial, final = 0.12559902 9.6432733e-05
  Force max component initial, final = 0.052592212 1.9540832e-05
  Final line search alpha, max atom move = 1.0000000 1.9540832e-05
  Iterations, force evaluations = 189 378

MPI task timing breakdown:
Section |  min time  |  avg time  |  max time  |%varavg| %total
---------------------------------------------------------------
Pair    | 0.57282    | 1.5879     | 2.0865     |  34.0 | 71.84
Neigh   | 0          | 0          | 0          |   0.0 |  0.00
Comm    | 0.034572   | 0.35917    | 1.082      |  50.3 | 16.25
Output  | 0.00014853 | 0.00015829 | 0.00029129 |   0.0 |  0.01
Modify  | 2.3705e-05 | 0.0031236  | 0.006637   |   2.6 |  0.14
Other   |            | 0.2599     |            |       | 11.76

Nlocal:        2776.45 ave        3961 max           0 min
Histogram: 8 4 4 0 6 10 8 2 28 34
Nghost:        3879.01 ave        5426 max         232 min
Histogram: 8 0 8 0 16 0 8 8 16 40
Neighs:        79213.4 ave      115455 max           0 min
Histogram: 8 4 4 0 10 6 8 8 24 32

Total # of neighbors = 8238189
Ave neighs/atom = 28.530426
Neighbor list builds = 0
Dangerous builds = 0
The dot product: 7.70270950624526e-09
Setting atom values ...
  1 settings made for x
  1 settings made for y
  1 settings made for z
Setting up cg style minimization ...
  Unit style    : metal
  Current step  : 3057
Per MPI rank memory allocation (min/avg/max) = 5.441 | 5.816 | 6.074 Mbytes
Step PotEng KinEng TotEng v_fx v_fy v_fz 
    3057   -1152449.4            0   -1152449.4 0.00096358778 -0.011456798  0.019446298 
    3231   -1152449.4            0   -1152449.4 -2.2032716e-05 -2.3665225e-05 4.2272165e-05 
Loop time of 2.04969 on 104 procs for 174 steps with 288751 atoms

99.9% CPU use with 104 MPI tasks x 1 OpenMP threads

Minimization stats:
  Stopping criterion = energy tolerance
  Energy initial, next-to-last, final = 
     -1152449.35029557  -1152449.35119035  -1152449.35119035
  Force two-norm initial, final = 0.12512365 0.0001821906
  Force max component initial, final = 0.052423442 4.2272165e-05
  Final line search alpha, max atom move = 1.0000000 4.2272165e-05
  Iterations, force evaluations = 174 348

MPI task timing breakdown:
Section |  min time  |  avg time  |  max time  |%varavg| %total
---------------------------------------------------------------
Pair    | 0.52655    | 1.4693     | 1.9297     |  32.7 | 71.68
Neigh   | 0          | 0          | 0          |   0.0 |  0.00
Comm    | 0.034614   | 0.33706    | 1.004      |  47.7 | 16.44
Output  | 0          | 0          | 0          |   0.0 |  0.00
Modify  | 2.1667e-05 | 0.0028771  | 0.00613    |   2.5 |  0.14
Other   |            | 0.2405     |            |       | 11.73

Nlocal:        2776.45 ave        3961 max           0 min
Histogram: 8 4 4 0 6 10 8 2 28 34
Nghost:        3879.01 ave        5424 max         232 min
Histogram: 8 0 8 0 16 0 8 8 16 40
Neighs:        79213.4 ave      115455 max           0 min
Histogram: 8 4 4 0 10 6 8 8 24 32

Total # of neighbors = 8238191
Ave neighs/atom = 28.530433
Neighbor list builds = 0
Dangerous builds = 0
The dot product: 2.04105096052497e-08
Setting atom values ...
  1 settings made for x
  1 settings made for y
  1 settings made for z
Setting up cg style minimization ...
  Unit style    : metal
  Current step  : 3231
Per MPI rank memory allocation (min/avg/max) = 5.441 | 5.816 | 6.074 Mbytes
Step PotEng KinEng TotEng v_fx v_fy v_fz 
    3231   -1152449.3            0   -1152449.3  0.001303271 -0.010609889  0.018030056 
    3432   -1152449.3            0   -1152449.3 2.1313125e-05 7.7476702e-06 -1.5094287e-05 
Loop time of 2.34751 on 104 procs for 201 steps with 288751 atoms

99.9% CPU use with 104 MPI tasks x 1 OpenMP threads

Minimization stats:
  Stopping criterion = energy tolerance
  Energy initial, next-to-last, final = 
     -1152449.34861471  -1152449.34949742  -1152449.34949742
  Force two-norm initial, final = 0.12421885 7.9141978e-05
  Force max component initial, final = 0.052278713 2.1313125e-05
  Final line search alpha, max atom move = 1.0000000 2.1313125e-05
  Iterations, force evaluations = 201 402

MPI task timing breakdown:
Section |  min time  |  avg time  |  max time  |%varavg| %total
---------------------------------------------------------------
Pair    | 0.60998    | 1.6935     | 2.2079     |  35.2 | 72.14
Neigh   | 0          | 0          | 0          |   0.0 |  0.00
Comm    | 0.037455   | 0.38137    | 1.1438     |  51.8 | 16.25
Output  | 0          | 0          | 0          |   0.0 |  0.00
Modify  | 2.5258e-05 | 0.0033136  | 0.0070637  |   2.7 |  0.14
Other   |            | 0.2694     |            |       | 11.47

Nlocal:        2776.45 ave        3961 max           0 min
Histogram: 8 4 4 0 6 10 8 2 28 34
Nghost:        3879.01 ave        5424 max         232 min
Histogram: 8 0 8 0 16 0 8 8 16 40
Neighs:        79213.4 ave      115455 max           0 min
Histogram: 8 4 4 0 10 6 8 8 24 32

Total # of neighbors = 8238191
Ave neighs/atom = 28.530433
Neighbor list builds = 0
Dangerous builds = 0
The dot product: -2.33532475756063e-09
Setting atom values ...
  1 settings made for x
  1 settings made for y
  1 settings made for z
Setting up cg style minimization ...
  Unit style    : metal
  Current step  : 3432
Per MPI rank memory allocation (min/avg/max) = 5.441 | 5.816 | 6.074 Mbytes
Step PotEng KinEng TotEng v_fx v_fy v_fz 
    3432   -1152449.3            0   -1152449.3 0.0014957181 -0.0095627935  0.016267907 
    3594   -1152449.3            0   -1152449.3 1.5037003e-05 4.416115e-05 -7.700134e-05 
Loop time of 1.88417 on 104 procs for 162 steps with 288751 atoms

99.9% CPU use with 104 MPI tasks x 1 OpenMP threads

Minimization stats:
  Stopping criterion = energy tolerance
  Energy initial, next-to-last, final = 
     -1152449.34557914  -1152449.34644751  -1152449.34644751
  Force two-norm initial, final = 0.123191 0.00026174734
  Force max component initial, final = 0.052202045 8.1749613e-05
  Final line search alpha, max atom move = 1.0000000 8.1749613e-05
  Iterations, force evaluations = 162 324

MPI task timing breakdown:
Section |  min time  |  avg time  |  max time  |%varavg| %total
---------------------------------------------------------------
Pair    | 0.49053    | 1.3624     | 1.7723     |  31.4 | 72.31
Neigh   | 0          | 0          | 0          |   0.0 |  0.00
Comm    | 0.031152   | 0.30682    | 0.91773    |  46.3 | 16.28
Output  | 0          | 0          | 0          |   0.0 |  0.00
Modify  | 1.9812e-05 | 0.0026701  | 0.0057072  |   2.4 |  0.14
Other   |            | 0.2122     |            |       | 11.26

Nlocal:        2776.45 ave        3961 max           0 min
Histogram: 8 4 4 0 6 10 8 2 28 34
Nghost:        3879.01 ave        5424 max         232 min
Histogram: 8 0 8 0 16 0 8 8 16 40
Neighs:        79213.4 ave      115445 max           0 min
Histogram: 8 4 4 0 10 6 8 8 24 32

Total # of neighbors = 8238190
Ave neighs/atom = 28.530429
Neighbor list builds = 0
Dangerous builds = 0
The dot product: -3.57620035339739e-08
Setting atom values ...
  1 settings made for x
  1 settings made for y
  1 settings made for z
Setting up cg style minimization ...
  Unit style    : metal
  Current step  : 3594
Per MPI rank memory allocation (min/avg/max) = 5.441 | 5.816 | 6.074 Mbytes
Step PotEng KinEng TotEng v_fx v_fy v_fz 
    3594   -1152449.3            0   -1152449.3  0.001324459 -0.0084928554  0.014484418 
    3768   -1152449.3            0   -1152449.3 -5.9207002e-05 -2.6644873e-06 9.5763196e-06 
Loop time of 2.03477 on 104 procs for 174 steps with 288751 atoms

99.9% CPU use with 104 MPI tasks x 1 OpenMP threads

Minimization stats:
  Stopping criterion = energy tolerance
  Energy initial, next-to-last, final = 
      -1152449.3411793  -1152449.34203518  -1152449.34203518
  Force two-norm initial, final = 0.12236305 0.00017716116
  Force max component initial, final = 0.052153556 5.9207002e-05
  Final line search alpha, max atom move = 1.0000000 5.9207002e-05
  Iterations, force evaluations = 174 348

MPI task timing breakdown:
Section |  min time  |  avg time  |  max time  |%varavg| %total
---------------------------------------------------------------
Pair    | 0.52647    | 1.4632     | 1.9042     |  32.5 | 71.91
Neigh   | 0          | 0          | 0          |   0.0 |  0.00
Comm    | 0.035961   | 0.3293     | 0.98695    |  48.3 | 16.18
Output  | 0          | 0          | 0          |   0.0 |  0.00
Modify  | 2.1833e-05 | 0.0028744  | 0.0061335  |   2.5 |  0.14
Other   |            | 0.2394     |            |       | 11.77

Nlocal:        2776.45 ave        3961 max           0 min
Histogram: 8 4 4 0 6 10 8 2 28 34
Nghost:        3879.01 ave        5424 max         232 min
Histogram: 8 0 8 0 16 0 8 8 16 40
Neighs:        79213.4 ave      115445 max           0 min
Histogram: 8 4 4 0 10 6 8 8 24 32

Total # of neighbors = 8238190
Ave neighs/atom = 28.530429
Neighbor list builds = 0
Dangerous builds = 0
The dot product: -1.05635050714803e-08
Setting atom values ...
  1 settings made for x
  1 settings made for y
  1 settings made for z
Setting up cg style minimization ...
  Unit style    : metal
  Current step  : 3768
Per MPI rank memory allocation (min/avg/max) = 5.441 | 5.816 | 6.074 Mbytes
Step PotEng KinEng TotEng v_fx v_fy v_fz 
    3768   -1152449.3            0   -1152449.3 0.00071273488 -0.0075372897  0.012918788 
    4000   -1152449.3            0   -1152449.3 -9.0346609e-07 -1.8445035e-06 3.251414e-06 
    4002   -1152449.3            0   -1152449.3 -3.6646514e-06 -2.8862109e-06 5.2755681e-06 
Loop time of 2.71713 on 104 procs for 234 steps with 288751 atoms

99.9% CPU use with 104 MPI tasks x 1 OpenMP threads

Minimization stats:
  Stopping criterion = energy tolerance
  Energy initial, next-to-last, final = 
     -1152449.33540081  -1152449.33624947  -1152449.33624947
  Force two-norm initial, final = 0.12194997 1.8063481e-05
  Force max component initial, final = 0.05192636 5.2755681e-06
  Final line search alpha, max atom move = 1.0000000 5.2755681e-06
  Iterations, force evaluations = 234 468

MPI task timing breakdown:
Section |  min time  |  avg time  |  max time  |%varavg| %total
---------------------------------------------------------------
Pair    | 0.70772    | 1.9707     | 2.5651     |  37.9 | 72.53
Neigh   | 0          | 0          | 0          |   0.0 |  0.00
Comm    | 0.046379   | 0.44229    | 1.3289     |  56.2 | 16.28
Output  | 9.5105e-05 | 0.00010238 | 0.00025136 |   0.0 |  0.00
Modify  | 2.8994e-05 | 0.0038529  | 0.008225   |   2.9 |  0.14
Other   |            | 0.3001     |            |       | 11.05

Nlocal:        2776.45 ave        3960 max           0 min
Histogram: 8 4 4 0 4 12 8 2 28 34
Nghost:        3879.01 ave        5424 max         232 min
Histogram: 8 0 8 0 16 0 8 8 16 40
Neighs:        79213.4 ave      115422 max           0 min
Histogram: 8 4 4 0 10 6 8 8 24 32

Total # of neighbors = 8238192
Ave neighs/atom = 28.530436
Neighbor list builds = 0
Dangerous builds = 0
The dot product: 1.290237907143e-09
Setting atom values ...
  1 settings made for x
  1 settings made for y
  1 settings made for z
Setting up cg style minimization ...
  Unit style    : metal
  Current step  : 4002
Per MPI rank memory allocation (min/avg/max) = 5.441 | 5.816 | 6.074 Mbytes
Step PotEng KinEng TotEng v_fx v_fy v_fz 
    4002   -1152449.3            0   -1152449.3 -0.00016479625 -0.0066036734  0.011402079 
    4191   -1152449.3            0   -1152449.3 2.5115564e-06 3.6831759e-06 -6.5599202e-06 
Loop time of 2.19804 on 104 procs for 189 steps with 288751 atoms

99.9% CPU use with 104 MPI tasks x 1 OpenMP threads

Minimization stats:
  Stopping criterion = energy tolerance
  Energy initial, next-to-last, final = 
     -1152449.32822437  -1152449.32907073  -1152449.32907073
  Force two-norm initial, final = 0.12187209 9.3521409e-05
  Force max component initial, final = 0.05177137 9.8964317e-06
  Final line search alpha, max atom move = 1.0000000 9.8964317e-06
  Iterations, force evaluations = 189 378

MPI task timing breakdown:
Section |  min time  |  avg time  |  max time  |%varavg| %total
---------------------------------------------------------------
Pair    | 0.57253    | 1.5879     | 2.071      |  34.0 | 72.24
Neigh   | 0          | 0          | 0          |   0.0 |  0.00
Comm    | 0.033852   | 0.35566    | 1.0714     |  50.3 | 16.18
Output  | 0          | 0          | 0          |   0.0 |  0.00
Modify  | 2.4072e-05 | 0.0031159  | 0.006671   |   2.6 |  0.14
Other   |            | 0.2513     |            |       | 11.43

Nlocal:        2776.45 ave        3959 max           0 min
Histogram: 8 4 4 0 4 12 8 2 28 34
Nghost:        3878.97 ave        5424 max         232 min
Histogram: 8 0 8 0 16 0 8 8 16 40
Neighs:        79213.4 ave      115394 max           0 min
Histogram: 8 4 4 0 10 6 8 8 24 32

Total # of neighbors = 8238189
Ave neighs/atom = 28.530426
Neighbor list builds = 0
Dangerous builds = 0
The dot product: -2.03253474573459e-09
Setting atom values ...
  1 settings made for x
  1 settings made for y
  1 settings made for z
Setting up cg style minimization ...
  Unit style    : metal
  Current step  : 4191
Per MPI rank memory allocation (min/avg/max) = 5.441 | 5.816 | 6.074 Mbytes
Step PotEng KinEng TotEng v_fx v_fy v_fz 
    4191   -1152449.3            0   -1152449.3 -0.0014788446 -0.0057771316  0.010099116 
    4421   -1152449.3            0   -1152449.3 1.4958259e-06 -6.1006458e-07 9.3003392e-07 
Loop time of 2.72218 on 104 procs for 230 steps with 288751 atoms

99.9% CPU use with 104 MPI tasks x 1 OpenMP threads

Minimization stats:
  Stopping criterion = energy tolerance
  Energy initial, next-to-last, final = 
     -1152449.31962003  -1152449.32047027  -1152449.32047027
  Force two-norm initial, final = 0.12215432 2.0069534e-05
  Force max component initial, final = 0.051631655 3.8363246e-06
  Final line search alpha, max atom move = 1.0000000 3.8363246e-06
  Iterations, force evaluations = 230 460

MPI task timing breakdown:
Section |  min time  |  avg time  |  max time  |%varavg| %total
---------------------------------------------------------------
Pair    | 0.69674    | 1.9484     | 2.5516     |  37.8 | 71.58
Neigh   | 0          | 0          | 0          |   0.0 |  0.00
Comm    | 0.04661    | 0.44553    | 1.3398     |  55.1 | 16.37
Output  | 0          | 0          | 0          |   0.0 |  0.00
Modify  | 2.8405e-05 | 0.0037941  | 0.0080718  |   2.9 |  0.14
Other   |            | 0.3244     |            |       | 11.92

Nlocal:        2776.45 ave        3955 max           0 min
Histogram: 8 4 4 0 4 12 8 0 30 34
Nghost:        3879.05 ave        5424 max         232 min
Histogram: 8 0 8 0 16 0 8 8 16 40
Neighs:        79213.3 ave      115279 max           0 min
Histogram: 8 4 4 0 10 6 8 8 24 32

Total # of neighbors = 8238188
Ave neighs/atom = 28.530422
Neighbor list builds = 0
Dangerous builds = 0
The dot product: 2.49208712421946e-10
Setting atom values ...
  1 settings made for x
  1 settings made for y
  1 settings made for z
Setting up cg style minimization ...
  Unit style    : metal
  Current step  : 4421
Per MPI rank memory allocation (min/avg/max) = 5.441 | 5.816 | 6.074 Mbytes
Step PotEng KinEng TotEng v_fx v_fy v_fz 
    4421   -1152449.3            0   -1152449.3 -0.0031643272 -0.0050585403 0.0090082193 
    4581   -1152449.3            0   -1152449.3 2.9074874e-05 2.3509769e-05 -4.3055303e-05 
Loop time of 1.86288 on 104 procs for 160 steps with 288751 atoms

99.9% CPU use with 104 MPI tasks x 1 OpenMP threads

Minimization stats:
  Stopping criterion = energy tolerance
  Energy initial, next-to-last, final = 
     -1152449.30955667  -1152449.31041365  -1152449.31041365
  Force two-norm initial, final = 0.12269924 0.00026112353
  Force max component initial, final = 0.051454204 4.3055303e-05
  Final line search alpha, max atom move = 1.0000000 4.3055303e-05
  Iterations, force evaluations = 160 320

MPI task timing breakdown:
Section |  min time  |  avg time  |  max time  |%varavg| %total
---------------------------------------------------------------
Pair    | 0.48214    | 1.3426     | 1.7542     |  31.3 | 72.07
Neigh   | 0          | 0          | 0          |   0.0 |  0.00
Comm    | 0.028003   | 0.3032     | 0.91066    |  46.0 | 16.28
Output  | 0          | 0          | 0          |   0.0 |  0.00
Modify  | 1.947e-05  | 0.0026382  | 0.0056398  |   2.4 |  0.14
Other   |            | 0.2145     |            |       | 11.51

Nlocal:        2776.45 ave        3953 max           0 min
Histogram: 8 4 4 0 4 12 8 0 30 34
Nghost:        3879.07 ave        5424 max         232 min
Histogram: 8 0 8 0 16 0 8 8 16 40
Neighs:        79213.4 ave      115206 max           0 min
Histogram: 8 4 4 0 10 6 8 8 24 32

Total # of neighbors = 8238189
Ave neighs/atom = 28.530426
Neighbor list builds = 0
Dangerous builds = 0
The dot product: -1.80783175355898e-08
Setting atom values ...
  1 settings made for x
  1 settings made for y
  1 settings made for z
Setting up cg style minimization ...
  Unit style    : metal
  Current step  : 4581
Per MPI rank memory allocation (min/avg/max) = 5.441 | 5.816 | 6.074 Mbytes
Step PotEng KinEng TotEng v_fx v_fy v_fz 
    4581   -1152449.3            0   -1152449.3 -0.0051518469 -0.004501973 0.0082231647 
    4770   -1152449.3            0   -1152449.3 1.1231129e-06 -1.1926344e-05 2.0551699e-05 
Loop time of 2.2154 on 104 procs for 189 steps with 288751 atoms

99.9% CPU use with 104 MPI tasks x 1 OpenMP threads

Minimization stats:
  Stopping criterion = energy tolerance
  Energy initial, next-to-last, final = 
     -1152449.29800584  -1152449.29886922  -1152449.29886922
  Force two-norm initial, final = 0.12335696 9.9162520e-05
  Force max component initial, final = 0.051314999 2.0551699e-05
  Final line search alpha, max atom move = 1.0000000 2.0551699e-05
  Iterations, force evaluations = 189 378

MPI task timing breakdown:
Section |  min time  |  avg time  |  max time  |%varavg| %total
---------------------------------------------------------------
Pair    | 0.57069    | 1.5955     | 2.092      |  34.2 | 72.02
Neigh   | 0          | 0          | 0          |   0.0 |  0.00
Comm    | 0.041093   | 0.3626     | 1.0882     |  50.0 | 16.37
Output  | 0          | 0          | 0          |   0.0 |  0.00
Modify  | 2.2722e-05 | 0.003123   | 0.0066865  |   2.6 |  0.14
Other   |            | 0.2542     |            |       | 11.47

Nlocal:        2776.45 ave        3951 max           0 min
Histogram: 8 4 4 0 4 12 8 0 30 34
Nghost:        3879.12 ave        5425 max         232 min
Histogram: 8 0 8 0 16 0 8 8 16 40
Neighs:        79213.4 ave      115126 max           0 min
Histogram: 8 4 4 0 10 6 8 8 24 32

Total # of neighbors = 8238189
Ave neighs/atom = 28.530426
Neighbor list builds = 0
Dangerous builds = 0
The dot product: 5.44794589840946e-09
Setting atom values ...
  1 settings made for x
  1 settings made for y
  1 settings made for z
Setting up cg style minimization ...
  Unit style    : metal
  Current step  : 4770
Per MPI rank memory allocation (min/avg/max) = 5.441 | 5.816 | 6.074 Mbytes
Step PotEng KinEng TotEng v_fx v_fy v_fz 
    4770   -1152449.3            0   -1152449.3 -0.0074992313 -0.0042858585 0.0080613784 
    4960   -1152449.3            0   -1152449.3 -3.1449212e-05 5.5293266e-07 1.7033035e-06 
Loop time of 2.21231 on 104 procs for 190 steps with 288751 atoms

99.9% CPU use with 104 MPI tasks x 1 OpenMP threads

Minimization stats:
  Stopping criterion = energy tolerance
  Energy initial, next-to-last, final = 
     -1152449.28494825  -1152449.28581345  -1152449.28581345
  Force two-norm initial, final = 0.12402609 9.7764414e-05
  Force max component initial, final = 0.051094066 3.1449212e-05
  Final line search alpha, max atom move = 1.0000000 3.1449212e-05
  Iterations, force evaluations = 190 380

MPI task timing breakdown:
Section |  min time  |  avg time  |  max time  |%varavg| %total
---------------------------------------------------------------
Pair    | 0.5727     | 1.5977     | 2.081      |  34.2 | 72.22
Neigh   | 0          | 0          | 0          |   0.0 |  0.00
Comm    | 0.035016   | 0.35897    | 1.082      |  50.6 | 16.23
Output  | 0          | 0          | 0          |   0.0 |  0.00
Modify  | 2.3765e-05 | 0.0031315  | 0.0066934  |   2.6 |  0.14
Other   |            | 0.2525     |            |       | 11.41

Nlocal:        2776.45 ave        3949 max           0 min
Histogram: 8 4 4 0 4 12 8 0 28 36
Nghost:        3879.12 ave        5425 max         232 min
Histogram: 8 0 8 0 16 0 8 8 16 40
Neighs:        79213.3 ave      115063 max           0 min
Histogram: 8 4 4 0 10 6 8 8 24 32

Total # of neighbors = 8238187
Ave neighs/atom = 28.530419
Neighbor list builds = 0
Dangerous builds = 0
The dot product: 1.55105199120475e-08
Setting atom values ...
  1 settings made for x
  1 settings made for y
  1 settings made for z
Setting up cg style minimization ...
  Unit style    : metal
  Current step  : 4960
Per MPI rank memory allocation (min/avg/max) = 5.441 | 5.816 | 6.074 Mbytes
Step PotEng KinEng TotEng v_fx v_fy v_fz 
    4960   -1152449.3            0   -1152449.3 -0.010084558 -0.0045422792 0.0087524543 
    5000   -1152449.3            0   -1152449.3 -0.00029864837 -0.00026822473 0.00049119135 
    5139   -1152449.3            0   -1152449.3 1.086645e-07 5.0501582e-06 -8.7717723e-06 
Loop time of 2.07592 on 104 procs for 179 steps with 288751 atoms

99.9% CPU use with 104 MPI tasks x 1 OpenMP threads

Minimization stats:
  Stopping criterion = energy tolerance
  Energy initial, next-to-last, final = 
     -1152449.27038111  -1152449.27124121  -1152449.27124121
  Force two-norm initial, final = 0.12459034 0.00013026048
  Force max component initial, final = 0.050935181 8.7717723e-06
  Final line search alpha, max atom move = 1.0000000 8.7717723e-06
  Iterations, force evaluations = 179 358

MPI task timing breakdown:
Section |  min time  |  avg time  |  max time  |%varavg| %total
---------------------------------------------------------------
Pair    | 0.53856    | 1.5077     | 1.9526     |  33.2 | 72.63
Neigh   | 0          | 0          | 0          |   0.0 |  0.00
Comm    | 0.033778   | 0.33936    | 1.0165     |  49.0 | 16.35
Output  | 0.00014928 | 0.00015131 | 0.00023895 |   0.0 |  0.01
Modify  | 2.1786e-05 | 0.0029576  | 0.0063234  |   2.6 |  0.14
Other   |            | 0.2258     |            |       | 10.88

Nlocal:        2776.45 ave        3943 max           0 min
Histogram: 8 4 4 0 4 12 8 0 28 36
Nghost:        3879.12 ave        5425 max         232 min
Histogram: 8 0 8 0 16 0 8 8 16 40
Neighs:        79213.3 ave      114879 max           0 min
Histogram: 8 4 4 0 10 6 8 8 22 34

Total # of neighbors = 8238186
Ave neighs/atom = 28.530415
Neighbor list builds = 0
Dangerous builds = 0
The dot product: -5.09056931794711e-09
Setting atom values ...
  1 settings made for x
  1 settings made for y
  1 settings made for z
Setting up cg style minimization ...
  Unit style    : metal
  Current step  : 5139
Per MPI rank memory allocation (min/avg/max) = 5.441 | 5.816 | 6.074 Mbytes
Step PotEng KinEng TotEng v_fx v_fy v_fz 
    5139   -1152449.3            0   -1152449.3 -0.012735989 -0.0055561363  0.010790413 
    5316   -1152449.3            0   -1152449.3 3.6762758e-05 1.361411e-05 -2.6933133e-05 
Loop time of 2.05857 on 104 procs for 177 steps with 288751 atoms

99.9% CPU use with 104 MPI tasks x 1 OpenMP threads

Minimization stats:
  Stopping criterion = energy tolerance
  Energy initial, next-to-last, final = 
     -1152449.25433232  -1152449.25517908  -1152449.25517908
  Force two-norm initial, final = 0.12516225 0.00015039336
  Force max component initial, final = 0.050776384 3.6762758e-05
  Final line search alpha, max atom move = 1.0000000 3.6762758e-05
  Iterations, force evaluations = 177 354

MPI task timing breakdown:
Section |  min time  |  avg time  |  max time  |%varavg| %total
---------------------------------------------------------------
Pair    | 0.53661    | 1.491      | 1.9395     |  33.0 | 72.43
Neigh   | 0          | 0          | 0          |   0.0 |  0.00
Comm    | 0.034237   | 0.3334     | 1.0066     |  48.9 | 16.20
Output  | 0          | 0          | 0          |   0.0 |  0.00
Modify  | 2.174e-05  | 0.0029155  | 0.0062192  |   2.5 |  0.14
Other   |            | 0.2313     |            |       | 11.23

Nlocal:        2776.45 ave        3934 max           0 min
Histogram: 8 4 4 0 4 12 8 0 28 36
Nghost:        3879.11 ave        5425 max         232 min
Histogram: 8 0 8 0 16 0 8 8 16 40
Neighs:        79213.3 ave      114599 max           0 min
Histogram: 8 4 4 0 8 8 8 8 20 36

Total # of neighbors = 8238187
Ave neighs/atom = 28.530419
Neighbor list builds = 0
Dangerous builds = 0
The dot product: -5.97478416468145e-08
Setting atom values ...
  1 settings made for x
  1 settings made for y
  1 settings made for z
Setting up cg style minimization ...
  Unit style    : metal
  Current step  : 5316
Per MPI rank memory allocation (min/avg/max) = 5.441 | 5.816 | 6.074 Mbytes
Step PotEng KinEng TotEng v_fx v_fy v_fz 
    5316   -1152449.2            0   -1152449.2 -0.015626982 -0.0077177122  0.014899977 
    5480   -1152449.2            0   -1152449.2 -1.6294386e-05 -2.5027626e-05 4.5155178e-05 
Loop time of 1.94928 on 104 procs for 164 steps with 288751 atoms

99.8% CPU use with 104 MPI tasks x 1 OpenMP threads

Minimization stats:
  Stopping criterion = energy tolerance
  Energy initial, next-to-last, final = 
     -1152449.23688912  -1152449.23772543  -1152449.23772543
  Force two-norm initial, final = 0.12644141 0.0002256628
  Force max component initial, final = 0.050690024 6.6855005e-05
  Final line search alpha, max atom move = 1.0000000 6.6855005e-05
  Iterations, force evaluations = 164 328

MPI task timing breakdown:
Section |  min time  |  avg time  |  max time  |%varavg| %total
---------------------------------------------------------------
Pair    | 0.49478    | 1.3869     | 1.8012     |  31.9 | 71.15
Neigh   | 0          | 0          | 0          |   0.0 |  0.00
Comm    | 0.033045   | 0.31752    | 0.93908    |  46.0 | 16.29
Output  | 0          | 0          | 0          |   0.0 |  0.00
Modify  | 2.0596e-05 | 0.0027075  | 0.0057735  |   2.4 |  0.14
Other   |            | 0.2422     |            |       | 12.42

Nlocal:        2776.45 ave        3930 max           0 min
Histogram: 8 4 4 0 4 12 8 0 26 38
Nghost:        3879.11 ave        5425 max         232 min
Histogram: 8 0 8 0 16 0 8 8 16 40
Neighs:        79213.3 ave      114474 max           0 min
Histogram: 8 4 4 0 8 8 8 8 20 36

Total # of neighbors = 8238185
Ave neighs/atom = 28.530412
Neighbor list builds = 0
Dangerous builds = 0
The dot product: 1.14932042605651e-07
Setting atom values ...
  1 settings made for x
  1 settings made for y
  1 settings made for z
Setting up cg style minimization ...
  Unit style    : metal
  Current step  : 5480
Per MPI rank memory allocation (min/avg/max) = 5.441 | 5.816 | 6.074 Mbytes
Step PotEng KinEng TotEng v_fx v_fy v_fz 
    5480   -1152449.2            0   -1152449.2 -0.018890228 -0.011899324  0.022716339 
    5833   -1152449.2            0   -1152449.2 2.0943864e-07 3.7464153e-07 -6.7813172e-07 
Loop time of 4.10771 on 104 procs for 353 steps with 288751 atoms

99.9% CPU use with 104 MPI tasks x 1 OpenMP threads

Minimization stats:
  Stopping criterion = energy tolerance
  Energy initial, next-to-last, final = 
     -1152449.21829561  -1152449.24984721  -1152449.24984721
  Force two-norm initial, final = 0.13077572 2.6867376e-06
  Force max component initial, final = 0.050879504 6.7813172e-07
  Final line search alpha, max atom move = 1.0000000 6.7813172e-07
  Iterations, force evaluations = 353 704

MPI task timing breakdown:
Section |  min time  |  avg time  |  max time  |%varavg| %total
---------------------------------------------------------------
Pair    | 1.0745     | 2.9507     | 3.8295     |  46.0 | 71.83
Neigh   | 1.0456e-05 | 0.0029601  | 0.0043337  |   2.2 |  0.07
Comm    | 0.07157    | 0.66217    | 1.9978     |  68.2 | 16.12
Output  | 0          | 0          | 0          |   0.0 |  0.00
Modify  | 4.2751e-05 | 0.0057916  | 0.012367   |   3.6 |  0.14
Other   |            | 0.4861     |            |       | 11.83

Nlocal:        2776.45 ave        3930 max           0 min
Histogram: 8 4 4 0 4 12 8 0 26 38
Nghost:        3879.11 ave        5425 max         232 min
Histogram: 8 0 8 0 16 0 8 8 16 40
Neighs:        79213.3 ave      114485 max           0 min
Histogram: 8 4 4 0 8 8 8 8 20 36

Total # of neighbors = 8238182
Ave neighs/atom = 28.530402
Neighbor list builds = 1
Dangerous builds = 0
The dot product: -6.52644809161104e-08
Setting atom values ...
  1 settings made for x
  1 settings made for y
  1 settings made for z
Setting up cg style minimization ...
  Unit style    : metal
  Current step  : 5833
Per MPI rank memory allocation (min/avg/max) = 5.441 | 5.816 | 6.074 Mbytes
Step PotEng KinEng TotEng v_fx v_fy v_fz 
    5833   -1152449.2            0   -1152449.2 -0.044326588 -0.0072179365  0.023913097 
    6000   -1152449.2            0   -1152449.2 7.5069127e-05 6.636282e-05 -0.00017190494 
    6050   -1152449.2            0   -1152449.2 4.7551487e-06 5.0298513e-06 -1.2894425e-05 
Loop time of 2.54025 on 104 procs for 217 steps with 288751 atoms

99.9% CPU use with 104 MPI tasks x 1 OpenMP threads

Minimization stats:
  Stopping criterion = energy tolerance
  Energy initial, next-to-last, final = 
     -1152449.24547944  -1152449.24943226  -1152449.24943226
  Force two-norm initial, final = 0.15133697 0.00015337903
  Force max component initial, final = 0.066563744 2.8535101e-05
  Final line search alpha, max atom move = 1.0000000 2.8535101e-05
  Iterations, force evaluations = 217 434

MPI task timing breakdown:
Section |  min time  |  avg time  |  max time  |%varavg| %total
---------------------------------------------------------------
Pair    | 0.65793    | 1.8322     | 2.3987     |  36.6 | 72.13
Neigh   | 0          | 0          | 0          |   0.0 |  0.00
Comm    | 0.048738   | 0.41431    | 1.239      |  53.9 | 16.31
Output  | 8.809e-05  | 9.9151e-05 | 0.00024987 |   0.0 |  0.00
Modify  | 2.6668e-05 | 0.0035803  | 0.0076781  |   2.8 |  0.14
Other   |            | 0.2901     |            |       | 11.42

Nlocal:        2776.45 ave        3961 max           0 min
Histogram: 8 4 4 0 6 10 8 2 28 34
Nghost:        3879.01 ave        5424 max         232 min
Histogram: 8 0 8 0 16 0 8 8 16 40
Neighs:        79213.3 ave      115445 max           0 min
Histogram: 8 4 4 0 10 6 8 8 24 32

Total # of neighbors = 8238183
Ave neighs/atom = 28.530405
Neighbor list builds = 0
Dangerous builds = 0
The dot product: -5.7216188689316e-07
Setting atom values ...
  1 settings made for x
  1 settings made for y
  1 settings made for z
Setting up cg style minimization ...
  Unit style    : metal
  Current step  : 6050
Per MPI rank memory allocation (min/avg/max) = 5.441 | 5.816 | 6.074 Mbytes
Step PotEng KinEng TotEng v_fx v_fy v_fz 
    6050   -1152449.3            0   -1152449.3 -0.039521714 0.0064374793 -0.0020382308 
    6179   -1152449.3            0   -1152449.3 -1.8717665e-05 -2.3156769e-05 6.9351765e-05 
Loop time of 1.51676 on 104 procs for 129 steps with 288751 atoms

99.9% CPU use with 104 MPI tasks x 1 OpenMP threads

Minimization stats:
  Stopping criterion = energy tolerance
  Energy initial, next-to-last, final = 
     -1152449.25060601  -1152449.25241256  -1152449.25241256
  Force two-norm initial, final = 0.15323771 0.00024100674
  Force max component initial, final = 0.068413946 6.9351765e-05
  Final line search alpha, max atom move = 1.0000000 6.9351765e-05
  Iterations, force evaluations = 129 258

MPI task timing breakdown:
Section |  min time  |  avg time  |  max time  |%varavg| %total
---------------------------------------------------------------
Pair    | 0.39123    | 1.0872     | 1.4312     |  28.3 | 71.68
Neigh   | 0          | 0          | 0          |   0.0 |  0.00
Comm    | 0.023262   | 0.24596    | 0.73586    |  41.3 | 16.22
Output  | 0          | 0          | 0          |   0.0 |  0.00
Modify  | 1.5998e-05 | 0.0021313  | 0.0045363  |   2.2 |  0.14
Other   |            | 0.1815     |            |       | 11.97

Nlocal:        2776.45 ave        3960 max           0 min
Histogram: 8 4 4 0 4 12 8 2 28 34
Nghost:        3879.01 ave        5424 max         232 min
Histogram: 8 0 8 0 16 0 8 8 16 40
Neighs:        79213.3 ave      115434 max           0 min
Histogram: 8 4 4 0 10 6 8 8 24 32

Total # of neighbors = 8238186
Ave neighs/atom = 28.530415
Neighbor list builds = 0
Dangerous builds = 0
The dot product: 6.2287626926671e-07
Setting atom values ...
  1 settings made for x
  1 settings made for y
  1 settings made for z
Setting up cg style minimization ...
  Unit style    : metal
  Current step  : 6179
Per MPI rank memory allocation (min/avg/max) = 5.441 | 5.816 | 6.074 Mbytes
Step PotEng KinEng TotEng v_fx v_fy v_fz 
    6179   -1152449.3            0   -1152449.3 -0.050439686  0.012649171 -0.013353923 
    6274   -1152449.3            0   -1152449.3 -6.876206e-06 -1.0035873e-05 3.0673971e-05 
Loop time of 1.11669 on 104 procs for 95 steps with 288751 atoms

99.9% CPU use with 104 MPI tasks x 1 OpenMP threads

Minimization stats:
  Stopping criterion = energy tolerance
  Energy initial, next-to-last, final = 
     -1152449.25447536  -1152449.25567178  -1152449.25567178
  Force two-norm initial, final = 0.15240935 0.0001244937
  Force max component initial, final = 0.068554636 3.0673971e-05
  Final line search alpha, max atom move = 1.0000000 3.0673971e-05
  Iterations, force evaluations = 95 190

MPI task timing breakdown:
Section |  min time  |  avg time  |  max time  |%varavg| %total
---------------------------------------------------------------
Pair    | 0.28903    | 0.80549    | 1.0535     |  24.3 | 72.13
Neigh   | 0          | 0          | 0          |   0.0 |  0.00
Comm    | 0.01993    | 0.18303    | 0.54939    |  35.6 | 16.39
Output  | 0          | 0          | 0          |   0.0 |  0.00
Modify  | 1.1563e-05 | 0.0015767  | 0.0033863  |   1.9 |  0.14
Other   |            | 0.1266     |            |       | 11.34

Nlocal:        2776.45 ave        3960 max           0 min
Histogram: 8 4 4 0 4 12 8 2 28 34
Nghost:        3879.01 ave        5424 max         232 min
Histogram: 8 0 8 0 16 0 8 8 16 40
Neighs:        79213.3 ave      115434 max           0 min
Histogram: 8 4 4 0 10 6 8 8 24 32

Total # of neighbors = 8238182
Ave neighs/atom = 28.530402
Neighbor list builds = 0
Dangerous builds = 0
The dot product: 1.21869842337507e-07
Setting atom values ...
  1 settings made for x
  1 settings made for y
  1 settings made for z
Setting up cg style minimization ...
  Unit style    : metal
  Current step  : 6274
Per MPI rank memory allocation (min/avg/max) = 5.441 | 5.816 | 6.074 Mbytes
Step PotEng KinEng TotEng v_fx v_fy v_fz 
    6274   -1152449.3            0   -1152449.3 -0.057353789  0.017182134 -0.020784055 
    6505   -1152449.3            0   -1152449.3 -5.0806725e-06 -1.6663542e-05 4.8785551e-05 
Loop time of 2.72331 on 104 procs for 231 steps with 288751 atoms

99.9% CPU use with 104 MPI tasks x 1 OpenMP threads

Minimization stats:
  Stopping criterion = energy tolerance
  Energy initial, next-to-last, final = 
     -1152449.25708345  -1152449.29835321  -1152449.29835321
  Force two-norm initial, final = 0.15804731 0.00019675125
  Force max component initial, final = 0.067629935 4.8785551e-05
  Final line search alpha, max atom move = 1.0000000 4.8785551e-05
  Iterations, force evaluations = 231 461

MPI task timing breakdown:
Section |  min time  |  avg time  |  max time  |%varavg| %total
---------------------------------------------------------------
Pair    | 0.70097    | 1.9414     | 2.5381     |  37.6 | 71.29
Neigh   | 1.02e-05   | 0.0029578  | 0.0043527  |   2.2 |  0.11
Comm    | 0.041535   | 0.43744    | 1.3062     |  55.2 | 16.06
Output  | 0          | 0          | 0          |   0.0 |  0.00
Modify  | 2.8364e-05 | 0.0038103  | 0.0081371  |   2.9 |  0.14
Other   |            | 0.3377     |            |       | 12.40

Nlocal:        2776.45 ave        3960 max           0 min
Histogram: 8 4 4 0 4 12 8 2 28 34
Nghost:        3879.01 ave        5424 max         232 min
Histogram: 8 0 8 0 16 0 8 8 16 40
Neighs:        79213.4 ave      115434 max           0 min
Histogram: 8 4 4 0 10 6 8 8 24 32

Total # of neighbors = 8238193
Ave neighs/atom = 28.530440
Neighbor list builds = 1
Dangerous builds = 0
The dot product: 1.71616166344476e-06
Setting atom values ...
  1 settings made for x
  1 settings made for y
  1 settings made for z
Setting up cg style minimization ...
  Unit style    : metal
  Current step  : 6505
Per MPI rank memory allocation (min/avg/max) = 5.441 | 5.816 | 6.074 Mbytes
Step PotEng KinEng TotEng v_fx v_fy v_fz 
    6505   -1152449.3            0   -1152449.3   0.06373983 -0.0040507288 -0.058367302 
    6821   -1152449.3            0   -1152449.3 1.8906531e-07 -3.0319584e-08 -1.1719233e-07 
Loop time of 3.73206 on 104 procs for 316 steps with 288751 atoms

99.9% CPU use with 104 MPI tasks x 1 OpenMP threads

Minimization stats:
  Stopping criterion = energy tolerance
  Energy initial, next-to-last, final = 
     -1152449.30957089  -1152449.31181825  -1152449.31181825
  Force two-norm initial, final = 0.16190788 1.1057888e-06
  Force max component initial, final = 0.06373983 1.8906531e-07
  Final line search alpha, max atom move = 1.0000000 1.8906531e-07
  Iterations, force evaluations = 316 632

MPI task timing breakdown:
Section |  min time  |  avg time  |  max time  |%varavg| %total
---------------------------------------------------------------
Pair    | 0.95782    | 2.6658     | 3.494      |  44.0 | 71.43
Neigh   | 0          | 0          | 0          |   0.0 |  0.00
Comm    | 0.068139   | 0.60979    | 1.8181     |  64.3 | 16.34
Output  | 0          | 0          | 0          |   0.0 |  0.00
Modify  | 3.7358e-05 | 0.0052178  | 0.011251   |   3.4 |  0.14
Other   |            | 0.4513     |            |       | 12.09

Nlocal:        2776.45 ave        3960 max           0 min
Histogram: 8 4 4 0 4 12 8 4 26 34
Nghost:        3879.01 ave        5424 max         232 min
Histogram: 8 0 8 0 16 0 8 8 16 40
Neighs:        79213.4 ave      115438 max           0 min
Histogram: 8 4 4 0 10 6 8 8 24 32

Total # of neighbors = 8238197
Ave neighs/atom = 28.530454
Neighbor list builds = 0
Dangerous builds = 0
The dot product: 4.92126210785198e-09
Setting atom values ...
  1 settings made for x
  1 settings made for y
  1 settings made for z
Setting up cg style minimization ...
  Unit style    : metal
  Current step  : 6821
Per MPI rank memory allocation (min/avg/max) = 5.441 | 5.816 | 6.074 Mbytes
Step PotEng KinEng TotEng v_fx v_fy v_fz 
    6821   -1152449.3            0   -1152449.3 -0.064368218   0.03031279 -0.027203074 
    6949   -1152449.3            0   -1152449.3 2.6019535e-05 5.5845903e-06 -4.2461343e-05 
Loop time of 1.49885 on 104 procs for 128 steps with 288751 atoms

99.9% CPU use with 104 MPI tasks x 1 OpenMP threads

Minimization stats:
  Stopping criterion = energy tolerance
  Energy initial, next-to-last, final = 
     -1152449.32107062  -1152449.32231471  -1152449.32231471
  Force two-norm initial, final = 0.16164106 0.00023166077
  Force max component initial, final = 0.064368218 4.2461343e-05
  Final line search alpha, max atom move = 1.0000000 4.2461343e-05
  Iterations, force evaluations = 128 256

MPI task timing breakdown:
Section |  min time  |  avg time  |  max time  |%varavg| %total
---------------------------------------------------------------
Pair    | 0.38696    | 1.0772     | 1.4095     |  28.1 | 71.87
Neigh   | 0          | 0          | 0          |   0.0 |  0.00
Comm    | 0.024662   | 0.24342    | 0.72843    |  41.2 | 16.24
Output  | 0          | 0          | 0          |   0.0 |  0.00
Modify  | 1.5954e-05 | 0.0021163  | 0.0045342  |   2.2 |  0.14
Other   |            | 0.1761     |            |       | 11.75

Nlocal:        2776.45 ave        3960 max           0 min
Histogram: 8 4 4 0 4 12 8 4 26 34
Nghost:        3879.03 ave        5424 max         232 min
Histogram: 8 0 8 0 16 0 8 8 16 40
Neighs:        79213.4 ave      115438 max           0 min
Histogram: 8 4 4 0 10 6 8 8 24 32

Total # of neighbors = 8238195
Ave neighs/atom = 28.530447
Neighbor list builds = 0
Dangerous builds = 0
The dot product: -1.08054151575916e-07
Setting atom values ...
  1 settings made for x
  1 settings made for y
  1 settings made for z
Setting up cg style minimization ...
  Unit style    : metal
  Current step  : 6949
Per MPI rank memory allocation (min/avg/max) = 5.441 | 5.816 | 6.074 Mbytes
Step PotEng KinEng TotEng v_fx v_fy v_fz 
    6949   -1152449.3            0   -1152449.3 -0.047014553   0.02656109 -0.031452966 
    7000   -1152449.3            0   -1152449.3 -0.00013878467 -6.8595391e-05 0.00034428569 
    7169   -1152449.3            0   -1152449.3 3.703945e-06 1.8109844e-06 -9.1298074e-06 
Loop time of 2.57577 on 104 procs for 220 steps with 288751 atoms

99.9% CPU use with 104 MPI tasks x 1 OpenMP threads

Minimization stats:
  Stopping criterion = energy tolerance
  Energy initial, next-to-last, final = 
     -1152449.32999555  -1152449.33118252  -1152449.33118252
  Force two-norm initial, final = 0.1566583 3.2133267e-05
  Force max component initial, final = 0.056548967 9.1298074e-06
  Final line search alpha, max atom move = 1.0000000 9.1298074e-06
  Iterations, force evaluations = 220 440

MPI task timing breakdown:
Section |  min time  |  avg time  |  max time  |%varavg| %total
---------------------------------------------------------------
Pair    | 0.66725    | 1.8587     | 2.4199     |  36.8 | 72.16
Neigh   | 0          | 0          | 0          |   0.0 |  0.00
Comm    | 0.042429   | 0.4214     | 1.2521     |  54.0 | 16.36
Output  | 9.9413e-05 | 0.00011031 | 0.00020663 |   0.0 |  0.00
Modify  | 2.8013e-05 | 0.0036309  | 0.0077448  |   2.8 |  0.14
Other   |            | 0.292      |            |       | 11.34

Nlocal:        2776.45 ave        3960 max           0 min
Histogram: 8 4 4 0 4 12 8 4 26 34
Nghost:        3879.03 ave        5424 max         232 min
Histogram: 8 0 8 0 16 0 8 8 16 40
Neighs:        79213.4 ave      115438 max           0 min
Histogram: 8 4 4 0 10 6 8 8 24 32

Total # of neighbors = 8238197
Ave neighs/atom = 28.530454
Neighbor list builds = 0
Dangerous builds = 0
The dot product: 1.05648252250466e-08
Setting atom values ...
  1 settings made for x
  1 settings made for y
  1 settings made for z
Setting up cg style minimization ...
  Unit style    : metal
  Current step  : 7169
Per MPI rank memory allocation (min/avg/max) = 5.441 | 5.816 | 6.074 Mbytes
Step PotEng KinEng TotEng v_fx v_fy v_fz 
    7169   -1152449.3            0   -1152449.3 -0.051126288  0.028049144  -0.03086497 
    7354   -1152449.3            0   -1152449.3 -1.344243e-05 1.1791541e-06 1.0139899e-05 
[...]
Histogram: 8 4 4 0 6 10 8 4 26 34
Nghost:        3879.05 ave        5425 max         232 min
Histogram: 8 0 8 0 16 0 8 8 16 40
Neighs:        79213.2 ave      115465 max           0 min
Histogram: 8 4 4 0 10 6 8 8 24 32

Total # of neighbors = 8238176
Ave neighs/atom = 28.530381
Neighbor list builds = 0
Dangerous builds = 0
The dot product: 1.06591634618252e-07
Setting atom values ...
  1 settings made for x
  1 settings made for y
  1 settings made for z
Setting up cg style minimization ...
  Unit style    : metal
  Current step  : 26709
Per MPI rank memory allocation (min/avg/max) = 5.441 | 5.816 | 6.074 Mbytes
Step PotEng KinEng TotEng v_fx v_fy v_fz 
   26709   -1152449.2            0   -1152449.2 -0.0036974437  0.010680467  0.015822233 
   26886   -1152449.2            0   -1152449.2 2.0951046e-05 -5.2204214e-07 -1.5671523e-05 
Loop time of 2.10474 on 104 procs for 177 steps with 288751 atoms

99.9% CPU use with 104 MPI tasks x 1 OpenMP threads

Minimization stats:
  Stopping criterion = energy tolerance
  Energy initial, next-to-last, final = 
     -1152449.16027392  -1152449.16164433  -1152449.16164433
  Force two-norm initial, final = 0.16354216 0.00011181573
  Force max component initial, final = 0.09147574 3.5541940e-05
  Final line search alpha, max atom move = 1.0000000 3.5541940e-05
  Iterations, force evaluations = 177 354

MPI task timing breakdown:
Section |  min time  |  avg time  |  max time  |%varavg| %total
---------------------------------------------------------------
Pair    | 0.54047    | 1.4963     | 1.964      |  33.1 | 71.09
Neigh   | 0          | 0          | 0          |   0.0 |  0.00
Comm    | 0.030841   | 0.34103    | 1.0075     |  47.7 | 16.20
Output  | 0          | 0          | 0          |   0.0 |  0.00
Modify  | 2.1859e-05 | 0.0029206  | 0.0062006  |   2.5 |  0.14
Other   |            | 0.2645     |            |       | 12.57

Nlocal:        2776.45 ave        3961 max           0 min
Histogram: 8 4 4 0 6 10 8 4 26 34
Nghost:        3879.07 ave        5425 max         232 min
Histogram: 8 0 8 0 16 0 8 8 16 40
Neighs:        79213.2 ave      115455 max           0 min
Histogram: 8 4 4 0 10 6 8 8 24 32

Total # of neighbors = 8238174
Ave neighs/atom = 28.530374
Neighbor list builds = 0
Dangerous builds = 0
The dot product: -3.63499175428013e-08
Setting atom values ...
  1 settings made for x
  1 settings made for y
  1 settings made for z
Setting up cg style minimization ...
  Unit style    : metal
  Current step  : 26886
Per MPI rank memory allocation (min/avg/max) = 5.441 | 5.816 | 6.074 Mbytes
Step PotEng KinEng TotEng v_fx v_fy v_fz 
   26886   -1152449.1            0   -1152449.1 -0.00071464286 0.0094355954  0.012179655 
   27000   -1152449.1            0   -1152449.1 -0.00010329324 7.2365608e-07 7.5077461e-05 
   27124   -1152449.1            0   -1152449.1 -1.5756331e-07 -8.4295909e-08 8.9325162e-09 
Loop time of 2.77054 on 104 procs for 238 steps with 288751 atoms

99.9% CPU use with 104 MPI tasks x 1 OpenMP threads

Minimization stats:
  Stopping criterion = energy tolerance
  Energy initial, next-to-last, final = 
     -1152449.14359453  -1152449.14494668  -1152449.14494668
  Force two-norm initial, final = 0.16302073 8.8946128e-06
  Force max component initial, final = 0.092589409 1.0392408e-06
  Final line search alpha, max atom move = 1.0000000 1.0392408e-06
  Iterations, force evaluations = 238 476

MPI task timing breakdown:
Section |  min time  |  avg time  |  max time  |%varavg| %total
---------------------------------------------------------------
Pair    | 0.72417    | 2.0098     | 2.6087     |  38.3 | 72.54
Neigh   | 0          | 0          | 0          |   0.0 |  0.00
Comm    | 0.039938   | 0.45386    | 1.3575     |  56.1 | 16.38
Output  | 0.00015295 | 0.0001608  | 0.00030507 |   0.0 |  0.01
Modify  | 2.7907e-05 | 0.0039237  | 0.0084243  |   3.0 |  0.14
Other   |            | 0.3028     |            |       | 10.93

Nlocal:        2776.45 ave        3961 max           0 min
Histogram: 8 4 4 0 6 10 8 4 26 34
Nghost:        3879.11 ave        5425 max         232 min
Histogram: 8 0 8 0 16 0 8 8 16 40
Neighs:        79213.2 ave      115456 max           0 min
Histogram: 8 4 4 0 10 6 8 8 24 32

Total # of neighbors = 8238175
Ave neighs/atom = 28.530377
Neighbor list builds = 0
Dangerous builds = 0
The dot product: -3.15350359979082e-10
Setting atom values ...
  1 settings made for x
  1 settings made for y
  1 settings made for z
Setting up cg style minimization ...
  Unit style    : metal
  Current step  : 27124
Per MPI rank memory allocation (min/avg/max) = 5.441 | 5.816 | 6.074 Mbytes
Step PotEng KinEng TotEng v_fx v_fy v_fz 
   27124   -1152449.1            0   -1152449.1 -0.00074559592 0.0083503644  0.010877598 
   27304   -1152449.1            0   -1152449.1 -1.4718011e-05 2.1627774e-06 1.324879e-05 
Loop time of 2.11369 on 104 procs for 180 steps with 288751 atoms

99.9% CPU use with 104 MPI tasks x 1 OpenMP threads

Minimization stats:
  Stopping criterion = energy tolerance
  Energy initial, next-to-last, final = 
     -1152449.12591774  -1152449.12726584  -1152449.12726584
  Force two-norm initial, final = 0.16244679 9.1771528e-05
  Force max component initial, final = 0.093611439 2.0963122e-05
  Final line search alpha, max atom move = 1.0000000 2.0963122e-05
  Iterations, force evaluations = 180 360

MPI task timing breakdown:
Section |  min time  |  avg time  |  max time  |%varavg| %total
---------------------------------------------------------------
Pair    | 0.54626    | 1.5189     | 1.9952     |  33.4 | 71.86
Neigh   | 0          | 0          | 0          |   0.0 |  0.00
Comm    | 0.032336   | 0.34282    | 1.0198     |  48.6 | 16.22
Output  | 0          | 0          | 0          |   0.0 |  0.00
Modify  | 2.1703e-05 | 0.0029656  | 0.0063185  |   2.6 |  0.14
Other   |            | 0.249      |            |       | 11.78

Nlocal:        2776.45 ave        3961 max           0 min
Histogram: 8 4 4 0 6 10 8 4 26 34
Nghost:        3879.11 ave        5425 max         232 min
Histogram: 8 0 8 0 16 0 8 8 16 40
Neighs:        79213.2 ave      115454 max           0 min
Histogram: 8 4 4 0 10 6 8 8 24 32

Total # of neighbors = 8238174
Ave neighs/atom = 28.530374
Neighbor list builds = 0
Dangerous builds = 0
The dot product: 3.03602576924773e-09
Setting atom values ...
  1 settings made for x
  1 settings made for y
  1 settings made for z
Setting up cg style minimization ...
  Unit style    : metal
  Current step  : 27304
Per MPI rank memory allocation (min/avg/max) = 5.441 | 5.816 | 6.074 Mbytes
Step PotEng KinEng TotEng v_fx v_fy v_fz 
   27304   -1152449.1            0   -1152449.1 -0.00092921132  0.007301443   0.00972272 
   27488   -1152449.1            0   -1152449.1 -2.3679634e-05 1.5117713e-06 1.8877888e-05 
Loop time of 2.15013 on 104 procs for 184 steps with 288751 atoms

99.9% CPU use with 104 MPI tasks x 1 OpenMP threads

Minimization stats:
  Stopping criterion = energy tolerance
  Energy initial, next-to-last, final = 
     -1152449.10719979  -1152449.10855858  -1152449.10855858
  Force two-norm initial, final = 0.16203265 7.7940035e-05
  Force max component initial, final = 0.094502122 2.3679634e-05
  Final line search alpha, max atom move = 1.0000000 2.3679634e-05
  Iterations, force evaluations = 184 368

MPI task timing breakdown:
Section |  min time  |  avg time  |  max time  |%varavg| %total
---------------------------------------------------------------
Pair    | 0.55729    | 1.5518     | 2.0263     |  33.8 | 72.17
Neigh   | 0          | 0          | 0          |   0.0 |  0.00
Comm    | 0.031469   | 0.35357    | 1.0387     |  48.8 | 16.44
Output  | 0          | 0          | 0          |   0.0 |  0.00
Modify  | 2.2996e-05 | 0.0030324  | 0.0065408  |   2.6 |  0.14
Other   |            | 0.2417     |            |       | 11.24

Nlocal:        2776.45 ave        3961 max           0 min
Histogram: 8 4 4 0 6 10 8 4 26 34
Nghost:        3879.11 ave        5425 max         232 min
Histogram: 8 0 8 0 16 0 8 8 16 40
Neighs:        79213.2 ave      115454 max           0 min
Histogram: 8 4 4 0 10 6 8 8 24 32

Total # of neighbors = 8238172
Ave neighs/atom = 28.530367
Neighbor list builds = 0
Dangerous builds = 0
The dot product: -5.92015407464337e-09
Setting atom values ...
  1 settings made for x
  1 settings made for y
  1 settings made for z
Setting up cg style minimization ...
  Unit style    : metal
  Current step  : 27488
Per MPI rank memory allocation (min/avg/max) = 5.441 | 5.816 | 6.074 Mbytes
Step PotEng KinEng TotEng v_fx v_fy v_fz 
   27488   -1152449.1            0   -1152449.1  -0.00108623 0.0061581763 0.0084266118 
   27633   -1152449.1            0   -1152449.1 2.2349024e-06 6.2637587e-06 6.173792e-06 
Loop time of 1.69782 on 104 procs for 145 steps with 288751 atoms

99.9% CPU use with 104 MPI tasks x 1 OpenMP threads

Minimization stats:
  Stopping criterion = energy tolerance
  Energy initial, next-to-last, final = 
       -1152449.087429  -1152449.08882434  -1152449.08882434
  Force two-norm initial, final = 0.16180042 0.00024044468
  Force max component initial, final = 0.095333248 1.7847546e-05
  Final line search alpha, max atom move = 1.0000000 1.7847546e-05
  Iterations, force evaluations = 145 290

MPI task timing breakdown:
Section |  min time  |  avg time  |  max time  |%varavg| %total
---------------------------------------------------------------
Pair    | 0.43876    | 1.2207     | 1.6023     |  29.9 | 71.90
Neigh   | 0          | 0          | 0          |   0.0 |  0.00
Comm    | 0.025024   | 0.27571    | 0.82268    |  43.7 | 16.24
Output  | 0          | 0          | 0          |   0.0 |  0.00
Modify  | 1.6758e-05 | 0.002393   | 0.0051144  |   2.3 |  0.14
Other   |            | 0.199      |            |       | 11.72

Nlocal:        2776.45 ave        3961 max           0 min
Histogram: 8 4 4 0 6 10 8 4 26 34
Nghost:        3879.11 ave        5425 max         232 min
Histogram: 8 0 8 0 16 0 8 8 16 40
Neighs:        79213.2 ave      115454 max           0 min
Histogram: 8 4 4 0 10 6 8 8 24 32

Total # of neighbors = 8238172
Ave neighs/atom = 28.530367
Neighbor list builds = 0
Dangerous builds = 0
The dot product: 1.89433495916038e-08
Setting atom values ...
  1 settings made for x
  1 settings made for y
  1 settings made for z
Setting up cg style minimization ...
  Unit style    : metal
  Current step  : 27633
Per MPI rank memory allocation (min/avg/max) = 5.441 | 5.816 | 6.074 Mbytes
Step PotEng KinEng TotEng v_fx v_fy v_fz 
   27633   -1152449.1            0   -1152449.1 -0.0011831654  0.005221422 0.0073406875 
   27815   -1152449.1            0   -1152449.1 -1.3581191e-05 9.4387333e-06 2.1479419e-05 
Loop time of 2.12772 on 104 procs for 182 steps with 288751 atoms

99.9% CPU use with 104 MPI tasks x 1 OpenMP threads

Minimization stats:
  Stopping criterion = energy tolerance
  Energy initial, next-to-last, final = 
      -1152449.0666503  -1152449.06803758  -1152449.06803758
  Force two-norm initial, final = 0.16182165 9.9332249e-05
  Force max component initial, final = 0.096101046 2.1479419e-05
  Final line search alpha, max atom move = 1.0000000 2.1479419e-05
  Iterations, force evaluations = 182 364

MPI task timing breakdown:
Section |  min time  |  avg time  |  max time  |%varavg| %total
---------------------------------------------------------------
Pair    | 0.55257    | 1.5408     | 2.0093     |  33.7 | 72.41
Neigh   | 0          | 0          | 0          |   0.0 |  0.00
Comm    | 0.030569   | 0.34998    | 1.0483     |  49.1 | 16.45
Output  | 0          | 0          | 0          |   0.0 |  0.00
Modify  | 2.2578e-05 | 0.0030006  | 0.0063945  |   2.6 |  0.14
Other   |            | 0.234      |            |       | 11.00

Nlocal:        2776.45 ave        3961 max           0 min
Histogram: 8 4 4 0 6 10 8 4 26 34
Nghost:        3879.11 ave        5425 max         232 min
Histogram: 8 0 8 0 16 0 8 8 16 40
Neighs:        79213.2 ave      115467 max           0 min
Histogram: 8 4 4 0 10 6 8 8 24 32

Total # of neighbors = 8238171
Ave neighs/atom = 28.530364
Neighbor list builds = 0
Dangerous builds = 0
The dot product: 1.53389485112046e-08
Setting atom values ...
  1 settings made for x
  1 settings made for y
  1 settings made for z
Setting up cg style minimization ...
  Unit style    : metal
  Current step  : 27815
Per MPI rank memory allocation (min/avg/max) = 5.441 | 5.816 | 6.074 Mbytes
Step PotEng KinEng TotEng v_fx v_fy v_fz 
   27815     -1152449            0     -1152449 -0.0011757711 0.0043262726 0.0062278799 
   28000     -1152449            0     -1152449 1.3930343e-05 1.6868765e-06 -7.8908287e-06 
   28010     -1152449            0     -1152449 2.476185e-05 -2.781571e-06 -2.1220442e-05 
Loop time of 2.29906 on 104 procs for 195 steps with 288751 atoms

99.9% CPU use with 104 MPI tasks x 1 OpenMP threads

Minimization stats:
  Stopping criterion = energy tolerance
  Energy initial, next-to-last, final = 
     -1152449.04471662  -1152449.04607021  -1152449.04607021
  Force two-norm initial, final = 0.1619371 8.3563240e-05
  Force max component initial, final = 0.096786567 2.4761850e-05
  Final line search alpha, max atom move = 1.0000000 2.4761850e-05
  Iterations, force evaluations = 195 390

MPI task timing breakdown:
Section |  min time  |  avg time  |  max time  |%varavg| %total
---------------------------------------------------------------
Pair    | 0.59537    | 1.6449     | 2.1671     |  34.7 | 71.55
Neigh   | 0          | 0          | 0          |   0.0 |  0.00
Comm    | 0.038374   | 0.37174    | 1.1012     |  50.3 | 16.17
Output  | 0.00015756 | 0.00016593 | 0.0003274  |   0.0 |  0.01
Modify  | 2.3256e-05 | 0.0032157  | 0.0068382  |   2.7 |  0.14
Other   |            | 0.2791     |            |       | 12.14

Nlocal:        2776.45 ave        3961 max           0 min
Histogram: 8 4 4 0 6 10 8 4 26 34
Nghost:        3879.14 ave        5425 max         232 min
Histogram: 8 0 8 0 16 0 8 8 16 40
Neighs:        79213.2 ave      115468 max           0 min
Histogram: 8 4 4 0 10 6 8 8 24 32

Total # of neighbors = 8238170
Ave neighs/atom = 28.530360
Neighbor list builds = 0
Dangerous builds = 0
The dot product: 7.07771383639193e-09
Setting atom values ...
  1 settings made for x
  1 settings made for y
  1 settings made for z
Setting up cg style minimization ...
  Unit style    : metal
  Current step  : 28010
Per MPI rank memory allocation (min/avg/max) = 5.441 | 5.816 | 6.074 Mbytes
Step PotEng KinEng TotEng v_fx v_fy v_fz 
   28010     -1152449            0     -1152449 -0.00083211264 0.0035339663 0.0049989673 
   28181     -1152449            0     -1152449 1.7610649e-06 4.3900863e-06 4.2064629e-06 
Loop time of 1.99871 on 104 procs for 171 steps with 288751 atoms

99.9% CPU use with 104 MPI tasks x 1 OpenMP threads

Minimization stats:
  Stopping criterion = energy tolerance
  Energy initial, next-to-last, final = 
     -1152449.02148133  -1152449.02281412  -1152449.02281412
  Force two-norm initial, final = 0.16217617 0.0001923048
  Force max component initial, final = 0.097459937 3.1716953e-05
  Final line search alpha, max atom move = 1.0000000 3.1716953e-05
  Iterations, force evaluations = 171 342

MPI task timing breakdown:
Section |  min time  |  avg time  |  max time  |%varavg| %total
---------------------------------------------------------------
Pair    | 0.51864    | 1.4449     | 1.878      |  32.5 | 72.29
Neigh   | 0          | 0          | 0          |   0.0 |  0.00
Comm    | 0.02884    | 0.3277     | 0.98685    |  47.9 | 16.40
Output  | 0          | 0          | 0          |   0.0 |  0.00
Modify  | 2.0344e-05 | 0.0028242  | 0.006025   |   2.5 |  0.14
Other   |            | 0.2233     |            |       | 11.17

Nlocal:        2776.45 ave        3960 max           0 min
Histogram: 8 4 4 0 4 12 8 4 26 34
Nghost:        3879.16 ave        5425 max         232 min
Histogram: 8 0 8 0 16 0 8 8 16 40
Neighs:        79213.2 ave      115426 max           0 min
Histogram: 8 4 4 0 10 6 8 8 24 32

Total # of neighbors = 8238171
Ave neighs/atom = 28.530364
Neighbor list builds = 0
Dangerous builds = 0
The dot product: 8.47328347630756e-09
Setting atom values ...
  1 settings made for x
  1 settings made for y
  1 settings made for z
Setting up cg style minimization ...
  Unit style    : metal
  Current step  : 28181
Per MPI rank memory allocation (min/avg/max) = 5.441 | 5.816 | 6.074 Mbytes
Step PotEng KinEng TotEng v_fx v_fy v_fz 
   28181     -1152449            0     -1152449 -0.00025235898 0.0028666455 0.0037545973 
   28395     -1152449            0     -1152449 4.3732669e-07 -2.6950904e-07 -6.4936827e-07 
Loop time of 2.49482 on 104 procs for 214 steps with 288751 atoms

99.9% CPU use with 104 MPI tasks x 1 OpenMP threads

Minimization stats:
  Stopping criterion = energy tolerance
  Energy initial, next-to-last, final = 
     -1152448.99685557  -1152448.99817065  -1152448.99817065
  Force two-norm initial, final = 0.16263467 4.5009675e-05
  Force max component initial, final = 0.098108347 1.0725640e-05
  Final line search alpha, max atom move = 1.0000000 1.0725640e-05
  Iterations, force evaluations = 214 428

MPI task timing breakdown:
Section |  min time  |  avg time  |  max time  |%varavg| %total
---------------------------------------------------------------
Pair    | 0.64685    | 1.8003     | 2.3557     |  36.3 | 72.16
Neigh   | 0          | 0          | 0          |   0.0 |  0.00
Comm    | 0.0374     | 0.40421    | 1.213      |  53.2 | 16.20
Output  | 0          | 0          | 0          |   0.0 |  0.00
Modify  | 2.5985e-05 | 0.0035211  | 0.0075023  |   2.8 |  0.14
Other   |            | 0.2868     |            |       | 11.50

Nlocal:        2776.45 ave        3960 max           0 min
Histogram: 8 4 4 0 4 12 8 4 26 34
Nghost:        3879.18 ave        5425 max         232 min
Histogram: 8 0 8 0 16 0 8 8 16 40
Neighs:        79213.2 ave      115432 max           0 min
Histogram: 8 4 4 0 10 6 8 8 24 32

Total # of neighbors = 8238173
Ave neighs/atom = 28.530370
Neighbor list builds = 0
Dangerous builds = 0
The dot product: 1.82958705128911e-11
Setting up cg style minimization ...
  Unit style    : metal
  Current step  : 28395
Per MPI rank memory allocation (min/avg/max) = 5.441 | 5.816 | 6.074 Mbytes
Step PotEng KinEng TotEng v_fx v_fy v_fz 
   28395     -1152449            0     -1152449   0.51901562  -0.90295783    0.7242947 
   28699   -1152449.3            0   -1152449.3 -9.7443804e-06 -6.4618661e-08 7.8801166e-06 
Loop time of 3.54589 on 104 procs for 304 steps with 288751 atoms

99.9% CPU use with 104 MPI tasks x 1 OpenMP threads

Minimization stats:
  Stopping criterion = energy tolerance
  Energy initial, next-to-last, final = 
     -1152448.99817065  -1152449.26566399  -1152449.26566399
  Force two-norm initial, final = 1.2685870 4.7690733e-05
  Force max component initial, final = 0.90295783 1.2225764e-05
  Final line search alpha, max atom move = 1.0000000 1.2225764e-05
  Iterations, force evaluations = 304 608

MPI task timing breakdown:
Section |  min time  |  avg time  |  max time  |%varavg| %total
---------------------------------------------------------------
Pair    | 0.9273     | 2.5643     | 3.3347     |  43.3 | 72.32
Neigh   | 2.0065e-05 | 0.0059181  | 0.0086007  |   3.2 |  0.17
Comm    | 0.056226   | 0.57827    | 1.7295     |  63.3 | 16.31
Output  | 0          | 0          | 0          |   0.0 |  0.00
Modify  | 3.335e-05  | 0.0032575  | 0.0083091  |   3.6 |  0.09
Other   |            | 0.3942     |            |       | 11.12

Nlocal:        2776.45 ave        3961 max           0 min
Histogram: 8 4 4 0 6 10 8 4 26 34
Nghost:        3879.16 ave        5425 max         232 min
Histogram: 8 0 8 0 16 0 8 8 16 40
Neighs:        79213.2 ave      115476 max           0 min
Histogram: 8 4 4 0 10 6 8 8 24 32

Total # of neighbors = 8238175
Ave neighs/atom = 28.530377
Neighbor list builds = 2
Dangerous builds = 0
