LAMMPS (29 Oct 2020)
OMP_NUM_THREADS environment is not set. Defaulting to 1 thread. (../comm.cpp:94)
  using 1 OpenMP thread(s) per MPI task
########
#
########
variable                delta             equal     0.02 # the step size should be larger otherwise the number of
#the energy minimum sites is smaller
variable                iter_tot          equal     150

label                   loop
variable                seed              loop     310 319 #20 simulations
variable                iteration         loop      ${iter_tot} #The maximum ietration number per random direction
variable                iteration         loop      150 
clear
OMP_NUM_THREADS environment is not set. Defaulting to 1 thread. (../comm.cpp:94)
  using 1 OpenMP thread(s) per MPI task
units                   metal
atom_style              atomic
dimension                   3
boundary                p p p
atom_modify             map array sort 0 0.0

read_data               poslmp_carbon.dat
Reading data file ...
  orthogonal box = (-122.39241 -121.13707 -37.090501) to (122.39241 121.13707 37.090501)
  13 by 4 by 2 MPI processor grid
  reading atoms ...
  288751 atoms
  read_data CPU = 0.375 seconds

variable                zmax     equal    zhi
variable                zmin     equal    zlo

region                  inner   cylinder   z  1.16564  0.67298333  100.0  ${zmin}  ${zmax}  units  box
region                  inner   cylinder   z  1.16564  0.67298333  100.0  -37.0905005093422  ${zmax}  units  box
region                  inner   cylinder   z  1.16564  0.67298333  100.0  -37.0905005093422  37.0905005093422  units  box
group                   inner   region     inner
199981 atoms in group inner
group                   outer   subtract   all  inner
88770 atoms in group outer
group                   carbon  type       2
1 atoms in group carbon

pair_style              eam/alloy
pair_coeff              * * FeC-Becquart2013.eam.txt Fe C
neighbor                0.3 bin
neigh_modify            delay 0 check yes every 1

compute                 force     carbon   reduce  sum  fx fy fz
variable                fx    equal    c_force[1]
variable                fy    equal    c_force[2]
variable                fz    equal    c_force[3]

fix                     force    outer    setforce      0.0 0.0 0.0
thermo_style            custom   step     v_fx v_fy v_fz pe ke etotal
min_style               cg
minimize                1.0e-30 1.0e-30 10000 10000
Neighbor list info ...
  update every 1 steps, delay 0 steps, check yes
  max neighbors/atom: 2000, page size: 100000
  master list distance cutoff = 5.6
  ghost atom cutoff = 5.6
  binsize = 2.8, bins = 88 87 27
  1 neighbor lists, perpetual/occasional/extra = 1 0 0
  (1) pair eam/alloy, perpetual
      attributes: half, newton on
      pair build: half/bin/atomonly/newton
      stencil: half/bin/3d/newton
      bin: standard
Per MPI rank memory allocation (min/avg/max) = 5.441 | 5.816 | 6.074 Mbytes
Step v_fx v_fy v_fz PotEng KinEng TotEng 
       0    26.488754    15.392165    51.701941   -1152432.9            0   -1152432.9 
     193 -4.2850889e-06 -4.5561473e-08 -1.0380855e-05   -1152449.5            0   -1152449.5 
Loop time of 2.25474 on 104 procs for 193 steps with 288751 atoms

99.8% CPU use with 104 MPI tasks x 1 OpenMP threads

Minimization stats:
  Stopping criterion = linesearch alpha is zero
  Energy initial, next-to-last, final = 
     -1152432.87813519  -1152449.45035287  -1152449.45035287
  Force two-norm initial, final = 89.876174 4.2417941e-05
  Force max component initial, final = 58.775406 1.0380855e-05
  Final line search alpha, max atom move = 0.5 5.1904277e-06
  Iterations, force evaluations = 193 379

MPI task timing breakdown:
Section |  min time  |  avg time  |  max time  |%varavg| %total
---------------------------------------------------------------
Pair    | 0.60227    | 1.5995     | 2.1011     |  33.5 | 70.94
Neigh   | 5.1674e-05 | 0.014705   | 0.021577   |   5.0 |  0.65
Comm    | 0.038265   | 0.3648     | 1.0788     |  49.4 | 16.18
Output  | 0          | 0          | 0          |   0.0 |  0.00
Modify  | 2.1872e-05 | 0.0020441  | 0.005241   |   2.8 |  0.09
Other   |            | 0.2737     |            |       | 12.14

Nlocal:        2776.45 ave        3960 max           0 min
Histogram: 8 4 4 0 4 12 8 2 28 34
Nghost:        3879.03 ave        5424 max         232 min
Histogram: 8 0 8 0 16 0 8 8 16 40
Neighs:        79213.6 ave      115428 max           0 min
Histogram: 8 4 4 0 10 6 8 8 24 32

Total # of neighbors = 8238211
Ave neighs/atom = 28.530502
Neighbor list builds = 5
Dangerous builds = 0
#write_data              minimize.dat
#quit

variable                fx_0  equal    ${fx}
variable                fx_0  equal    -4.28508886612944e-06
variable                fy_0  equal    ${fy}
variable                fy_0  equal    -4.55614732053355e-08
variable                fz_0  equal    ${fz}
variable                fz_0  equal    -1.03808553386965e-05

variable                i     equal    288751

variable                x0    equal    x[v_i]
variable                y0    equal    y[v_i]
variable                z0    equal    z[v_i]

variable                x     equal    x[v_i]+v_delta*random(-1.0,1.0,${seed})
variable                x     equal    x[v_i]+v_delta*random(-1.0,1.0,310)
variable                y     equal    y[v_i]+v_delta*random(-1.0,1.0,${seed})
variable                y     equal    y[v_i]+v_delta*random(-1.0,1.0,310)
variable                z     equal    z[v_i]+v_delta*random(-1.0,1.0,${seed})
variable                z     equal    z[v_i]+v_delta*random(-1.0,1.0,310)
variable                x_0    equal     ${x0}
variable                x_0    equal     2.34285152742585
variable                y_0    equal     ${y0}
variable                y_0    equal     2.0121773542393
variable                z_0    equal     ${z0}
variable                z_0    equal     30.2574337712513
variable                x_1    equal     $x
variable                x_1    equal     2.33564273187837
variable                y_1    equal     $y
variable                y_1    equal     2.0029463209141
variable                z_1    equal     $z
variable                z_1    equal     30.2603250137554

set                atom        $i    x  ${x_1}  y  ${y_1}  z  ${z_1}
set                atom        288751    x  ${x_1}  y  ${y_1}  z  ${z_1}
set                atom        288751    x  2.33564273187837  y  ${y_1}  z  ${z_1}
set                atom        288751    x  2.33564273187837  y  2.0029463209141  z  ${z_1}
set                atom        288751    x  2.33564273187837  y  2.0029463209141  z  30.2603250137554
Setting atom values ...
  1 settings made for x
  1 settings made for y
  1 settings made for z
variable           vector_x          equal     ${x_1}-${x_0}
variable           vector_x          equal     2.33564273187837-${x_0}
variable           vector_x          equal     2.33564273187837-2.34285152742585
variable           vector_y          equal     ${y_1}-${y_0}
variable           vector_y          equal     2.0029463209141-${y_0}
variable           vector_y          equal     2.0029463209141-2.0121773542393
variable           vector_z          equal     ${z_1}-${z_0}
variable           vector_z          equal     30.2603250137554-${z_0}
variable           vector_z          equal     30.2603250137554-30.2574337712513

#dump               1     all   custom   1000   dump_minimize.atom.* id type x y z
#dump_modify        1     element  Fe C
thermo_style       custom   step  pe ke etotal v_fx v_fy v_fz
thermo             1000

fix                hold    carbon   planeforce   ${vector_x}  ${vector_y}  ${vector_z}
fix                hold    carbon   planeforce   -0.00720879554748022  ${vector_y}  ${vector_z}
fix                hold    carbon   planeforce   -0.00720879554748022  -0.00923103332520014  ${vector_z}
fix                hold    carbon   planeforce   -0.00720879554748022  -0.00923103332520014  0.00289124250409856
min_style          cg
minimize           1.0e-30 1.0e-30 10000 10000
Per MPI rank memory allocation (min/avg/max) = 5.441 | 5.816 | 6.074 Mbytes
Step PotEng KinEng TotEng v_fx v_fy v_fz 
     193   -1152449.4            0   -1152449.4   0.01242524 -0.016210239 -0.020775234 
     314   -1152449.5            0   -1152449.5 -7.3484547e-06 2.4324401e-05 5.9339833e-05 
Loop time of 1.44744 on 104 procs for 121 steps with 288751 atoms

99.9% CPU use with 104 MPI tasks x 1 OpenMP threads

Minimization stats:
  Stopping criterion = energy tolerance
  Energy initial, next-to-last, final = 
     -1152449.44947028  -1152449.45002042  -1152449.45002042
  Force two-norm initial, final = 0.10821418 0.00019166775
  Force max component initial, final = 0.047627055 5.9339833e-05
  Final line search alpha, max atom move = 1.0000000 5.9339833e-05
  Iterations, force evaluations = 121 242

MPI task timing breakdown:
Section |  min time  |  avg time  |  max time  |%varavg| %total
---------------------------------------------------------------
Pair    | 0.36905    | 1.0239     | 1.3497     |  27.3 | 70.74
Neigh   | 0          | 0          | 0          |   0.0 |  0.00
Comm    | 0.021238   | 0.23497    | 0.69912    |  40.0 | 16.23
Output  | 0          | 0          | 0          |   0.0 |  0.00
Modify  | 1.4615e-05 | 0.0020055  | 0.0042955  |   2.1 |  0.14
Other   |            | 0.1866     |            |       | 12.89

Nlocal:        2776.45 ave        3959 max           0 min
Histogram: 8 4 4 0 4 12 8 2 28 34
Nghost:        3879.03 ave        5424 max         232 min
Histogram: 8 0 8 0 16 0 8 8 16 40
Neighs:        79213.4 ave      115406 max           0 min
Histogram: 8 4 4 0 10 6 8 8 24 32

Total # of neighbors = 8238197
Ave neighs/atom = 28.530454
Neighbor list builds = 0
Dangerous builds = 0
unfix              hold

variable           new_x         equal     ${x0}-${x_0}
variable           new_x         equal     2.33563304230033-${x_0}
variable           new_x         equal     2.33563304230033-2.34285152742585
variable           new_y         equal     ${y0}-${y_0}
variable           new_y         equal     2.00264967060261-${y_0}
variable           new_y         equal     2.00264967060261-2.0121773542393
variable           new_z         equal     ${z0}-${z_0}
variable           new_z         equal     30.2593537223143-${z_0}
variable           new_z         equal     30.2593537223143-30.2574337712513

label iteration
variable           norm          equal     sqrt(${new_x}^2+${new_y}^2+${new_z}^2)
variable           norm          equal     sqrt(-0.00721848512552015^2+${new_y}^2+${new_z}^2)
variable           norm          equal     sqrt(-0.00721848512552015^2+-0.00952768363669021^2+${new_z}^2)
variable           norm          equal     sqrt(-0.00721848512552015^2+-0.00952768363669021^2+0.00191995106300169^2)
variable           unit_x        equal     ${new_x}/${norm}
variable           unit_x        equal     -0.00721848512552015/${norm}
variable           unit_x        equal     -0.00721848512552015/0.0121065889115197
variable           unit_y        equal     ${new_y}/${norm}
variable           unit_y        equal     -0.00952768363669021/${norm}
variable           unit_y        equal     -0.00952768363669021/0.0121065889115197
variable           unit_z        equal     ${new_z}/${norm}
variable           unit_z        equal     0.00191995106300169/${norm}
variable           unit_z        equal     0.00191995106300169/0.0121065889115197
variable           x_new         equal     ${x0}+${delta}*${unit_x}
variable           x_new         equal     2.33563304230033+${delta}*${unit_x}
variable           x_new         equal     2.33563304230033+0.02*${unit_x}
variable           x_new         equal     2.33563304230033+0.02*-0.596244340852409
variable           y_new         equal     ${y0}+${delta}*${unit_y}
variable           y_new         equal     2.00264967060261+${delta}*${unit_y}
variable           y_new         equal     2.00264967060261+0.02*${unit_y}
variable           y_new         equal     2.00264967060261+0.02*-0.786983328361335
variable           z_new         equal     ${z0}+${delta}*${unit_z}
variable           z_new         equal     30.2593537223143+${delta}*${unit_z}
variable           z_new         equal     30.2593537223143+0.02*${unit_z}
variable           z_new         equal     30.2593537223143+0.02*0.158587284744988

set                atom          $i    x  ${x_new}  y  ${y_new}  z   ${z_new}
set                atom          288751    x  ${x_new}  y  ${y_new}  z   ${z_new}
set                atom          288751    x  2.32370815548328  y  ${y_new}  z   ${z_new}
set                atom          288751    x  2.32370815548328  y  1.98691000403538  z   ${z_new}
set                atom          288751    x  2.32370815548328  y  1.98691000403538  z   30.2625254680092
Setting atom values ...
  1 settings made for x
  1 settings made for y
  1 settings made for z

fix                hold    carbon   planeforce   ${new_x}  ${new_y}  ${new_z}
fix                hold    carbon   planeforce   -0.00721848512552015  ${new_y}  ${new_z}
fix                hold    carbon   planeforce   -0.00721848512552015  -0.00952768363669021  ${new_z}
fix                hold    carbon   planeforce   -0.00721848512552015  -0.00952768363669021  0.00191995106300169
min_style          cg
minimize           1.0e-30 1.0e-30 10000 10000
Per MPI rank memory allocation (min/avg/max) = 5.441 | 5.816 | 6.074 Mbytes
Step PotEng KinEng TotEng v_fx v_fy v_fz 
     314   -1152449.4            0   -1152449.4  0.021657605 -0.023227426 -0.033838604 
     450   -1152449.4            0   -1152449.4 -5.3178315e-06 1.3331773e-06 -1.3377735e-05 
Loop time of 1.59942 on 104 procs for 136 steps with 288751 atoms

99.9% CPU use with 104 MPI tasks x 1 OpenMP threads

Minimization stats:
  Stopping criterion = energy tolerance
  Energy initial, next-to-last, final = 
     -1152449.44665804  -1152449.44808497  -1152449.44808497
  Force two-norm initial, final = 0.17470192 0.00014539937
  Force max component initial, final = 0.07951857 1.3377735e-05
  Final line search alpha, max atom move = 1.0000000 1.3377735e-05
  Iterations, force evaluations = 136 272

MPI task timing breakdown:
Section |  min time  |  avg time  |  max time  |%varavg| %total
---------------------------------------------------------------
Pair    | 0.41538    | 1.1435     | 1.5033     |  28.8 | 71.49
Neigh   | 0          | 0          | 0          |   0.0 |  0.00
Comm    | 0.025644   | 0.25912    | 0.77431    |  42.4 | 16.20
Output  | 0          | 0          | 0          |   0.0 |  0.00
Modify  | 1.6539e-05 | 0.0022439  | 0.0048361  |   2.2 |  0.14
Other   |            | 0.1946     |            |       | 12.16

Nlocal:        2776.45 ave        3958 max           0 min
Histogram: 8 4 4 0 4 12 8 2 28 34
Nghost:        3879.03 ave        5424 max         232 min
Histogram: 8 0 8 0 16 0 8 8 16 40
Neighs:        79213.5 ave      115384 max           0 min
Histogram: 8 4 4 0 10 6 8 8 24 32

Total # of neighbors = 8238199
Ave neighs/atom = 28.530461
Neighbor list builds = 0
Dangerous builds = 0
unfix              hold

variable           new_x         delete
variable           new_y         delete
variable           new_z         delete
variable           dot           delete
variable           new_x         equal     ${x0}-${x_0}
variable           new_x         equal     2.32363903662026-${x_0}
variable           new_x         equal     2.32363903662026-2.34285152742585
variable           new_y         equal     ${y0}-${y_0}
variable           new_y         equal     1.98647512705623-${y_0}
variable           new_y         equal     1.98647512705623-2.0121773542393
variable           new_z         equal     ${z0}-${z_0}
variable           new_z         equal     30.2601075398377-${z_0}
variable           new_z         equal     30.2601075398377-30.2574337712513

variable           dot      equal     ${fx}*${new_x}+${fy}*${new_y}+${fz}*${new_z}
variable           dot      equal     -5.3178315355272e-06*${new_x}+${fy}*${new_y}+${fz}*${new_z}
variable           dot      equal     -5.3178315355272e-06*-0.01921249080559+${fy}*${new_y}+${fz}*${new_z}
variable           dot      equal     -5.3178315355272e-06*-0.01921249080559+1.33317726117713e-06*${new_y}+${fz}*${new_z}
variable           dot      equal     -5.3178315355272e-06*-0.01921249080559+1.33317726117713e-06*-0.02570222718307+${fz}*${new_z}
variable           dot      equal     -5.3178315355272e-06*-0.01921249080559+1.33317726117713e-06*-0.02570222718307+-1.33777350674708e-05*${new_z}
variable           dot      equal     -5.3178315355272e-06*-0.01921249080559+1.33317726117713e-06*-0.02570222718307+-1.33777350674708e-05*0.00267376858640134
print              "The dot product: ${dot}"
The dot product: 3.21341968593122e-08

if "(${dot} >= 0.0) && (${dot} < 1.0e-10)" then "jump TaR.in relaxation" elif "(${dot} < 0.0) && (${dot} > -1.0e-10)" "jump TaR.in relaxation" elif "(${iteration} == ${iter_tot}) && (${seed} < 319)" "print 'The iteration number is maximum!'" "next seed" "variable iteration delete" "jump TaR.in loop" elif "(${iteration} == ${iter_tot}) && (${seed} == 319)" "quit" else    "next iteration"    "jump TaR.in iteration"
next iteration
jump TaR.in iteration
variable           norm          equal     sqrt(${new_x}^2+${new_y}^2+${new_z}^2)
variable           norm          equal     sqrt(-0.01921249080559^2+${new_y}^2+${new_z}^2)
variable           norm          equal     sqrt(-0.01921249080559^2+-0.02570222718307^2+${new_z}^2)
variable           norm          equal     sqrt(-0.01921249080559^2+-0.02570222718307^2+0.00267376858640134^2)
variable           unit_x        equal     ${new_x}/${norm}
variable           unit_x        equal     -0.01921249080559/${norm}
variable           unit_x        equal     -0.01921249080559/0.0322005174427159
variable           unit_y        equal     ${new_y}/${norm}
variable           unit_y        equal     -0.02570222718307/${norm}
variable           unit_y        equal     -0.02570222718307/0.0322005174427159
variable           unit_z        equal     ${new_z}/${norm}
variable           unit_z        equal     0.00267376858640134/${norm}
variable           unit_z        equal     0.00267376858640134/0.0322005174427159
variable           x_new         equal     ${x0}+${delta}*${unit_x}
variable           x_new         equal     2.32363903662026+${delta}*${unit_x}
variable           x_new         equal     2.32363903662026+0.02*${unit_x}
variable           x_new         equal     2.32363903662026+0.02*-0.596651617160148
variable           y_new         equal     ${y0}+${delta}*${unit_y}
variable           y_new         equal     1.98647512705623+${delta}*${unit_y}
variable           y_new         equal     1.98647512705623+0.02*${unit_y}
variable           y_new         equal     1.98647512705623+0.02*-0.798192986457245
variable           z_new         equal     ${z0}+${delta}*${unit_z}
variable           z_new         equal     30.2601075398377+${delta}*${unit_z}
variable           z_new         equal     30.2601075398377+0.02*${unit_z}
variable           z_new         equal     30.2601075398377+0.02*0.0830349571604842

set                atom          $i    x  ${x_new}  y  ${y_new}  z   ${z_new}
set                atom          288751    x  ${x_new}  y  ${y_new}  z   ${z_new}
set                atom          288751    x  2.31170600427706  y  ${y_new}  z   ${z_new}
set                atom          288751    x  2.31170600427706  y  1.97051126732709  z   ${z_new}
set                atom          288751    x  2.31170600427706  y  1.97051126732709  z   30.2617682389809
Setting atom values ...
  1 settings made for x
  1 settings made for y
  1 settings made for z

fix                hold    carbon   planeforce   ${new_x}  ${new_y}  ${new_z}
fix                hold    carbon   planeforce   -0.01921249080559  ${new_y}  ${new_z}
fix                hold    carbon   planeforce   -0.01921249080559  -0.02570222718307  ${new_z}
fix                hold    carbon   planeforce   -0.01921249080559  -0.02570222718307  0.00267376858640134
min_style          cg
minimize           1.0e-30 1.0e-30 10000 10000
Per MPI rank memory allocation (min/avg/max) = 5.441 | 5.816 | 6.074 Mbytes
Step PotEng KinEng TotEng v_fx v_fy v_fz 
     450   -1152449.4            0   -1152449.4  0.021021881 -0.019035519 -0.031929669 
     557   -1152449.4            0   -1152449.4 6.2564632e-06 3.6430326e-06 7.9975617e-05 
Loop time of 1.28395 on 104 procs for 107 steps with 288751 atoms

99.9% CPU use with 104 MPI tasks x 1 OpenMP threads

Minimization stats:
  Stopping criterion = energy tolerance
  Energy initial, next-to-last, final = 
     -1152449.44328023   -1152449.4446603   -1152449.4446603
  Force two-norm initial, final = 0.17149399 0.00022361334
  Force max component initial, final = 0.079146231 7.9975617e-05
  Final line search alpha, max atom move = 1.0000000 7.9975617e-05
  Iterations, force evaluations = 107 214

MPI task timing breakdown:
Section |  min time  |  avg time  |  max time  |%varavg| %total
---------------------------------------------------------------
Pair    | 0.32644    | 0.9077     | 1.215      |  25.8 | 70.70
Neigh   | 0          | 0          | 0          |   0.0 |  0.00
Comm    | 0.017691   | 0.21149    | 0.62607    |  36.9 | 16.47
Output  | 0          | 0          | 0          |   0.0 |  0.00
Modify  | 1.3188e-05 | 0.0017642  | 0.0037711  |   2.0 |  0.14
Other   |            | 0.163      |            |       | 12.69

Nlocal:        2776.45 ave        3957 max           0 min
Histogram: 8 4 4 0 4 12 8 2 28 34
Nghost:        3879.03 ave        5424 max         232 min
Histogram: 8 0 8 0 16 0 8 8 16 40
Neighs:        79213.5 ave      115361 max           0 min
Histogram: 8 4 4 0 10 6 8 8 24 32

Total # of neighbors = 8238199
Ave neighs/atom = 28.530461
Neighbor list builds = 0
Dangerous builds = 0
unfix              hold

variable           new_x         delete
variable           new_y         delete
variable           new_z         delete
variable           dot           delete
variable           new_x         equal     ${x0}-${x_0}
variable           new_x         equal     2.31112134601882-${x_0}
variable           new_x         equal     2.31112134601882-2.34285152742585
variable           new_y         equal     ${y0}-${y_0}
variable           new_y         equal     1.97059995307545-${y_0}
variable           new_y         equal     1.97059995307545-2.0121773542393
variable           new_z         equal     ${z0}-${z_0}
variable           new_z         equal     30.2584196619185-${z_0}
variable           new_z         equal     30.2584196619185-30.2574337712513

variable           dot      equal     ${fx}*${new_x}+${fy}*${new_y}+${fz}*${new_z}
variable           dot      equal     6.25646317638095e-06*${new_x}+${fy}*${new_y}+${fz}*${new_z}
variable           dot      equal     6.25646317638095e-06*-0.0317301814070303+${fy}*${new_y}+${fz}*${new_z}
variable           dot      equal     6.25646317638095e-06*-0.0317301814070303+3.6430325629004e-06*${new_y}+${fz}*${new_z}
variable           dot      equal     6.25646317638095e-06*-0.0317301814070303+3.6430325629004e-06*-0.0415774011638499+${fz}*${new_z}
variable           dot      equal     6.25646317638095e-06*-0.0317301814070303+3.6430325629004e-06*-0.0415774011638499+7.99756167778568e-05*${new_z}
variable           dot      equal     6.25646317638095e-06*-0.0317301814070303+3.6430325629004e-06*-0.0415774011638499+7.99756167778568e-05*0.000985890667198674
print              "The dot product: ${dot}"
The dot product: -2.71139323688904e-07

if "(${dot} >= 0.0) && (${dot} < 1.0e-10)" then "jump TaR.in relaxation" elif "(${dot} < 0.0) && (${dot} > -1.0e-10)" "jump TaR.in relaxation" elif "(${iteration} == ${iter_tot}) && (${seed} < 319)" "print 'The iteration number is maximum!'" "next seed" "variable iteration delete" "jump TaR.in loop" elif "(${iteration} == ${iter_tot}) && (${seed} == 319)" "quit" else    "next iteration"    "jump TaR.in iteration"
next iteration
jump TaR.in iteration
variable           norm          equal     sqrt(${new_x}^2+${new_y}^2+${new_z}^2)
variable           norm          equal     sqrt(-0.0317301814070303^2+${new_y}^2+${new_z}^2)
variable           norm          equal     sqrt(-0.0317301814070303^2+-0.0415774011638499^2+${new_z}^2)
variable           norm          equal     sqrt(-0.0317301814070303^2+-0.0415774011638499^2+0.000985890667198674^2)
variable           unit_x        equal     ${new_x}/${norm}
variable           unit_x        equal     -0.0317301814070303/${norm}
variable           unit_x        equal     -0.0317301814070303/0.0523111525400696
variable           unit_y        equal     ${new_y}/${norm}
variable           unit_y        equal     -0.0415774011638499/${norm}
variable           unit_y        equal     -0.0415774011638499/0.0523111525400696
variable           unit_z        equal     ${new_z}/${norm}
variable           unit_z        equal     0.000985890667198674/${norm}
variable           unit_z        equal     0.000985890667198674/0.0523111525400696
variable           x_new         equal     ${x0}+${delta}*${unit_x}
variable           x_new         equal     2.31112134601882+${delta}*${unit_x}
variable           x_new         equal     2.31112134601882+0.02*${unit_x}
variable           x_new         equal     2.31112134601882+0.02*-0.606566283981708
variable           y_new         equal     ${y0}+${delta}*${unit_y}
variable           y_new         equal     1.97059995307545+${delta}*${unit_y}
variable           y_new         equal     1.97059995307545+0.02*${unit_y}
variable           y_new         equal     1.97059995307545+0.02*-0.79480950323169
variable           z_new         equal     ${z0}+${delta}*${unit_z}
variable           z_new         equal     30.2584196619185+${delta}*${unit_z}
variable           z_new         equal     30.2584196619185+0.02*${unit_z}
variable           z_new         equal     30.2584196619185+0.02*0.0188466630790345

set                atom          $i    x  ${x_new}  y  ${y_new}  z   ${z_new}
set                atom          288751    x  ${x_new}  y  ${y_new}  z   ${z_new}
set                atom          288751    x  2.29899002033919  y  ${y_new}  z   ${z_new}
set                atom          288751    x  2.29899002033919  y  1.95470376301082  z   ${z_new}
set                atom          288751    x  2.29899002033919  y  1.95470376301082  z   30.2587965951801
Setting atom values ...
  1 settings made for x
  1 settings made for y
  1 settings made for z

fix                hold    carbon   planeforce   ${new_x}  ${new_y}  ${new_z}
fix                hold    carbon   planeforce   -0.0317301814070303  ${new_y}  ${new_z}
fix                hold    carbon   planeforce   -0.0317301814070303  -0.0415774011638499  ${new_z}
fix                hold    carbon   planeforce   -0.0317301814070303  -0.0415774011638499  0.000985890667198674
min_style          cg
minimize           1.0e-30 1.0e-30 10000 10000
Per MPI rank memory allocation (min/avg/max) = 5.441 | 5.816 | 6.074 Mbytes
Step PotEng KinEng TotEng v_fx v_fy v_fz 
     557   -1152449.4            0   -1152449.4  0.019611332 -0.015585831 -0.026115683 
     663   -1152449.4            0   -1152449.4 1.9679579e-05 -1.6240114e-05 -5.1511937e-05 
Loop time of 1.26644 on 104 procs for 106 steps with 288751 atoms

99.9% CPU use with 104 MPI tasks x 1 OpenMP threads

Minimization stats:
  Stopping criterion = energy tolerance
  Energy initial, next-to-last, final = 
     -1152449.43854603  -1152449.43990966  -1152449.43990966
  Force two-norm initial, final = 0.16883465 0.00024557467
  Force max component initial, final = 0.077226769 5.1511937e-05
  Final line search alpha, max atom move = 1.0000000 5.1511937e-05
  Iterations, force evaluations = 106 212

MPI task timing breakdown:
Section |  min time  |  avg time  |  max time  |%varavg| %total
---------------------------------------------------------------
Pair    | 0.32456    | 0.8915     | 1.1727     |  25.4 | 70.39
Neigh   | 0          | 0          | 0          |   0.0 |  0.00
Comm    | 0.01987    | 0.20562    | 0.60631    |  36.7 | 16.24
Output  | 0          | 0          | 0          |   0.0 |  0.00
Modify  | 1.257e-05  | 0.0017547  | 0.0037423  |   2.0 |  0.14
Other   |            | 0.1676     |            |       | 13.23

Nlocal:        2776.45 ave        3956 max           0 min
Histogram: 8 4 4 0 4 12 8 0 30 34
Nghost:        3879.03 ave        5424 max         232 min
Histogram: 8 0 8 0 16 0 8 8 16 40
Neighs:        79213.5 ave      115321 max           0 min
Histogram: 8 4 4 0 10 6 8 8 24 32

Total # of neighbors = 8238201
Ave neighs/atom = 28.530467
Neighbor list builds = 0
Dangerous builds = 0
unfix              hold

variable           new_x         delete
variable           new_y         delete
variable           new_z         delete
variable           dot           delete
variable           new_x         equal     ${x0}-${x_0}
variable           new_x         equal     2.2978609685317-${x_0}
variable           new_x         equal     2.2978609685317-2.34285152742585
variable           new_y         equal     ${y0}-${y_0}
variable           new_y         equal     1.95548501656692-${y_0}
variable           new_y         equal     1.95548501656692-2.0121773542393
variable           new_z         equal     ${z0}-${z_0}
variable           new_z         equal     30.2554062332786-${z_0}
variable           new_z         equal     30.2554062332786-30.2574337712513

variable           dot      equal     ${fx}*${new_x}+${fy}*${new_y}+${fz}*${new_z}
variable           dot      equal     1.96795787750183e-05*${new_x}+${fy}*${new_y}+${fz}*${new_z}
variable           dot      equal     1.96795787750183e-05*-0.0449905588941499+${fy}*${new_y}+${fz}*${new_z}
variable           dot      equal     1.96795787750183e-05*-0.0449905588941499+-1.62401141909924e-05*${new_y}+${fz}*${new_z}
variable           dot      equal     1.96795787750183e-05*-0.0449905588941499+-1.62401141909924e-05*-0.05669233767238+${fz}*${new_z}
variable           dot      equal     1.96795787750183e-05*-0.0449905588941499+-1.62401141909924e-05*-0.05669233767238+-5.15119371857399e-05*${new_z}
variable           dot      equal     1.96795787750183e-05*-0.0449905588941499+-1.62401141909924e-05*-0.05669233767238+-5.15119371857399e-05*-0.00202753797270105
print              "The dot product: ${dot}"
The dot product: 1.39737198355707e-07

if "(${dot} >= 0.0) && (${dot} < 1.0e-10)" then "jump TaR.in relaxation" elif "(${dot} < 0.0) && (${dot} > -1.0e-10)" "jump TaR.in relaxation" elif "(${iteration} == ${iter_tot}) && (${seed} < 319)" "print 'The iteration number is maximum!'" "next seed" "variable iteration delete" "jump TaR.in loop" elif "(${iteration} == ${iter_tot}) && (${seed} == 319)" "quit" else    "next iteration"    "jump TaR.in iteration"
next iteration
jump TaR.in iteration
variable           norm          equal     sqrt(${new_x}^2+${new_y}^2+${new_z}^2)
variable           norm          equal     sqrt(-0.0449905588941499^2+${new_y}^2+${new_z}^2)
variable           norm          equal     sqrt(-0.0449905588941499^2+-0.05669233767238^2+${new_z}^2)
variable           norm          equal     sqrt(-0.0449905588941499^2+-0.05669233767238^2+-0.00202753797270105^2)
variable           unit_x        equal     ${new_x}/${norm}
variable           unit_x        equal     -0.0449905588941499/${norm}
variable           unit_x        equal     -0.0449905588941499/0.0724036079943387
variable           unit_y        equal     ${new_y}/${norm}
variable           unit_y        equal     -0.05669233767238/${norm}
variable           unit_y        equal     -0.05669233767238/0.0724036079943387
variable           unit_z        equal     ${new_z}/${norm}
variable           unit_z        equal     -0.00202753797270105/${norm}
variable           unit_z        equal     -0.00202753797270105/0.0724036079943387
variable           x_new         equal     ${x0}+${delta}*${unit_x}
variable           x_new         equal     2.2978609685317+${delta}*${unit_x}
variable           x_new         equal     2.2978609685317+0.02*${unit_x}
variable           x_new         equal     2.2978609685317+0.02*-0.621385593072485
variable           y_new         equal     ${y0}+${delta}*${unit_y}
variable           y_new         equal     1.95548501656692+${delta}*${unit_y}
variable           y_new         equal     1.95548501656692+0.02*${unit_y}
variable           y_new         equal     1.95548501656692+0.02*-0.783004317641364
variable           z_new         equal     ${z0}+${delta}*${unit_z}
variable           z_new         equal     30.2554062332786+${delta}*${unit_z}
variable           z_new         equal     30.2554062332786+0.02*${unit_z}
variable           z_new         equal     30.2554062332786+0.02*-0.0280032726112155

set                atom          $i    x  ${x_new}  y  ${y_new}  z   ${z_new}
set                atom          288751    x  ${x_new}  y  ${y_new}  z   ${z_new}
set                atom          288751    x  2.28543325667025  y  ${y_new}  z   ${z_new}
set                atom          288751    x  2.28543325667025  y  1.93982493021409  z   ${z_new}
set                atom          288751    x  2.28543325667025  y  1.93982493021409  z   30.2548461678264
Setting atom values ...
  1 settings made for x
  1 settings made for y
  1 settings made for z

fix                hold    carbon   planeforce   ${new_x}  ${new_y}  ${new_z}
fix                hold    carbon   planeforce   -0.0449905588941499  ${new_y}  ${new_z}
fix                hold    carbon   planeforce   -0.0449905588941499  -0.05669233767238  ${new_z}
fix                hold    carbon   planeforce   -0.0449905588941499  -0.05669233767238  -0.00202753797270105
min_style          cg
minimize           1.0e-30 1.0e-30 10000 10000
Per MPI rank memory allocation (min/avg/max) = 5.441 | 5.816 | 6.074 Mbytes
Step PotEng KinEng TotEng v_fx v_fy v_fz 
     663   -1152449.4            0   -1152449.4  0.017890584 -0.013501597 -0.019467101 
     868   -1152449.4            0   -1152449.4 2.9162313e-06 -2.2229257e-06 -2.5548344e-06 
Loop time of 2.4 on 104 procs for 205 steps with 288751 atoms

99.9% CPU use with 104 MPI tasks x 1 OpenMP threads

Minimization stats:
  Stopping criterion = energy tolerance
  Energy initial, next-to-last, final = 
     -1152449.43244142  -1152449.43379767  -1152449.43379767
  Force two-norm initial, final = 0.16730939 4.5525210e-05
  Force max component initial, final = 0.074580903 1.1140032e-05
  Final line search alpha, max atom move = 1.0000000 1.1140032e-05
  Iterations, force evaluations = 205 410

MPI task timing breakdown:
Section |  min time  |  avg time  |  max time  |%varavg| %total
---------------------------------------------------------------
Pair    | 0.62582    | 1.7287     | 2.2667     |  35.4 | 72.03
Neigh   | 0          | 0          | 0          |   0.0 |  0.00
Comm    | 0.03785    | 0.39371    | 1.178      |  51.9 | 16.40
Output  | 0          | 0          | 0          |   0.0 |  0.00
Modify  | 2.5952e-05 | 0.0033825  | 0.0073018  |   2.8 |  0.14
Other   |            | 0.2742     |            |       | 11.42

Nlocal:        2776.45 ave        3955 max           0 min
Histogram: 8 4 4 0 4 12 8 0 30 34
Nghost:        3879.03 ave        5424 max         232 min
Histogram: 8 0 8 0 16 0 8 8 16 40
Neighs:        79213.5 ave      115280 max           0 min
Histogram: 8 4 4 0 10 6 8 8 24 32

Total # of neighbors = 8238202
Ave neighs/atom = 28.530471
Neighbor list builds = 0
Dangerous builds = 0
unfix              hold

variable           new_x         delete
variable           new_y         delete
variable           new_z         delete
variable           dot           delete
variable           new_x         equal     ${x0}-${x_0}
variable           new_x         equal     2.28385288904926-${x_0}
variable           new_x         equal     2.28385288904926-2.34285152742585
variable           new_y         equal     ${y0}-${y_0}
variable           new_y         equal     1.94118805398023-${y_0}
variable           new_y         equal     1.94118805398023-2.0121773542393
variable           new_z         equal     ${z0}-${z_0}
variable           new_z         equal     30.2517995909445-${z_0}
variable           new_z         equal     30.2517995909445-30.2574337712513

variable           dot      equal     ${fx}*${new_x}+${fy}*${new_y}+${fz}*${new_z}
variable           dot      equal     2.91623132386743e-06*${new_x}+${fy}*${new_y}+${fz}*${new_z}
variable           dot      equal     2.91623132386743e-06*-0.0589986383765901+${fy}*${new_y}+${fz}*${new_z}
variable           dot      equal     2.91623132386743e-06*-0.0589986383765901+-2.22292568014326e-06*${new_y}+${fz}*${new_z}
variable           dot      equal     2.91623132386743e-06*-0.0589986383765901+-2.22292568014326e-06*-0.07098930025907+${fz}*${new_z}
variable           dot      equal     2.91623132386743e-06*-0.0589986383765901+-2.22292568014326e-06*-0.07098930025907+-2.55483444358694e-06*${new_z}
variable           dot      equal     2.91623132386743e-06*-0.0589986383765901+-2.22292568014326e-06*-0.07098930025907+-2.55483444358694e-06*-0.00563418030679941
print              "The dot product: ${dot}"
The dot product: 1.44659171138566e-10

if "(${dot} >= 0.0) && (${dot} < 1.0e-10)" then "jump TaR.in relaxation" elif "(${dot} < 0.0) && (${dot} > -1.0e-10)" "jump TaR.in relaxation" elif "(${iteration} == ${iter_tot}) && (${seed} < 319)" "print 'The iteration number is maximum!'" "next seed" "variable iteration delete" "jump TaR.in loop" elif "(${iteration} == ${iter_tot}) && (${seed} == 319)" "quit" else    "next iteration"    "jump TaR.in iteration"
next iteration
jump TaR.in iteration
variable           norm          equal     sqrt(${new_x}^2+${new_y}^2+${new_z}^2)
variable           norm          equal     sqrt(-0.0589986383765901^2+${new_y}^2+${new_z}^2)
variable           norm          equal     sqrt(-0.0589986383765901^2+-0.07098930025907^2+${new_z}^2)
variable           norm          equal     sqrt(-0.0589986383765901^2+-0.07098930025907^2+-0.00563418030679941^2)
variable           unit_x        equal     ${new_x}/${norm}
variable           unit_x        equal     -0.0589986383765901/${norm}
variable           unit_x        equal     -0.0589986383765901/0.0924773705794751
variable           unit_y        equal     ${new_y}/${norm}
variable           unit_y        equal     -0.07098930025907/${norm}
variable           unit_y        equal     -0.07098930025907/0.0924773705794751
variable           unit_z        equal     ${new_z}/${norm}
variable           unit_z        equal     -0.00563418030679941/${norm}
variable           unit_z        equal     -0.00563418030679941/0.0924773705794751
variable           x_new         equal     ${x0}+${delta}*${unit_x}
variable           x_new         equal     2.28385288904926+${delta}*${unit_x}
variable           x_new         equal     2.28385288904926+0.02*${unit_x}
variable           x_new         equal     2.28385288904926+0.02*-0.637979194335836
variable           y_new         equal     ${y0}+${delta}*${unit_y}
variable           y_new         equal     1.94118805398023+${delta}*${unit_y}
variable           y_new         equal     1.94118805398023+0.02*${unit_y}
variable           y_new         equal     1.94118805398023+0.02*-0.767639691896968
variable           z_new         equal     ${z0}+${delta}*${unit_z}
variable           z_new         equal     30.2517995909445+${delta}*${unit_z}
variable           z_new         equal     30.2517995909445+0.02*${unit_z}
variable           z_new         equal     30.2517995909445+0.02*-0.0609249621988051

set                atom          $i    x  ${x_new}  y  ${y_new}  z   ${z_new}
set                atom          288751    x  ${x_new}  y  ${y_new}  z   ${z_new}
set                atom          288751    x  2.27109330516254  y  ${y_new}  z   ${z_new}
set                atom          288751    x  2.27109330516254  y  1.92583526014229  z   ${z_new}
set                atom          288751    x  2.27109330516254  y  1.92583526014229  z   30.2505810917005
Setting atom values ...
  1 settings made for x
  1 settings made for y
  1 settings made for z

fix                hold    carbon   planeforce   ${new_x}  ${new_y}  ${new_z}
fix                hold    carbon   planeforce   -0.0589986383765901  ${new_y}  ${new_z}
fix                hold    carbon   planeforce   -0.0589986383765901  -0.07098930025907  ${new_z}
fix                hold    carbon   planeforce   -0.0589986383765901  -0.07098930025907  -0.00563418030679941
min_style          cg
minimize           1.0e-30 1.0e-30 10000 10000
Per MPI rank memory allocation (min/avg/max) = 5.441 | 5.816 | 6.074 Mbytes
Step PotEng KinEng TotEng v_fx v_fy v_fz 
     868   -1152449.4            0   -1152449.4  0.016169057 -0.012367028  -0.01349365 
    1000   -1152449.4            0   -1152449.4 -1.4514945e-05 1.3438404e-05 -1.7326547e-05 
    1061   -1152449.4            0   -1152449.4 -5.4849143e-06 3.0684981e-06 1.8773262e-05 
Loop time of 2.28629 on 104 procs for 193 steps with 288751 atoms

99.9% CPU use with 104 MPI tasks x 1 OpenMP threads

Minimization stats:
  Stopping criterion = energy tolerance
  Energy initial, next-to-last, final = 
     -1152449.42492682  -1152449.42628366  -1152449.42628366
  Force two-norm initial, final = 0.16676391 6.2464018e-05
  Force max component initial, final = 0.07441423 1.8773262e-05
  Final line search alpha, max atom move = 1.0000000 1.8773262e-05
  Iterations, force evaluations = 193 386

MPI task timing breakdown:
Section |  min time  |  avg time  |  max time  |%varavg| %total
---------------------------------------------------------------
Pair    | 0.58738    | 1.6208     | 2.1545     |  34.4 | 70.89
Neigh   | 0          | 0          | 0          |   0.0 |  0.00
Comm    | 0.033818   | 0.37304    | 1.11       |  49.5 | 16.32
Output  | 0.00018116 | 0.00018391 | 0.00033024 |   0.0 |  0.01
Modify  | 2.3917e-05 | 0.0031787  | 0.0068098  |   2.7 |  0.14
Other   |            | 0.2891     |            |       | 12.64

Nlocal:        2776.45 ave        3954 max           0 min
Histogram: 8 4 4 0 4 12 8 0 30 34
Nghost:        3879.03 ave        5424 max         232 min
Histogram: 8 0 8 0 16 0 8 8 16 40
Neighs:        79213.5 ave      115241 max           0 min
Histogram: 8 4 4 0 10 6 8 8 24 32

Total # of neighbors = 8238201
Ave neighs/atom = 28.530467
Neighbor list builds = 0
Dangerous builds = 0
unfix              hold

variable           new_x         delete
variable           new_y         delete
variable           new_z         delete
variable           dot           delete
variable           new_x         equal     ${x0}-${x_0}
variable           new_x         equal     2.26916733055386-${x_0}
variable           new_x         equal     2.26916733055386-2.34285152742585
variable           new_y         equal     ${y0}-${y_0}
variable           new_y         equal     1.92763806047553-${y_0}
variable           new_y         equal     1.92763806047553-2.0121773542393
variable           new_z         equal     ${z0}-${z_0}
variable           new_z         equal     30.2480341986428-${z_0}
variable           new_z         equal     30.2480341986428-30.2574337712513

variable           dot      equal     ${fx}*${new_x}+${fy}*${new_y}+${fz}*${new_z}
variable           dot      equal     -5.4849143271825e-06*${new_x}+${fy}*${new_y}+${fz}*${new_z}
variable           dot      equal     -5.4849143271825e-06*-0.0736841968719899+${fy}*${new_y}+${fz}*${new_z}
variable           dot      equal     -5.4849143271825e-06*-0.0736841968719899+3.06849809710495e-06*${new_y}+${fz}*${new_z}
variable           dot      equal     -5.4849143271825e-06*-0.0736841968719899+3.06849809710495e-06*-0.0845392937637699+${fz}*${new_z}
variable           dot      equal     -5.4849143271825e-06*-0.0736841968719899+3.06849809710495e-06*-0.0845392937637699+1.8773262193589e-05*${new_z}
variable           dot      equal     -5.4849143271825e-06*-0.0736841968719899+3.06849809710495e-06*-0.0845392937637699+1.8773262193589e-05*-0.00939957260850122
print              "The dot product: ${dot}"
The dot product: -3.17177960216816e-08

if "(${dot} >= 0.0) && (${dot} < 1.0e-10)" then "jump TaR.in relaxation" elif "(${dot} < 0.0) && (${dot} > -1.0e-10)" "jump TaR.in relaxation" elif "(${iteration} == ${iter_tot}) && (${seed} < 319)" "print 'The iteration number is maximum!'" "next seed" "variable iteration delete" "jump TaR.in loop" elif "(${iteration} == ${iter_tot}) && (${seed} == 319)" "quit" else    "next iteration"    "jump TaR.in iteration"
next iteration
jump TaR.in iteration
variable           norm          equal     sqrt(${new_x}^2+${new_y}^2+${new_z}^2)
variable           norm          equal     sqrt(-0.0736841968719899^2+${new_y}^2+${new_z}^2)
variable           norm          equal     sqrt(-0.0736841968719899^2+-0.0845392937637699^2+${new_z}^2)
variable           norm          equal     sqrt(-0.0736841968719899^2+-0.0845392937637699^2+-0.00939957260850122^2)
variable           unit_x        equal     ${new_x}/${norm}
variable           unit_x        equal     -0.0736841968719899/${norm}
variable           unit_x        equal     -0.0736841968719899/0.112537127313477
variable           unit_y        equal     ${new_y}/${norm}
variable           unit_y        equal     -0.0845392937637699/${norm}
variable           unit_y        equal     -0.0845392937637699/0.112537127313477
variable           unit_z        equal     ${new_z}/${norm}
variable           unit_z        equal     -0.00939957260850122/${norm}
variable           unit_z        equal     -0.00939957260850122/0.112537127313477
variable           x_new         equal     ${x0}+${delta}*${unit_x}
variable           x_new         equal     2.26916733055386+${delta}*${unit_x}
variable           x_new         equal     2.26916733055386+0.02*${unit_x}
variable           x_new         equal     2.26916733055386+0.02*-0.654754556393993
variable           y_new         equal     ${y0}+${delta}*${unit_y}
variable           y_new         equal     1.92763806047553+${delta}*${unit_y}
variable           y_new         equal     1.92763806047553+0.02*${unit_y}
variable           y_new         equal     1.92763806047553+0.02*-0.751212473446937
variable           z_new         equal     ${z0}+${delta}*${unit_z}
variable           z_new         equal     30.2480341986428+${delta}*${unit_z}
variable           z_new         equal     30.2480341986428+0.02*${unit_z}
variable           z_new         equal     30.2480341986428+0.02*-0.083524191819099

set                atom          $i    x  ${x_new}  y  ${y_new}  z   ${z_new}
set                atom          288751    x  ${x_new}  y  ${y_new}  z   ${z_new}
set                atom          288751    x  2.25607223942598  y  ${y_new}  z   ${z_new}
set                atom          288751    x  2.25607223942598  y  1.91261381100659  z   ${z_new}
set                atom          288751    x  2.25607223942598  y  1.91261381100659  z   30.2463637148064
Setting atom values ...
  1 settings made for x
  1 settings made for y
  1 settings made for z

fix                hold    carbon   planeforce   ${new_x}  ${new_y}  ${new_z}
fix                hold    carbon   planeforce   -0.0736841968719899  ${new_y}  ${new_z}
fix                hold    carbon   planeforce   -0.0736841968719899  -0.0845392937637699  ${new_z}
fix                hold    carbon   planeforce   -0.0736841968719899  -0.0845392937637699  -0.00939957260850122
min_style          cg
minimize           1.0e-30 1.0e-30 10000 10000
Per MPI rank memory allocation (min/avg/max) = 5.441 | 5.816 | 6.074 Mbytes
Step PotEng KinEng TotEng v_fx v_fy v_fz 
    1061   -1152449.4            0   -1152449.4  0.014758134 -0.011905121 -0.0086164307 
    1190   -1152449.4            0   -1152449.4 2.6286278e-05 -1.8697396e-05 -3.7897321e-05 
Loop time of 1.5189 on 104 procs for 129 steps with 288751 atoms

99.9% CPU use with 104 MPI tasks x 1 OpenMP threads

Minimization stats:
  Stopping criterion = energy tolerance
  Energy initial, next-to-last, final = 
     -1152449.41597291  -1152449.41733657  -1152449.41733657
  Force two-norm initial, final = 0.16679975 0.00019405639
  Force max component initial, final = 0.074742274 3.7897321e-05
  Final line search alpha, max atom move = 1.0000000 3.7897321e-05
  Iterations, force evaluations = 129 258

MPI task timing breakdown:
Section |  min time  |  avg time  |  max time  |%varavg| %total
---------------------------------------------------------------
Pair    | 0.39346    | 1.0884     | 1.443      |  28.1 | 71.66
Neigh   | 0          | 0          | 0          |   0.0 |  0.00
Comm    | 0.021782   | 0.24822    | 0.74734    |  41.1 | 16.34
Output  | 0          | 0          | 0          |   0.0 |  0.00
Modify  | 1.5832e-05 | 0.0021328  | 0.0045648  |   2.2 |  0.14
Other   |            | 0.1801     |            |       | 11.86

Nlocal:        2776.45 ave        3952 max           0 min
Histogram: 8 4 4 0 4 12 8 1 29 34
Nghost:        3879.03 ave        5424 max         232 min
Histogram: 8 0 8 0 16 0 8 8 16 40
Neighs:        79213.5 ave      115170 max           0 min
Histogram: 8 4 4 0 10 6 8 8 24 32

Total # of neighbors = 8238203
Ave neighs/atom = 28.530474
Neighbor list builds = 0
Dangerous builds = 0
unfix              hold

variable           new_x         delete
variable           new_y         delete
variable           new_z         delete
variable           dot           delete
variable           new_x         equal     ${x0}-${x_0}
variable           new_x         equal     2.2539417604328-${x_0}
variable           new_x         equal     2.2539417604328-2.34285152742585
variable           new_y         equal     ${y0}-${y_0}
variable           new_y         equal     1.9147018950043-${y_0}
variable           new_y         equal     1.9147018950043-2.0121773542393
variable           new_z         equal     ${z0}-${z_0}
variable           new_z         equal     30.2442846295401-${z_0}
variable           new_z         equal     30.2442846295401-30.2574337712513

variable           dot      equal     ${fx}*${new_x}+${fy}*${new_y}+${fz}*${new_z}
variable           dot      equal     2.62862776847327e-05*${new_x}+${fy}*${new_y}+${fz}*${new_z}
variable           dot      equal     2.62862776847327e-05*-0.0889097669930501+${fy}*${new_y}+${fz}*${new_z}
variable           dot      equal     2.62862776847327e-05*-0.0889097669930501+-1.86973958073628e-05*${new_y}+${fz}*${new_z}
variable           dot      equal     2.62862776847327e-05*-0.0889097669930501+-1.86973958073628e-05*-0.097475459235+${fz}*${new_z}
variable           dot      equal     2.62862776847327e-05*-0.0889097669930501+-1.86973958073628e-05*-0.097475459235+-3.78973212940492e-05*${new_z}
variable           dot      equal     2.62862776847327e-05*-0.0889097669930501+-1.86973958073628e-05*-0.097475459235+-3.78973212940492e-05*-0.0131491417111995
print              "The dot product: ${dot}"
The dot product: -1.62523330726327e-08

if "(${dot} >= 0.0) && (${dot} < 1.0e-10)" then "jump TaR.in relaxation" elif "(${dot} < 0.0) && (${dot} > -1.0e-10)" "jump TaR.in relaxation" elif "(${iteration} == ${iter_tot}) && (${seed} < 319)" "print 'The iteration number is maximum!'" "next seed" "variable iteration delete" "jump TaR.in loop" elif "(${iteration} == ${iter_tot}) && (${seed} == 319)" "quit" else    "next iteration"    "jump TaR.in iteration"
next iteration
jump TaR.in iteration
variable           norm          equal     sqrt(${new_x}^2+${new_y}^2+${new_z}^2)
variable           norm          equal     sqrt(-0.0889097669930501^2+${new_y}^2+${new_z}^2)
variable           norm          equal     sqrt(-0.0889097669930501^2+-0.097475459235^2+${new_z}^2)
variable           norm          equal     sqrt(-0.0889097669930501^2+-0.097475459235^2+-0.0131491417111995^2)
variable           unit_x        equal     ${new_x}/${norm}
variable           unit_x        equal     -0.0889097669930501/${norm}
variable           unit_x        equal     -0.0889097669930501/0.132586996902312
variable           unit_y        equal     ${new_y}/${norm}
variable           unit_y        equal     -0.097475459235/${norm}
variable           unit_y        equal     -0.097475459235/0.132586996902312
variable           unit_z        equal     ${new_z}/${norm}
variable           unit_z        equal     -0.0131491417111995/${norm}
variable           unit_z        equal     -0.0131491417111995/0.132586996902312
variable           x_new         equal     ${x0}+${delta}*${unit_x}
variable           x_new         equal     2.2539417604328+${delta}*${unit_x}
variable           x_new         equal     2.2539417604328+0.02*${unit_x}
variable           x_new         equal     2.2539417604328+0.02*-0.670576821787113
variable           y_new         equal     ${y0}+${delta}*${unit_y}
variable           y_new         equal     1.9147018950043+${delta}*${unit_y}
variable           y_new         equal     1.9147018950043+0.02*${unit_y}
variable           y_new         equal     1.9147018950043+0.02*-0.735181137761333
variable           z_new         equal     ${z0}+${delta}*${unit_z}
variable           z_new         equal     30.2442846295401+${delta}*${unit_z}
variable           z_new         equal     30.2442846295401+0.02*${unit_z}
variable           z_new         equal     30.2442846295401+0.02*-0.0991736898670959

set                atom          $i    x  ${x_new}  y  ${y_new}  z   ${z_new}
set                atom          288751    x  ${x_new}  y  ${y_new}  z   ${z_new}
set                atom          288751    x  2.24053022399706  y  ${y_new}  z   ${z_new}
set                atom          288751    x  2.24053022399706  y  1.89999827224907  z   ${z_new}
set                atom          288751    x  2.24053022399706  y  1.89999827224907  z   30.2423011557428
Setting atom values ...
  1 settings made for x
  1 settings made for y
  1 settings made for z

fix                hold    carbon   planeforce   ${new_x}  ${new_y}  ${new_z}
fix                hold    carbon   planeforce   -0.0889097669930501  ${new_y}  ${new_z}
fix                hold    carbon   planeforce   -0.0889097669930501  -0.097475459235  ${new_z}
fix                hold    carbon   planeforce   -0.0889097669930501  -0.097475459235  -0.0131491417111995
min_style          cg
minimize           1.0e-30 1.0e-30 10000 10000
Per MPI rank memory allocation (min/avg/max) = 5.441 | 5.816 | 6.074 Mbytes
Step PotEng KinEng TotEng v_fx v_fy v_fz 
    1190   -1152449.4            0   -1152449.4  0.013932966 -0.012038338 -0.0049687071 
    1405   -1152449.4            0   -1152449.4 3.4226974e-06 -2.4612609e-06 -4.8975583e-06 
Loop time of 2.49442 on 104 procs for 215 steps with 288751 atoms

99.9% CPU use with 104 MPI tasks x 1 OpenMP threads

Minimization stats:
  Stopping criterion = energy tolerance
  Energy initial, next-to-last, final = 
     -1152449.40555896  -1152449.40693114  -1152449.40693114
  Force two-norm initial, final = 0.16715373 3.3517797e-05
  Force max component initial, final = 0.074682997 8.5568386e-06
  Final line search alpha, max atom move = 1.0000000 8.5568386e-06
  Iterations, force evaluations = 215 430

MPI task timing breakdown:
Section |  min time  |  avg time  |  max time  |%varavg| %total
---------------------------------------------------------------
Pair    | 0.65653    | 1.8034     | 2.3672     |  36.2 | 72.30
Neigh   | 0          | 0          | 0          |   0.0 |  0.00
Comm    | 0.040843   | 0.40565    | 1.2209     |  53.5 | 16.26
Output  | 0          | 0          | 0          |   0.0 |  0.00
Modify  | 2.5331e-05 | 0.00354    | 0.0076202  |   2.8 |  0.14
Other   |            | 0.2818     |            |       | 11.30

Nlocal:        2776.45 ave        3951 max           0 min
Histogram: 8 4 4 0 4 12 8 1 29 34
Nghost:        3879.03 ave        5424 max         232 min
Histogram: 8 0 8 0 16 0 8 8 16 40
Neighs:        79213.5 ave      115137 max           0 min
Histogram: 8 4 4 0 10 6 8 8 24 32

Total # of neighbors = 8238201
Ave neighs/atom = 28.530467
Neighbor list builds = 0
Dangerous builds = 0
unfix              hold

variable           new_x         delete
variable           new_y         delete
variable           new_z         delete
variable           dot           delete
variable           new_x         equal     ${x0}-${x_0}
variable           new_x         equal     2.23840174426192-${x_0}
variable           new_x         equal     2.23840174426192-2.34285152742585
variable           new_y         equal     ${y0}-${y_0}
variable           new_y         equal     1.90218273434827-${y_0}
variable           new_y         equal     1.90218273434827-2.0121773542393
variable           new_z         equal     ${z0}-${z_0}
variable           new_z         equal     30.2404996078147-${z_0}
variable           new_z         equal     30.2404996078147-30.2574337712513

variable           dot      equal     ${fx}*${new_x}+${fy}*${new_y}+${fz}*${new_z}
variable           dot      equal     3.42269738828756e-06*${new_x}+${fy}*${new_y}+${fz}*${new_z}
variable           dot      equal     3.42269738828756e-06*-0.10444978316393+${fy}*${new_y}+${fz}*${new_z}
variable           dot      equal     3.42269738828756e-06*-0.10444978316393+-2.46126092804953e-06*${new_y}+${fz}*${new_z}
variable           dot      equal     3.42269738828756e-06*-0.10444978316393+-2.46126092804953e-06*-0.10999461989103+${fz}*${new_z}
variable           dot      equal     3.42269738828756e-06*-0.10444978316393+-2.46126092804953e-06*-0.10999461989103+-4.89755829312724e-06*${new_z}
variable           dot      equal     3.42269738828756e-06*-0.10444978316393+-2.46126092804953e-06*-0.10999461989103+-4.89755829312724e-06*-0.0169341634365985
print              "The dot product: ${dot}"
The dot product: -3.83848723284832e-09

if "(${dot} >= 0.0) && (${dot} < 1.0e-10)" then "jump TaR.in relaxation" elif "(${dot} < 0.0) && (${dot} > -1.0e-10)" "jump TaR.in relaxation" elif "(${iteration} == ${iter_tot}) && (${seed} < 319)" "print 'The iteration number is maximum!'" "next seed" "variable iteration delete" "jump TaR.in loop" elif "(${iteration} == ${iter_tot}) && (${seed} == 319)" "quit" else    "next iteration"    "jump TaR.in iteration"
next iteration
jump TaR.in iteration
variable           norm          equal     sqrt(${new_x}^2+${new_y}^2+${new_z}^2)
variable           norm          equal     sqrt(-0.10444978316393^2+${new_y}^2+${new_z}^2)
variable           norm          equal     sqrt(-0.10444978316393^2+-0.10999461989103^2+${new_z}^2)
variable           norm          equal     sqrt(-0.10444978316393^2+-0.10999461989103^2+-0.0169341634365985^2)
variable           unit_x        equal     ${new_x}/${norm}
variable           unit_x        equal     -0.10444978316393/${norm}
variable           unit_x        equal     -0.10444978316393/0.152628108483535
variable           unit_y        equal     ${new_y}/${norm}
variable           unit_y        equal     -0.10999461989103/${norm}
variable           unit_y        equal     -0.10999461989103/0.152628108483535
variable           unit_z        equal     ${new_z}/${norm}
variable           unit_z        equal     -0.0169341634365985/${norm}
variable           unit_z        equal     -0.0169341634365985/0.152628108483535
variable           x_new         equal     ${x0}+${delta}*${unit_x}
variable           x_new         equal     2.23840174426192+${delta}*${unit_x}
variable           x_new         equal     2.23840174426192+0.02*${unit_x}
variable           x_new         equal     2.23840174426192+0.02*-0.684341725791601
variable           y_new         equal     ${y0}+${delta}*${unit_y}
variable           y_new         equal     1.90218273434827+${delta}*${unit_y}
variable           y_new         equal     1.90218273434827+0.02*${unit_y}
variable           y_new         equal     1.90218273434827+0.02*-0.720670792450369
variable           z_new         equal     ${z0}+${delta}*${unit_z}
variable           z_new         equal     30.2404996078147+${delta}*${unit_z}
variable           z_new         equal     30.2404996078147+0.02*${unit_z}
variable           z_new         equal     30.2404996078147+0.02*-0.110950490082404

set                atom          $i    x  ${x_new}  y  ${y_new}  z   ${z_new}
set                atom          288751    x  ${x_new}  y  ${y_new}  z   ${z_new}
set                atom          288751    x  2.22471490974609  y  ${y_new}  z   ${z_new}
set                atom          288751    x  2.22471490974609  y  1.88776931849926  z   ${z_new}
set                atom          288751    x  2.22471490974609  y  1.88776931849926  z   30.2382805980131
Setting atom values ...
  1 settings made for x
  1 settings made for y
  1 settings made for z

fix                hold    carbon   planeforce   ${new_x}  ${new_y}  ${new_z}
fix                hold    carbon   planeforce   -0.10444978316393  ${new_y}  ${new_z}
fix                hold    carbon   planeforce   -0.10444978316393  -0.10999461989103  ${new_z}
fix                hold    carbon   planeforce   -0.10444978316393  -0.10999461989103  -0.0169341634365985
min_style          cg
minimize           1.0e-30 1.0e-30 10000 10000
Per MPI rank memory allocation (min/avg/max) = 5.441 | 5.816 | 6.074 Mbytes
Step PotEng KinEng TotEng v_fx v_fy v_fz 
    1405   -1152449.4            0   -1152449.4  0.013869713 -0.012785874 -0.0024985697 
    1548   -1152449.4            0   -1152449.4 1.3759256e-05 -9.553641e-06 -2.2812001e-05 
Loop time of 1.71983 on 104 procs for 143 steps with 288751 atoms

99.9% CPU use with 104 MPI tasks x 1 OpenMP threads

Minimization stats:
  Stopping criterion = energy tolerance
  Energy initial, next-to-last, final = 
     -1152449.39366523  -1152449.39504374  -1152449.39504374
  Force two-norm initial, final = 0.16756685 0.00015783604
  Force max component initial, final = 0.074515007 2.5521476e-05
  Final line search alpha, max atom move = 1.0000000 2.5521476e-05
  Iterations, force evaluations = 143 286

MPI task timing breakdown:
Section |  min time  |  avg time  |  max time  |%varavg| %total
---------------------------------------------------------------
Pair    | 0.4349     | 1.2109     | 1.6129     |  29.7 | 70.41
Neigh   | 0          | 0          | 0          |   0.0 |  0.00
Comm    | 0.025835   | 0.28229    | 0.83842    |  42.7 | 16.41
Output  | 0          | 0          | 0          |   0.0 |  0.00
Modify  | 1.7519e-05 | 0.0023755  | 0.0050802  |   2.3 |  0.14
Other   |            | 0.2242     |            |       | 13.04

Nlocal:        2776.45 ave        3949 max           0 min
Histogram: 8 4 4 0 4 12 8 2 26 36
Nghost:        3879.03 ave        5424 max         232 min
Histogram: 8 0 8 0 16 0 8 8 16 40
Neighs:        79213.5 ave      115072 max           0 min
Histogram: 8 4 4 0 10 6 8 8 24 32

Total # of neighbors = 8238202
Ave neighs/atom = 28.530471
Neighbor list builds = 0
Dangerous builds = 0
unfix              hold

variable           new_x         delete
variable           new_y         delete
variable           new_z         delete
variable           dot           delete
variable           new_x         equal     ${x0}-${x_0}
variable           new_x         equal     2.22276113310553-${x_0}
variable           new_x         equal     2.22276113310553-2.34285152742585
variable           new_y         equal     ${y0}-${y_0}
variable           new_y         equal     1.88986650871865-${y_0}
variable           new_y         equal     1.88986650871865-2.0121773542393
variable           new_z         equal     ${z0}-${z_0}
variable           new_z         equal     30.236709330872-${z_0}
variable           new_z         equal     30.236709330872-30.2574337712513

variable           dot      equal     ${fx}*${new_x}+${fy}*${new_y}+${fz}*${new_z}
variable           dot      equal     1.37592555575865e-05*${new_x}+${fy}*${new_y}+${fz}*${new_z}
variable           dot      equal     1.37592555575865e-05*-0.12009039432032+${fy}*${new_y}+${fz}*${new_z}
variable           dot      equal     1.37592555575865e-05*-0.12009039432032+-9.55364100592989e-06*${new_y}+${fz}*${new_z}
variable           dot      equal     1.37592555575865e-05*-0.12009039432032+-9.55364100592989e-06*-0.12231084552065+${fz}*${new_z}
variable           dot      equal     1.37592555575865e-05*-0.12009039432032+-9.55364100592989e-06*-0.12231084552065+-2.28120007189016e-05*${new_z}
variable           dot      equal     1.37592555575865e-05*-0.12009039432032+-9.55364100592989e-06*-0.12231084552065+-2.28120007189016e-05*-0.0207244403793005
print              "The dot product: ${dot}"
The dot product: -1.10745673971428e-08

if "(${dot} >= 0.0) && (${dot} < 1.0e-10)" then "jump TaR.in relaxation" elif "(${dot} < 0.0) && (${dot} > -1.0e-10)" "jump TaR.in relaxation" elif "(${iteration} == ${iter_tot}) && (${seed} < 319)" "print 'The iteration number is maximum!'" "next seed" "variable iteration delete" "jump TaR.in loop" elif "(${iteration} == ${iter_tot}) && (${seed} == 319)" "quit" else    "next iteration"    "jump TaR.in iteration"
next iteration
jump TaR.in iteration
variable           norm          equal     sqrt(${new_x}^2+${new_y}^2+${new_z}^2)
variable           norm          equal     sqrt(-0.12009039432032^2+${new_y}^2+${new_z}^2)
variable           norm          equal     sqrt(-0.12009039432032^2+-0.12231084552065^2+${new_z}^2)
variable           norm          equal     sqrt(-0.12009039432032^2+-0.12231084552065^2+-0.0207244403793005^2)
variable           unit_x        equal     ${new_x}/${norm}
variable           unit_x        equal     -0.12009039432032/${norm}
variable           unit_x        equal     -0.12009039432032/0.172659051801582
variable           unit_y        equal     ${new_y}/${norm}
variable           unit_y        equal     -0.12231084552065/${norm}
variable           unit_y        equal     -0.12231084552065/0.172659051801582
variable           unit_z        equal     ${new_z}/${norm}
variable           unit_z        equal     -0.0207244403793005/${norm}
variable           unit_z        equal     -0.0207244403793005/0.172659051801582
variable           x_new         equal     ${x0}+${delta}*${unit_x}
variable           x_new         equal     2.22276113310553+${delta}*${unit_x}
variable           x_new         equal     2.22276113310553+0.02*${unit_x}
variable           x_new         equal     2.22276113310553+0.02*-0.695534888366737
variable           y_new         equal     ${y0}+${delta}*${unit_y}
variable           y_new         equal     1.88986650871865+${delta}*${unit_y}
variable           y_new         equal     1.88986650871865+0.02*${unit_y}
variable           y_new         equal     1.88986650871865+0.02*-0.708395211513199
variable           z_new         equal     ${z0}+${delta}*${unit_z}
variable           z_new         equal     30.236709330872+${delta}*${unit_z}
variable           z_new         equal     30.236709330872+0.02*${unit_z}
variable           z_new         equal     30.236709330872+0.02*-0.120031010034254

set                atom          $i    x  ${x_new}  y  ${y_new}  z   ${z_new}
set                atom          288751    x  ${x_new}  y  ${y_new}  z   ${z_new}
set                atom          288751    x  2.2088504353382  y  ${y_new}  z   ${z_new}
set                atom          288751    x  2.2088504353382  y  1.87569860448839  z   ${z_new}
set                atom          288751    x  2.2088504353382  y  1.87569860448839  z   30.2343087106713
Setting atom values ...
  1 settings made for x
  1 settings made for y
  1 settings made for z

fix                hold    carbon   planeforce   ${new_x}  ${new_y}  ${new_z}
fix                hold    carbon   planeforce   -0.12009039432032  ${new_y}  ${new_z}
fix                hold    carbon   planeforce   -0.12009039432032  -0.12231084552065  ${new_z}
fix                hold    carbon   planeforce   -0.12009039432032  -0.12231084552065  -0.0207244403793005
min_style          cg
minimize           1.0e-30 1.0e-30 10000 10000
Per MPI rank memory allocation (min/avg/max) = 5.441 | 5.816 | 6.074 Mbytes
Step PotEng KinEng TotEng v_fx v_fy v_fz 
    1548   -1152449.4            0   -1152449.4  0.014536566 -0.014165344 -0.00063339213 
    1697   -1152449.4            0   -1152449.4 5.5080441e-06 4.2816677e-06 -5.718647e-05 
Loop time of 1.75075 on 104 procs for 149 steps with 288751 atoms

99.9% CPU use with 104 MPI tasks x 1 OpenMP threads

Minimization stats:
  Stopping criterion = energy tolerance
  Energy initial, next-to-last, final = 
     -1152449.38027141   -1152449.3816552   -1152449.3816552
  Force two-norm initial, final = 0.16800435 0.00022709308
  Force max component initial, final = 0.074348422 5.7186470e-05
  Final line search alpha, max atom move = 1.0000000 5.7186470e-05
  Iterations, force evaluations = 149 298

MPI task timing breakdown:
Section |  min time  |  avg time  |  max time  |%varavg| %total
---------------------------------------------------------------
Pair    | 0.45347    | 1.2555     | 1.6504     |  30.3 | 71.71
Neigh   | 0          | 0          | 0          |   0.0 |  0.00
Comm    | 0.026292   | 0.28626    | 0.85575    |  44.1 | 16.35
Output  | 0          | 0          | 0          |   0.0 |  0.00
Modify  | 1.7734e-05 | 0.0024563  | 0.0052694  |   2.3 |  0.14
Other   |            | 0.2065     |            |       | 11.80

Nlocal:        2776.45 ave        3948 max           0 min
Histogram: 8 4 4 0 4 12 8 2 26 36
Nghost:        3879.03 ave        5424 max         232 min
Histogram: 8 0 8 0 16 0 8 8 16 40
Neighs:        79213.5 ave      115044 max           0 min
Histogram: 8 4 4 0 10 6 8 8 24 32

Total # of neighbors = 8238203
Ave neighs/atom = 28.530474
Neighbor list builds = 0
Dangerous builds = 0
unfix              hold

variable           new_x         delete
variable           new_y         delete
variable           new_z         delete
variable           dot           delete
variable           new_x         equal     ${x0}-${x_0}
variable           new_x         equal     2.20718671050084-${x_0}
variable           new_x         equal     2.20718671050084-2.34285152742585
variable           new_y         equal     ${y0}-${y_0}
variable           new_y         equal     1.8775872226029-${y_0}
variable           new_y         equal     1.8775872226029-2.0121773542393
variable           new_z         equal     ${z0}-${z_0}
variable           new_z         equal     30.2328031883937-${z_0}
variable           new_z         equal     30.2328031883937-30.2574337712513

variable           dot      equal     ${fx}*${new_x}+${fy}*${new_y}+${fz}*${new_z}
variable           dot      equal     5.50804408755533e-06*${new_x}+${fy}*${new_y}+${fz}*${new_z}
variable           dot      equal     5.50804408755533e-06*-0.13566481692501+${fy}*${new_y}+${fz}*${new_z}
variable           dot      equal     5.50804408755533e-06*-0.13566481692501+4.28166769293577e-06*${new_y}+${fz}*${new_z}
variable           dot      equal     5.50804408755533e-06*-0.13566481692501+4.28166769293577e-06*-0.1345901316364+${fz}*${new_z}
variable           dot      equal     5.50804408755533e-06*-0.13566481692501+4.28166769293577e-06*-0.1345901316364+-5.71864697164817e-05*${new_z}
variable           dot      equal     5.50804408755533e-06*-0.13566481692501+4.28166769293577e-06*-0.1345901316364+-5.71864697164817e-05*-0.0246305828576006
print              "The dot product: ${dot}"
The dot product: 8.50180695168458e-08

if "(${dot} >= 0.0) && (${dot} < 1.0e-10)" then "jump TaR.in relaxation" elif "(${dot} < 0.0) && (${dot} > -1.0e-10)" "jump TaR.in relaxation" elif "(${iteration} == ${iter_tot}) && (${seed} < 319)" "print 'The iteration number is maximum!'" "next seed" "variable iteration delete" "jump TaR.in loop" elif "(${iteration} == ${iter_tot}) && (${seed} == 319)" "quit" else    "next iteration"    "jump TaR.in iteration"
next iteration
jump TaR.in iteration
variable           norm          equal     sqrt(${new_x}^2+${new_y}^2+${new_z}^2)
variable           norm          equal     sqrt(-0.13566481692501^2+${new_y}^2+${new_z}^2)
variable           norm          equal     sqrt(-0.13566481692501^2+-0.1345901316364^2+${new_z}^2)
variable           norm          equal     sqrt(-0.13566481692501^2+-0.1345901316364^2+-0.0246305828576006^2)
variable           unit_x        equal     ${new_x}/${norm}
variable           unit_x        equal     -0.13566481692501/${norm}
variable           unit_x        equal     -0.13566481692501/0.192681373508456
variable           unit_y        equal     ${new_y}/${norm}
variable           unit_y        equal     -0.1345901316364/${norm}
variable           unit_y        equal     -0.1345901316364/0.192681373508456
variable           unit_z        equal     ${new_z}/${norm}
variable           unit_z        equal     -0.0246305828576006/${norm}
variable           unit_z        equal     -0.0246305828576006/0.192681373508456
variable           x_new         equal     ${x0}+${delta}*${unit_x}
variable           x_new         equal     2.20718671050084+${delta}*${unit_x}
variable           x_new         equal     2.20718671050084+0.02*${unit_x}
variable           x_new         equal     2.20718671050084+0.02*-0.70408890311889
variable           y_new         equal     ${y0}+${delta}*${unit_y}
variable           y_new         equal     1.8775872226029+${delta}*${unit_y}
variable           y_new         equal     1.8775872226029+0.02*${unit_y}
variable           y_new         equal     1.8775872226029+0.02*-0.69851137754368
variable           z_new         equal     ${z0}+${delta}*${unit_z}
variable           z_new         equal     30.2328031883937+${delta}*${unit_z}
variable           z_new         equal     30.2328031883937+0.02*${unit_z}
variable           z_new         equal     30.2328031883937+0.02*-0.127830637747243

set                atom          $i    x  ${x_new}  y  ${y_new}  z   ${z_new}
set                atom          288751    x  ${x_new}  y  ${y_new}  z   ${z_new}
set                atom          288751    x  2.19310493243846  y  ${y_new}  z   ${z_new}
set                atom          288751    x  2.19310493243846  y  1.86361699505203  z   ${z_new}
set                atom          288751    x  2.19310493243846  y  1.86361699505203  z   30.2302465756388
Setting atom values ...
  1 settings made for x
  1 settings made for y
  1 settings made for z

fix                hold    carbon   planeforce   ${new_x}  ${new_y}  ${new_z}
fix                hold    carbon   planeforce   -0.13566481692501  ${new_y}  ${new_z}
fix                hold    carbon   planeforce   -0.13566481692501  -0.1345901316364  ${new_z}
fix                hold    carbon   planeforce   -0.13566481692501  -0.1345901316364  -0.0246305828576006
min_style          cg
minimize           1.0e-30 1.0e-30 10000 10000
Per MPI rank memory allocation (min/avg/max) = 5.441 | 5.816 | 6.074 Mbytes
Step PotEng KinEng TotEng v_fx v_fy v_fz 
    1697   -1152449.4            0   -1152449.4  0.015567838 -0.015758445 0.00036228701 
    1854   -1152449.4            0   -1152449.4 1.3841152e-05 1.262131e-07 -7.6926497e-05 
Loop time of 1.83845 on 104 procs for 157 steps with 288751 atoms

99.9% CPU use with 104 MPI tasks x 1 OpenMP threads

Minimization stats:
  Stopping criterion = energy tolerance
  Energy initial, next-to-last, final = 
     -1152449.36536081   -1152449.3667489   -1152449.3667489
  Force two-norm initial, final = 0.16837253 0.00023959528
  Force max component initial, final = 0.074305903 7.6926497e-05
  Final line search alpha, max atom move = 1.0000000 7.6926497e-05
  Iterations, force evaluations = 157 314

MPI task timing breakdown:
Section |  min time  |  avg time  |  max time  |%varavg| %total
---------------------------------------------------------------
Pair    | 0.47558    | 1.3233     | 1.7455     |  31.1 | 71.98
Neigh   | 0          | 0          | 0          |   0.0 |  0.00
Comm    | 0.027027   | 0.30222    | 0.90158    |  45.8 | 16.44
Output  | 0          | 0          | 0          |   0.0 |  0.00
Modify  | 1.8439e-05 | 0.0025909  | 0.0056016  |   2.4 |  0.14
Other   |            | 0.2103     |            |       | 11.44

Nlocal:        2776.45 ave        3946 max           0 min
Histogram: 8 4 4 0 4 12 8 2 26 36
Nghost:        3879.03 ave        5424 max         232 min
Histogram: 8 0 8 0 16 0 8 8 16 40
Neighs:        79213.5 ave      114989 max           0 min
Histogram: 8 4 4 0 10 6 8 8 24 32

Total # of neighbors = 8238204
Ave neighs/atom = 28.530478
Neighbor list builds = 0
Dangerous builds = 0
unfix              hold

variable           new_x         delete
variable           new_y         delete
variable           new_z         delete
variable           dot           delete
variable           new_x         equal     ${x0}-${x_0}
variable           new_x         equal     2.19170351949843-${x_0}
variable           new_x         equal     2.19170351949843-2.34285152742585
variable           new_y         equal     ${y0}-${y_0}
variable           new_y         equal     1.86531975885812-${y_0}
variable           new_y         equal     1.86531975885812-2.0121773542393
variable           new_z         equal     ${z0}-${z_0}
variable           new_z         equal     30.2286610356182-${z_0}
variable           new_z         equal     30.2286610356182-30.2574337712513

variable           dot      equal     ${fx}*${new_x}+${fy}*${new_y}+${fz}*${new_z}
variable           dot      equal     1.38411524967913e-05*${new_x}+${fy}*${new_y}+${fz}*${new_z}
variable           dot      equal     1.38411524967913e-05*-0.15114800792742+${fy}*${new_y}+${fz}*${new_z}
variable           dot      equal     1.38411524967913e-05*-0.15114800792742+1.26213100169811e-07*${new_y}+${fz}*${new_z}
variable           dot      equal     1.38411524967913e-05*-0.15114800792742+1.26213100169811e-07*-0.14685759538118+${fz}*${new_z}
variable           dot      equal     1.38411524967913e-05*-0.15114800792742+1.26213100169811e-07*-0.14685759538118+-7.69264969574167e-05*${new_z}
variable           dot      equal     1.38411524967913e-05*-0.15114800792742+1.26213100169811e-07*-0.14685759538118+-7.69264969574167e-05*-0.0287727356331011
print              "The dot product: ${dot}"
The dot product: 1.02787780430124e-07

if "(${dot} >= 0.0) && (${dot} < 1.0e-10)" then "jump TaR.in relaxation" elif "(${dot} < 0.0) && (${dot} > -1.0e-10)" "jump TaR.in relaxation" elif "(${iteration} == ${iter_tot}) && (${seed} < 319)" "print 'The iteration number is maximum!'" "next seed" "variable iteration delete" "jump TaR.in loop" elif "(${iteration} == ${iter_tot}) && (${seed} == 319)" "quit" else    "next iteration"    "jump TaR.in iteration"
next iteration
jump TaR.in iteration
variable           norm          equal     sqrt(${new_x}^2+${new_y}^2+${new_z}^2)
variable           norm          equal     sqrt(-0.15114800792742^2+${new_y}^2+${new_z}^2)
variable           norm          equal     sqrt(-0.15114800792742^2+-0.14685759538118^2+${new_z}^2)
variable           norm          equal     sqrt(-0.15114800792742^2+-0.14685759538118^2+-0.0287727356331011^2)
variable           unit_x        equal     ${new_x}/${norm}
variable           unit_x        equal     -0.15114800792742/${norm}
variable           unit_x        equal     -0.15114800792742/0.212698716351045
variable           unit_y        equal     ${new_y}/${norm}
variable           unit_y        equal     -0.14685759538118/${norm}
variable           unit_y        equal     -0.14685759538118/0.212698716351045
variable           unit_z        equal     ${new_z}/${norm}
variable           unit_z        equal     -0.0287727356331011/${norm}
variable           unit_z        equal     -0.0287727356331011/0.212698716351045
[...]
  1 settings made for y
  1 settings made for z

fix                hold    carbon   planeforce   ${new_x}  ${new_y}  ${new_z}
fix                hold    carbon   planeforce   0.98305079227382  ${new_y}  ${new_z}
fix                hold    carbon   planeforce   0.98305079227382  1.68083653624741  ${new_z}
fix                hold    carbon   planeforce   0.98305079227382  1.68083653624741  1.4324422964402
min_style          cg
minimize           1.0e-30 1.0e-30 10000 10000
Per MPI rank memory allocation (min/avg/max) = 5.441 | 5.816 | 6.074 Mbytes
Step PotEng KinEng TotEng v_fx v_fy v_fz 
   20641   -1152448.9            0   -1152448.9 0.0047942411 -0.0027487843 -6.4732412e-05 
   20833   -1152448.9            0   -1152448.9 -1.0815086e-06 1.0431662e-05 -1.1498362e-05 
Loop time of 2.22248 on 104 procs for 192 steps with 288751 atoms

99.9% CPU use with 104 MPI tasks x 1 OpenMP threads

Minimization stats:
  Stopping criterion = energy tolerance
  Energy initial, next-to-last, final = 
     -1152448.92033291  -1152448.92168409  -1152448.92168409
  Force two-norm initial, final = 0.16964006 0.00011818925
  Force max component initial, final = 0.10392114 3.3667040e-05
  Final line search alpha, max atom move = 1.0000000 3.3667040e-05
  Iterations, force evaluations = 192 384

MPI task timing breakdown:
Section |  min time  |  avg time  |  max time  |%varavg| %total
---------------------------------------------------------------
Pair    | 0.58447    | 1.6079     | 2.0827     |  34.2 | 72.35
Neigh   | 0          | 0          | 0          |   0.0 |  0.00
Comm    | 0.0398     | 0.35973    | 1.0835     |  50.8 | 16.19
Output  | 0          | 0          | 0          |   0.0 |  0.00
Modify  | 2.1582e-05 | 0.0031618  | 0.0067018  |   2.7 |  0.14
Other   |            | 0.2517     |            |       | 11.32

Nlocal:        2776.45 ave        3930 max           0 min
Histogram: 8 4 4 0 4 12 8 0 26 38
Nghost:        3879.09 ave        5425 max         232 min
Histogram: 8 0 8 0 16 0 8 8 16 40
Neighs:        79213.3 ave      114451 max           0 min
Histogram: 8 4 4 0 8 8 8 8 20 36

Total # of neighbors = 8238184
Ave neighs/atom = 28.530409
Neighbor list builds = 0
Dangerous builds = 0
unfix              hold

variable           new_x         delete
variable           new_y         delete
variable           new_z         delete
variable           dot           delete
variable           new_x         equal     ${x0}-${x_0}
variable           new_x         equal     3.33398933604263-${x_0}
variable           new_x         equal     3.33398933604263-2.34285152742585
variable           new_y         equal     ${y0}-${y_0}
variable           new_y         equal     3.70496814489108-${y_0}
variable           new_y         equal     3.70496814489108-2.0121773542393
variable           new_z         equal     ${z0}-${z_0}
variable           new_z         equal     31.7040501348146-${z_0}
variable           new_z         equal     31.7040501348146-30.2574337712513

variable           dot      equal     ${fx}*${new_x}+${fy}*${new_y}+${fz}*${new_z}
variable           dot      equal     -1.08150859613862e-06*${new_x}+${fy}*${new_y}+${fz}*${new_z}
variable           dot      equal     -1.08150859613862e-06*0.99113780861678+${fy}*${new_y}+${fz}*${new_z}
variable           dot      equal     -1.08150859613862e-06*0.99113780861678+1.04316618169167e-05*${new_y}+${fz}*${new_z}
variable           dot      equal     -1.08150859613862e-06*0.99113780861678+1.04316618169167e-05*1.69279079065178+${fz}*${new_z}
variable           dot      equal     -1.08150859613862e-06*0.99113780861678+1.04316618169167e-05*1.69279079065178+-1.14983622548306e-05*${new_z}
variable           dot      equal     -1.08150859613862e-06*0.99113780861678+1.04316618169167e-05*1.69279079065178+-1.14983622548306e-05*1.4466163635633
print              "The dot product: ${dot}"
The dot product: -4.70219971231863e-08

if "(${dot} >= 0.0) && (${dot} < 1.0e-10)" then "jump TaR.in relaxation" elif "(${dot} < 0.0) && (${dot} > -1.0e-10)" "jump TaR.in relaxation" elif "(${iteration} == ${iter_tot}) && (${seed} < 319)" "print 'The iteration number is maximum!'" "next seed" "variable iteration delete" "jump TaR.in loop" elif "(${iteration} == ${iter_tot}) && (${seed} == 319)" "quit" else    "next iteration"    "jump TaR.in iteration"
next iteration
jump TaR.in iteration
variable           norm          equal     sqrt(${new_x}^2+${new_y}^2+${new_z}^2)
variable           norm          equal     sqrt(0.99113780861678^2+${new_y}^2+${new_z}^2)
variable           norm          equal     sqrt(0.99113780861678^2+1.69279079065178^2+${new_z}^2)
variable           norm          equal     sqrt(0.99113780861678^2+1.69279079065178^2+1.4466163635633^2)
variable           unit_x        equal     ${new_x}/${norm}
variable           unit_x        equal     0.99113780861678/${norm}
variable           unit_x        equal     0.99113780861678/2.43733332146308
variable           unit_y        equal     ${new_y}/${norm}
variable           unit_y        equal     1.69279079065178/${norm}
variable           unit_y        equal     1.69279079065178/2.43733332146308
variable           unit_z        equal     ${new_z}/${norm}
variable           unit_z        equal     1.4466163635633/${norm}
variable           unit_z        equal     1.4466163635633/2.43733332146308
variable           x_new         equal     ${x0}+${delta}*${unit_x}
variable           x_new         equal     3.33398933604263+${delta}*${unit_x}
variable           x_new         equal     3.33398933604263+0.02*${unit_x}
variable           x_new         equal     3.33398933604263+0.02*0.40664844643482
variable           y_new         equal     ${y0}+${delta}*${unit_y}
variable           y_new         equal     3.70496814489108+${delta}*${unit_y}
variable           y_new         equal     3.70496814489108+0.02*${unit_y}
variable           y_new         equal     3.70496814489108+0.02*0.694525765411369
variable           z_new         equal     ${z0}+${delta}*${unit_z}
variable           z_new         equal     31.7040501348146+${delta}*${unit_z}
variable           z_new         equal     31.7040501348146+0.02*${unit_z}
variable           z_new         equal     31.7040501348146+0.02*0.593524222076826

set                atom          $i    x  ${x_new}  y  ${y_new}  z   ${z_new}
set                atom          288751    x  ${x_new}  y  ${y_new}  z   ${z_new}
set                atom          288751    x  3.34212230497133  y  ${y_new}  z   ${z_new}
set                atom          288751    x  3.34212230497133  y  3.71885866019931  z   ${z_new}
set                atom          288751    x  3.34212230497133  y  3.71885866019931  z   31.7159206192561
Setting atom values ...
  1 settings made for x
  1 settings made for y
  1 settings made for z

fix                hold    carbon   planeforce   ${new_x}  ${new_y}  ${new_z}
fix                hold    carbon   planeforce   0.99113780861678  ${new_y}  ${new_z}
fix                hold    carbon   planeforce   0.99113780861678  1.69279079065178  ${new_z}
fix                hold    carbon   planeforce   0.99113780861678  1.69279079065178  1.4466163635633
min_style          cg
minimize           1.0e-30 1.0e-30 10000 10000
Per MPI rank memory allocation (min/avg/max) = 5.441 | 5.816 | 6.074 Mbytes
Step PotEng KinEng TotEng v_fx v_fy v_fz 
   20833     -1152449            0     -1152449 0.0047265651 0.0082875694 -0.012936255 
   21000     -1152449            0     -1152449 -3.9983008e-05 -3.7400751e-06 3.1770576e-05 
   21073     -1152449            0     -1152449 -2.3122962e-06 1.2535037e-06 1.1743596e-07 
Loop time of 2.7789 on 104 procs for 240 steps with 288751 atoms

99.9% CPU use with 104 MPI tasks x 1 OpenMP threads

Minimization stats:
  Stopping criterion = energy tolerance
  Energy initial, next-to-last, final = 
     -1152448.95219412   -1152448.9535364   -1152448.9535364
  Force two-norm initial, final = 0.1697747 1.4913103e-05
  Force max component initial, final = 0.10322515 2.4006919e-06
  Final line search alpha, max atom move = 1.0000000 2.4006919e-06
  Iterations, force evaluations = 240 480

MPI task timing breakdown:
Section |  min time  |  avg time  |  max time  |%varavg| %total
---------------------------------------------------------------
Pair    | 0.73329    | 2.0191     | 2.6292     |  38.4 | 72.66
Neigh   | 0          | 0          | 0          |   0.0 |  0.00
Comm    | 0.062288   | 0.46059    | 1.3674     |  56.1 | 16.57
Output  | 0.00015219 | 0.000155   | 0.00031393 |   0.0 |  0.01
Modify  | 2.7052e-05 | 0.0039466  | 0.0083913  |   3.0 |  0.14
Other   |            | 0.2951     |            |       | 10.62

Nlocal:        2776.45 ave        3930 max           0 min
Histogram: 8 4 4 0 4 12 8 0 26 38
Nghost:        3879.09 ave        5425 max         232 min
Histogram: 8 0 8 0 16 0 8 8 16 40
Neighs:        79213.3 ave      114447 max           0 min
Histogram: 8 4 4 0 8 8 8 8 20 36

Total # of neighbors = 8238185
Ave neighs/atom = 28.530412
Neighbor list builds = 0
Dangerous builds = 0
unfix              hold

variable           new_x         delete
variable           new_y         delete
variable           new_z         delete
variable           dot           delete
variable           new_x         equal     ${x0}-${x_0}
variable           new_x         equal     3.34166066497488-${x_0}
variable           new_x         equal     3.34166066497488-2.34285152742585
variable           new_y         equal     ${y0}-${y_0}
variable           new_y         equal     3.71975940907693-${y_0}
variable           new_y         equal     3.71975940907693-2.0121773542393
variable           new_z         equal     ${z0}-${z_0}
variable           new_z         equal     31.7151828766337-${z_0}
variable           new_z         equal     31.7151828766337-30.2574337712513

variable           dot      equal     ${fx}*${new_x}+${fy}*${new_y}+${fz}*${new_z}
variable           dot      equal     -2.31229623701286e-06*${new_x}+${fy}*${new_y}+${fz}*${new_z}
variable           dot      equal     -2.31229623701286e-06*0.99880913754903+${fy}*${new_y}+${fz}*${new_z}
variable           dot      equal     -2.31229623701286e-06*0.99880913754903+1.25350365280004e-06*${new_y}+${fz}*${new_z}
variable           dot      equal     -2.31229623701286e-06*0.99880913754903+1.25350365280004e-06*1.70758205483763+${fz}*${new_z}
variable           dot      equal     -2.31229623701286e-06*0.99880913754903+1.25350365280004e-06*1.70758205483763+1.17435963297422e-07*${new_z}
variable           dot      equal     -2.31229623701286e-06*0.99880913754903+1.25350365280004e-06*1.70758205483763+1.17435963297422e-07*1.4577491053824
print              "The dot product: ${dot}"
The dot product: 2.10990338262244e-09

if "(${dot} >= 0.0) && (${dot} < 1.0e-10)" then "jump TaR.in relaxation" elif "(${dot} < 0.0) && (${dot} > -1.0e-10)" "jump TaR.in relaxation" elif "(${iteration} == ${iter_tot}) && (${seed} < 319)" "print 'The iteration number is maximum!'" "next seed" "variable iteration delete" "jump TaR.in loop" elif "(${iteration} == ${iter_tot}) && (${seed} == 319)" "quit" else    "next iteration"    "jump TaR.in iteration"
next iteration
jump TaR.in iteration
variable           norm          equal     sqrt(${new_x}^2+${new_y}^2+${new_z}^2)
variable           norm          equal     sqrt(0.99880913754903^2+${new_y}^2+${new_z}^2)
variable           norm          equal     sqrt(0.99880913754903^2+1.70758205483763^2+${new_z}^2)
variable           norm          equal     sqrt(0.99880913754903^2+1.70758205483763^2+1.4577491053824^2)
variable           unit_x        equal     ${new_x}/${norm}
variable           unit_x        equal     0.99880913754903/${norm}
variable           unit_x        equal     0.99880913754903/2.45733364065569
variable           unit_y        equal     ${new_y}/${norm}
variable           unit_y        equal     1.70758205483763/${norm}
variable           unit_y        equal     1.70758205483763/2.45733364065569
variable           unit_z        equal     ${new_z}/${norm}
variable           unit_z        equal     1.4577491053824/${norm}
variable           unit_z        equal     1.4577491053824/2.45733364065569
variable           x_new         equal     ${x0}+${delta}*${unit_x}
variable           x_new         equal     3.34166066497488+${delta}*${unit_x}
variable           x_new         equal     3.34166066497488+0.02*${unit_x}
variable           x_new         equal     3.34166066497488+0.02*0.406460531457388
variable           y_new         equal     ${y0}+${delta}*${unit_y}
variable           y_new         equal     3.71975940907693+${delta}*${unit_y}
variable           y_new         equal     3.71975940907693+0.02*${unit_y}
variable           y_new         equal     3.71975940907693+0.02*0.694892230581272
variable           z_new         equal     ${z0}+${delta}*${unit_z}
variable           z_new         equal     31.7151828766337+${delta}*${unit_z}
variable           z_new         equal     31.7151828766337+0.02*${unit_z}
variable           z_new         equal     31.7151828766337+0.02*0.593223924201611

set                atom          $i    x  ${x_new}  y  ${y_new}  z   ${z_new}
set                atom          288751    x  ${x_new}  y  ${y_new}  z   ${z_new}
set                atom          288751    x  3.34978987560403  y  ${y_new}  z   ${z_new}
set                atom          288751    x  3.34978987560403  y  3.73365725368856  z   ${z_new}
set                atom          288751    x  3.34978987560403  y  3.73365725368856  z   31.7270473551177
Setting atom values ...
  1 settings made for x
  1 settings made for y
  1 settings made for z

fix                hold    carbon   planeforce   ${new_x}  ${new_y}  ${new_z}
fix                hold    carbon   planeforce   0.99880913754903  ${new_y}  ${new_z}
fix                hold    carbon   planeforce   0.99880913754903  1.70758205483763  ${new_z}
fix                hold    carbon   planeforce   0.99880913754903  1.70758205483763  1.4577491053824
min_style          cg
minimize           1.0e-30 1.0e-30 10000 10000
Per MPI rank memory allocation (min/avg/max) = 5.441 | 5.816 | 6.074 Mbytes
Step PotEng KinEng TotEng v_fx v_fy v_fz 
   21073     -1152449            0     -1152449 0.0063414094   0.00700125   -0.0125461 
   21362     -1152449            0     -1152449 4.346459e-08 3.0699271e-08 -6.5741322e-08 
Loop time of 3.30349 on 104 procs for 289 steps with 288751 atoms

99.9% CPU use with 104 MPI tasks x 1 OpenMP threads

Minimization stats:
  Stopping criterion = energy tolerance
  Energy initial, next-to-last, final = 
     -1152448.98241089  -1152448.98375114  -1152448.98375114
  Force two-norm initial, final = 0.16907292 2.3177199e-06
  Force max component initial, final = 0.10237886 5.3829448e-07
  Final line search alpha, max atom move = 1.0000000 5.3829448e-07
  Iterations, force evaluations = 289 578

MPI task timing breakdown:
Section |  min time  |  avg time  |  max time  |%varavg| %total
---------------------------------------------------------------
Pair    | 0.8803     | 2.4166     | 3.1309     |  41.8 | 73.15
Neigh   | 0          | 0          | 0          |   0.0 |  0.00
Comm    | 0.054439   | 0.53667    | 1.6302     |  62.5 | 16.25
Output  | 0          | 0          | 0          |   0.0 |  0.00
Modify  | 3.2027e-05 | 0.0047601  | 0.010098   |   3.3 |  0.14
Other   |            | 0.3455     |            |       | 10.46

Nlocal:        2776.45 ave        3930 max           0 min
Histogram: 8 4 4 0 4 12 8 0 26 38
Nghost:        3879.01 ave        5425 max         232 min
Histogram: 8 0 8 0 16 0 8 8 16 40
Neighs:        79213.3 ave      114447 max           0 min
Histogram: 8 4 4 0 8 8 8 8 20 36

Total # of neighbors = 8238187
Ave neighs/atom = 28.530419
Neighbor list builds = 0
Dangerous builds = 0
unfix              hold

variable           new_x         delete
variable           new_y         delete
variable           new_z         delete
variable           dot           delete
variable           new_x         equal     ${x0}-${x_0}
variable           new_x         equal     3.3495848929052-${x_0}
variable           new_x         equal     3.3495848929052-2.34285152742585
variable           new_y         equal     ${y0}-${y_0}
variable           new_y         equal     3.73411372873576-${y_0}
variable           new_y         equal     3.73411372873576-2.0121773542393
variable           new_z         equal     ${z0}-${z_0}
variable           new_z         equal     31.7266530965966-${z_0}
variable           new_z         equal     31.7266530965966-30.2574337712513

variable           dot      equal     ${fx}*${new_x}+${fy}*${new_y}+${fz}*${new_z}
variable           dot      equal     4.34645902771918e-08*${new_x}+${fy}*${new_y}+${fz}*${new_z}
variable           dot      equal     4.34645902771918e-08*1.00673336547935+${fy}*${new_y}+${fz}*${new_z}
variable           dot      equal     4.34645902771918e-08*1.00673336547935+3.06992705555368e-08*${new_y}+${fz}*${new_z}
variable           dot      equal     4.34645902771918e-08*1.00673336547935+3.06992705555368e-08*1.72193637449646+${fz}*${new_z}
variable           dot      equal     4.34645902771918e-08*1.00673336547935+3.06992705555368e-08*1.72193637449646+-6.57413223016174e-08*${new_z}
variable           dot      equal     4.34645902771918e-08*1.00673336547935+3.06992705555368e-08*1.72193637449646+-6.57413223016174e-08*1.4692193253453
print              "The dot product: ${dot}"
The dot product: 3.10226897350337e-11

if "(${dot} >= 0.0) && (${dot} < 1.0e-10)" then "jump TaR.in relaxation" elif "(${dot} < 0.0) && (${dot} > -1.0e-10)" "jump TaR.in relaxation" elif "(${iteration} == ${iter_tot}) && (${seed} < 319)" "print 'The iteration number is maximum!'" "next seed" "variable iteration delete" "jump TaR.in loop" elif "(${iteration} == ${iter_tot}) && (${seed} == 319)" "quit" else    "next iteration"    "jump TaR.in iteration"
jump TaR.in relaxation
#full relaxation
min_style          cg
minimize           1.0e-30 1.0e-30 10000 10000
Per MPI rank memory allocation (min/avg/max) = 5.441 | 5.816 | 6.074 Mbytes
Step PotEng KinEng TotEng v_fx v_fy v_fz 
   21362     -1152449            0     -1152449   0.59745744    1.0214239   0.87198133 
   21617   -1152449.3            0   -1152449.3 3.2220363e-05 -2.6043611e-06 -3.0043805e-05 
Loop time of 2.9258 on 104 procs for 255 steps with 288751 atoms

99.9% CPU use with 104 MPI tasks x 1 OpenMP threads

Minimization stats:
  Stopping criterion = energy tolerance
  Energy initial, next-to-last, final = 
     -1152448.98375114  -1152449.26566397  -1152449.26566397
  Force two-norm initial, final = 1.4699026 0.00016459492
  Force max component initial, final = 1.0214239 3.2220363e-05
  Final line search alpha, max atom move = 1.0000000 3.2220363e-05
  Iterations, force evaluations = 255 509

MPI task timing breakdown:
Section |  min time  |  avg time  |  max time  |%varavg| %total
---------------------------------------------------------------
Pair    | 0.783      | 2.1425     | 2.7564     |  39.2 | 73.23
Neigh   | 2.0037e-05 | 0.0059091  | 0.0085411  |   3.2 |  0.20
Comm    | 0.054572   | 0.48002    | 1.4557     |  58.7 | 16.41
Output  | 0          | 0          | 0          |   0.0 |  0.00
Modify  | 2.6978e-05 | 0.0027307  | 0.0070191  |   3.3 |  0.09
Other   |            | 0.2947     |            |       | 10.07

Nlocal:        2776.45 ave        3930 max           0 min
Histogram: 8 4 4 0 4 12 8 0 26 38
Nghost:        3879.01 ave        5425 max         232 min
Histogram: 8 0 8 0 16 0 8 8 16 40
Neighs:        79213.3 ave      114483 max           0 min
Histogram: 8 4 4 0 8 8 8 8 20 36

Total # of neighbors = 8238184
Ave neighs/atom = 28.530409
Neighbor list builds = 2
Dangerous builds = 0
print              "${x0} ${y0} ${z0}" append info.dat screen no

if "${seed} < 319" then "next seed" "variable iteration delete" "jump TaR.in loop" else "quit"
quit
