LAMMPS (29 Oct 2020)
OMP_NUM_THREADS environment is not set. Defaulting to 1 thread. (../comm.cpp:94)
  using 1 OpenMP thread(s) per MPI task
OMP_NUM_THREADS environment is not set. Defaulting to 1 thread. (../comm.cpp:94)
  using 1 OpenMP thread(s) per MPI task
Reading data file ...
  orthogonal box = (-122.39241 -121.13707 -37.090501) to (122.39241 121.13707 37.090501)
  13 by 4 by 2 MPI processor grid
  reading atoms ...
  288751 atoms
  read_data CPU = 0.375 seconds
199981 atoms in group inner
88770 atoms in group outer
1 atoms in group carbon
Neighbor list info ...
  update every 1 steps, delay 0 steps, check yes
  max neighbors/atom: 2000, page size: 100000
  master list distance cutoff = 5.6
  ghost atom cutoff = 5.6
  binsize = 2.8, bins = 88 87 27
  1 neighbor lists, perpetual/occasional/extra = 1 0 0
  (1) pair eam/alloy, perpetual
      attributes: half, newton on
      pair build: half/bin/atomonly/newton
      stencil: half/bin/3d/newton
      bin: standard
Setting up cg style minimization ...
  Unit style    : metal
  Current step  : 0
Per MPI rank memory allocation (min/avg/max) = 5.441 | 5.816 | 6.074 Mbytes
Step v_fx v_fy v_fz PotEng KinEng TotEng 
       0    26.488754    15.392165    51.701941   -1152432.9            0   -1152432.9 
     193 -4.2850889e-06 -4.5561473e-08 -1.0380855e-05   -1152449.5            0   -1152449.5 
Loop time of 2.25474 on 104 procs for 193 steps with 288751 atoms

99.8% CPU use with 104 MPI tasks x 1 OpenMP threads

Minimization stats:
  Stopping criterion = linesearch alpha is zero
  Energy initial, next-to-last, final = 
     -1152432.87813519  -1152449.45035287  -1152449.45035287
  Force two-norm initial, final = 89.876174 4.2417941e-05
  Force max component initial, final = 58.775406 1.0380855e-05
  Final line search alpha, max atom move = 0.5 5.1904277e-06
  Iterations, force evaluations = 193 379

MPI task timing breakdown:
Section |  min time  |  avg time  |  max time  |%varavg| %total
---------------------------------------------------------------
Pair    | 0.60227    | 1.5995     | 2.1011     |  33.5 | 70.94
Neigh   | 5.1674e-05 | 0.014705   | 0.021577   |   5.0 |  0.65
Comm    | 0.038265   | 0.3648     | 1.0788     |  49.4 | 16.18
Output  | 0          | 0          | 0          |   0.0 |  0.00
Modify  | 2.1872e-05 | 0.0020441  | 0.005241   |   2.8 |  0.09
Other   |            | 0.2737     |            |       | 12.14

Nlocal:        2776.45 ave        3960 max           0 min
Histogram: 8 4 4 0 4 12 8 2 28 34
Nghost:        3879.03 ave        5424 max         232 min
Histogram: 8 0 8 0 16 0 8 8 16 40
Neighs:        79213.6 ave      115428 max           0 min
Histogram: 8 4 4 0 10 6 8 8 24 32

Total # of neighbors = 8238211
Ave neighs/atom = 28.530502
Neighbor list builds = 5
Dangerous builds = 0
Setting atom values ...
  1 settings made for x
  1 settings made for y
  1 settings made for z
Setting up cg style minimization ...
  Unit style    : metal
  Current step  : 193
Per MPI rank memory allocation (min/avg/max) = 5.441 | 5.816 | 6.074 Mbytes
Step PotEng KinEng TotEng v_fx v_fy v_fz 
     193   -1152449.4            0   -1152449.4   0.01242524 -0.016210239 -0.020775234 
     314   -1152449.5            0   -1152449.5 -7.3484547e-06 2.4324401e-05 5.9339833e-05 
Loop time of 1.44744 on 104 procs for 121 steps with 288751 atoms

99.9% CPU use with 104 MPI tasks x 1 OpenMP threads

Minimization stats:
  Stopping criterion = energy tolerance
  Energy initial, next-to-last, final = 
     -1152449.44947028  -1152449.45002042  -1152449.45002042
  Force two-norm initial, final = 0.10821418 0.00019166775
  Force max component initial, final = 0.047627055 5.9339833e-05
  Final line search alpha, max atom move = 1.0000000 5.9339833e-05
  Iterations, force evaluations = 121 242

MPI task timing breakdown:
Section |  min time  |  avg time  |  max time  |%varavg| %total
---------------------------------------------------------------
Pair    | 0.36905    | 1.0239     | 1.3497     |  27.3 | 70.74
Neigh   | 0          | 0          | 0          |   0.0 |  0.00
Comm    | 0.021238   | 0.23497    | 0.69912    |  40.0 | 16.23
Output  | 0          | 0          | 0          |   0.0 |  0.00
Modify  | 1.4615e-05 | 0.0020055  | 0.0042955  |   2.1 |  0.14
Other   |            | 0.1866     |            |       | 12.89

Nlocal:        2776.45 ave        3959 max           0 min
Histogram: 8 4 4 0 4 12 8 2 28 34
Nghost:        3879.03 ave        5424 max         232 min
Histogram: 8 0 8 0 16 0 8 8 16 40
Neighs:        79213.4 ave      115406 max           0 min
Histogram: 8 4 4 0 10 6 8 8 24 32

Total # of neighbors = 8238197
Ave neighs/atom = 28.530454
Neighbor list builds = 0
Dangerous builds = 0
Setting atom values ...
  1 settings made for x
  1 settings made for y
  1 settings made for z
Setting up cg style minimization ...
  Unit style    : metal
  Current step  : 314
Per MPI rank memory allocation (min/avg/max) = 5.441 | 5.816 | 6.074 Mbytes
Step PotEng KinEng TotEng v_fx v_fy v_fz 
     314   -1152449.4            0   -1152449.4  0.021657605 -0.023227426 -0.033838604 
     450   -1152449.4            0   -1152449.4 -5.3178315e-06 1.3331773e-06 -1.3377735e-05 
Loop time of 1.59942 on 104 procs for 136 steps with 288751 atoms

99.9% CPU use with 104 MPI tasks x 1 OpenMP threads

Minimization stats:
  Stopping criterion = energy tolerance
  Energy initial, next-to-last, final = 
     -1152449.44665804  -1152449.44808497  -1152449.44808497
  Force two-norm initial, final = 0.17470192 0.00014539937
  Force max component initial, final = 0.07951857 1.3377735e-05
  Final line search alpha, max atom move = 1.0000000 1.3377735e-05
  Iterations, force evaluations = 136 272

MPI task timing breakdown:
Section |  min time  |  avg time  |  max time  |%varavg| %total
---------------------------------------------------------------
Pair    | 0.41538    | 1.1435     | 1.5033     |  28.8 | 71.49
Neigh   | 0          | 0          | 0          |   0.0 |  0.00
Comm    | 0.025644   | 0.25912    | 0.77431    |  42.4 | 16.20
Output  | 0          | 0          | 0          |   0.0 |  0.00
Modify  | 1.6539e-05 | 0.0022439  | 0.0048361  |   2.2 |  0.14
Other   |            | 0.1946     |            |       | 12.16

Nlocal:        2776.45 ave        3958 max           0 min
Histogram: 8 4 4 0 4 12 8 2 28 34
Nghost:        3879.03 ave        5424 max         232 min
Histogram: 8 0 8 0 16 0 8 8 16 40
Neighs:        79213.5 ave      115384 max           0 min
Histogram: 8 4 4 0 10 6 8 8 24 32

Total # of neighbors = 8238199
Ave neighs/atom = 28.530461
Neighbor list builds = 0
Dangerous builds = 0
The dot product: 3.21341968593122e-08
Setting atom values ...
  1 settings made for x
  1 settings made for y
  1 settings made for z
Setting up cg style minimization ...
  Unit style    : metal
  Current step  : 450
Per MPI rank memory allocation (min/avg/max) = 5.441 | 5.816 | 6.074 Mbytes
Step PotEng KinEng TotEng v_fx v_fy v_fz 
     450   -1152449.4            0   -1152449.4  0.021021881 -0.019035519 -0.031929669 
     557   -1152449.4            0   -1152449.4 6.2564632e-06 3.6430326e-06 7.9975617e-05 
Loop time of 1.28395 on 104 procs for 107 steps with 288751 atoms

99.9% CPU use with 104 MPI tasks x 1 OpenMP threads

Minimization stats:
  Stopping criterion = energy tolerance
  Energy initial, next-to-last, final = 
     -1152449.44328023   -1152449.4446603   -1152449.4446603
  Force two-norm initial, final = 0.17149399 0.00022361334
  Force max component initial, final = 0.079146231 7.9975617e-05
  Final line search alpha, max atom move = 1.0000000 7.9975617e-05
  Iterations, force evaluations = 107 214

MPI task timing breakdown:
Section |  min time  |  avg time  |  max time  |%varavg| %total
---------------------------------------------------------------
Pair    | 0.32644    | 0.9077     | 1.215      |  25.8 | 70.70
Neigh   | 0          | 0          | 0          |   0.0 |  0.00
Comm    | 0.017691   | 0.21149    | 0.62607    |  36.9 | 16.47
Output  | 0          | 0          | 0          |   0.0 |  0.00
Modify  | 1.3188e-05 | 0.0017642  | 0.0037711  |   2.0 |  0.14
Other   |            | 0.163      |            |       | 12.69

Nlocal:        2776.45 ave        3957 max           0 min
Histogram: 8 4 4 0 4 12 8 2 28 34
Nghost:        3879.03 ave        5424 max         232 min
Histogram: 8 0 8 0 16 0 8 8 16 40
Neighs:        79213.5 ave      115361 max           0 min
Histogram: 8 4 4 0 10 6 8 8 24 32

Total # of neighbors = 8238199
Ave neighs/atom = 28.530461
Neighbor list builds = 0
Dangerous builds = 0
The dot product: -2.71139323688904e-07
Setting atom values ...
  1 settings made for x
  1 settings made for y
  1 settings made for z
Setting up cg style minimization ...
  Unit style    : metal
  Current step  : 557
Per MPI rank memory allocation (min/avg/max) = 5.441 | 5.816 | 6.074 Mbytes
Step PotEng KinEng TotEng v_fx v_fy v_fz 
     557   -1152449.4            0   -1152449.4  0.019611332 -0.015585831 -0.026115683 
     663   -1152449.4            0   -1152449.4 1.9679579e-05 -1.6240114e-05 -5.1511937e-05 
Loop time of 1.26644 on 104 procs for 106 steps with 288751 atoms

99.9% CPU use with 104 MPI tasks x 1 OpenMP threads

Minimization stats:
  Stopping criterion = energy tolerance
  Energy initial, next-to-last, final = 
     -1152449.43854603  -1152449.43990966  -1152449.43990966
  Force two-norm initial, final = 0.16883465 0.00024557467
  Force max component initial, final = 0.077226769 5.1511937e-05
  Final line search alpha, max atom move = 1.0000000 5.1511937e-05
  Iterations, force evaluations = 106 212

MPI task timing breakdown:
Section |  min time  |  avg time  |  max time  |%varavg| %total
---------------------------------------------------------------
Pair    | 0.32456    | 0.8915     | 1.1727     |  25.4 | 70.39
Neigh   | 0          | 0          | 0          |   0.0 |  0.00
Comm    | 0.01987    | 0.20562    | 0.60631    |  36.7 | 16.24
Output  | 0          | 0          | 0          |   0.0 |  0.00
Modify  | 1.257e-05  | 0.0017547  | 0.0037423  |   2.0 |  0.14
Other   |            | 0.1676     |            |       | 13.23

Nlocal:        2776.45 ave        3956 max           0 min
Histogram: 8 4 4 0 4 12 8 0 30 34
Nghost:        3879.03 ave        5424 max         232 min
Histogram: 8 0 8 0 16 0 8 8 16 40
Neighs:        79213.5 ave      115321 max           0 min
Histogram: 8 4 4 0 10 6 8 8 24 32

Total # of neighbors = 8238201
Ave neighs/atom = 28.530467
Neighbor list builds = 0
Dangerous builds = 0
The dot product: 1.39737198355707e-07
Setting atom values ...
  1 settings made for x
  1 settings made for y
  1 settings made for z
Setting up cg style minimization ...
  Unit style    : metal
  Current step  : 663
Per MPI rank memory allocation (min/avg/max) = 5.441 | 5.816 | 6.074 Mbytes
Step PotEng KinEng TotEng v_fx v_fy v_fz 
     663   -1152449.4            0   -1152449.4  0.017890584 -0.013501597 -0.019467101 
     868   -1152449.4            0   -1152449.4 2.9162313e-06 -2.2229257e-06 -2.5548344e-06 
Loop time of 2.4 on 104 procs for 205 steps with 288751 atoms

99.9% CPU use with 104 MPI tasks x 1 OpenMP threads

Minimization stats:
  Stopping criterion = energy tolerance
  Energy initial, next-to-last, final = 
     -1152449.43244142  -1152449.43379767  -1152449.43379767
  Force two-norm initial, final = 0.16730939 4.5525210e-05
  Force max component initial, final = 0.074580903 1.1140032e-05
  Final line search alpha, max atom move = 1.0000000 1.1140032e-05
  Iterations, force evaluations = 205 410

MPI task timing breakdown:
Section |  min time  |  avg time  |  max time  |%varavg| %total
---------------------------------------------------------------
Pair    | 0.62582    | 1.7287     | 2.2667     |  35.4 | 72.03
Neigh   | 0          | 0          | 0          |   0.0 |  0.00
Comm    | 0.03785    | 0.39371    | 1.178      |  51.9 | 16.40
Output  | 0          | 0          | 0          |   0.0 |  0.00
Modify  | 2.5952e-05 | 0.0033825  | 0.0073018  |   2.8 |  0.14
Other   |            | 0.2742     |            |       | 11.42

Nlocal:        2776.45 ave        3955 max           0 min
Histogram: 8 4 4 0 4 12 8 0 30 34
Nghost:        3879.03 ave        5424 max         232 min
Histogram: 8 0 8 0 16 0 8 8 16 40
Neighs:        79213.5 ave      115280 max           0 min
Histogram: 8 4 4 0 10 6 8 8 24 32

Total # of neighbors = 8238202
Ave neighs/atom = 28.530471
Neighbor list builds = 0
Dangerous builds = 0
The dot product: 1.44659171138566e-10
Setting atom values ...
  1 settings made for x
  1 settings made for y
  1 settings made for z
Setting up cg style minimization ...
  Unit style    : metal
  Current step  : 868
Per MPI rank memory allocation (min/avg/max) = 5.441 | 5.816 | 6.074 Mbytes
Step PotEng KinEng TotEng v_fx v_fy v_fz 
     868   -1152449.4            0   -1152449.4  0.016169057 -0.012367028  -0.01349365 
    1000   -1152449.4            0   -1152449.4 -1.4514945e-05 1.3438404e-05 -1.7326547e-05 
    1061   -1152449.4            0   -1152449.4 -5.4849143e-06 3.0684981e-06 1.8773262e-05 
Loop time of 2.28629 on 104 procs for 193 steps with 288751 atoms

99.9% CPU use with 104 MPI tasks x 1 OpenMP threads

Minimization stats:
  Stopping criterion = energy tolerance
  Energy initial, next-to-last, final = 
     -1152449.42492682  -1152449.42628366  -1152449.42628366
  Force two-norm initial, final = 0.16676391 6.2464018e-05
  Force max component initial, final = 0.07441423 1.8773262e-05
  Final line search alpha, max atom move = 1.0000000 1.8773262e-05
  Iterations, force evaluations = 193 386

MPI task timing breakdown:
Section |  min time  |  avg time  |  max time  |%varavg| %total
---------------------------------------------------------------
Pair    | 0.58738    | 1.6208     | 2.1545     |  34.4 | 70.89
Neigh   | 0          | 0          | 0          |   0.0 |  0.00
Comm    | 0.033818   | 0.37304    | 1.11       |  49.5 | 16.32
Output  | 0.00018116 | 0.00018391 | 0.00033024 |   0.0 |  0.01
Modify  | 2.3917e-05 | 0.0031787  | 0.0068098  |   2.7 |  0.14
Other   |            | 0.2891     |            |       | 12.64

Nlocal:        2776.45 ave        3954 max           0 min
Histogram: 8 4 4 0 4 12 8 0 30 34
Nghost:        3879.03 ave        5424 max         232 min
Histogram: 8 0 8 0 16 0 8 8 16 40
Neighs:        79213.5 ave      115241 max           0 min
Histogram: 8 4 4 0 10 6 8 8 24 32

Total # of neighbors = 8238201
Ave neighs/atom = 28.530467
Neighbor list builds = 0
Dangerous builds = 0
The dot product: -3.17177960216816e-08
Setting atom values ...
  1 settings made for x
  1 settings made for y
  1 settings made for z
Setting up cg style minimization ...
  Unit style    : metal
  Current step  : 1061
Per MPI rank memory allocation (min/avg/max) = 5.441 | 5.816 | 6.074 Mbytes
Step PotEng KinEng TotEng v_fx v_fy v_fz 
    1061   -1152449.4            0   -1152449.4  0.014758134 -0.011905121 -0.0086164307 
    1190   -1152449.4            0   -1152449.4 2.6286278e-05 -1.8697396e-05 -3.7897321e-05 
Loop time of 1.5189 on 104 procs for 129 steps with 288751 atoms

99.9% CPU use with 104 MPI tasks x 1 OpenMP threads

Minimization stats:
  Stopping criterion = energy tolerance
  Energy initial, next-to-last, final = 
     -1152449.41597291  -1152449.41733657  -1152449.41733657
  Force two-norm initial, final = 0.16679975 0.00019405639
  Force max component initial, final = 0.074742274 3.7897321e-05
  Final line search alpha, max atom move = 1.0000000 3.7897321e-05
  Iterations, force evaluations = 129 258

MPI task timing breakdown:
Section |  min time  |  avg time  |  max time  |%varavg| %total
---------------------------------------------------------------
Pair    | 0.39346    | 1.0884     | 1.443      |  28.1 | 71.66
Neigh   | 0          | 0          | 0          |   0.0 |  0.00
Comm    | 0.021782   | 0.24822    | 0.74734    |  41.1 | 16.34
Output  | 0          | 0          | 0          |   0.0 |  0.00
Modify  | 1.5832e-05 | 0.0021328  | 0.0045648  |   2.2 |  0.14
Other   |            | 0.1801     |            |       | 11.86

Nlocal:        2776.45 ave        3952 max           0 min
Histogram: 8 4 4 0 4 12 8 1 29 34
Nghost:        3879.03 ave        5424 max         232 min
Histogram: 8 0 8 0 16 0 8 8 16 40
Neighs:        79213.5 ave      115170 max           0 min
Histogram: 8 4 4 0 10 6 8 8 24 32

Total # of neighbors = 8238203
Ave neighs/atom = 28.530474
Neighbor list builds = 0
Dangerous builds = 0
The dot product: -1.62523330726327e-08
Setting atom values ...
  1 settings made for x
  1 settings made for y
  1 settings made for z
Setting up cg style minimization ...
  Unit style    : metal
  Current step  : 1190
Per MPI rank memory allocation (min/avg/max) = 5.441 | 5.816 | 6.074 Mbytes
Step PotEng KinEng TotEng v_fx v_fy v_fz 
    1190   -1152449.4            0   -1152449.4  0.013932966 -0.012038338 -0.0049687071 
    1405   -1152449.4            0   -1152449.4 3.4226974e-06 -2.4612609e-06 -4.8975583e-06 
Loop time of 2.49442 on 104 procs for 215 steps with 288751 atoms

99.9% CPU use with 104 MPI tasks x 1 OpenMP threads

Minimization stats:
  Stopping criterion = energy tolerance
  Energy initial, next-to-last, final = 
     -1152449.40555896  -1152449.40693114  -1152449.40693114
  Force two-norm initial, final = 0.16715373 3.3517797e-05
  Force max component initial, final = 0.074682997 8.5568386e-06
  Final line search alpha, max atom move = 1.0000000 8.5568386e-06
  Iterations, force evaluations = 215 430

MPI task timing breakdown:
Section |  min time  |  avg time  |  max time  |%varavg| %total
---------------------------------------------------------------
Pair    | 0.65653    | 1.8034     | 2.3672     |  36.2 | 72.30
Neigh   | 0          | 0          | 0          |   0.0 |  0.00
Comm    | 0.040843   | 0.40565    | 1.2209     |  53.5 | 16.26
Output  | 0          | 0          | 0          |   0.0 |  0.00
Modify  | 2.5331e-05 | 0.00354    | 0.0076202  |   2.8 |  0.14
Other   |            | 0.2818     |            |       | 11.30

Nlocal:        2776.45 ave        3951 max           0 min
Histogram: 8 4 4 0 4 12 8 1 29 34
Nghost:        3879.03 ave        5424 max         232 min
Histogram: 8 0 8 0 16 0 8 8 16 40
Neighs:        79213.5 ave      115137 max           0 min
Histogram: 8 4 4 0 10 6 8 8 24 32

Total # of neighbors = 8238201
Ave neighs/atom = 28.530467
Neighbor list builds = 0
Dangerous builds = 0
The dot product: -3.83848723284832e-09
Setting atom values ...
  1 settings made for x
  1 settings made for y
  1 settings made for z
Setting up cg style minimization ...
  Unit style    : metal
  Current step  : 1405
Per MPI rank memory allocation (min/avg/max) = 5.441 | 5.816 | 6.074 Mbytes
Step PotEng KinEng TotEng v_fx v_fy v_fz 
    1405   -1152449.4            0   -1152449.4  0.013869713 -0.012785874 -0.0024985697 
    1548   -1152449.4            0   -1152449.4 1.3759256e-05 -9.553641e-06 -2.2812001e-05 
Loop time of 1.71983 on 104 procs for 143 steps with 288751 atoms

99.9% CPU use with 104 MPI tasks x 1 OpenMP threads

Minimization stats:
  Stopping criterion = energy tolerance
  Energy initial, next-to-last, final = 
     -1152449.39366523  -1152449.39504374  -1152449.39504374
  Force two-norm initial, final = 0.16756685 0.00015783604
  Force max component initial, final = 0.074515007 2.5521476e-05
  Final line search alpha, max atom move = 1.0000000 2.5521476e-05
  Iterations, force evaluations = 143 286

MPI task timing breakdown:
Section |  min time  |  avg time  |  max time  |%varavg| %total
---------------------------------------------------------------
Pair    | 0.4349     | 1.2109     | 1.6129     |  29.7 | 70.41
Neigh   | 0          | 0          | 0          |   0.0 |  0.00
Comm    | 0.025835   | 0.28229    | 0.83842    |  42.7 | 16.41
Output  | 0          | 0          | 0          |   0.0 |  0.00
Modify  | 1.7519e-05 | 0.0023755  | 0.0050802  |   2.3 |  0.14
Other   |            | 0.2242     |            |       | 13.04

Nlocal:        2776.45 ave        3949 max           0 min
Histogram: 8 4 4 0 4 12 8 2 26 36
Nghost:        3879.03 ave        5424 max         232 min
Histogram: 8 0 8 0 16 0 8 8 16 40
Neighs:        79213.5 ave      115072 max           0 min
Histogram: 8 4 4 0 10 6 8 8 24 32

Total # of neighbors = 8238202
Ave neighs/atom = 28.530471
Neighbor list builds = 0
Dangerous builds = 0
The dot product: -1.10745673971428e-08
Setting atom values ...
  1 settings made for x
  1 settings made for y
  1 settings made for z
Setting up cg style minimization ...
  Unit style    : metal
  Current step  : 1548
Per MPI rank memory allocation (min/avg/max) = 5.441 | 5.816 | 6.074 Mbytes
Step PotEng KinEng TotEng v_fx v_fy v_fz 
    1548   -1152449.4            0   -1152449.4  0.014536566 -0.014165344 -0.00063339213 
    1697   -1152449.4            0   -1152449.4 5.5080441e-06 4.2816677e-06 -5.718647e-05 
Loop time of 1.75075 on 104 procs for 149 steps with 288751 atoms

99.9% CPU use with 104 MPI tasks x 1 OpenMP threads

Minimization stats:
  Stopping criterion = energy tolerance
  Energy initial, next-to-last, final = 
     -1152449.38027141   -1152449.3816552   -1152449.3816552
  Force two-norm initial, final = 0.16800435 0.00022709308
  Force max component initial, final = 0.074348422 5.7186470e-05
  Final line search alpha, max atom move = 1.0000000 5.7186470e-05
  Iterations, force evaluations = 149 298

MPI task timing breakdown:
Section |  min time  |  avg time  |  max time  |%varavg| %total
---------------------------------------------------------------
Pair    | 0.45347    | 1.2555     | 1.6504     |  30.3 | 71.71
Neigh   | 0          | 0          | 0          |   0.0 |  0.00
Comm    | 0.026292   | 0.28626    | 0.85575    |  44.1 | 16.35
Output  | 0          | 0          | 0          |   0.0 |  0.00
Modify  | 1.7734e-05 | 0.0024563  | 0.0052694  |   2.3 |  0.14
Other   |            | 0.2065     |            |       | 11.80

Nlocal:        2776.45 ave        3948 max           0 min
Histogram: 8 4 4 0 4 12 8 2 26 36
Nghost:        3879.03 ave        5424 max         232 min
Histogram: 8 0 8 0 16 0 8 8 16 40
Neighs:        79213.5 ave      115044 max           0 min
Histogram: 8 4 4 0 10 6 8 8 24 32

Total # of neighbors = 8238203
Ave neighs/atom = 28.530474
Neighbor list builds = 0
Dangerous builds = 0
The dot product: 8.50180695168458e-08
Setting atom values ...
  1 settings made for x
  1 settings made for y
  1 settings made for z
Setting up cg style minimization ...
  Unit style    : metal
  Current step  : 1697
Per MPI rank memory allocation (min/avg/max) = 5.441 | 5.816 | 6.074 Mbytes
Step PotEng KinEng TotEng v_fx v_fy v_fz 
    1697   -1152449.4            0   -1152449.4  0.015567838 -0.015758445 0.00036228701 
    1854   -1152449.4            0   -1152449.4 1.3841152e-05 1.262131e-07 -7.6926497e-05 
Loop time of 1.83845 on 104 procs for 157 steps with 288751 atoms

99.9% CPU use with 104 MPI tasks x 1 OpenMP threads

Minimization stats:
  Stopping criterion = energy tolerance
  Energy initial, next-to-last, final = 
     -1152449.36536081   -1152449.3667489   -1152449.3667489
  Force two-norm initial, final = 0.16837253 0.00023959528
  Force max component initial, final = 0.074305903 7.6926497e-05
  Final line search alpha, max atom move = 1.0000000 7.6926497e-05
  Iterations, force evaluations = 157 314

MPI task timing breakdown:
Section |  min time  |  avg time  |  max time  |%varavg| %total
---------------------------------------------------------------
Pair    | 0.47558    | 1.3233     | 1.7455     |  31.1 | 71.98
Neigh   | 0          | 0          | 0          |   0.0 |  0.00
Comm    | 0.027027   | 0.30222    | 0.90158    |  45.8 | 16.44
Output  | 0          | 0          | 0          |   0.0 |  0.00
Modify  | 1.8439e-05 | 0.0025909  | 0.0056016  |   2.4 |  0.14
Other   |            | 0.2103     |            |       | 11.44

Nlocal:        2776.45 ave        3946 max           0 min
Histogram: 8 4 4 0 4 12 8 2 26 36
Nghost:        3879.03 ave        5424 max         232 min
Histogram: 8 0 8 0 16 0 8 8 16 40
Neighs:        79213.5 ave      114989 max           0 min
Histogram: 8 4 4 0 10 6 8 8 24 32

Total # of neighbors = 8238204
Ave neighs/atom = 28.530478
Neighbor list builds = 0
Dangerous builds = 0
The dot product: 1.02787780430124e-07
Setting atom values ...
  1 settings made for x
  1 settings made for y
  1 settings made for z
Setting up cg style minimization ...
  Unit style    : metal
  Current step  : 1854
Per MPI rank memory allocation (min/avg/max) = 5.441 | 5.816 | 6.074 Mbytes
Step PotEng KinEng TotEng v_fx v_fy v_fz 
    1854   -1152449.3            0   -1152449.3  0.016261601 -0.016843723 0.00054635399 
    1991   -1152449.4            0   -1152449.4 3.0847029e-05 -2.1540907e-05 -5.2098668e-05 
Loop time of 1.62165 on 104 procs for 137 steps with 288751 atoms

99.9% CPU use with 104 MPI tasks x 1 OpenMP threads

Minimization stats:
  Stopping criterion = energy tolerance
  Energy initial, next-to-last, final = 
     -1152449.34890998  -1152449.35030247  -1152449.35030247
  Force two-norm initial, final = 0.16863093 0.00023399982
  Force max component initial, final = 0.074378779 5.9493568e-05
  Final line search alpha, max atom move = 1.0000000 5.9493568e-05
  Iterations, force evaluations = 137 274

MPI task timing breakdown:
Section |  min time  |  avg time  |  max time  |%varavg| %total
---------------------------------------------------------------
Pair    | 0.41723    | 1.1494     | 1.5311     |  28.9 | 70.88
Neigh   | 0          | 0          | 0          |   0.0 |  0.00
Comm    | 0.023696   | 0.26573    | 0.78922    |  41.5 | 16.39
Output  | 0          | 0          | 0          |   0.0 |  0.00
Modify  | 1.6626e-05 | 0.0022632  | 0.0048839  |   2.2 |  0.14
Other   |            | 0.2042     |            |       | 12.60

Nlocal:        2776.45 ave        3944 max           0 min
Histogram: 8 4 4 0 4 12 8 2 26 36
Nghost:        3879.03 ave        5424 max         232 min
Histogram: 8 0 8 0 16 0 8 8 16 40
Neighs:        79213.5 ave      114940 max           0 min
Histogram: 8 4 4 0 10 6 8 8 22 34

Total # of neighbors = 8238204
Ave neighs/atom = 28.530478
Neighbor list builds = 0
Dangerous builds = 0
The dot product: 2.11351544714312e-08
Setting atom values ...
  1 settings made for x
  1 settings made for y
  1 settings made for z
Setting up cg style minimization ...
  Unit style    : metal
  Current step  : 1991
Per MPI rank memory allocation (min/avg/max) = 5.441 | 5.816 | 6.074 Mbytes
Step PotEng KinEng TotEng v_fx v_fy v_fz 
    1991   -1152449.3            0   -1152449.3   0.01615592  -0.01690654 -0.00015051004 
    2000   -1152449.3            0   -1152449.3 0.0012637078 -0.0010338553  -0.00138692 
    2196   -1152449.3            0   -1152449.3 2.3495723e-06 -1.6855997e-06 -3.7062349e-06 
Loop time of 2.38768 on 104 procs for 205 steps with 288751 atoms

99.9% CPU use with 104 MPI tasks x 1 OpenMP threads

Minimization stats:
  Stopping criterion = energy tolerance
  Energy initial, next-to-last, final = 
     -1152449.33089109  -1152449.33230343  -1152449.33230343
  Force two-norm initial, final = 0.16877142 6.0698102e-05
  Force max component initial, final = 0.074466547 1.3783504e-05
  Final line search alpha, max atom move = 1.0000000 1.3783504e-05
  Iterations, force evaluations = 205 410

MPI task timing breakdown:
Section |  min time  |  avg time  |  max time  |%varavg| %total
---------------------------------------------------------------
Pair    | 0.62139    | 1.7257     | 2.2668     |  35.5 | 72.27
Neigh   | 0          | 0          | 0          |   0.0 |  0.00
Comm    | 0.034863   | 0.39267    | 1.1831     |  52.0 | 16.45
Output  | 8.8754e-05 | 9.6907e-05 | 0.00016192 |   0.0 |  0.00
Modify  | 2.4218e-05 | 0.0033776  | 0.0072794  |   2.8 |  0.14
Other   |            | 0.2659     |            |       | 11.13

Nlocal:        2776.45 ave        3942 max           0 min
Histogram: 8 4 4 0 4 12 8 2 26 36
Nghost:        3879.03 ave        5424 max         232 min
Histogram: 8 0 8 0 16 0 8 8 16 40
Neighs:        79213.5 ave      114874 max           0 min
Histogram: 8 4 4 0 10 6 8 8 22 34

Total # of neighbors = 8238202
Ave neighs/atom = 28.530471
Neighbor list builds = 0
Dangerous builds = 0
The dot product: 3.24648257110053e-09
Setting atom values ...
  1 settings made for x
  1 settings made for y
  1 settings made for z
Setting up cg style minimization ...
  Unit style    : metal
  Current step  : 2196
Per MPI rank memory allocation (min/avg/max) = 5.441 | 5.816 | 6.074 Mbytes
Step PotEng KinEng TotEng v_fx v_fy v_fz 
    2196   -1152449.3            0   -1152449.3  0.013855435 -0.013853793 -0.004383408 
    2356   -1152449.3            0   -1152449.3 -2.7562968e-05 1.5382483e-05 6.1564083e-05 
Loop time of 1.86915 on 104 procs for 160 steps with 288751 atoms

99.9% CPU use with 104 MPI tasks x 1 OpenMP threads

Minimization stats:
  Stopping criterion = energy tolerance
  Energy initial, next-to-last, final = 
      -1152449.3113031  -1152449.31287184  -1152449.31287184
  Force two-norm initial, final = 0.16864505 0.00025536774
  Force max component initial, final = 0.074289227 6.1564083e-05
  Final line search alpha, max atom move = 1.0000000 6.1564083e-05
  Iterations, force evaluations = 160 320

MPI task timing breakdown:
Section |  min time  |  avg time  |  max time  |%varavg| %total
---------------------------------------------------------------
Pair    | 0.48656    | 1.3423     | 1.7619     |  31.2 | 71.81
Neigh   | 0          | 0          | 0          |   0.0 |  0.00
Comm    | 0.028488   | 0.30389    | 0.90817    |  45.7 | 16.26
Output  | 0          | 0          | 0          |   0.0 |  0.00
Modify  | 1.9541e-05 | 0.0026364  | 0.0056432  |   2.4 |  0.14
Other   |            | 0.2203     |            |       | 11.79

Nlocal:        2776.45 ave        3936 max           0 min
Histogram: 8 4 4 0 4 12 8 0 28 36
Nghost:        3879.07 ave        5424 max         232 min
Histogram: 8 0 8 0 16 0 8 8 16 40
Neighs:        79213.4 ave      114664 max           0 min
Histogram: 8 4 4 0 8 8 8 8 22 34

Total # of neighbors = 8238196
Ave neighs/atom = 28.530450
Neighbor list builds = 0
Dangerous builds = 0
The dot product: -2.73197338388242e-07
Setting atom values ...
  1 settings made for x
  1 settings made for y
  1 settings made for z
Setting up cg style minimization ...
  Unit style    : metal
  Current step  : 2356
Per MPI rank memory allocation (min/avg/max) = 5.441 | 5.816 | 6.074 Mbytes
Step PotEng KinEng TotEng v_fx v_fy v_fz 
    2356   -1152449.3            0   -1152449.3 -0.0019795721  0.010212746 -0.027500306 
    2524   -1152449.3            0   -1152449.3 -1.3583913e-05 3.6112604e-06 4.1441388e-05 
Loop time of 1.98422 on 104 procs for 168 steps with 288751 atoms

99.9% CPU use with 104 MPI tasks x 1 OpenMP threads

Minimization stats:
  Stopping criterion = energy tolerance
  Energy initial, next-to-last, final = 
     -1152449.29039276  -1152449.29271661  -1152449.29271661
  Force two-norm initial, final = 0.17084344 0.00033517483
  Force max component initial, final = 0.072012811 8.0423227e-05
  Final line search alpha, max atom move = 1.0000000 8.0423227e-05
  Iterations, force evaluations = 168 336

MPI task timing breakdown:
Section |  min time  |  avg time  |  max time  |%varavg| %total
---------------------------------------------------------------
Pair    | 0.51269    | 1.4169     | 1.8757     |  32.1 | 71.41
Neigh   | 0          | 0          | 0          |   0.0 |  0.00
Comm    | 0.033746   | 0.32678    | 0.97378    |  46.5 | 16.47
Output  | 0          | 0          | 0          |   0.0 |  0.00
Modify  | 2.025e-05  | 0.0027762  | 0.0059753  |   2.5 |  0.14
Other   |            | 0.2378     |            |       | 11.98

Nlocal:        2776.45 ave        3930 max           0 min
Histogram: 8 4 4 0 4 12 8 0 26 38
Nghost:        3879.07 ave        5424 max         232 min
Histogram: 8 0 8 0 16 0 8 8 16 40
Neighs:        79213.5 ave      114455 max           0 min
Histogram: 8 4 4 0 8 8 8 8 20 36

Total # of neighbors = 8238199
Ave neighs/atom = 28.530461
Neighbor list builds = 0
Dangerous builds = 0
The dot product: -4.77266867147884e-07
Setting atom values ...
  1 settings made for x
  1 settings made for y
  1 settings made for z
Setting up cg style minimization ...
  Unit style    : metal
  Current step  : 2524
Per MPI rank memory allocation (min/avg/max) = 5.441 | 5.816 | 6.074 Mbytes
Step PotEng KinEng TotEng v_fx v_fy v_fz 
    2524   -1152449.3            0   -1152449.3 -0.025371773  0.058491553 -0.058969065 
    2739   -1152449.3            0   -1152449.3 -5.3094977e-06 -3.6670593e-06 2.5748864e-05 
Loop time of 2.51159 on 104 procs for 215 steps with 288751 atoms

99.9% CPU use with 104 MPI tasks x 1 OpenMP threads

Minimization stats:
  Stopping criterion = energy tolerance
  Energy initial, next-to-last, final = 
     -1152449.26909191  -1152449.27261104  -1152449.27261104
  Force two-norm initial, final = 0.19068544 0.00011784817
  Force max component initial, final = 0.078941935 2.5748864e-05
  Final line search alpha, max atom move = 1.0000000 2.5748864e-05
  Iterations, force evaluations = 215 430

MPI task timing breakdown:
Section |  min time  |  avg time  |  max time  |%varavg| %total
---------------------------------------------------------------
Pair    | 0.65454    | 1.8026     | 2.3764     |  36.2 | 71.77
Neigh   | 0          | 0          | 0          |   0.0 |  0.00
Comm    | 0.037462   | 0.40957    | 1.2285     |  52.8 | 16.31
Output  | 0          | 0          | 0          |   0.0 |  0.00
Modify  | 2.5655e-05 | 0.0035471  | 0.0075772  |   2.8 |  0.14
Other   |            | 0.2959     |            |       | 11.78

Nlocal:        2776.45 ave        3930 max           0 min
Histogram: 8 4 4 0 4 12 8 0 26 38
Nghost:        3879.11 ave        5425 max         232 min
Histogram: 8 0 8 0 16 0 8 8 16 40
Neighs:        79213.4 ave      114456 max           0 min
Histogram: 8 4 4 0 8 8 8 8 20 36

Total # of neighbors = 8238195
Ave neighs/atom = 28.530447
Neighbor list builds = 0
Dangerous builds = 0
The dot product: -5.18822100513141e-07
Setting atom values ...
  1 settings made for x
  1 settings made for y
  1 settings made for z
Setting up cg style minimization ...
  Unit style    : metal
  Current step  : 2739
Per MPI rank memory allocation (min/avg/max) = 5.441 | 5.816 | 6.074 Mbytes
Step PotEng KinEng TotEng v_fx v_fy v_fz 
    2739   -1152449.2            0   -1152449.2 -0.031704063  0.091174811 -0.064419586 
    2987   -1152449.3            0   -1152449.3 3.0232454e-06 -8.2727274e-07 -6.7810155e-06 
Loop time of 2.96343 on 104 procs for 248 steps with 288751 atoms

99.9% CPU use with 104 MPI tasks x 1 OpenMP threads

Minimization stats:
  Stopping criterion = energy tolerance
  Energy initial, next-to-last, final = 
     -1152449.24799797  -1152449.25212259  -1152449.25212259
  Force two-norm initial, final = 0.20677156 2.7160454e-05
  Force max component initial, final = 0.091174811 6.7810155e-06
  Final line search alpha, max atom move = 1.0000000 6.7810155e-06
  Iterations, force evaluations = 248 496

MPI task timing breakdown:
Section |  min time  |  avg time  |  max time  |%varavg| %total
---------------------------------------------------------------
Pair    | 0.77053    | 2.1028     | 2.7841     |  38.6 | 70.96
Neigh   | 0          | 0          | 0          |   0.0 |  0.00
Comm    | 0.042728   | 0.48766    | 1.4592     |  56.8 | 16.46
Output  | 0          | 0          | 0          |   0.0 |  0.00
Modify  | 3.0775e-05 | 0.004078   | 0.0087669  |   3.0 |  0.14
Other   |            | 0.3689     |            |       | 12.45

Nlocal:        2776.45 ave        3936 max           0 min
Histogram: 8 4 4 0 4 12 8 0 28 36
Nghost:        3879.14 ave        5425 max         232 min
Histogram: 8 0 8 0 16 0 8 8 16 40
Neighs:        79213.4 ave      114639 max           0 min
Histogram: 8 4 4 0 8 8 8 8 20 36

Total # of neighbors = 8238198
Ave neighs/atom = 28.530457
Neighbor list builds = 0
Dangerous builds = 0
The dot product: 6.94426969877349e-08
Setting atom values ...
  1 settings made for x
  1 settings made for y
  1 settings made for z
Setting up cg style minimization ...
  Unit style    : metal
  Current step  : 2987
Per MPI rank memory allocation (min/avg/max) = 5.441 | 5.816 | 6.074 Mbytes
Step PotEng KinEng TotEng v_fx v_fy v_fz 
    2987   -1152449.2            0   -1152449.2 -0.025446769   0.10289762 -0.056973565 
    3000   -1152449.2            0   -1152449.2 -0.00077600053 0.0012267119 0.00043797226 
    3188   -1152449.2            0   -1152449.2 -1.2128611e-05 2.6398173e-06 2.5664414e-05 
Loop time of 2.36905 on 104 procs for 201 steps with 288751 atoms

99.9% CPU use with 104 MPI tasks x 1 OpenMP threads

Minimization stats:
  Stopping criterion = energy tolerance
  Energy initial, next-to-last, final = 
     -1152449.22679027   -1152449.2308104   -1152449.2308104
  Force two-norm initial, final = 0.20956675 0.00018522093
  Force max component initial, final = 0.10289762 4.8040565e-05
  Final line search alpha, max atom move = 1.0000000 4.8040565e-05
  Iterations, force evaluations = 201 402

MPI task timing breakdown:
Section |  min time  |  avg time  |  max time  |%varavg| %total
---------------------------------------------------------------
Pair    | 0.61223    | 1.689      | 2.2489     |  35.2 | 71.30
Neigh   | 0          | 0          | 0          |   0.0 |  0.00
Comm    | 0.034855   | 0.3893     | 1.1583     |  50.6 | 16.43
Output  | 0.00014265 | 0.00015173 | 0.00024245 |   0.0 |  0.01
Modify  | 2.3647e-05 | 0.0033096  | 0.0071249  |   2.7 |  0.14
Other   |            | 0.2872     |            |       | 12.12

Nlocal:        2776.45 ave        3944 max           0 min
Histogram: 8 4 4 0 4 12 8 2 26 36
Nghost:        3879.11 ave        5425 max         232 min
Histogram: 8 0 8 0 16 0 8 8 16 40
Neighs:        79213.5 ave      114923 max           0 min
Histogram: 8 4 4 0 10 6 8 8 22 34

Total # of neighbors = 8238203
Ave neighs/atom = 28.530474
Neighbor list builds = 0
Dangerous builds = 0
The dot product: -2.56074517189727e-07
Setting atom values ...
  1 settings made for x
  1 settings made for y
  1 settings made for z
Setting up cg style minimization ...
  Unit style    : metal
  Current step  : 3188
Per MPI rank memory allocation (min/avg/max) = 5.441 | 5.816 | 6.074 Mbytes
Step PotEng KinEng TotEng v_fx v_fy v_fz 
    3188   -1152449.2            0   -1152449.2 -0.015391836  0.093958338 -0.043161844 
    3385   -1152449.2            0   -1152449.2 -2.6005289e-05 -3.4966596e-06 5.8634434e-05 
Loop time of 2.34656 on 104 procs for 197 steps with 288751 atoms

99.9% CPU use with 104 MPI tasks x 1 OpenMP threads

Minimization stats:
  Stopping criterion = energy tolerance
  Energy initial, next-to-last, final = 
     -1152449.20476926  -1152449.20821255  -1152449.20821255
  Force two-norm initial, final = 0.20081175 0.00018400569
  Force max component initial, final = 0.11009719 5.8634434e-05
  Final line search alpha, max atom move = 1.0000000 5.8634434e-05
  Iterations, force evaluations = 197 394

MPI task timing breakdown:
Section |  min time  |  avg time  |  max time  |%varavg| %total
---------------------------------------------------------------
Pair    | 0.59855    | 1.6651     | 2.2232     |  34.9 | 70.96
Neigh   | 0          | 0          | 0          |   0.0 |  0.00
Comm    | 0.033862   | 0.38743    | 1.1528     |  50.3 | 16.51
Output  | 0          | 0          | 0          |   0.0 |  0.00
Modify  | 2.3913e-05 | 0.0032392  | 0.0069603  |   2.7 |  0.14
Other   |            | 0.2908     |            |       | 12.39

Nlocal:        2776.45 ave        3949 max           0 min
Histogram: 8 4 4 0 4 12 8 2 26 36
Nghost:        3879.05 ave        5425 max         232 min
Histogram: 8 0 8 0 16 0 8 8 16 40
Neighs:        79213.5 ave      115055 max           0 min
Histogram: 8 4 4 0 10 6 8 8 24 32

Total # of neighbors = 8238206
Ave neighs/atom = 28.530485
Neighbor list builds = 0
Dangerous builds = 0
The dot product: -8.54735635823074e-07
Setting atom values ...
  1 settings made for x
  1 settings made for y
  1 settings made for z
Setting up cg style minimization ...
  Unit style    : metal
  Current step  : 3385
Per MPI rank memory allocation (min/avg/max) = 5.441 | 5.816 | 6.074 Mbytes
Step PotEng KinEng TotEng v_fx v_fy v_fz 
    3385   -1152449.2            0   -1152449.2 -0.0059843517  0.077601984 -0.034035036 
    3583   -1152449.2            0   -1152449.2 1.084633e-05 -3.7690889e-06 -1.9219257e-05 
Loop time of 2.31114 on 104 procs for 198 steps with 288751 atoms

99.9% CPU use with 104 MPI tasks x 1 OpenMP threads

Minimization stats:
  Stopping criterion = energy tolerance
  Energy initial, next-to-last, final = 
     -1152449.18156574  -1152449.18465487  -1152449.18465487
  Force two-norm initial, final = 0.19068611 0.00014684583
  Force max component initial, final = 0.11593115 2.2280137e-05
  Final line search alpha, max atom move = 1.0000000 2.2280137e-05
  Iterations, force evaluations = 198 396

MPI task timing breakdown:
Section |  min time  |  avg time  |  max time  |%varavg| %total
---------------------------------------------------------------
Pair    | 0.60184    | 1.6662     | 2.1945     |  35.0 | 72.09
Neigh   | 0          | 0          | 0          |   0.0 |  0.00
Comm    | 0.035312   | 0.37729    | 1.1304     |  51.4 | 16.32
Output  | 0          | 0          | 0          |   0.0 |  0.00
Modify  | 2.4163e-05 | 0.0032625  | 0.0069967  |   2.7 |  0.14
Other   |            | 0.2644     |            |       | 11.44

Nlocal:        2776.45 ave        3953 max           0 min
Histogram: 8 4 4 0 4 12 8 2 28 34
Nghost:        3879.05 ave        5426 max         232 min
Histogram: 8 0 8 0 16 0 8 8 16 40
Neighs:        79213.5 ave      115183 max           0 min
Histogram: 8 4 4 0 10 6 8 8 24 32

Total # of neighbors = 8238206
Ave neighs/atom = 28.530485
Neighbor list builds = 0
Dangerous builds = 0
The dot product: 1.99532002988354e-07
Setting atom values ...
  1 settings made for x
  1 settings made for y
  1 settings made for z
Setting up cg style minimization ...
  Unit style    : metal
  Current step  : 3583
Per MPI rank memory allocation (min/avg/max) = 5.441 | 5.816 | 6.074 Mbytes
Step PotEng KinEng TotEng v_fx v_fy v_fz 
    3583   -1152449.2            0   -1152449.2 0.0025489355  0.063829494 -0.032453662 
    3786   -1152449.2            0   -1152449.2 -1.4116528e-05 -7.9525466e-07 2.6121815e-05 
Loop time of 2.40028 on 104 procs for 203 steps with 288751 atoms

99.9% CPU use with 104 MPI tasks x 1 OpenMP threads

Minimization stats:
  Stopping criterion = energy tolerance
  Energy initial, next-to-last, final = 
     -1152449.15754447  -1152449.16027849  -1152449.16027849
  Force two-norm initial, final = 0.1840254 0.00012844731
  Force max component initial, final = 0.12001269 3.1308206e-05
  Final line search alpha, max atom move = 1.0000000 3.1308206e-05
  Iterations, force evaluations = 203 406

MPI task timing breakdown:
Section |  min time  |  avg time  |  max time  |%varavg| %total
---------------------------------------------------------------
Pair    | 0.61471    | 1.7085     | 2.2748     |  35.4 | 71.18
Neigh   | 0          | 0          | 0          |   0.0 |  0.00
Comm    | 0.034327   | 0.39346    | 1.1711     |  51.0 | 16.39
Output  | 0          | 0          | 0          |   0.0 |  0.00
Modify  | 2.377e-05  | 0.0033446  | 0.0071801  |   2.7 |  0.14
Other   |            | 0.295      |            |       | 12.29

Nlocal:        2776.45 ave        3955 max           0 min
Histogram: 8 4 4 0 4 12 8 2 28 34
Nghost:        3878.99 ave        5425 max         232 min
Histogram: 8 0 8 0 16 0 8 8 16 40
Neighs:        79213.6 ave      115258 max           0 min
Histogram: 8 4 4 0 10 6 8 8 24 32

Total # of neighbors = 8238211
Ave neighs/atom = 28.530502
Neighbor list builds = 0
Dangerous builds = 0
The dot product: -4.30986756681002e-07
Setting atom values ...
  1 settings made for x
  1 settings made for y
  1 settings made for z
Setting up cg style minimization ...
  Unit style    : metal
  Current step  : 3786
Per MPI rank memory allocation (min/avg/max) = 5.441 | 5.816 | 6.074 Mbytes
Step PotEng KinEng TotEng v_fx v_fy v_fz 
    3786   -1152449.1            0   -1152449.1 0.0087408999  0.055982154 -0.032665618 
    4000   -1152449.1            0   -1152449.1 6.3647623e-06 9.7752529e-07 -1.1060754e-05 
    4037   -1152449.1            0   -1152449.1 -1.1962597e-06 5.8970014e-07 1.8315058e-06 
Loop time of 2.96497 on 104 procs for 251 steps with 288751 atoms

99.9% CPU use with 104 MPI tasks x 1 OpenMP threads

Minimization stats:
  Stopping criterion = energy tolerance
  Energy initial, next-to-last, final = 
     -1152449.13244741  -1152449.13491534  -1152449.13491534
  Force two-norm initial, final = 0.18138078 1.4473067e-05
  Force max component initial, final = 0.12421701 3.4941970e-06
  Final line search alpha, max atom move = 1.0000000 3.4941970e-06
  Iterations, force evaluations = 251 502

MPI task timing breakdown:
Section |  min time  |  avg time  |  max time  |%varavg| %total
---------------------------------------------------------------
Pair    | 0.76401    | 2.106      | 2.804      |  39.2 | 71.03
Neigh   | 0          | 0          | 0          |   0.0 |  0.00
Comm    | 0.044172   | 0.48261    | 1.4342     |  56.8 | 16.28
Output  | 0.00010836 | 0.00011222 | 0.00027256 |   0.0 |  0.00
Modify  | 3.0523e-05 | 0.0041281  | 0.0088225  |   3.0 |  0.14
Other   |            | 0.3721     |            |       | 12.55

Nlocal:        2776.45 ave        3956 max           0 min
Histogram: 8 4 4 0 4 12 8 2 28 34
Nghost:        3878.99 ave        5425 max         232 min
Histogram: 8 0 8 0 16 0 8 8 16 40
Neighs:        79213.6 ave      115305 max           0 min
Histogram: 8 4 4 0 10 6 8 8 24 32

Total # of neighbors = 8238214
Ave neighs/atom = 28.530512
Neighbor list builds = 0
Dangerous builds = 0
The dot product: -2.06794274910714e-08
Setting atom values ...
  1 settings made for x
  1 settings made for y
  1 settings made for z
Setting up cg style minimization ...
  Unit style    : metal
  Current step  : 4037
Per MPI rank memory allocation (min/avg/max) = 5.441 | 5.816 | 6.074 Mbytes
Step PotEng KinEng TotEng v_fx v_fy v_fz 
    4037   -1152449.1            0   -1152449.1  0.011400596  0.046498725  -0.02893927 
    4247   -1152449.1            0   -1152449.1 1.3049974e-06 8.859743e-07 -2.2637574e-06 
Loop time of 2.47631 on 104 procs for 210 steps with 288751 atoms

99.9% CPU use with 104 MPI tasks x 1 OpenMP threads

Minimization stats:
  Stopping criterion = energy tolerance
  Energy initial, next-to-last, final = 
     -1152449.10616355  -1152449.10830074  -1152449.10830074
  Force two-norm initial, final = 0.1785782 7.3955255e-05
  Force max component initial, final = 0.12819344 1.2312641e-05
  Final line search alpha, max atom move = 1.0000000 1.2312641e-05
  Iterations, force evaluations = 210 420

MPI task timing breakdown:
Section |  min time  |  avg time  |  max time  |%varavg| %total
---------------------------------------------------------------
Pair    | 0.63974    | 1.7733     | 2.3353     |  35.9 | 71.61
Neigh   | 0          | 0          | 0          |   0.0 |  0.00
Comm    | 0.03685    | 0.40157    | 1.1973     |  52.9 | 16.22
Output  | 0          | 0          | 0          |   0.0 |  0.00
Modify  | 2.5129e-05 | 0.0034598  | 0.0074299  |   2.8 |  0.14
Other   |            | 0.298      |            |       | 12.03

Nlocal:        2776.45 ave        3957 max           0 min
Histogram: 8 4 4 0 4 12 8 2 28 34
Nghost:        3878.97 ave        5425 max         232 min
Histogram: 8 0 8 0 16 0 8 8 16 40
Neighs:        79213.6 ave      115346 max           0 min
Histogram: 8 4 4 0 10 6 8 8 24 32

Total # of neighbors = 8238213
Ave neighs/atom = 28.530509
Neighbor list builds = 0
Dangerous builds = 0
The dot product: 4.25460998603629e-08
Setting atom values ...
  1 settings made for x
  1 settings made for y
  1 settings made for z
Setting up cg style minimization ...
  Unit style    : metal
  Current step  : 4247
Per MPI rank memory allocation (min/avg/max) = 5.441 | 5.816 | 6.074 Mbytes
Step PotEng KinEng TotEng v_fx v_fy v_fz 
    4247   -1152449.1            0   -1152449.1  0.010852279  0.035957306 -0.022577149 
    4477   -1152449.1            0   -1152449.1 -1.0897593e-06 -2.6152148e-07 1.6665146e-06 
Loop time of 2.72723 on 104 procs for 230 steps with 288751 atoms

99.9% CPU use with 104 MPI tasks x 1 OpenMP threads

Minimization stats:
  Stopping criterion = energy tolerance
  Energy initial, next-to-last, final = 
     -1152449.07843133  -1152449.08033237  -1152449.08033237
  Force two-norm initial, final = 0.17611719 2.3545083e-05
  Force max component initial, final = 0.13180554 3.8667978e-06
  Final line search alpha, max atom move = 1.0000000 3.8667978e-06
  Iterations, force evaluations = 230 460

MPI task timing breakdown:
Section |  min time  |  avg time  |  max time  |%varavg| %total
---------------------------------------------------------------
Pair    | 0.70023    | 1.9311     | 2.582      |  37.7 | 70.81
Neigh   | 0          | 0          | 0          |   0.0 |  0.00
Comm    | 0.042149   | 0.44191    | 1.3036     |  54.4 | 16.20
Output  | 0          | 0          | 0          |   0.0 |  0.00
Modify  | 2.7688e-05 | 0.003789   | 0.0081521  |   2.9 |  0.14
Other   |            | 0.3505     |            |       | 12.85

Nlocal:        2776.45 ave        3958 max           0 min
Histogram: 8 4 4 0 4 12 8 2 28 34
Nghost:        3878.93 ave        5425 max         232 min
Histogram: 8 0 8 0 16 0 8 8 16 40
Neighs:        79213.6 ave      115368 max           0 min
Histogram: 8 4 4 0 10 6 8 8 24 32

Total # of neighbors = 8238212
Ave neighs/atom = 28.530506
Neighbor list builds = 0
Dangerous builds = 0
The dot product: -2.28889043752467e-08
Setting atom values ...
  1 settings made for x
  1 settings made for y
  1 settings made for z
Setting up cg style minimization ...
  Unit style    : metal
  Current step  : 4477
Per MPI rank memory allocation (min/avg/max) = 5.441 | 5.816 | 6.074 Mbytes
Step PotEng KinEng TotEng v_fx v_fy v_fz 
    4477     -1152449            0     -1152449 0.0089252015  0.026424962 -0.016399404 
    4660   -1152449.1            0   -1152449.1 2.1539872e-05 -3.1286695e-06 -3.0138409e-05 
Loop time of 2.19032 on 104 procs for 183 steps with 288751 atoms

99.9% CPU use with 104 MPI tasks x 1 OpenMP threads

Minimization stats:
  Stopping criterion = energy tolerance
  Energy initial, next-to-last, final = 
     -1152449.04927212  -1152449.05102762  -1152449.05102762
  Force two-norm initial, final = 0.17482851 0.00014898232
  Force max component initial, final = 0.13496058 3.0138409e-05
  Final line search alpha, max atom move = 1.0000000 3.0138409e-05
  Iterations, force evaluations = 183 366

MPI task timing breakdown:
Section |  min time  |  avg time  |  max time  |%varavg| %total
---------------------------------------------------------------
Pair    | 0.5567     | 1.5522     | 2.0753     |  33.8 | 70.87
Neigh   | 0          | 0          | 0          |   0.0 |  0.00
Comm    | 0.030725   | 0.36091    | 1.0685     |  48.5 | 16.48
Output  | 0          | 0          | 0          |   0.0 |  0.00
Modify  | 2.2039e-05 | 0.0030104  | 0.0064313  |   2.6 |  0.14
Other   |            | 0.2742     |            |       | 12.52

Nlocal:        2776.45 ave        3958 max           0 min
Histogram: 8 4 4 0 4 12 8 2 28 34
Nghost:        3878.97 ave        5425 max         232 min
Histogram: 8 0 8 0 16 0 8 8 16 40
Neighs:        79213.6 ave      115368 max           0 min
Histogram: 8 4 4 0 10 6 8 8 24 32

Total # of neighbors = 8238215
Ave neighs/atom = 28.530516
Neighbor list builds = 0
Dangerous builds = 0
The dot product: 3.01766619883151e-07
Setting atom values ...
  1 settings made for x
  1 settings made for y
  1 settings made for z
Setting up cg style minimization ...
  Unit style    : metal
  Current step  : 4660
Per MPI rank memory allocation (min/avg/max) = 5.441 | 5.816 | 6.074 Mbytes
Step PotEng KinEng TotEng v_fx v_fy v_fz 
    4660     -1152449            0     -1152449 0.0066653225  0.018742206 -0.011290219 
    4869     -1152449            0     -1152449 1.2125424e-05 -3.6481647e-06 -1.6174347e-05 
Loop time of 2.43983 on 104 procs for 209 steps with 288751 atoms

99.9% CPU use with 104 MPI tasks x 1 OpenMP threads

Minimization stats:
  Stopping criterion = energy tolerance
  Energy initial, next-to-last, final = 
     -1152449.01877412  -1152449.02049281  -1152449.02049281
  Force two-norm initial, final = 0.17460012 9.1205232e-05
  Force max component initial, final = 0.13770221 2.3054054e-05
  Final line search alpha, max atom move = 1.0000000 2.3054054e-05
  Iterations, force evaluations = 209 418

MPI task timing breakdown:
Section |  min time  |  avg time  |  max time  |%varavg| %total
---------------------------------------------------------------
Pair    | 0.63434    | 1.7526     | 2.3151     |  35.8 | 71.83
Neigh   | 0          | 0          | 0          |   0.0 |  0.00
Comm    | 0.037276   | 0.39747    | 1.1883     |  52.4 | 16.29
Output  | 0          | 0          | 0          |   0.0 |  0.00
Modify  | 2.5046e-05 | 0.0034397  | 0.0074441  |   2.8 |  0.14
Other   |            | 0.2863     |            |       | 11.74

Nlocal:        2776.45 ave        3959 max           0 min
Histogram: 8 4 4 0 4 12 8 2 28 34
Nghost:        3878.97 ave        5425 max         232 min
Histogram: 8 0 8 0 16 0 8 8 16 40
Neighs:        79213.6 ave      115394 max           0 min
Histogram: 8 4 4 0 10 6 8 8 24 32

Total # of neighbors = 8238218
Ave neighs/atom = 28.530526
Neighbor list builds = 0
Dangerous builds = 0
The dot product: 1.38159962675984e-07
Setting atom values ...
  1 settings made for x
  1 settings made for y
  1 settings made for z
Setting up cg style minimization ...
  Unit style    : metal
  Current step  : 4869
Per MPI rank memory allocation (min/avg/max) = 5.441 | 5.816 | 6.074 Mbytes
Step PotEng KinEng TotEng v_fx v_fy v_fz 
    4869     -1152449            0     -1152449  0.004823374  0.012966024 -0.0076813097 
    5000     -1152449            0     -1152449 8.5950454e-05 -1.0296232e-05 -0.0001130721 
    5103     -1152449            0     -1152449 -3.0670496e-06 6.5705029e-07 4.0062873e-06 
Loop time of 2.81881 on 104 procs for 234 steps with 288751 atoms

99.9% CPU use with 104 MPI tasks x 1 OpenMP threads

Minimization stats:
  Stopping criterion = energy tolerance
  Energy initial, next-to-last, final = 
     -1152448.98715606  -1152448.98883893  -1152448.98883893
  Force two-norm initial, final = 0.17493632 2.7558675e-05
  Force max component initial, final = 0.1400048 4.0062873e-06
  Final line search alpha, max atom move = 1.0000000 4.0062873e-06
  Iterations, force evaluations = 234 468

MPI task timing breakdown:
Section |  min time  |  avg time  |  max time  |%varavg| %total
---------------------------------------------------------------
Pair    | 0.71596    | 1.9824     | 2.6731     |  37.8 | 70.33
Neigh   | 0          | 0          | 0          |   0.0 |  0.00
Comm    | 0.039383   | 0.46247    | 1.3854     |  54.9 | 16.41
Output  | 0.00011858 | 0.0001223  | 0.00026592 |   0.0 |  0.00
Modify  | 2.8128e-05 | 0.0038392  | 0.0081957  |   2.9 |  0.14
Other   |            | 0.3699     |            |       | 13.12

Nlocal:        2776.45 ave        3959 max           0 min
Histogram: 8 4 4 0 4 12 8 2 28 34
Nghost:        3878.97 ave        5425 max         232 min
Histogram: 8 0 8 0 16 0 8 8 16 40
Neighs:        79213.6 ave      115400 max           0 min
Histogram: 8 4 4 0 10 6 8 8 24 32

Total # of neighbors = 8238215
Ave neighs/atom = 28.530516
Neighbor list builds = 0
Dangerous builds = 0
The dot product: -3.19412281924725e-08
Setting atom values ...
  1 settings made for x
  1 settings made for y
  1 settings made for z
Setting up cg style minimization ...
  Unit style    : metal
  Current step  : 5103
Per MPI rank memory allocation (min/avg/max) = 5.441 | 5.816 | 6.074 Mbytes
Step PotEng KinEng TotEng v_fx v_fy v_fz 
    5103     -1152449            0     -1152449 0.0027795299 0.0087728317 -0.0043626772 
    5280     -1152449            0     -1152449 3.4830191e-05 -6.7110173e-06 -4.4469485e-05 
Loop time of 2.11353 on 104 procs for 177 steps with 288751 atoms

99.9% CPU use with 104 MPI tasks x 1 OpenMP threads

Minimization stats:
  Stopping criterion = energy tolerance
  Energy initial, next-to-last, final = 
      -1152448.9544536  -1152448.95616121  -1152448.95616121
  Force two-norm initial, final = 0.17565707 0.00021116775
  Force max component initial, final = 0.14210579 4.4469485e-05
  Final line search alpha, max atom move = 1.0000000 4.4469485e-05
  Iterations, force evaluations = 177 354

MPI task timing breakdown:
Section |  min time  |  avg time  |  max time  |%varavg| %total
---------------------------------------------------------------
Pair    | 0.5387     | 1.4918     | 1.9879     |  33.2 | 70.58
Neigh   | 0          | 0          | 0          |   0.0 |  0.00
Comm    | 0.031179   | 0.34432    | 1.0217     |  47.6 | 16.29
Output  | 0          | 0          | 0          |   0.0 |  0.00
Modify  | 2.1299e-05 | 0.0029204  | 0.0062458  |   2.6 |  0.14
Other   |            | 0.2745     |            |       | 12.99

Nlocal:        2776.45 ave        3960 max           0 min
Histogram: 8 4 4 0 4 12 8 2 28 34
Nghost:        3878.93 ave        5425 max         232 min
Histogram: 8 0 8 0 16 0 8 8 16 40
Neighs:        79213.6 ave      115420 max           0 min
Histogram: 8 4 4 0 10 6 8 8 24 32

Total # of neighbors = 8238219
Ave neighs/atom = 28.530530
Neighbor list builds = 0
Dangerous builds = 0
The dot product: 3.34921464958784e-07
Setting atom values ...
  1 settings made for x
  1 settings made for y
  1 settings made for z
Setting up cg style minimization ...
  Unit style    : metal
  Current step  : 5280
Per MPI rank memory allocation (min/avg/max) = 5.441 | 5.816 | 6.074 Mbytes
Step PotEng KinEng TotEng v_fx v_fy v_fz 
    5280   -1152448.9            0   -1152448.9  0.001193899 0.0059247946 -0.0019840091 
    5473   -1152448.9            0   -1152448.9 1.4342966e-05 -1.6664664e-06 -1.800522e-05 
Loop time of 2.27929 on 104 procs for 193 steps with 288751 atoms

99.9% CPU use with 104 MPI tasks x 1 OpenMP threads

Minimization stats:
  Stopping criterion = energy tolerance
  Energy initial, next-to-last, final = 
     -1152448.92086761  -1152448.92257776  -1152448.92257776
  Force two-norm initial, final = 0.17633445 0.00013107777
  Force max component initial, final = 0.14377097 1.8005220e-05
  Final line search alpha, max atom move = 1.0000000 1.8005220e-05
  Iterations, force evaluations = 193 386

MPI task timing breakdown:
Section |  min time  |  avg time  |  max time  |%varavg| %total
---------------------------------------------------------------
Pair    | 0.58593    | 1.6299     | 2.1507     |  34.6 | 71.51
Neigh   | 0          | 0          | 0          |   0.0 |  0.00
Comm    | 0.036729   | 0.37153    | 1.1064     |  50.4 | 16.30
Output  | 0          | 0          | 0          |   0.0 |  0.00
Modify  | 2.263e-05  | 0.0031788  | 0.0067972  |   2.7 |  0.14
Other   |            | 0.2747     |            |       | 12.05

Nlocal:        2776.45 ave        3960 max           0 min
Histogram: 8 4 4 0 4 12 8 2 28 34
Nghost:        3878.93 ave        5425 max         232 min
Histogram: 8 0 8 0 16 0 8 8 16 40
Neighs:        79213.6 ave      115424 max           0 min
Histogram: 8 4 4 0 10 6 8 8 24 32

Total # of neighbors = 8238214
Ave neighs/atom = 28.530512
Neighbor list builds = 0
Dangerous builds = 0
The dot product: 1.24823688754681e-07
Setting atom values ...
  1 settings made for x
  1 settings made for y
  1 settings made for z
Setting up cg style minimization ...
  Unit style    : metal
  Current step  : 5473
Per MPI rank memory allocation (min/avg/max) = 5.441 | 5.816 | 6.074 Mbytes
Step PotEng KinEng TotEng v_fx v_fy v_fz 
    5473   -1152448.9            0   -1152448.9 -0.00083777643 0.0039411052 0.00074221949 
    5680   -1152448.9            0   -1152448.9 9.4842263e-06 -2.3450614e-06 -1.1586683e-05 
Loop time of 2.44634 on 104 procs for 207 steps with 288751 atoms

99.9% CPU use with 104 MPI tasks x 1 OpenMP threads

Minimization stats:
  Stopping criterion = energy tolerance
  Energy initial, next-to-last, final = 
     -1152448.88636944  -1152448.88799169  -1152448.88799169
  Force two-norm initial, final = 0.17721735 8.5975608e-05
  Force max component initial, final = 0.14539298 1.4856277e-05
  Final line search alpha, max atom move = 1.0000000 1.4856277e-05
  Iterations, force evaluations = 207 414

MPI task timing breakdown:
Section |  min time  |  avg time  |  max time  |%varavg| %total
---------------------------------------------------------------
Pair    | 0.62862    | 1.7402     | 2.294      |  35.7 | 71.13
Neigh   | 0          | 0          | 0          |   0.0 |  0.00
Comm    | 0.036271   | 0.39807    | 1.181      |  51.6 | 16.27
Output  | 0          | 0          | 0          |   0.0 |  0.00
Modify  | 2.4862e-05 | 0.0034101  | 0.007273   |   2.8 |  0.14
Other   |            | 0.3047     |            |       | 12.45

Nlocal:        2776.45 ave        3960 max           0 min
Histogram: 8 4 4 0 4 12 8 2 28 34
Nghost:        3878.96 ave        5426 max         232 min
Histogram: 8 0 8 0 16 0 8 8 16 40
Neighs:        79213.6 ave      115424 max           0 min
Histogram: 8 4 4 0 10 6 8 8 24 32

Total # of neighbors = 8238216
Ave neighs/atom = 28.530519
Neighbor list builds = 0
Dangerous builds = 0
The dot product: 6.50976279718835e-08
Setting atom values ...
  1 settings made for x
  1 settings made for y
  1 settings made for z
Setting up cg style minimization ...
  Unit style    : metal
  Current step  : 5680
Per MPI rank memory allocation (min/avg/max) = 5.441 | 5.816 | 6.074 Mbytes
Step PotEng KinEng TotEng v_fx v_fy v_fz 
    5680   -1152448.9            0   -1152448.9 -0.0036808937 0.0026139117 0.0043070088 
    5892   -1152448.9            0   -1152448.9 -3.4584484e-06 1.0966326e-06 4.1454345e-06 
Loop time of 2.50799 on 104 procs for 212 steps with 288751 atoms

99.9% CPU use with 104 MPI tasks x 1 OpenMP threads

Minimization stats:
  Stopping criterion = energy tolerance
  Energy initial, next-to-last, final = 
     -1152448.85073102  -1152448.85235571  -1152448.85235571
  Force two-norm initial, final = 0.17854796 7.5731104e-05
  Force max component initial, final = 0.14716505 4.7417393e-06
  Final line search alpha, max atom move = 1.0000000 4.7417393e-06
  Iterations, force evaluations = 212 424

MPI task timing breakdown:
Section |  min time  |  avg time  |  max time  |%varavg| %total
---------------------------------------------------------------
Pair    | 0.64288    | 1.7867     | 2.3757     |  36.2 | 71.24
Neigh   | 0          | 0          | 0          |   0.0 |  0.00
Comm    | 0.036236   | 0.40853    | 1.2206     |  52.7 | 16.29
Output  | 0          | 0          | 0          |   0.0 |  0.00
Modify  | 2.5292e-05 | 0.0034978  | 0.0075554  |   2.8 |  0.14
Other   |            | 0.3093     |            |       | 12.33

Nlocal:        2776.45 ave        3960 max           0 min
Histogram: 8 4 4 0 4 12 8 2 28 34
Nghost:        3878.97 ave        5426 max         232 min
Histogram: 8 0 8 0 16 0 8 8 16 40
Neighs:        79213.6 ave      115427 max           0 min
Histogram: 8 4 4 0 10 6 8 8 24 32

Total # of neighbors = 8238215
Ave neighs/atom = 28.530516
Neighbor list builds = 0
Dangerous builds = 0
The dot product: -1.9294896259236e-08
Setting atom values ...
  1 settings made for x
  1 settings made for y
  1 settings made for z
Setting up cg style minimization ...
  Unit style    : metal
  Current step  : 5892
Per MPI rank memory allocation (min/avg/max) = 5.441 | 5.816 | 6.074 Mbytes
Step PotEng KinEng TotEng v_fx v_fy v_fz 
    5892   -1152448.8            0   -1152448.8 -0.0062678487 0.0019393464 0.0074283435 
    6000   -1152448.8            0   -1152448.8 9.2124484e-05 -3.7767416e-07 -0.00011118519 
    6063   -1152448.8            0   -1152448.8 5.0788815e-05 -6.3356446e-06 -6.0860569e-05 
Loop time of 1.99474 on 104 procs for 171 steps with 288751 atoms

99.9% CPU use with 104 MPI tasks x 1 OpenMP threads

Minimization stats:
  Stopping criterion = energy tolerance
  Energy initial, next-to-last, final = 
     -1152448.81408956  -1152448.81584959  -1152448.81584959
  Force two-norm initial, final = 0.17976766 0.00028877777
  Force max component initial, final = 0.14872685 6.0860569e-05
  Final line search alpha, max atom move = 1.0000000 6.0860569e-05
  Iterations, force evaluations = 171 342

MPI task timing breakdown:
Section |  min time  |  avg time  |  max time  |%varavg| %total
---------------------------------------------------------------
Pair    | 0.51885    | 1.4334     | 1.8935     |  32.4 | 71.86
Neigh   | 0          | 0          | 0          |   0.0 |  0.00
Comm    | 0.030571   | 0.3232     | 0.96749    |  47.3 | 16.20
Output  | 9.9128e-05 | 0.00010821 | 0.00025802 |   0.0 |  0.01
Modify  | 2.0722e-05 | 0.0028235  | 0.0060508  |   2.5 |  0.14
Other   |            | 0.2352     |            |       | 11.79

Nlocal:        2776.45 ave        3960 max           0 min
Histogram: 8 4 4 0 4 12 8 2 28 34
Nghost:        3879.01 ave        5426 max         232 min
Histogram: 8 0 8 0 16 0 8 8 16 40
Neighs:        79213.6 ave      115427 max           0 min
Histogram: 8 4 4 0 10 6 8 8 24 32

Total # of neighbors = 8238213
Ave neighs/atom = 28.530509
Neighbor list builds = 0
Dangerous builds = 0
The dot product: 2.47524279892757e-07
Setting atom values ...
  1 settings made for x
  1 settings made for y
  1 settings made for z
Setting up cg style minimization ...
  Unit style    : metal
  Current step  : 6063
Per MPI rank memory allocation (min/avg/max) = 5.441 | 5.816 | 6.074 Mbytes
Step PotEng KinEng TotEng v_fx v_fy v_fz 
    6063   -1152448.8            0   -1152448.8 -0.0083679239 0.0017326539 0.0098797273 
    6241   -1152448.8            0   -1152448.8 1.2758742e-05 -2.8517084e-06 -1.5048956e-05 
Loop time of 2.10762 on 104 procs for 178 steps with 288751 atoms

99.9% CPU use with 104 MPI tasks x 1 OpenMP threads

Minimization stats:
  Stopping criterion = energy tolerance
  Energy initial, next-to-last, final = 
     -1152448.77674733   -1152448.7783651   -1152448.7783651
  Force two-norm initial, final = 0.18035625 0.00018050328
  Force max component initial, final = 0.149782 1.8077581e-05
  Final line search alpha, max atom move = 1.0000000 1.8077581e-05
  Iterations, force evaluations = 178 356

MPI task timing breakdown:
Section |  min time  |  avg time  |  max time  |%varavg| %total
---------------------------------------------------------------
Pair    | 0.54097    | 1.505      | 1.9966     |  33.3 | 71.41
Neigh   | 0          | 0          | 0          |   0.0 |  0.00
Comm    | 0.032549   | 0.34564    | 1.0245     |  48.5 | 16.40
Output  | 0          | 0          | 0          |   0.0 |  0.00
Modify  | 2.1297e-05 | 0.0029387  | 0.0063628  |   2.6 |  0.14
Other   |            | 0.254      |            |       | 12.05

Nlocal:        2776.45 ave        3960 max           0 min
Histogram: 8 4 4 0 4 12 8 2 28 34
Nghost:        3878.95 ave        5426 max         232 min
Histogram: 8 0 8 0 16 0 8 8 16 40
Neighs:        79213.6 ave      115439 max           0 min
Histogram: 8 4 4 0 10 6 8 8 24 32

Total # of neighbors = 8238215
Ave neighs/atom = 28.530516
Neighbor list builds = 0
Dangerous builds = 0
The dot product: 4.11293843709591e-08
Setting atom values ...
  1 settings made for x
  1 settings made for y
  1 settings made for z
Setting up cg style minimization ...
  Unit style    : metal
  Current step  : 6241
Per MPI rank memory allocation (min/avg/max) = 5.441 | 5.816 | 6.074 Mbytes
Step PotEng KinEng TotEng v_fx v_fy v_fz 
    6241   -1152448.7            0   -1152448.7 -0.011520591 0.0020520534  0.013538735 
    6411   -1152448.7            0   -1152448.7 1.0829978e-05 -3.5848294e-06 -1.2609501e-05 
Loop time of 2.00793 on 104 procs for 170 steps with 288751 atoms

99.9% CPU use with 104 MPI tasks x 1 OpenMP threads

Minimization stats:
  Stopping criterion = energy tolerance
  Energy initial, next-to-last, final = 
     -1152448.73825411  -1152448.73990029  -1152448.73990029
  Force two-norm initial, final = 0.18130224 0.00025333973
  Force max component initial, final = 0.15112063 2.0608616e-05
  Final line search alpha, max atom move = 1.0000000 2.0608616e-05
  Iterations, force evaluations = 170 340

MPI task timing breakdown:
Section |  min time  |  avg time  |  max time  |%varavg| %total
---------------------------------------------------------------
Pair    | 0.51676    | 1.4291     | 1.9073     |  32.4 | 71.17
Neigh   | 0          | 0          | 0          |   0.0 |  0.00
Comm    | 0.029509   | 0.32793    | 0.97531    |  46.8 | 16.33
Output  | 0          | 0          | 0          |   0.0 |  0.00
Modify  | 2.0475e-05 | 0.0028029  | 0.0060381  |   2.5 |  0.14
Other   |            | 0.2481     |            |       | 12.35

Nlocal:        2776.45 ave        3960 max           0 min
Histogram: 8 4 4 0 4 12 8 2 28 34
Nghost:        3878.92 ave        5426 max         232 min
Histogram: 8 0 8 0 16 0 8 8 16 40
Neighs:        79213.6 ave      115439 max           0 min
Histogram: 8 4 4 0 10 6 8 8 24 32

Total # of neighbors = 8238213
Ave neighs/atom = 28.530509
Neighbor list builds = 0
Dangerous builds = 0
The dot product: 2.0594366143298e-08
Setting atom values ...
  1 settings made for x
  1 settings made for y
  1 settings made for z
Setting up cg style minimization ...
  Unit style    : metal
  Current step  : 6411
Per MPI rank memory allocation (min/avg/max) = 5.441 | 5.816 | 6.074 Mbytes
Step PotEng KinEng TotEng v_fx v_fy v_fz 
    6411   -1152448.7            0   -1152448.7 -0.014264162 0.0027433471  0.016688535 
    6624   -1152448.7            0   -1152448.7 -6.9911086e-06 -4.4094127e-07 8.307597e-06 
Loop time of 2.51838 on 104 procs for 213 steps with 288751 atoms

99.9% CPU use with 104 MPI tasks x 1 OpenMP threads

Minimization stats:
  Stopping criterion = energy tolerance
  Energy initial, next-to-last, final = 
     -1152448.69892985   -1152448.7008151   -1152448.7008151
  Force two-norm initial, final = 0.18150236 9.3627391e-05
  Force max component initial, final = 0.15205079 1.4009748e-05
  Final line search alpha, max atom move = 1.0000000 1.4009748e-05
  Iterations, force evaluations = 213 426

MPI task timing breakdown:
Section |  min time  |  avg time  |  max time  |%varavg| %total
---------------------------------------------------------------
Pair    | 0.64649    | 1.7985     | 2.3862     |  36.3 | 71.42
Neigh   | 0          | 0          | 0          |   0.0 |  0.00
Comm    | 0.036594   | 0.41157    | 1.2343     |  53.1 | 16.34
Output  | 0          | 0          | 0          |   0.0 |  0.00
Modify  | 2.5502e-05 | 0.0035165  | 0.007534   |   2.8 |  0.14
Other   |            | 0.3048     |            |       | 12.10

Nlocal:        2776.45 ave        3959 max           0 min
Histogram: 8 4 4 0 4 12 8 2 28 34
Nghost:        3878.90 ave        5426 max         232 min
Histogram: 8 0 8 0 16 0 8 8 16 40
Neighs:        79213.6 ave      115411 max           0 min
Histogram: 8 4 4 0 10 6 8 8 24 32

Total # of neighbors = 8238215
Ave neighs/atom = 28.530516
Neighbor list builds = 0
Dangerous builds = 0
The dot product: -6.00802045758742e-09
Setting atom values ...
  1 settings made for x
  1 settings made for y
  1 settings made for z
Setting up cg style minimization ...
  Unit style    : metal
  Current step  : 6624
Per MPI rank memory allocation (min/avg/max) = 5.441 | 5.816 | 6.074 Mbytes
Step PotEng KinEng TotEng v_fx v_fy v_fz 
    6624   -1152448.7            0   -1152448.7 -0.016289314  0.003296673  0.019008046 
    6765   -1152448.7            0   -1152448.7 2.1779442e-05 -1.1852183e-06 -2.5651382e-05 
Loop time of 1.64951 on 104 procs for 141 steps with 288751 atoms

99.9% CPU use with 104 MPI tasks x 1 OpenMP threads

Minimization stats:
  Stopping criterion = energy tolerance
  Energy initial, next-to-last, final = 
     -1152448.65947233  -1152448.66126283  -1152448.66126283
  Force two-norm initial, final = 0.18019136 0.0001377615
  Force max component initial, final = 0.15189518 2.6285184e-05
  Final line search alpha, max atom move = 1.0000000 2.6285184e-05
  Iterations, force evaluations = 141 282

MPI task timing breakdown:
Section |  min time  |  avg time  |  max time  |%varavg| %total
---------------------------------------------------------------
Pair    | 0.42787    | 1.1849     | 1.5657     |  29.5 | 71.83
Neigh   | 0          | 0          | 0          |   0.0 |  0.00
Comm    | 0.025001   | 0.26813    | 0.80133    |  43.2 | 16.25
Output  | 0          | 0          | 0          |   0.0 |  0.00
Modify  | 1.6622e-05 | 0.0023288  | 0.0049687  |   2.3 |  0.14
Other   |            | 0.1941     |            |       | 11.77

Nlocal:        2776.45 ave        3959 max           0 min
Histogram: 8 4 4 0 4 12 8 2 28 34
Nghost:        3878.85 ave        5426 max         232 min
Histogram: 8 0 8 0 16 0 8 8 16 40
Neighs:        79213.5 ave      115414 max           0 min
Histogram: 8 4 4 0 10 6 8 8 24 32

Total # of neighbors = 8238200
Ave neighs/atom = 28.530464
Neighbor list builds = 0
Dangerous builds = 0
The dot product: -1.90522098871358e-08
Setting atom values ...
  1 settings made for x
  1 settings made for y
  1 settings made for z
Setting up cg style minimization ...
  Unit style    : metal
  Current step  : 6765
Per MPI rank memory allocation (min/avg/max) = 5.441 | 5.816 | 6.074 Mbytes
Step PotEng KinEng TotEng v_fx v_fy v_fz 
    6765   -1152448.6            0   -1152448.6 -0.019191139 0.0037429919  0.022433646 
    6978   -1152448.6            0   -1152448.6 2.6832072e-06 -2.1449081e-08 -3.174734e-06 
Loop time of 2.55623 on 104 procs for 213 steps with 288751 atoms

99.9% CPU use with 104 MPI tasks x 1 OpenMP threads

Minimization stats:
  Stopping criterion = energy tolerance
  Energy initial, next-to-last, final = 
     -1152448.61983672  -1152448.62198672  -1152448.62198672
  Force two-norm initial, final = 0.17911128 0.00013314724
  Force max component initial, final = 0.15120214 3.6194094e-06
  Final line search alpha, max atom move = 1.0000000 3.6194094e-06
  Iterations, force evaluations = 213 426

MPI task timing breakdown:
Section |  min time  |  avg time  |  max time  |%varavg| %total
---------------------------------------------------------------
Pair    | 0.64123    | 1.7972     | 2.4311     |  36.6 | 70.31
Neigh   | 0          | 0          | 0          |   0.0 |  0.00
Comm    | 0.034868   | 0.42248    | 1.2513     |  51.6 | 16.53
Output  | 0          | 0          | 0          |   0.0 |  0.00
Modify  | 2.5514e-05 | 0.0035106  | 0.0076623  |   2.8 |  0.14
Other   |            | 0.333      |            |       | 13.03

Nlocal:        2776.45 ave        3958 max           0 min
Histogram: 8 4 4 0 4 12 8 2 28 34
Nghost:        3878.85 ave        5426 max         232 min
Histogram: 8 0 8 0 16 0 8 8 16 40
Neighs:        79213.5 ave      115372 max           0 min
Histogram: 8 4 4 0 10 6 8 8 24 32

Total # of neighbors = 8238201
Ave neighs/atom = 28.530467
Neighbor list builds = 0
Dangerous builds = 0
The dot product: -2.78476112323153e-09
Setting atom values ...
  1 settings made for x
  1 settings made for y
  1 settings made for z
Setting up cg style minimization ...
  Unit style    : metal
  Current step  : 6978
Per MPI rank memory allocation (min/avg/max) = 5.441 | 5.816 | 6.074 Mbytes
Step PotEng KinEng TotEng v_fx v_fy v_fz 
    6978   -1152448.6            0   -1152448.6 -0.021527748 0.00085970183  0.025463429 
    7000   -1152448.6            0   -1152448.6 0.0020729494 -5.9987681e-05 -0.0024537329 
    7270   -1152448.6            0   -1152448.6 1.7543295e-06 -1.6756832e-07 -2.0673153e-06 
Loop time of 3.41228 on 104 procs for 292 steps with 288751 atoms

99.9% CPU use with 104 MPI tasks x 1 OpenMP threads

Minimization stats:
  Stopping criterion = energy tolerance
  Energy initial, next-to-last, final = 
     -1152448.58159643  -1152448.58610233  -1152448.58610233
  Force two-norm initial, final = 0.17844584 2.0148626e-05
  Force max component initial, final = 0.14830135 2.4527167e-06
  Final line search alpha, max atom move = 1.0000000 2.4527167e-06
  Iterations, force evaluations = 292 584

MPI task timing breakdown:
Section |  min time  |  avg time  |  max time  |%varavg| %total
---------------------------------------------------------------
Pair    | 0.88587    | 2.4511     | 3.2353     |  42.4 | 71.83
Neigh   | 1.0621e-05 | 0.0029494  | 0.0042915  |   2.2 |  0.09
Comm    | 0.050989   | 0.55518    | 1.6612     |  62.0 | 16.27
Output  | 9.4995e-05 | 0.00010737 | 0.00018944 |   0.0 |  0.00
Modify  | 3.4932e-05 | 0.0048065  | 0.010258   |   3.3 |  0.14
Other   |            | 0.3982     |            |       | 11.67

Nlocal:        2776.45 ave        3955 max           0 min
Histogram: 8 4 4 0 4 12 8 0 30 34
Nghost:        3878.97 ave        5425 max         232 min
Histogram: 8 0 8 0 16 0 8 8 16 40
Neighs:        79213.4 ave      115308 max           0 min
Histogram: 8 4 4 0 10 6 8 8 24 32

Total # of neighbors = 8238196
Ave neighs/atom = 28.530450
Neighbor list builds = 1
Dangerous builds = 0
The dot product: 3.38699092863941e-08
Setting atom values ...
  1 settings made for x
  1 settings made for y
  1 settings made for z
Setting up cg style minimization ...
  Unit style    : metal
  Current step  : 7270
Per MPI rank memory allocation (min/avg/max) = 5.441 | 5.816 | 6.074 Mbytes
Step PotEng KinEng TotEng v_fx v_fy v_fz 
    7270   -1152448.6            0   -1152448.6 -0.011694285 -0.0012464363  0.013528982 
    7475   -1152448.6            0   -1152448.6 2.4249616e-05 -2.9538621e-06 -2.758769e-05 
Loop time of 2.41205 on 104 procs for 205 steps with 288751 atoms

99.9% CPU use with 104 MPI tasks x 1 OpenMP threads

Minimization stats:
  Stopping criterion = energy tolerance
  Energy initial, next-to-last, final = 
     -1152448.55848728  -1152448.56158566  -1152448.56158566
  Force two-norm initial, final = 0.18440629 0.00012638863
  Force max component initial, final = 0.14846312 3.3743167e-05
  Final line search alpha, max atom move = 1.0000000 3.3743167e-05
  Iterations, force evaluations = 205 410

MPI task timing breakdown:
Section |  min time  |  avg time  |  max time  |%varavg| %total
---------------------------------------------------------------
Pair    | 0.62523    | 1.7313     | 2.2804     |  35.5 | 71.78
Neigh   | 0          | 0          | 0          |   0.0 |  0.00
Comm    | 0.038689   | 0.3941     | 1.1744     |  52.3 | 16.34
Output  | 0          | 0          | 0          |   0.0 |  0.00
Modify  | 2.4627e-05 | 0.0033816  | 0.0073112  |   2.8 |  0.14
Other   |            | 0.2833     |            |       | 11.74

Nlocal:        2776.45 ave        3957 max           0 min
Histogram: 8 4 4 0 4 12 8 2 28 34
Nghost:        3879.01 ave        5426 max         232 min
Histogram: 8 0 8 0 16 0 8 8 16 40
Neighs:        79213.4 ave      115348 max           0 min
Histogram: 8 4 4 0 10 6 8 8 24 32

Total # of neighbors = 8238198
Ave neighs/atom = 28.530457
Neighbor list builds = 0
Dangerous builds = 0
The dot product: 2.25289615959053e-07
Setting atom values ...
  1 settings made for x
  1 settings made for y
  1 settings made for z
Setting up cg style minimization ...
  Unit style    : metal
  Current step  : 7475
Per MPI rank memory allocation (min/avg/max) = 5.441 | 5.816 | 6.074 Mbytes
Step PotEng KinEng TotEng v_fx v_fy v_fz 
    7475   -1152448.5            0   -1152448.5 -0.024655196 0.0041699711  0.027507301 
    7739   -1152448.5            0   -1152448.5 4.4505456e-06 -5.6623214e-07 -4.9813848e-06 
[...]

Nlocal:        2776.45 ave        3952 max           0 min
Histogram: 8 4 4 0 4 12 8 0 30 34
Nghost:        3879.11 ave        5426 max         232 min
Histogram: 8 0 8 0 16 0 8 8 16 40
Neighs:        79213.6 ave      115112 max           0 min
Histogram: 8 4 4 0 10 6 8 8 24 32

Total # of neighbors = 8238212
Ave neighs/atom = 28.530506
Neighbor list builds = 0
Dangerous builds = 0
The dot product: -7.10983202166938e-08
Setting atom values ...
  1 settings made for x
  1 settings made for y
  1 settings made for z
Setting up cg style minimization ...
  Unit style    : metal
  Current step  : 19318
Per MPI rank memory allocation (min/avg/max) = 5.441 | 5.816 | 6.074 Mbytes
Step PotEng KinEng TotEng v_fx v_fy v_fz 
   19318   -1152448.1            0   -1152448.1  0.027680804 -0.0089642297 -0.0083508728 
   19470   -1152448.1            0   -1152448.1 -1.1793916e-05 2.0080275e-05 -1.0269059e-05 
Loop time of 1.7643 on 104 procs for 152 steps with 288751 atoms

99.9% CPU use with 104 MPI tasks x 1 OpenMP threads

Minimization stats:
  Stopping criterion = energy tolerance
  Energy initial, next-to-last, final = 
     -1152448.09140349  -1152448.09231572  -1152448.09231572
  Force two-norm initial, final = 0.12638969 0.00020289466
  Force max component initial, final = 0.053605846 2.6162264e-05
  Final line search alpha, max atom move = 1.0000000 2.6162264e-05
  Iterations, force evaluations = 152 304

MPI task timing breakdown:
Section |  min time  |  avg time  |  max time  |%varavg| %total
---------------------------------------------------------------
Pair    | 0.462      | 1.2733     | 1.6586     |  30.4 | 72.17
Neigh   | 0          | 0          | 0          |   0.0 |  0.00
Comm    | 0.0274     | 0.28598    | 0.86115    |  45.0 | 16.21
Output  | 0          | 0          | 0          |   0.0 |  0.00
Modify  | 1.7129e-05 | 0.0025037  | 0.0053491  |   2.4 |  0.14
Other   |            | 0.2025     |            |       | 11.48

Nlocal:        2776.45 ave        3952 max           0 min
Histogram: 8 4 4 0 4 12 8 0 30 34
Nghost:        3879.12 ave        5426 max         232 min
Histogram: 8 0 8 0 16 0 8 8 16 40
Neighs:        79213.6 ave      115112 max           0 min
Histogram: 8 4 4 0 10 6 8 8 24 32

Total # of neighbors = 8238212
Ave neighs/atom = 28.530506
Neighbor list builds = 0
Dangerous builds = 0
The dot product: -5.27096167640098e-08
Setting atom values ...
  1 settings made for x
  1 settings made for y
  1 settings made for z
Setting up cg style minimization ...
  Unit style    : metal
  Current step  : 19470
Per MPI rank memory allocation (min/avg/max) = 5.441 | 5.816 | 6.074 Mbytes
Step PotEng KinEng TotEng v_fx v_fy v_fz 
   19470   -1152448.1            0   -1152448.1  0.028483448 -0.0059458036 -0.011431718 
   19703   -1152448.1            0   -1152448.1 1.3953308e-06 -8.214405e-07 -1.0955423e-07 
Loop time of 2.69923 on 104 procs for 233 steps with 288751 atoms

99.9% CPU use with 104 MPI tasks x 1 OpenMP threads

Minimization stats:
  Stopping criterion = energy tolerance
  Energy initial, next-to-last, final = 
     -1152448.07171245  -1152448.07258019  -1152448.07258019
  Force two-norm initial, final = 0.1240676 2.1045483e-05
  Force max component initial, final = 0.053539618 3.9253726e-06
  Final line search alpha, max atom move = 1.0000000 3.9253726e-06
  Iterations, force evaluations = 233 466

MPI task timing breakdown:
Section |  min time  |  avg time  |  max time  |%varavg| %total
---------------------------------------------------------------
Pair    | 0.70684    | 1.9619     | 2.5504     |  38.0 | 72.68
Neigh   | 0          | 0          | 0          |   0.0 |  0.00
Comm    | 0.052237   | 0.4404     | 1.331      |  56.0 | 16.32
Output  | 0          | 0          | 0          |   0.0 |  0.00
Modify  | 2.653e-05  | 0.0038361  | 0.0082077  |   2.9 |  0.14
Other   |            | 0.2931     |            |       | 10.86

Nlocal:        2776.45 ave        3952 max           0 min
Histogram: 8 4 4 0 4 12 8 0 30 34
Nghost:        3879.12 ave        5426 max         232 min
Histogram: 8 0 8 0 16 0 8 8 16 40
Neighs:        79213.6 ave      115113 max           0 min
Histogram: 8 4 4 0 10 6 8 8 24 32

Total # of neighbors = 8238215
Ave neighs/atom = 28.530516
Neighbor list builds = 0
Dangerous builds = 0
The dot product: 4.2460289477991e-09
Setting atom values ...
  1 settings made for x
  1 settings made for y
  1 settings made for z
Setting up cg style minimization ...
  Unit style    : metal
  Current step  : 19703
Per MPI rank memory allocation (min/avg/max) = 5.441 | 5.816 | 6.074 Mbytes
Step PotEng KinEng TotEng v_fx v_fy v_fz 
   19703   -1152448.1            0   -1152448.1  0.031033315 -0.0019106426 -0.016391172 
   19846   -1152448.1            0   -1152448.1 7.8435206e-06 -1.699286e-05 9.8811674e-06 
Loop time of 1.67277 on 104 procs for 143 steps with 288751 atoms

99.9% CPU use with 104 MPI tasks x 1 OpenMP threads

Minimization stats:
  Stopping criterion = energy tolerance
  Energy initial, next-to-last, final = 
     -1152448.05136046  -1152448.05219432  -1152448.05219432
  Force two-norm initial, final = 0.12285203 0.00017150077
  Force max component initial, final = 0.053491256 1.7809556e-05
  Final line search alpha, max atom move = 1.0000000 1.7809556e-05
  Iterations, force evaluations = 143 286

MPI task timing breakdown:
Section |  min time  |  avg time  |  max time  |%varavg| %total
---------------------------------------------------------------
Pair    | 0.43634    | 1.2016     | 1.563      |  29.5 | 71.83
Neigh   | 0          | 0          | 0          |   0.0 |  0.00
Comm    | 0.030783   | 0.27163    | 0.82739    |  43.6 | 16.24
Output  | 0          | 0          | 0          |   0.0 |  0.00
Modify  | 1.6117e-05 | 0.0023614  | 0.0050418  |   2.3 |  0.14
Other   |            | 0.1972     |            |       | 11.79

Nlocal:        2776.45 ave        3952 max           0 min
Histogram: 8 4 4 0 4 12 8 0 30 34
Nghost:        3879.12 ave        5426 max         232 min
Histogram: 8 0 8 0 16 0 8 8 16 40
Neighs:        79213.6 ave      115114 max           0 min
Histogram: 8 4 4 0 10 6 8 8 24 32

Total # of neighbors = 8238216
Ave neighs/atom = 28.530519
Neighbor list builds = 0
Dangerous builds = 0
The dot product: 1.71217138036476e-08
Setting atom values ...
  1 settings made for x
  1 settings made for y
  1 settings made for z
Setting up cg style minimization ...
  Unit style    : metal
  Current step  : 19846
Per MPI rank memory allocation (min/avg/max) = 5.441 | 5.816 | 6.074 Mbytes
Step PotEng KinEng TotEng v_fx v_fy v_fz 
   19846     -1152448            0     -1152448  0.036533299 0.0047440781 -0.025334835 
   20000   -1152448.8            0   -1152448.8 -0.0025673862 -0.0029469177 0.0040019295 
   20189   -1152448.8            0   -1152448.8 3.028255e-05 -1.1450552e-06 -1.6684254e-05 
Loop time of 3.98556 on 104 procs for 343 steps with 288751 atoms

99.9% CPU use with 104 MPI tasks x 1 OpenMP threads

Minimization stats:
  Stopping criterion = energy tolerance
  Energy initial, next-to-last, final = 
     -1152448.03059032   -1152448.7993481   -1152448.7993481
  Force two-norm initial, final = 0.12508201 0.00013514532
  Force max component initial, final = 0.053327403 3.2689611e-05
  Final line search alpha, max atom move = 1.0000000 3.2689611e-05
  Iterations, force evaluations = 343 685

MPI task timing breakdown:
Section |  min time  |  avg time  |  max time  |%varavg| %total
---------------------------------------------------------------
Pair    | 1.0852     | 2.8894     | 3.7245     |  45.0 | 72.50
Neigh   | 0.00011065 | 0.032521   | 0.047147   |   7.4 |  0.82
Comm    | 0.069992   | 0.65009    | 1.9636     |  68.1 | 16.31
Output  | 0.00010393 | 0.00011197 | 0.00028418 |   0.0 |  0.00
Modify  | 3.813e-05  | 0.0056353  | 0.012076   |   3.6 |  0.14
Other   |            | 0.4078     |            |       | 10.23

Nlocal:        2776.45 ave        3940 max           0 min
Histogram: 8 4 4 0 4 12 8 1 27 36
Nghost:        3879.06 ave        5424 max         232 min
Histogram: 8 0 8 0 16 0 8 8 16 40
Neighs:        79213.5 ave      114744 max           0 min
Histogram: 8 4 4 0 9 7 8 8 22 34

Total # of neighbors = 8238205
Ave neighs/atom = 28.530481
Neighbor list builds = 11
Dangerous builds = 0
The dot product: 4.77005118254423e-06
Setting atom values ...
  1 settings made for x
  1 settings made for y
  1 settings made for z
Setting up cg style minimization ...
  Unit style    : metal
  Current step  : 20189
Per MPI rank memory allocation (min/avg/max) = 5.441 | 5.816 | 6.074 Mbytes
Step PotEng KinEng TotEng v_fx v_fy v_fz 
   20189   -1152448.8            0   -1152448.8 -0.0024697032  -0.20664871   0.26208397 
   20486   -1152448.9            0   -1152448.9 2.0081377e-06 -1.1324433e-06 -9.8983791e-09 
Loop time of 3.40104 on 104 procs for 297 steps with 288751 atoms

99.9% CPU use with 104 MPI tasks x 1 OpenMP threads

Minimization stats:
  Stopping criterion = energy tolerance
  Energy initial, next-to-last, final = 
       -1152448.834395  -1152448.85237899  -1152448.85237899
  Force two-norm initial, final = 0.37369824 1.1122861e-05
  Force max component initial, final = 0.26208397 2.9593579e-06
  Final line search alpha, max atom move = 1.0000000 2.9593579e-06
  Iterations, force evaluations = 297 594

MPI task timing breakdown:
Section |  min time  |  avg time  |  max time  |%varavg| %total
---------------------------------------------------------------
Pair    | 0.91051    | 2.4857     | 3.2143     |  42.3 | 73.09
Neigh   | 1.0198e-05 | 0.0029559  | 0.0042678  |   2.2 |  0.09
Comm    | 0.054521   | 0.55412    | 1.6838     |  63.7 | 16.29
Output  | 0          | 0          | 0          |   0.0 |  0.00
Modify  | 3.2686e-05 | 0.0048824  | 0.010384   |   3.3 |  0.14
Other   |            | 0.3533     |            |       | 10.39

Nlocal:        2776.45 ave        3930 max           0 min
Histogram: 8 4 4 0 4 12 8 0 26 38
Nghost:        3878.99 ave        5425 max         232 min
Histogram: 8 0 8 0 16 0 8 8 16 40
Neighs:        79213.3 ave      114462 max           0 min
Histogram: 8 4 4 0 8 8 8 8 20 36

Total # of neighbors = 8238186
Ave neighs/atom = 28.530415
Neighbor list builds = 1
Dangerous builds = 0
The dot product: 7.44734177750429e-08
Setting atom values ...
  1 settings made for x
  1 settings made for y
  1 settings made for z
Setting up cg style minimization ...
  Unit style    : metal
  Current step  : 20486
Per MPI rank memory allocation (min/avg/max) = 5.441 | 5.816 | 6.074 Mbytes
Step PotEng KinEng TotEng v_fx v_fy v_fz 
   20486   -1152448.9            0   -1152448.9 0.0016869426  0.052798469 -0.062051026 
   20641   -1152448.9            0   -1152448.9 1.2231746e-05 -3.1268593e-06 -4.7263296e-06 
Loop time of 1.79251 on 104 procs for 155 steps with 288751 atoms

99.9% CPU use with 104 MPI tasks x 1 OpenMP threads

Minimization stats:
  Stopping criterion = energy tolerance
  Energy initial, next-to-last, final = 
     -1152448.88616169  -1152448.88816929  -1152448.88816929
  Force two-norm initial, final = 0.18908702 5.4985560e-05
  Force max component initial, final = 0.10544508 1.2231746e-05
  Final line search alpha, max atom move = 1.0000000 1.2231746e-05
  Iterations, force evaluations = 155 310

MPI task timing breakdown:
Section |  min time  |  avg time  |  max time  |%varavg| %total
---------------------------------------------------------------
Pair    | 0.47426    | 1.3048     | 1.6799     |  30.7 | 72.79
Neigh   | 0          | 0          | 0          |   0.0 |  0.00
Comm    | 0.028917   | 0.29523    | 0.88737    |  45.1 | 16.47
Output  | 0          | 0          | 0          |   0.0 |  0.00
Modify  | 1.7682e-05 | 0.0025638  | 0.0054668  |   2.4 |  0.14
Other   |            | 0.1899     |            |       | 10.60

Nlocal:        2776.45 ave        3930 max           0 min
Histogram: 8 4 4 0 4 12 8 0 26 38
Nghost:        3879.09 ave        5425 max         232 min
Histogram: 8 0 8 0 16 0 8 8 16 40
Neighs:        79213.3 ave      114451 max           0 min
Histogram: 8 4 4 0 8 8 8 8 20 36

Total # of neighbors = 8238183
Ave neighs/atom = 28.530405
Neighbor list builds = 0
Dangerous builds = 0
The dot product: -1.50590430116948e-09
Setting atom values ...
  1 settings made for x
  1 settings made for y
  1 settings made for z
Setting up cg style minimization ...
  Unit style    : metal
  Current step  : 20641
Per MPI rank memory allocation (min/avg/max) = 5.441 | 5.816 | 6.074 Mbytes
Step PotEng KinEng TotEng v_fx v_fy v_fz 
   20641   -1152448.9            0   -1152448.9 0.0047942411 -0.0027487843 -6.4732412e-05 
   20833   -1152448.9            0   -1152448.9 -1.0815086e-06 1.0431662e-05 -1.1498362e-05 
Loop time of 2.22248 on 104 procs for 192 steps with 288751 atoms

99.9% CPU use with 104 MPI tasks x 1 OpenMP threads

Minimization stats:
  Stopping criterion = energy tolerance
  Energy initial, next-to-last, final = 
     -1152448.92033291  -1152448.92168409  -1152448.92168409
  Force two-norm initial, final = 0.16964006 0.00011818925
  Force max component initial, final = 0.10392114 3.3667040e-05
  Final line search alpha, max atom move = 1.0000000 3.3667040e-05
  Iterations, force evaluations = 192 384

MPI task timing breakdown:
Section |  min time  |  avg time  |  max time  |%varavg| %total
---------------------------------------------------------------
Pair    | 0.58447    | 1.6079     | 2.0827     |  34.2 | 72.35
Neigh   | 0          | 0          | 0          |   0.0 |  0.00
Comm    | 0.0398     | 0.35973    | 1.0835     |  50.8 | 16.19
Output  | 0          | 0          | 0          |   0.0 |  0.00
Modify  | 2.1582e-05 | 0.0031618  | 0.0067018  |   2.7 |  0.14
Other   |            | 0.2517     |            |       | 11.32

Nlocal:        2776.45 ave        3930 max           0 min
Histogram: 8 4 4 0 4 12 8 0 26 38
Nghost:        3879.09 ave        5425 max         232 min
Histogram: 8 0 8 0 16 0 8 8 16 40
Neighs:        79213.3 ave      114451 max           0 min
Histogram: 8 4 4 0 8 8 8 8 20 36

Total # of neighbors = 8238184
Ave neighs/atom = 28.530409
Neighbor list builds = 0
Dangerous builds = 0
The dot product: -4.70219971231863e-08
Setting atom values ...
  1 settings made for x
  1 settings made for y
  1 settings made for z
Setting up cg style minimization ...
  Unit style    : metal
  Current step  : 20833
Per MPI rank memory allocation (min/avg/max) = 5.441 | 5.816 | 6.074 Mbytes
Step PotEng KinEng TotEng v_fx v_fy v_fz 
   20833     -1152449            0     -1152449 0.0047265651 0.0082875694 -0.012936255 
   21000     -1152449            0     -1152449 -3.9983008e-05 -3.7400751e-06 3.1770576e-05 
   21073     -1152449            0     -1152449 -2.3122962e-06 1.2535037e-06 1.1743596e-07 
Loop time of 2.7789 on 104 procs for 240 steps with 288751 atoms

99.9% CPU use with 104 MPI tasks x 1 OpenMP threads

Minimization stats:
  Stopping criterion = energy tolerance
  Energy initial, next-to-last, final = 
     -1152448.95219412   -1152448.9535364   -1152448.9535364
  Force two-norm initial, final = 0.1697747 1.4913103e-05
  Force max component initial, final = 0.10322515 2.4006919e-06
  Final line search alpha, max atom move = 1.0000000 2.4006919e-06
  Iterations, force evaluations = 240 480

MPI task timing breakdown:
Section |  min time  |  avg time  |  max time  |%varavg| %total
---------------------------------------------------------------
Pair    | 0.73329    | 2.0191     | 2.6292     |  38.4 | 72.66
Neigh   | 0          | 0          | 0          |   0.0 |  0.00
Comm    | 0.062288   | 0.46059    | 1.3674     |  56.1 | 16.57
Output  | 0.00015219 | 0.000155   | 0.00031393 |   0.0 |  0.01
Modify  | 2.7052e-05 | 0.0039466  | 0.0083913  |   3.0 |  0.14
Other   |            | 0.2951     |            |       | 10.62

Nlocal:        2776.45 ave        3930 max           0 min
Histogram: 8 4 4 0 4 12 8 0 26 38
Nghost:        3879.09 ave        5425 max         232 min
Histogram: 8 0 8 0 16 0 8 8 16 40
Neighs:        79213.3 ave      114447 max           0 min
Histogram: 8 4 4 0 8 8 8 8 20 36

Total # of neighbors = 8238185
Ave neighs/atom = 28.530412
Neighbor list builds = 0
Dangerous builds = 0
The dot product: 2.10990338262244e-09
Setting atom values ...
  1 settings made for x
  1 settings made for y
  1 settings made for z
Setting up cg style minimization ...
  Unit style    : metal
  Current step  : 21073
Per MPI rank memory allocation (min/avg/max) = 5.441 | 5.816 | 6.074 Mbytes
Step PotEng KinEng TotEng v_fx v_fy v_fz 
   21073     -1152449            0     -1152449 0.0063414094   0.00700125   -0.0125461 
   21362     -1152449            0     -1152449 4.346459e-08 3.0699271e-08 -6.5741322e-08 
Loop time of 3.30349 on 104 procs for 289 steps with 288751 atoms

99.9% CPU use with 104 MPI tasks x 1 OpenMP threads

Minimization stats:
  Stopping criterion = energy tolerance
  Energy initial, next-to-last, final = 
     -1152448.98241089  -1152448.98375114  -1152448.98375114
  Force two-norm initial, final = 0.16907292 2.3177199e-06
  Force max component initial, final = 0.10237886 5.3829448e-07
  Final line search alpha, max atom move = 1.0000000 5.3829448e-07
  Iterations, force evaluations = 289 578

MPI task timing breakdown:
Section |  min time  |  avg time  |  max time  |%varavg| %total
---------------------------------------------------------------
Pair    | 0.8803     | 2.4166     | 3.1309     |  41.8 | 73.15
Neigh   | 0          | 0          | 0          |   0.0 |  0.00
Comm    | 0.054439   | 0.53667    | 1.6302     |  62.5 | 16.25
Output  | 0          | 0          | 0          |   0.0 |  0.00
Modify  | 3.2027e-05 | 0.0047601  | 0.010098   |   3.3 |  0.14
Other   |            | 0.3455     |            |       | 10.46

Nlocal:        2776.45 ave        3930 max           0 min
Histogram: 8 4 4 0 4 12 8 0 26 38
Nghost:        3879.01 ave        5425 max         232 min
Histogram: 8 0 8 0 16 0 8 8 16 40
Neighs:        79213.3 ave      114447 max           0 min
Histogram: 8 4 4 0 8 8 8 8 20 36

Total # of neighbors = 8238187
Ave neighs/atom = 28.530419
Neighbor list builds = 0
Dangerous builds = 0
The dot product: 3.10226897350337e-11
Setting up cg style minimization ...
  Unit style    : metal
  Current step  : 21362
Per MPI rank memory allocation (min/avg/max) = 5.441 | 5.816 | 6.074 Mbytes
Step PotEng KinEng TotEng v_fx v_fy v_fz 
   21362     -1152449            0     -1152449   0.59745744    1.0214239   0.87198133 
   21617   -1152449.3            0   -1152449.3 3.2220363e-05 -2.6043611e-06 -3.0043805e-05 
Loop time of 2.9258 on 104 procs for 255 steps with 288751 atoms

99.9% CPU use with 104 MPI tasks x 1 OpenMP threads

Minimization stats:
  Stopping criterion = energy tolerance
  Energy initial, next-to-last, final = 
     -1152448.98375114  -1152449.26566397  -1152449.26566397
  Force two-norm initial, final = 1.4699026 0.00016459492
  Force max component initial, final = 1.0214239 3.2220363e-05
  Final line search alpha, max atom move = 1.0000000 3.2220363e-05
  Iterations, force evaluations = 255 509

MPI task timing breakdown:
Section |  min time  |  avg time  |  max time  |%varavg| %total
---------------------------------------------------------------
Pair    | 0.783      | 2.1425     | 2.7564     |  39.2 | 73.23
Neigh   | 2.0037e-05 | 0.0059091  | 0.0085411  |   3.2 |  0.20
Comm    | 0.054572   | 0.48002    | 1.4557     |  58.7 | 16.41
Output  | 0          | 0          | 0          |   0.0 |  0.00
Modify  | 2.6978e-05 | 0.0027307  | 0.0070191  |   3.3 |  0.09
Other   |            | 0.2947     |            |       | 10.07

Nlocal:        2776.45 ave        3930 max           0 min
Histogram: 8 4 4 0 4 12 8 0 26 38
Nghost:        3879.01 ave        5425 max         232 min
Histogram: 8 0 8 0 16 0 8 8 16 40
Neighs:        79213.3 ave      114483 max           0 min
Histogram: 8 4 4 0 8 8 8 8 20 36

Total # of neighbors = 8238184
Ave neighs/atom = 28.530409
Neighbor list builds = 2
Dangerous builds = 0
