LAMMPS (29 Oct 2020)
OMP_NUM_THREADS environment is not set. Defaulting to 1 thread. (../comm.cpp:94)
  using 1 OpenMP thread(s) per MPI task
OMP_NUM_THREADS environment is not set. Defaulting to 1 thread. (../comm.cpp:94)
  using 1 OpenMP thread(s) per MPI task
Reading data file ...
  orthogonal box = (-122.39241 -121.13707 -37.090501) to (122.39241 121.13707 37.090501)
  13 by 4 by 2 MPI processor grid
  reading atoms ...
  288751 atoms
  read_data CPU = 0.384 seconds
199981 atoms in group inner
88770 atoms in group outer
1 atoms in group carbon
Neighbor list info ...
  update every 1 steps, delay 0 steps, check yes
  max neighbors/atom: 2000, page size: 100000
  master list distance cutoff = 5.6
  ghost atom cutoff = 5.6
  binsize = 2.8, bins = 88 87 27
  1 neighbor lists, perpetual/occasional/extra = 1 0 0
  (1) pair eam/alloy, perpetual
      attributes: half, newton on
      pair build: half/bin/atomonly/newton
      stencil: half/bin/3d/newton
      bin: standard
Setting up cg style minimization ...
  Unit style    : metal
  Current step  : 0
Per MPI rank memory allocation (min/avg/max) = 5.441 | 5.816 | 6.074 Mbytes
Step v_fx v_fy v_fz PotEng KinEng TotEng 
       0   -25.822954    15.291436    50.691385   -1152433.2            0   -1152433.2 
     193 5.7825405e-06 -8.5264684e-06 5.5462693e-06   -1152449.5            0   -1152449.5 
Loop time of 2.27106 on 104 procs for 193 steps with 288751 atoms

99.8% CPU use with 104 MPI tasks x 1 OpenMP threads

Minimization stats:
  Stopping criterion = energy tolerance
  Energy initial, next-to-last, final = 
     -1152433.22417601  -1152449.45035262  -1152449.45035262
  Force two-norm initial, final = 88.257329 3.6024407e-05
  Force max component initial, final = 57.845881 8.9724044e-06
  Final line search alpha, max atom move = 1.0000000 8.9724044e-06
  Iterations, force evaluations = 193 377

MPI task timing breakdown:
Section |  min time  |  avg time  |  max time  |%varavg| %total
---------------------------------------------------------------
Pair    | 0.59938    | 1.5956     | 2.0767     |  33.4 | 70.26
Neigh   | 5.1847e-05 | 0.014628   | 0.021254   |   5.0 |  0.64
Comm    | 0.038383   | 0.3645     | 1.0794     |  49.0 | 16.05
Output  | 0          | 0          | 0          |   0.0 |  0.00
Modify  | 2.2784e-05 | 0.0020464  | 0.0054657  |   2.8 |  0.09
Other   |            | 0.2943     |            |       | 12.96

Nlocal:        2776.45 ave        3960 max           0 min
Histogram: 8 4 4 0 4 12 8 2 28 34
Nghost:        3879.01 ave        5424 max         232 min
Histogram: 8 0 8 0 16 0 8 8 16 40
Neighs:        79213.5 ave      115433 max           0 min
Histogram: 8 4 4 0 10 6 8 8 24 32

Total # of neighbors = 8238207
Ave neighs/atom = 28.530488
Neighbor list builds = 5
Dangerous builds = 0
Setting atom values ...
  1 settings made for x
  1 settings made for y
  1 settings made for z
Setting up cg style minimization ...
  Unit style    : metal
  Current step  : 193
Per MPI rank memory allocation (min/avg/max) = 5.441 | 5.816 | 6.074 Mbytes
Step PotEng KinEng TotEng v_fx v_fy v_fz 
     193   -1152449.4            0   -1152449.4  0.015514606 0.0058612118 -0.019400731 
     367   -1152449.5            0   -1152449.5 -3.8095745e-06 -1.1514226e-05 -3.8549044e-06 
Loop time of 2.07337 on 104 procs for 174 steps with 288751 atoms

99.9% CPU use with 104 MPI tasks x 1 OpenMP threads

Minimization stats:
  Stopping criterion = energy tolerance
  Energy initial, next-to-last, final = 
     -1152449.44949201  -1152449.45006464  -1152449.45006464
  Force two-norm initial, final = 0.11247687 9.9430488e-05
  Force max component initial, final = 0.050067334 1.1514226e-05
  Final line search alpha, max atom move = 1.0000000 1.1514226e-05
  Iterations, force evaluations = 174 348

MPI task timing breakdown:
Section |  min time  |  avg time  |  max time  |%varavg| %total
---------------------------------------------------------------
Pair    | 0.52922    | 1.4753     | 1.928      |  32.8 | 71.15
Neigh   | 0          | 0          | 0          |   0.0 |  0.00
Comm    | 0.030526   | 0.33725    | 1.0031     |  47.5 | 16.27
Output  | 0          | 0          | 0          |   0.0 |  0.00
Modify  | 2.4668e-05 | 0.0028869  | 0.0064199  |   2.5 |  0.14
Other   |            | 0.258      |            |       | 12.44

Nlocal:        2776.45 ave        3961 max           0 min
Histogram: 8 4 4 0 6 10 8 2 28 34
Nghost:        3879.01 ave        5424 max         232 min
Histogram: 8 0 8 0 16 0 8 8 16 40
Neighs:        79213.4 ave      115464 max           0 min
Histogram: 8 4 4 0 10 6 8 8 24 32

Total # of neighbors = 8238197
Ave neighs/atom = 28.530454
Neighbor list builds = 0
Dangerous builds = 0
Setting atom values ...
  1 settings made for x
  1 settings made for y
  1 settings made for z
Setting up cg style minimization ...
  Unit style    : metal
  Current step  : 367
Per MPI rank memory allocation (min/avg/max) = 5.441 | 5.816 | 6.074 Mbytes
Step PotEng KinEng TotEng v_fx v_fy v_fz 
     367   -1152449.4            0   -1152449.4  0.027299542 0.0091012386 -0.042680245 
     574   -1152449.4            0   -1152449.4 -2.1993002e-06 -1.0501204e-06 3.0602911e-06 
Loop time of 2.5439 on 104 procs for 207 steps with 288751 atoms

99.8% CPU use with 104 MPI tasks x 1 OpenMP threads

Minimization stats:
  Stopping criterion = energy tolerance
  Energy initial, next-to-last, final = 
     -1152449.44631831  -1152449.44814996  -1152449.44814996
  Force two-norm initial, final = 0.20347262 5.1696130e-05
  Force max component initial, final = 0.090333169 3.6788929e-06
  Final line search alpha, max atom move = 1.0000000 3.6788929e-06
  Iterations, force evaluations = 207 414

MPI task timing breakdown:
Section |  min time  |  avg time  |  max time  |%varavg| %total
---------------------------------------------------------------
Pair    | 0.63196    | 1.7561     | 2.2981     |  35.7 | 69.03
Neigh   | 0          | 0          | 0          |   0.0 |  0.00
Comm    | 0.05389    | 0.40583    | 1.1878     |  50.7 | 15.95
Output  | 0          | 0          | 0          |   0.0 |  0.00
Modify  | 2.8483e-05 | 0.0034444  | 0.007589   |   2.8 |  0.14
Other   |            | 0.3785     |            |       | 14.88

Nlocal:        2776.45 ave        3961 max           0 min
Histogram: 8 4 4 0 6 10 8 2 28 34
Nghost:        3879.01 ave        5424 max         232 min
Histogram: 8 0 8 0 16 0 8 8 16 40
Neighs:        79213.4 ave      115464 max           0 min
Histogram: 8 4 4 0 10 6 8 8 24 32

Total # of neighbors = 8238197
Ave neighs/atom = 28.530454
Neighbor list builds = 0
Dangerous builds = 0
The dot product: -9.07640482179095e-09
Setting atom values ...
  1 settings made for x
  1 settings made for y
  1 settings made for z
Setting up cg style minimization ...
  Unit style    : metal
  Current step  : 574
Per MPI rank memory allocation (min/avg/max) = 5.441 | 5.816 | 6.074 Mbytes
Step PotEng KinEng TotEng v_fx v_fy v_fz 
     574   -1152449.4            0   -1152449.4  0.027334226   0.01183307 -0.052142723 
     714   -1152449.4            0   -1152449.4 6.6694811e-06 -4.0691694e-06 -2.4770388e-05 
Loop time of 1.65764 on 104 procs for 140 steps with 288751 atoms

99.9% CPU use with 104 MPI tasks x 1 OpenMP threads

Minimization stats:
  Stopping criterion = energy tolerance
  Energy initial, next-to-last, final = 
     -1152449.44288411   -1152449.4446896   -1152449.4446896
  Force two-norm initial, final = 0.20380847 8.2920915e-05
  Force max component initial, final = 0.089330027 2.4770388e-05
  Final line search alpha, max atom move = 1.0000000 2.4770388e-05
  Iterations, force evaluations = 140 280

MPI task timing breakdown:
Section |  min time  |  avg time  |  max time  |%varavg| %total
---------------------------------------------------------------
Pair    | 0.4255     | 1.1878     | 1.5509     |  29.5 | 71.66
Neigh   | 0          | 0          | 0          |   0.0 |  0.00
Comm    | 0.02891    | 0.27126    | 0.81506    |  42.7 | 16.36
Output  | 0          | 0          | 0          |   0.0 |  0.00
Modify  | 1.7213e-05 | 0.0023283  | 0.0051367  |   2.3 |  0.14
Other   |            | 0.1962     |            |       | 11.84

Nlocal:        2776.45 ave        3961 max           0 min
Histogram: 8 4 4 0 6 10 8 2 28 34
Nghost:        3879.01 ave        5424 max         232 min
Histogram: 8 0 8 0 16 0 8 8 16 40
Neighs:        79213.4 ave      115464 max           0 min
Histogram: 8 4 4 0 10 6 8 8 24 32

Total # of neighbors = 8238196
Ave neighs/atom = 28.530450
Neighbor list builds = 0
Dangerous builds = 0
The dot product: 1.44693935497274e-07
Setting atom values ...
  1 settings made for x
  1 settings made for y
  1 settings made for z
Setting up cg style minimization ...
  Unit style    : metal
  Current step  : 714
Per MPI rank memory allocation (min/avg/max) = 5.441 | 5.816 | 6.074 Mbytes
Step PotEng KinEng TotEng v_fx v_fy v_fz 
     714   -1152449.4            0   -1152449.4  0.026393038  0.020387467 -0.054866299 
     814   -1152449.4            0   -1152449.4 1.4253173e-05 -5.0711067e-06 -7.3626205e-05 
Loop time of 1.17813 on 104 procs for 100 steps with 288751 atoms

99.9% CPU use with 104 MPI tasks x 1 OpenMP threads

Minimization stats:
  Stopping criterion = energy tolerance
  Energy initial, next-to-last, final = 
     -1152449.43812872  -1152449.43991182  -1152449.43991182
  Force two-norm initial, final = 0.20176446 0.0002908144
  Force max component initial, final = 0.085703837 7.3626205e-05
  Final line search alpha, max atom move = 1.0000000 7.3626205e-05
  Iterations, force evaluations = 100 200

MPI task timing breakdown:
Section |  min time  |  avg time  |  max time  |%varavg| %total
---------------------------------------------------------------
Pair    | 0.30891    | 0.8435     | 1.0991     |  24.6 | 71.60
Neigh   | 0          | 0          | 0          |   0.0 |  0.00
Comm    | 0.018957   | 0.19074    | 0.57161    |  36.1 | 16.19
Output  | 0          | 0          | 0          |   0.0 |  0.00
Modify  | 1.3598e-05 | 0.0016596  | 0.0036788  |   1.9 |  0.14
Other   |            | 0.1422     |            |       | 12.07

Nlocal:        2776.45 ave        3961 max           0 min
Histogram: 8 4 4 0 6 10 8 2 28 34
Nghost:        3879.01 ave        5424 max         232 min
Histogram: 8 0 8 0 16 0 8 8 16 40
Neighs:        79213.5 ave      115465 max           0 min
Histogram: 8 4 4 0 10 6 8 8 24 32

Total # of neighbors = 8238201
Ave neighs/atom = 28.530467
Neighbor list builds = 0
Dangerous builds = 0
The dot product: 4.94896533950113e-07
Setting atom values ...
  1 settings made for x
  1 settings made for y
  1 settings made for z
Setting up cg style minimization ...
  Unit style    : metal
  Current step  : 814
Per MPI rank memory allocation (min/avg/max) = 5.441 | 5.816 | 6.074 Mbytes
Step PotEng KinEng TotEng v_fx v_fy v_fz 
     814   -1152449.4            0   -1152449.4  0.023585186  0.027346488 -0.051253549 
     991   -1152449.4            0   -1152449.4 -5.7619487e-06 -3.0996018e-06 3.0366977e-05 
Loop time of 2.10281 on 104 procs for 177 steps with 288751 atoms

99.9% CPU use with 104 MPI tasks x 1 OpenMP threads

Minimization stats:
  Stopping criterion = energy tolerance
  Energy initial, next-to-last, final = 
     -1152449.43206316  -1152449.43379976  -1152449.43379976
  Force two-norm initial, final = 0.19757728 0.0001269718
  Force max component initial, final = 0.0807964 3.0366977e-05
  Final line search alpha, max atom move = 1.0000000 3.0366977e-05
  Iterations, force evaluations = 177 354

MPI task timing breakdown:
Section |  min time  |  avg time  |  max time  |%varavg| %total
---------------------------------------------------------------
Pair    | 0.53758    | 1.497      | 1.9593     |  33.1 | 71.19
Neigh   | 0          | 0          | 0          |   0.0 |  0.00
Comm    | 0.036012   | 0.33829    | 1.0036     |  48.1 | 16.09
Output  | 0          | 0          | 0          |   0.0 |  0.00
Modify  | 2.2379e-05 | 0.0029325  | 0.0065048  |   2.6 |  0.14
Other   |            | 0.2645     |            |       | 12.58

Nlocal:        2776.45 ave        3961 max           0 min
Histogram: 8 4 4 0 6 10 8 2 28 34
Nghost:        3879.01 ave        5424 max         232 min
Histogram: 8 0 8 0 16 0 8 8 16 40
Neighs:        79213.4 ave      115465 max           0 min
Histogram: 8 4 4 0 10 6 8 8 24 32

Total # of neighbors = 8238198
Ave neighs/atom = 28.530457
Neighbor list builds = 0
Dangerous builds = 0
The dot product: -2.09774235622025e-07
Setting atom values ...
  1 settings made for x
  1 settings made for y
  1 settings made for z
Setting up cg style minimization ...
  Unit style    : metal
  Current step  : 991
Per MPI rank memory allocation (min/avg/max) = 5.441 | 5.816 | 6.074 Mbytes
Step PotEng KinEng TotEng v_fx v_fy v_fz 
     991   -1152449.4            0   -1152449.4   0.02000478  0.030465674 -0.044606456 
    1000   -1152449.4            0   -1152449.4 0.00028315636 0.00049233274 0.00024346885 
    1190   -1152449.4            0   -1152449.4 1.108138e-07 1.5460869e-06 1.9471187e-05 
Loop time of 2.32499 on 104 procs for 199 steps with 288751 atoms

99.9% CPU use with 104 MPI tasks x 1 OpenMP threads

Minimization stats:
  Stopping criterion = energy tolerance
  Energy initial, next-to-last, final = 
     -1152449.42462935  -1152449.42630972  -1152449.42630972
  Force two-norm initial, final = 0.19282918 6.8029403e-05
  Force max component initial, final = 0.075900483 1.9471187e-05
  Final line search alpha, max atom move = 1.0000000 1.9471187e-05
  Iterations, force evaluations = 199 398

MPI task timing breakdown:
Section |  min time  |  avg time  |  max time  |%varavg| %total
---------------------------------------------------------------
Pair    | 0.60326    | 1.671      | 2.1787     |  34.9 | 71.87
Neigh   | 0          | 0          | 0          |   0.0 |  0.00
Comm    | 0.040754   | 0.37652    | 1.1239     |  51.1 | 16.19
Output  | 0.00023748 | 0.00024304 | 0.00030888 |   0.0 |  0.01
Modify  | 2.6361e-05 | 0.0032953  | 0.0073069  |   2.7 |  0.14
Other   |            | 0.2739     |            |       | 11.78

Nlocal:        2776.45 ave        3961 max           0 min
Histogram: 8 4 4 0 6 10 8 2 28 34
Nghost:        3879.01 ave        5424 max         232 min
Histogram: 8 0 8 0 16 0 8 8 16 40
Neighs:        79213.5 ave      115465 max           0 min
Histogram: 8 4 4 0 10 6 8 8 24 32

Total # of neighbors = 8238199
Ave neighs/atom = 28.530461
Neighbor list builds = 0
Dangerous builds = 0
The dot product: -1.12931003270159e-07
Setting atom values ...
  1 settings made for x
  1 settings made for y
  1 settings made for z
Setting up cg style minimization ...
  Unit style    : metal
  Current step  : 1190
Per MPI rank memory allocation (min/avg/max) = 5.441 | 5.816 | 6.074 Mbytes
Step PotEng KinEng TotEng v_fx v_fy v_fz 
    1190   -1152449.4            0   -1152449.4  0.016465335  0.030169368 -0.037538387 
    1331   -1152449.4            0   -1152449.4 -2.5590324e-06 -7.0232325e-06 7.2900822e-05 
Loop time of 1.65513 on 104 procs for 141 steps with 288751 atoms

99.9% CPU use with 104 MPI tasks x 1 OpenMP threads

Minimization stats:
  Stopping criterion = energy tolerance
  Energy initial, next-to-last, final = 
     -1152449.41577508  -1152449.41740319  -1152449.41740319
  Force two-norm initial, final = 0.18846914 0.00026590674
  Force max component initial, final = 0.071694711 7.2900822e-05
  Final line search alpha, max atom move = 1.0000000 7.2900822e-05
  Iterations, force evaluations = 141 282

MPI task timing breakdown:
Section |  min time  |  avg time  |  max time  |%varavg| %total
---------------------------------------------------------------
Pair    | 0.4272     | 1.1897     | 1.5549     |  29.4 | 71.88
Neigh   | 0          | 0          | 0          |   0.0 |  0.00
Comm    | 0.027019   | 0.26873    | 0.79861    |  43.0 | 16.24
Output  | 0          | 0          | 0          |   0.0 |  0.00
Modify  | 1.8034e-05 | 0.0023366  | 0.0051567  |   2.3 |  0.14
Other   |            | 0.1944     |            |       | 11.75

Nlocal:        2776.45 ave        3961 max           0 min
Histogram: 8 4 4 0 6 10 8 2 28 34
Nghost:        3879.01 ave        5424 max         232 min
Histogram: 8 0 8 0 16 0 8 8 16 40
Neighs:        79213.5 ave      115455 max           0 min
Histogram: 8 4 4 0 10 6 8 8 24 32

Total # of neighbors = 8238200
Ave neighs/atom = 28.530464
Neighbor list builds = 0
Dangerous builds = 0
The dot product: -3.96439653396662e-07
Setting atom values ...
  1 settings made for x
  1 settings made for y
  1 settings made for z
Setting up cg style minimization ...
  Unit style    : metal
  Current step  : 1331
Per MPI rank memory allocation (min/avg/max) = 5.441 | 5.816 | 6.074 Mbytes
Step PotEng KinEng TotEng v_fx v_fy v_fz 
    1331   -1152449.4            0   -1152449.4  0.012882941  0.026879544 -0.031245561 
    1516   -1152449.4            0   -1152449.4 2.4708223e-07 9.9770389e-08 2.9285199e-06 
Loop time of 2.17899 on 104 procs for 185 steps with 288751 atoms

99.9% CPU use with 104 MPI tasks x 1 OpenMP threads

Minimization stats:
  Stopping criterion = energy tolerance
  Energy initial, next-to-last, final = 
     -1152449.40546672  -1152449.40706199  -1152449.40706199
  Force two-norm initial, final = 0.18473115 9.9503030e-05
  Force max component initial, final = 0.068320198 1.2923069e-05
  Final line search alpha, max atom move = 1.0000000 1.2923069e-05
  Iterations, force evaluations = 185 370

MPI task timing breakdown:
Section |  min time  |  avg time  |  max time  |%varavg| %total
---------------------------------------------------------------
Pair    | 0.5704     | 1.5582     | 2.0281     |  33.4 | 71.51
Neigh   | 0          | 0          | 0          |   0.0 |  0.00
Comm    | 0.036051   | 0.35148    | 1.0584     |  49.4 | 16.13
Output  | 0          | 0          | 0          |   0.0 |  0.00
Modify  | 2.4744e-05 | 0.003061   | 0.0067649  |   2.6 |  0.14
Other   |            | 0.2663     |            |       | 12.22

Nlocal:        2776.45 ave        3961 max           0 min
Histogram: 8 4 4 0 6 10 8 2 28 34
Nghost:        3879.01 ave        5424 max         232 min
Histogram: 8 0 8 0 16 0 8 8 16 40
Neighs:        79213.5 ave      115455 max           0 min
Histogram: 8 4 4 0 10 6 8 8 24 32

Total # of neighbors = 8238204
Ave neighs/atom = 28.530478
Neighbor list builds = 0
Dangerous builds = 0
The dot product: -1.43305546310541e-08
Setting atom values ...
  1 settings made for x
  1 settings made for y
  1 settings made for z
Setting up cg style minimization ...
  Unit style    : metal
  Current step  : 1516
Per MPI rank memory allocation (min/avg/max) = 5.441 | 5.816 | 6.074 Mbytes
Step PotEng KinEng TotEng v_fx v_fy v_fz 
    1516   -1152449.4            0   -1152449.4  0.008529444  0.020368207 -0.027085053 
    1710   -1152449.4            0   -1152449.4 -6.8317793e-07 4.7592344e-06 -3.2485899e-05 
Loop time of 2.32252 on 104 procs for 194 steps with 288751 atoms

99.9% CPU use with 104 MPI tasks x 1 OpenMP threads

Minimization stats:
  Stopping criterion = energy tolerance
  Energy initial, next-to-last, final = 
     -1152449.39370944  -1152449.39530712  -1152449.39530712
  Force two-norm initial, final = 0.181872 8.1913142e-05
  Force max component initial, final = 0.070899432 3.2485899e-05
  Final line search alpha, max atom move = 1.0000000 3.2485899e-05
  Iterations, force evaluations = 194 388

MPI task timing breakdown:
Section |  min time  |  avg time  |  max time  |%varavg| %total
---------------------------------------------------------------
Pair    | 0.60284    | 1.6503     | 2.1442     |  34.0 | 71.06
Neigh   | 0          | 0          | 0          |   0.0 |  0.00
Comm    | 0.051513   | 0.37919    | 1.1105     |  50.0 | 16.33
Output  | 0          | 0          | 0          |   0.0 |  0.00
Modify  | 2.5446e-05 | 0.0032145  | 0.0070953  |   2.7 |  0.14
Other   |            | 0.2898     |            |       | 12.48

Nlocal:        2776.45 ave        3961 max           0 min
Histogram: 8 4 4 0 6 10 8 2 28 34
Nghost:        3879.01 ave        5424 max         232 min
Histogram: 8 0 8 0 16 0 8 8 16 40
Neighs:        79213.5 ave      115454 max           0 min
Histogram: 8 4 4 0 10 6 8 8 24 32

Total # of neighbors = 8238203
Ave neighs/atom = 28.530474
Neighbor list builds = 0
Dangerous builds = 0
The dot product: 1.4958410839545e-07
Setting atom values ...
  1 settings made for x
  1 settings made for y
  1 settings made for z
Setting up cg style minimization ...
  Unit style    : metal
  Current step  : 1710
Per MPI rank memory allocation (min/avg/max) = 5.441 | 5.816 | 6.074 Mbytes
Step PotEng KinEng TotEng v_fx v_fy v_fz 
    1710   -1152449.4            0   -1152449.4 0.0033685263  0.011787109 -0.024885564 
    1901   -1152449.4            0   -1152449.4 2.2913941e-06 -1.9286266e-06 2.4990799e-05 
Loop time of 2.23924 on 104 procs for 191 steps with 288751 atoms

99.9% CPU use with 104 MPI tasks x 1 OpenMP threads

Minimization stats:
  Stopping criterion = energy tolerance
  Energy initial, next-to-last, final = 
      -1152449.3805473  -1152449.38219816  -1152449.38219816
  Force two-norm initial, final = 0.18003809 8.5929131e-05
  Force max component initial, final = 0.074571652 2.4990799e-05
  Final line search alpha, max atom move = 1.0000000 2.4990799e-05
  Iterations, force evaluations = 191 382

MPI task timing breakdown:
Section |  min time  |  avg time  |  max time  |%varavg| %total
---------------------------------------------------------------
Pair    | 0.5789     | 1.6098     | 2.1011     |  34.2 | 71.89
Neigh   | 0          | 0          | 0          |   0.0 |  0.00
Comm    | 0.042377   | 0.36385    | 1.0968     |  50.3 | 16.25
Output  | 0          | 0          | 0          |   0.0 |  0.00
Modify  | 2.5715e-05 | 0.0031614  | 0.0069957  |   2.6 |  0.14
Other   |            | 0.2624     |            |       | 11.72

Nlocal:        2776.45 ave        3959 max           0 min
Histogram: 8 4 4 0 4 12 8 3 27 34
Nghost:        3879.01 ave        5424 max         232 min
Histogram: 8 0 8 0 16 0 8 8 16 40
Neighs:        79213.5 ave      115380 max           0 min
Histogram: 8 4 4 0 10 6 8 8 24 32

Total # of neighbors = 8238203
Ave neighs/atom = 28.530474
Neighbor list builds = 0
Dangerous builds = 0
The dot product: -1.38425293820781e-07
Setting atom values ...
  1 settings made for x
  1 settings made for y
  1 settings made for z
Setting up cg style minimization ...
  Unit style    : metal
  Current step  : 1901
Per MPI rank memory allocation (min/avg/max) = 5.441 | 5.816 | 6.074 Mbytes
Step PotEng KinEng TotEng v_fx v_fy v_fz 
    1901   -1152449.4            0   -1152449.4 -0.0036488502 0.0013358387 -0.025834312 
    2000   -1152449.4            0   -1152449.4 1.0701512e-05 -4.6721399e-05 0.00022683242 
    2082   -1152449.4            0   -1152449.4 2.7470772e-06 -4.2432357e-06 3.0875703e-05 
Loop time of 2.102 on 104 procs for 181 steps with 288751 atoms

99.9% CPU use with 104 MPI tasks x 1 OpenMP threads

Minimization stats:
  Stopping criterion = energy tolerance
  Energy initial, next-to-last, final = 
     -1152449.36608073  -1152449.36799833  -1152449.36799833
  Force two-norm initial, final = 0.17954433 0.00017054897
  Force max component initial, final = 0.078997746 4.6200589e-05
  Final line search alpha, max atom move = 1.0000000 4.6200589e-05
  Iterations, force evaluations = 181 362

MPI task timing breakdown:
Section |  min time  |  avg time  |  max time  |%varavg| %total
---------------------------------------------------------------
Pair    | 0.5475     | 1.5283     | 1.9773     |  33.4 | 72.70
Neigh   | 0          | 0          | 0          |   0.0 |  0.00
Comm    | 0.031022   | 0.34322    | 1.0397     |  49.4 | 16.33
Output  | 0.00022603 | 0.00022949 | 0.00035205 |   0.0 |  0.01
Modify  | 2.4061e-05 | 0.0030021  | 0.0066526  |   2.6 |  0.14
Other   |            | 0.2273     |            |       | 10.81

Nlocal:        2776.45 ave        3958 max           0 min
Histogram: 8 4 4 0 4 12 8 4 26 34
Nghost:        3878.99 ave        5429 max         232 min
Histogram: 8 0 8 0 16 0 8 8 16 40
Neighs:        79213.5 ave      115352 max           0 min
Histogram: 8 4 4 0 10 6 8 8 24 32

Total # of neighbors = 8238202
Ave neighs/atom = 28.530471
Neighbor list builds = 0
Dangerous builds = 0
The dot product: -2.77223734438115e-07
Setting atom values ...
  1 settings made for x
  1 settings made for y
  1 settings made for z
Setting up cg style minimization ...
  Unit style    : metal
  Current step  : 2082
Per MPI rank memory allocation (min/avg/max) = 5.441 | 5.816 | 6.074 Mbytes
Step PotEng KinEng TotEng v_fx v_fy v_fz 
    2082   -1152449.4            0   -1152449.4 -0.017400121 -0.013027836 -0.036725427 
    2243   -1152449.4            0   -1152449.4 -1.5865092e-06 -6.4234615e-06 1.1806525e-05 
Loop time of 1.87674 on 104 procs for 161 steps with 288751 atoms

99.9% CPU use with 104 MPI tasks x 1 OpenMP threads

Minimization stats:
  Stopping criterion = energy tolerance
  Energy initial, next-to-last, final = 
     -1152449.35079325  -1152449.35297852  -1152449.35297852
  Force two-norm initial, final = 0.18207452 0.00033209966
  Force max component initial, final = 0.085069842 3.8929023e-05
  Final line search alpha, max atom move = 1.0000000 3.8929023e-05
  Iterations, force evaluations = 161 322

MPI task timing breakdown:
Section |  min time  |  avg time  |  max time  |%varavg| %total
---------------------------------------------------------------
Pair    | 0.48998    | 1.3528     | 1.7661     |  31.3 | 72.08
Neigh   | 0          | 0          | 0          |   0.0 |  0.00
Comm    | 0.033704   | 0.304      | 0.91162    |  45.9 | 16.20
Output  | 0          | 0          | 0          |   0.0 |  0.00
Modify  | 2.0436e-05 | 0.0026643  | 0.0059095  |   2.4 |  0.14
Other   |            | 0.2173     |            |       | 11.58

Nlocal:        2776.45 ave        3958 max           0 min
Histogram: 8 4 4 0 4 12 8 4 26 34
Nghost:        3878.97 ave        5429 max         232 min
Histogram: 8 0 8 0 16 0 8 8 16 40
Neighs:        79213.5 ave      115350 max           0 min
Histogram: 8 4 4 0 10 6 8 8 24 32

Total # of neighbors = 8238203
Ave neighs/atom = 28.530474
Neighbor list builds = 0
Dangerous builds = 0
The dot product: -6.62916956106852e-08
Setting atom values ...
  1 settings made for x
  1 settings made for y
  1 settings made for z
Setting up cg style minimization ...
  Unit style    : metal
  Current step  : 2243
Per MPI rank memory allocation (min/avg/max) = 5.441 | 5.816 | 6.074 Mbytes
Step PotEng KinEng TotEng v_fx v_fy v_fz 
    2243   -1152449.3            0   -1152449.3 -0.029493988 -0.021506061 -0.041509651 
    2426   -1152449.3            0   -1152449.3 -4.8361693e-06 -2.9244302e-07 -1.4706744e-05 
Loop time of 2.14941 on 104 procs for 183 steps with 288751 atoms

99.9% CPU use with 104 MPI tasks x 1 OpenMP threads

Minimization stats:
  Stopping criterion = energy tolerance
  Energy initial, next-to-last, final = 
     -1152449.33479556  -1152449.33715696  -1152449.33715696
  Force two-norm initial, final = 0.18492092 0.00020819945
  Force max component initial, final = 0.092386057 5.2294188e-05
  Final line search alpha, max atom move = 1.0000000 5.2294188e-05
  Iterations, force evaluations = 183 366

MPI task timing breakdown:
Section |  min time  |  avg time  |  max time  |%varavg| %total
---------------------------------------------------------------
Pair    | 0.562      | 1.5466     | 2.0198     |  33.4 | 71.96
Neigh   | 0          | 0          | 0          |   0.0 |  0.00
Comm    | 0.042078   | 0.34808    | 1.04       |  49.0 | 16.19
Output  | 0          | 0          | 0          |   0.0 |  0.00
Modify  | 2.437e-05  | 0.0030337  | 0.0066978  |   2.6 |  0.14
Other   |            | 0.2517     |            |       | 11.71

Nlocal:        2776.45 ave        3957 max           0 min
Histogram: 8 4 4 0 4 12 8 4 26 34
Nghost:        3879.05 ave        5429 max         232 min
Histogram: 8 0 8 0 16 0 8 8 16 40
Neighs:        79213.5 ave      115329 max           0 min
Histogram: 8 4 4 0 10 6 8 8 24 32

Total # of neighbors = 8238205
Ave neighs/atom = 28.530481
Neighbor list builds = 0
Dangerous builds = 0
The dot product: 2.32890971676282e-07
Setting atom values ...
  1 settings made for x
  1 settings made for y
  1 settings made for z
Setting up cg style minimization ...
  Unit style    : metal
  Current step  : 2426
Per MPI rank memory allocation (min/avg/max) = 5.441 | 5.816 | 6.074 Mbytes
Step PotEng KinEng TotEng v_fx v_fy v_fz 
    2426   -1152449.3            0   -1152449.3 -0.033892497 -0.022441249 -0.036554083 
    2622   -1152449.3            0   -1152449.3 -1.1043814e-05 1.1637311e-05 -5.3047278e-05 
Loop time of 2.31462 on 104 procs for 196 steps with 288751 atoms

99.9% CPU use with 104 MPI tasks x 1 OpenMP threads

Minimization stats:
  Stopping criterion = energy tolerance
  Energy initial, next-to-last, final = 
     -1152449.31792627   -1152449.3201381   -1152449.3201381
  Force two-norm initial, final = 0.18424586 0.00014572424
  Force max component initial, final = 0.099210722 5.3047278e-05
  Final line search alpha, max atom move = 1.0000000 5.3047278e-05
  Iterations, force evaluations = 196 392

MPI task timing breakdown:
Section |  min time  |  avg time  |  max time  |%varavg| %total
---------------------------------------------------------------
Pair    | 0.59711    | 1.6498     | 2.1476     |  34.6 | 71.28
Neigh   | 0          | 0          | 0          |   0.0 |  0.00
Comm    | 0.041958   | 0.37193    | 1.1136     |  50.8 | 16.07
Output  | 0          | 0          | 0          |   0.0 |  0.00
Modify  | 2.4961e-05 | 0.0032463  | 0.0071869  |   2.7 |  0.14
Other   |            | 0.2897     |            |       | 12.51

Nlocal:        2776.45 ave        3954 max           0 min
Histogram: 8 4 4 0 4 12 8 0 30 34
Nghost:        3879.12 ave        5425 max         232 min
Histogram: 8 0 8 0 16 0 8 8 16 40
Neighs:        79213.5 ave      115245 max           0 min
Histogram: 8 4 4 0 10 6 8 8 24 32

Total # of neighbors = 8238204
Ave neighs/atom = 28.530478
Neighbor list builds = 0
Dangerous builds = 0
The dot product: 5.70305772500466e-07
Setting atom values ...
  1 settings made for x
  1 settings made for y
  1 settings made for z
Setting up cg style minimization ...
  Unit style    : metal
  Current step  : 2622
Per MPI rank memory allocation (min/avg/max) = 5.441 | 5.816 | 6.074 Mbytes
Step PotEng KinEng TotEng v_fx v_fy v_fz 
    2622   -1152449.3            0   -1152449.3 -0.031666076 -0.019534296 -0.027460133 
    2813   -1152449.3            0   -1152449.3 -2.124783e-06 -1.786729e-06 -8.8576935e-07 
Loop time of 2.23369 on 104 procs for 191 steps with 288751 atoms

99.9% CPU use with 104 MPI tasks x 1 OpenMP threads

Minimization stats:
  Stopping criterion = energy tolerance
  Energy initial, next-to-last, final = 
     -1152449.29972577  -1152449.30179262  -1152449.30179262
  Force two-norm initial, final = 0.18144475 0.0001400722
  Force max component initial, final = 0.10478895 1.5408336e-05
  Final line search alpha, max atom move = 1.0000000 1.5408336e-05
  Iterations, force evaluations = 191 382

MPI task timing breakdown:
Section |  min time  |  avg time  |  max time  |%varavg| %total
---------------------------------------------------------------
Pair    | 0.57797    | 1.6101     | 2.1006     |  34.2 | 72.08
Neigh   | 0          | 0          | 0          |   0.0 |  0.00
Comm    | 0.048083   | 0.36207    | 1.0862     |  50.3 | 16.21
Output  | 0          | 0          | 0          |   0.0 |  0.00
Modify  | 2.5836e-05 | 0.0031644  | 0.0069884  |   2.7 |  0.14
Other   |            | 0.2583     |            |       | 11.56

Nlocal:        2776.45 ave        3951 max           0 min
Histogram: 8 4 4 0 4 12 8 0 30 34
Nghost:        3879.14 ave        5425 max         232 min
Histogram: 8 0 8 0 16 0 8 8 16 40
Neighs:        79213.5 ave      115142 max           0 min
Histogram: 8 4 4 0 10 6 8 8 24 32

Total # of neighbors = 8238208
Ave neighs/atom = 28.530492
Neighbor list builds = 0
Dangerous builds = 0
The dot product: 3.95663961112613e-08
Setting atom values ...
  1 settings made for x
  1 settings made for y
  1 settings made for z
Setting up cg style minimization ...
  Unit style    : metal
  Current step  : 2813
Per MPI rank memory allocation (min/avg/max) = 5.441 | 5.816 | 6.074 Mbytes
Step PotEng KinEng TotEng v_fx v_fy v_fz 
    2813   -1152449.3            0   -1152449.3 -0.027469754 -0.015650011 -0.020704207 
    3000   -1152449.3            0   -1152449.3 -7.7669213e-07 3.2802009e-06 -7.6520062e-06 
    3001   -1152449.3            0   -1152449.3 1.6947637e-07 -1.8422884e-06 3.8081419e-06 
Loop time of 2.18288 on 104 procs for 188 steps with 288751 atoms

99.9% CPU use with 104 MPI tasks x 1 OpenMP threads

Minimization stats:
  Stopping criterion = energy tolerance
  Energy initial, next-to-last, final = 
     -1152449.28017794  -1152449.28218078  -1152449.28218078
  Force two-norm initial, final = 0.17884579 0.00014973578
  Force max component initial, final = 0.10921745 1.8735485e-05
  Final line search alpha, max atom move = 1.0000000 1.8735485e-05
  Iterations, force evaluations = 188 376

MPI task timing breakdown:
Section |  min time  |  avg time  |  max time  |%varavg| %total
---------------------------------------------------------------
Pair    | 0.56654    | 1.5768     | 2.053      |  33.9 | 72.24
Neigh   | 0          | 0          | 0          |   0.0 |  0.00
Comm    | 0.034519   | 0.35503    | 1.0654     |  49.8 | 16.26
Output  | 0.00023475 | 0.00024586 | 0.00039315 |   0.0 |  0.01
Modify  | 2.4168e-05 | 0.0031144  | 0.0068859  |   2.6 |  0.14
Other   |            | 0.2477     |            |       | 11.35

Nlocal:        2776.45 ave        3947 max           0 min
Histogram: 8 4 4 0 4 12 8 0 28 36
Nghost:        3879.16 ave        5425 max         232 min
Histogram: 8 0 8 0 16 0 8 8 16 40
Neighs:        79213.6 ave      115009 max           0 min
Histogram: 8 4 4 0 10 6 8 8 24 32

Total # of neighbors = 8238213
Ave neighs/atom = 28.530509
Neighbor list builds = 0
Dangerous builds = 0
The dot product: -2.56635309507856e-08
Setting atom values ...
  1 settings made for x
  1 settings made for y
  1 settings made for z
Setting up cg style minimization ...
  Unit style    : metal
  Current step  : 3001
Per MPI rank memory allocation (min/avg/max) = 5.441 | 5.816 | 6.074 Mbytes
Step PotEng KinEng TotEng v_fx v_fy v_fz 
    3001   -1152449.3            0   -1152449.3 -0.023517142 -0.011446631 -0.017785557 
    3158   -1152449.3            0   -1152449.3 -2.2092582e-05 3.0095038e-05 -9.0271449e-05 
Loop time of 1.83836 on 104 procs for 157 steps with 288751 atoms

99.9% CPU use with 104 MPI tasks x 1 OpenMP threads

Minimization stats:
  Stopping criterion = energy tolerance
  Energy initial, next-to-last, final = 
     -1152449.25943459  -1152449.26135295  -1152449.26135295
  Force two-norm initial, final = 0.17673992 0.00035658741
  Force max component initial, final = 0.11270763 9.1787020e-05
  Final line search alpha, max atom move = 1.0000000 9.1787020e-05
  Iterations, force evaluations = 157 314

MPI task timing breakdown:
Section |  min time  |  avg time  |  max time  |%varavg| %total
---------------------------------------------------------------
Pair    | 0.47431    | 1.3279     | 1.7236     |  31.1 | 72.23
Neigh   | 0          | 0          | 0          |   0.0 |  0.00
Comm    | 0.030843   | 0.30102    | 0.89821    |  45.4 | 16.37
Output  | 0          | 0          | 0          |   0.0 |  0.00
Modify  | 2.1606e-05 | 0.0026004  | 0.0057543  |   2.4 |  0.14
Other   |            | 0.2069     |            |       | 11.25

Nlocal:        2776.45 ave        3940 max           0 min
Histogram: 8 4 4 0 4 12 8 0 28 36
Nghost:        3879.16 ave        5425 max         232 min
Histogram: 8 0 8 0 16 0 8 8 16 40
Neighs:        79213.6 ave      114788 max           0 min
Histogram: 8 4 4 0 10 6 8 8 22 34

Total # of neighbors = 8238216
Ave neighs/atom = 28.530519
Neighbor list builds = 0
Dangerous builds = 0
The dot product: 8.1284288666232e-07
Setting atom values ...
  1 settings made for x
  1 settings made for y
  1 settings made for z
Setting up cg style minimization ...
  Unit style    : metal
  Current step  : 3158
Per MPI rank memory allocation (min/avg/max) = 5.441 | 5.816 | 6.074 Mbytes
Step PotEng KinEng TotEng v_fx v_fy v_fz 
    3158   -1152449.2            0   -1152449.2 -0.020030959 -0.0079079878 -0.016066677 
    3413   -1152449.2            0   -1152449.2 -3.6203676e-07 4.1655143e-07 -1.2497537e-06 
Loop time of 2.98096 on 104 procs for 255 steps with 288751 atoms

99.9% CPU use with 104 MPI tasks x 1 OpenMP threads

Minimization stats:
  Stopping criterion = energy tolerance
  Energy initial, next-to-last, final = 
     -1152449.23744428  -1152449.23933029  -1152449.23933029
  Force two-norm initial, final = 0.17515995 1.0508269e-05
  Force max component initial, final = 0.11583937 1.5924943e-06
  Final line search alpha, max atom move = 1.0000000 1.5924943e-06
  Iterations, force evaluations = 255 510

MPI task timing breakdown:
Section |  min time  |  avg time  |  max time  |%varavg| %total
---------------------------------------------------------------
Pair    | 0.77056    | 2.1438     | 2.8011     |  39.5 | 71.92
Neigh   | 0          | 0          | 0          |   0.0 |  0.00
Comm    | 0.058776   | 0.48712    | 1.4636     |  57.8 | 16.34
Output  | 0          | 0          | 0          |   0.0 |  0.00
Modify  | 3.4383e-05 | 0.0042172  | 0.0093508  |   3.1 |  0.14
Other   |            | 0.3458     |            |       | 11.60

Nlocal:        2776.45 ave        3937 max           0 min
Histogram: 8 4 4 0 4 12 8 0 28 36
Nghost:        3879.16 ave        5425 max         232 min
Histogram: 8 0 8 0 16 0 8 8 16 40
Neighs:        79213.6 ave      114683 max           0 min
Histogram: 8 4 4 0 8 8 8 8 22 34

Total # of neighbors = 8238212
Ave neighs/atom = 28.530506
Neighbor list builds = 0
Dangerous builds = 0
The dot product: 1.25245758055536e-08
Setting atom values ...
  1 settings made for x
  1 settings made for y
  1 settings made for z
Setting up cg style minimization ...
  Unit style    : metal
  Current step  : 3413
Per MPI rank memory allocation (min/avg/max) = 5.441 | 5.816 | 6.074 Mbytes
Step PotEng KinEng TotEng v_fx v_fy v_fz 
    3413   -1152449.2            0   -1152449.2 -0.018853568 -0.0050321046 -0.017243253 
    3618   -1152449.2            0   -1152449.2 -2.8719989e-06 4.637726e-06 -1.1434009e-05 
Loop time of 2.40314 on 104 procs for 205 steps with 288751 atoms

99.9% CPU use with 104 MPI tasks x 1 OpenMP threads

Minimization stats:
  Stopping criterion = energy tolerance
  Energy initial, next-to-last, final = 
     -1152449.21431602  -1152449.21635611  -1152449.21635611
  Force two-norm initial, final = 0.17421406 9.9888913e-05
  Force max component initial, final = 0.11867641 1.3623087e-05
  Final line search alpha, max atom move = 1.0000000 1.3623087e-05
  Iterations, force evaluations = 205 410

MPI task timing breakdown:
Section |  min time  |  avg time  |  max time  |%varavg| %total
---------------------------------------------------------------
Pair    | 0.62212    | 1.734      | 2.2371     |  35.4 | 72.15
Neigh   | 0          | 0          | 0          |   0.0 |  0.00
Comm    | 0.04027    | 0.39107    | 1.1761     |  52.2 | 16.27
Output  | 0          | 0          | 0          |   0.0 |  0.00
Modify  | 2.7729e-05 | 0.0033964  | 0.0075326  |   2.8 |  0.14
Other   |            | 0.2747     |            |       | 11.43

Nlocal:        2776.45 ave        3936 max           0 min
Histogram: 8 4 4 0 4 12 8 0 28 36
Nghost:        3879.20 ave        5425 max         232 min
Histogram: 8 0 8 0 16 0 8 8 16 40
Neighs:        79213.6 ave      114666 max           0 min
Histogram: 8 4 4 0 8 8 8 8 22 34

Total # of neighbors = 8238211
Ave neighs/atom = 28.530502
Neighbor list builds = 0
Dangerous builds = 0
The dot product: 1.43952902562955e-07
Setting atom values ...
  1 settings made for x
  1 settings made for y
  1 settings made for z
Setting up cg style minimization ...
  Unit style    : metal
  Current step  : 3618
Per MPI rank memory allocation (min/avg/max) = 5.441 | 5.816 | 6.074 Mbytes
Step PotEng KinEng TotEng v_fx v_fy v_fz 
    3618   -1152449.2            0   -1152449.2 -0.023091052 -0.0023619711 -0.024497399 
    3826   -1152449.2            0   -1152449.2 2.4182928e-08 1.9621799e-06  -2.9734e-06 
Loop time of 2.41204 on 104 procs for 208 steps with 288751 atoms

99.9% CPU use with 104 MPI tasks x 1 OpenMP threads

Minimization stats:
  Stopping criterion = energy tolerance
  Energy initial, next-to-last, final = 
     -1152449.19054464  -1152449.19278178  -1152449.19278178
  Force two-norm initial, final = 0.17446084 9.1754320e-05
  Force max component initial, final = 0.12126712 8.5130496e-06
  Final line search alpha, max atom move = 1.0000000 8.5130496e-06
  Iterations, force evaluations = 208 416

MPI task timing breakdown:
Section |  min time  |  avg time  |  max time  |%varavg| %total
---------------------------------------------------------------
Pair    | 0.63016    | 1.7519     | 2.2764     |  35.7 | 72.63
Neigh   | 0          | 0          | 0          |   0.0 |  0.00
Comm    | 0.037388   | 0.39177    | 1.1853     |  53.1 | 16.24
Output  | 0          | 0          | 0          |   0.0 |  0.00
Modify  | 2.6269e-05 | 0.0034403  | 0.0076514  |   2.8 |  0.14
Other   |            | 0.265      |            |       | 10.99

Nlocal:        2776.45 ave        3937 max           0 min
Histogram: 8 4 4 0 4 12 8 0 28 36
Nghost:        3879.17 ave        5425 max         232 min
Histogram: 8 0 8 0 16 0 8 8 16 40
Neighs:        79213.6 ave      114683 max           0 min
Histogram: 8 4 4 0 8 8 8 8 22 34

Total # of neighbors = 8238211
Ave neighs/atom = 28.530502
Neighbor list builds = 0
Dangerous builds = 0
The dot product: 3.97561985369574e-08
Setting atom values ...
  1 settings made for x
  1 settings made for y
  1 settings made for z
Setting up cg style minimization ...
  Unit style    : metal
  Current step  : 3826
Per MPI rank memory allocation (min/avg/max) = 5.441 | 5.816 | 6.074 Mbytes
Step PotEng KinEng TotEng v_fx v_fy v_fz 
    3826   -1152449.2            0   -1152449.2 -0.028190131 -2.042503e-05 -0.030519397 
    4000   -1152449.2            0   -1152449.2 -7.0128313e-06 1.3495206e-05 -2.6816829e-05 
    4039   -1152449.2            0   -1152449.2  9.10665e-07 -3.5027334e-06 5.9747787e-06 
Loop time of 2.47148 on 104 procs for 213 steps with 288751 atoms

99.9% CPU use with 104 MPI tasks x 1 OpenMP threads

Minimization stats:
  Stopping criterion = energy tolerance
  Energy initial, next-to-last, final = 
     -1152449.16633137  -1152449.16851309  -1152449.16851309
  Force two-norm initial, final = 0.17523356 7.0702519e-05
  Force max component initial, final = 0.12400639 5.9747787e-06
  Final line search alpha, max atom move = 1.0000000 5.9747787e-06
  Iterations, force evaluations = 213 426

MPI task timing breakdown:
Section |  min time  |  avg time  |  max time  |%varavg| %total
---------------------------------------------------------------
Pair    | 0.64566    | 1.7919     | 2.3222     |  36.0 | 72.50
Neigh   | 0          | 0          | 0          |   0.0 |  0.00
Comm    | 0.042183   | 0.39861    | 1.1943     |  53.3 | 16.13
Output  | 0.00022871 | 0.00023304 | 0.00037068 |   0.0 |  0.01
Modify  | 2.7963e-05 | 0.0035199  | 0.0077856  |   2.8 |  0.14
Other   |            | 0.2772     |            |       | 11.22

Nlocal:        2776.45 ave        3938 max           0 min
Histogram: 8 4 4 0 4 12 8 0 28 36
Nghost:        3879.16 ave        5425 max         232 min
Histogram: 8 0 8 0 16 0 8 8 16 40
Neighs:        79213.6 ave      114704 max           0 min
Histogram: 8 4 4 0 9 7 8 8 22 34

Total # of neighbors = 8238215
Ave neighs/atom = 28.530516
Neighbor list builds = 0
Dangerous builds = 0
The dot product: -8.95784418390958e-08
Setting atom values ...
  1 settings made for x
  1 settings made for y
  1 settings made for z
Setting up cg style minimization ...
  Unit style    : metal
  Current step  : 4039
Per MPI rank memory allocation (min/avg/max) = 5.441 | 5.816 | 6.074 Mbytes
Step PotEng KinEng TotEng v_fx v_fy v_fz 
    4039   -1152449.1            0   -1152449.1 -0.027491165 0.0012143409 -0.028388892 
    4208   -1152449.1            0   -1152449.1 1.3135611e-05 -1.832142e-05 3.7234474e-05 
Loop time of 1.95942 on 104 procs for 169 steps with 288751 atoms

99.9% CPU use with 104 MPI tasks x 1 OpenMP threads

Minimization stats:
  Stopping criterion = energy tolerance
  Energy initial, next-to-last, final = 
      -1152449.1411975  -1152449.14324953  -1152449.14324953
  Force two-norm initial, final = 0.17466411 0.0002269298
  Force max component initial, final = 0.12711908 6.8671261e-05
  Final line search alpha, max atom move = 1.0000000 6.8671261e-05
  Iterations, force evaluations = 169 338

MPI task timing breakdown:
Section |  min time  |  avg time  |  max time  |%varavg| %total
---------------------------------------------------------------
Pair    | 0.51214    | 1.4194     | 1.8441     |  32.1 | 72.44
Neigh   | 0          | 0          | 0          |   0.0 |  0.00
Comm    | 0.036933   | 0.31767    | 0.95839    |  47.6 | 16.21
Output  | 0          | 0          | 0          |   0.0 |  0.00
Modify  | 2.303e-05  | 0.0027955  | 0.0061936  |   2.5 |  0.14
Other   |            | 0.2195     |            |       | 11.20

Nlocal:        2776.45 ave        3938 max           0 min
Histogram: 8 4 4 0 4 12 8 0 28 36
Nghost:        3879.16 ave        5425 max         232 min
Histogram: 8 0 8 0 16 0 8 8 16 40
Neighs:        79213.6 ave      114696 max           0 min
Histogram: 8 4 4 0 8 8 8 8 22 34

Total # of neighbors = 8238215
Ave neighs/atom = 28.530516
Neighbor list builds = 0
Dangerous builds = 0
The dot product: -5.75504042423502e-07
Setting atom values ...
  1 settings made for x
  1 settings made for y
  1 settings made for z
Setting up cg style minimization ...
  Unit style    : metal
  Current step  : 4208
Per MPI rank memory allocation (min/avg/max) = 5.441 | 5.816 | 6.074 Mbytes
Step PotEng KinEng TotEng v_fx v_fy v_fz 
    4208   -1152449.1            0   -1152449.1 -0.023924059 0.0018650561 -0.023629113 
    4391   -1152449.1            0   -1152449.1 -4.5687569e-06 8.2982265e-06 -1.453988e-05 
Loop time of 2.14475 on 104 procs for 183 steps with 288751 atoms

99.9% CPU use with 104 MPI tasks x 1 OpenMP threads

Minimization stats:
  Stopping criterion = energy tolerance
  Energy initial, next-to-last, final = 
     -1152449.11494018   -1152449.1167991   -1152449.1167991
  Force two-norm initial, final = 0.17377695 0.00012626575
  Force max component initial, final = 0.13006499 2.5303906e-05
  Final line search alpha, max atom move = 1.0000000 2.5303906e-05
  Iterations, force evaluations = 183 366

MPI task timing breakdown:
Section |  min time  |  avg time  |  max time  |%varavg| %total
---------------------------------------------------------------
Pair    | 0.55595    | 1.5448     | 2.0073     |  33.5 | 72.03
Neigh   | 0          | 0          | 0          |   0.0 |  0.00
Comm    | 0.034493   | 0.34733    | 1.0405     |  49.4 | 16.19
Output  | 0          | 0          | 0          |   0.0 |  0.00
Modify  | 2.345e-05  | 0.0030312  | 0.0067063  |   2.6 |  0.14
Other   |            | 0.2496     |            |       | 11.64

Nlocal:        2776.45 ave        3938 max           0 min
Histogram: 8 4 4 0 4 12 8 0 28 36
Nghost:        3879.16 ave        5425 max         232 min
Histogram: 8 0 8 0 16 0 8 8 16 40
Neighs:        79213.6 ave      114701 max           0 min
Histogram: 8 4 4 0 9 7 8 8 22 34

Total # of neighbors = 8238213
Ave neighs/atom = 28.530509
Neighbor list builds = 0
Dangerous builds = 0
The dot product: 1.89266148763609e-07
Setting atom values ...
  1 settings made for x
  1 settings made for y
  1 settings made for z
Setting up cg style minimization ...
  Unit style    : metal
  Current step  : 4391
Per MPI rank memory allocation (min/avg/max) = 5.441 | 5.816 | 6.074 Mbytes
Step PotEng KinEng TotEng v_fx v_fy v_fz 
    4391   -1152449.1            0   -1152449.1 -0.018791108 0.0017425718 -0.017657432 
    4585   -1152449.1            0   -1152449.1 -3.512525e-06 2.0088748e-06 -5.3339748e-06 
Loop time of 2.26376 on 104 procs for 194 steps with 288751 atoms

99.9% CPU use with 104 MPI tasks x 1 OpenMP threads

Minimization stats:
  Stopping criterion = energy tolerance
  Energy initial, next-to-last, final = 
     -1152449.08733438  -1152449.08906474  -1152449.08906474
  Force two-norm initial, final = 0.173276 0.00010379911
  Force max component initial, final = 0.13298 2.5207125e-05
  Final line search alpha, max atom move = 1.0000000 2.5207125e-05
  Iterations, force evaluations = 194 388

MPI task timing breakdown:
Section |  min time  |  avg time  |  max time  |%varavg| %total
---------------------------------------------------------------
Pair    | 0.58924    | 1.6295     | 2.1269     |  34.5 | 71.98
Neigh   | 0          | 0          | 0          |   0.0 |  0.00
Comm    | 0.038127   | 0.3671     | 1.1002     |  50.5 | 16.22
Output  | 0          | 0          | 0          |   0.0 |  0.00
Modify  | 2.6134e-05 | 0.0032083  | 0.0071295  |   2.7 |  0.14
Other   |            | 0.2639     |            |       | 11.66

Nlocal:        2776.45 ave        3938 max           0 min
Histogram: 8 4 4 0 4 12 8 0 28 36
Nghost:        3879.19 ave        5426 max         232 min
Histogram: 8 0 8 0 16 0 8 8 16 40
Neighs:        79213.6 ave      114701 max           0 min
Histogram: 8 4 4 0 9 7 8 8 22 34

Total # of neighbors = 8238213
Ave neighs/atom = 28.530509
Neighbor list builds = 0
Dangerous builds = 0
The dot product: 6.64829988645202e-08
Setting atom values ...
  1 settings made for x
  1 settings made for y
  1 settings made for z
Setting up cg style minimization ...
  Unit style    : metal
  Current step  : 4585
Per MPI rank memory allocation (min/avg/max) = 5.441 | 5.816 | 6.074 Mbytes
Step PotEng KinEng TotEng v_fx v_fy v_fz 
    4585   -1152449.1            0   -1152449.1 -0.013524203 0.0014549563 -0.012290025 
    4839   -1152449.1            0   -1152449.1 -4.8280698e-08 -4.5253584e-07 4.898895e-07 
Loop time of 2.96317 on 104 procs for 254 steps with 288751 atoms

99.9% CPU use with 104 MPI tasks x 1 OpenMP threads

Minimization stats:
  Stopping criterion = energy tolerance
  Energy initial, next-to-last, final = 
     -1152449.05838812  -1152449.06004391  -1152449.06004391
  Force two-norm initial, final = 0.17335549 8.3860403e-06
  Force max component initial, final = 0.13564708 1.3610138e-06
  Final line search alpha, max atom move = 1.0000000 1.3610138e-06
  Iterations, force evaluations = 254 508

MPI task timing breakdown:
Section |  min time  |  avg time  |  max time  |%varavg| %total
---------------------------------------------------------------
Pair    | 0.7659     | 2.1506     | 2.7921     |  39.6 | 72.58
Neigh   | 0          | 0          | 0          |   0.0 |  0.00
Comm    | 0.055209   | 0.48467    | 1.4679     |  58.1 | 16.36
Output  | 0          | 0          | 0          |   0.0 |  0.00
Modify  | 3.207e-05  | 0.0042011  | 0.0093137  |   3.1 |  0.14
Other   |            | 0.3237     |            |       | 10.92

Nlocal:        2776.45 ave        3938 max           0 min
Histogram: 8 4 4 0 4 12 8 0 28 36
Nghost:        3879.16 ave        5426 max         232 min
Histogram: 8 0 8 0 16 0 8 8 16 40
Neighs:        79213.6 ave      114697 max           0 min
Histogram: 8 4 4 0 8 8 8 8 22 34

Total # of neighbors = 8238214
Ave neighs/atom = 28.530512
Neighbor list builds = 0
Dangerous builds = 0
The dot product: -3.98362450373775e-09
Setting atom values ...
  1 settings made for x
  1 settings made for y
  1 settings made for z
Setting up cg style minimization ...
  Unit style    : metal
  Current step  : 4839
Per MPI rank memory allocation (min/avg/max) = 5.441 | 5.816 | 6.074 Mbytes
Step PotEng KinEng TotEng v_fx v_fy v_fz 
    4839     -1152449            0     -1152449 -0.008953222 0.0011369891 -0.0080128435 
    5000     -1152449            0     -1152449 -1.3801559e-06 1.2420562e-05 -1.510697e-05 
    5058     -1152449            0     -1152449 -1.0703177e-07 2.6929128e-06 -3.1309917e-06 
Loop time of 2.54464 on 104 procs for 219 steps with 288751 atoms

99.9% CPU use with 104 MPI tasks x 1 OpenMP threads

Minimization stats:
  Stopping criterion = energy tolerance
  Energy initial, next-to-last, final = 
     -1152449.02815441  -1152449.02979844  -1152449.02979844
  Force two-norm initial, final = 0.17390604 5.6475537e-05
  Force max component initial, final = 0.13804764 7.4308573e-06
  Final line search alpha, max atom move = 1.0000000 7.4308573e-06
  Iterations, force evaluations = 219 438

MPI task timing breakdown:
Section |  min time  |  avg time  |  max time  |%varavg| %total
---------------------------------------------------------------
Pair    | 0.66205    | 1.8371     | 2.3949     |  36.6 | 72.20
Neigh   | 0          | 0          | 0          |   0.0 |  0.00
Comm    | 0.041947   | 0.41522    | 1.2495     |  53.7 | 16.32
Output  | 0.00014774 | 0.00015974 | 0.00030321 |   0.0 |  0.01
Modify  | 2.8213e-05 | 0.0036256  | 0.0080737  |   2.8 |  0.14
Other   |            | 0.2885     |            |       | 11.34

Nlocal:        2776.45 ave        3938 max           0 min
Histogram: 8 4 4 0 4 12 8 0 28 36
Nghost:        3879.16 ave        5426 max         232 min
Histogram: 8 0 8 0 16 0 8 8 16 40
Neighs:        79213.6 ave      114698 max           0 min
Histogram: 8 4 4 0 8 8 8 8 22 34

Total # of neighbors = 8238218
Ave neighs/atom = 28.530526
Neighbor list builds = 0
Dangerous builds = 0
The dot product: 2.44154292032951e-08
Setting atom values ...
  1 settings made for x
  1 settings made for y
  1 settings made for z
Setting up cg style minimization ...
  Unit style    : metal
  Current step  : 5058
Per MPI rank memory allocation (min/avg/max) = 5.441 | 5.816 | 6.074 Mbytes
Step PotEng KinEng TotEng v_fx v_fy v_fz 
    5058     -1152449            0     -1152449 -0.0055769627 0.00091616846 -0.0050646869 
    5236     -1152449            0     -1152449 1.7692958e-06 -1.3617023e-05 1.6329195e-05 
Loop time of 2.06869 on 104 procs for 178 steps with 288751 atoms

99.9% CPU use with 104 MPI tasks x 1 OpenMP threads

Minimization stats:
  Stopping criterion = energy tolerance
  Energy initial, next-to-last, final = 
     -1152448.99679258  -1152448.99844002  -1152448.99844002
  Force two-norm initial, final = 0.17464477 0.00018697633
  Force max component initial, final = 0.14013982 3.0370408e-05
  Final line search alpha, max atom move = 1.0000000 3.0370408e-05
  Iterations, force evaluations = 178 356

MPI task timing breakdown:
Section |  min time  |  avg time  |  max time  |%varavg| %total
---------------------------------------------------------------
Pair    | 0.5396     | 1.5042     | 1.9427     |  33.0 | 72.71
Neigh   | 0          | 0          | 0          |   0.0 |  0.00
Comm    | 0.037483   | 0.34043    | 1.018      |  48.5 | 16.46
Output  | 0          | 0          | 0          |   0.0 |  0.00
Modify  | 2.4072e-05 | 0.002952   | 0.006516   |   2.5 |  0.14
Other   |            | 0.2211     |            |       | 10.69

Nlocal:        2776.45 ave        3938 max           0 min
Histogram: 8 4 4 0 4 12 8 0 28 36
Nghost:        3879.18 ave        5426 max         232 min
Histogram: 8 0 8 0 16 0 8 8 16 40
Neighs:        79213.6 ave      114694 max           0 min
Histogram: 8 4 4 0 8 8 8 8 22 34

Total # of neighbors = 8238215
Ave neighs/atom = 28.530516
Neighbor list builds = 0
Dangerous builds = 0
The dot product: -1.18769226608683e-07
Setting atom values ...
  1 settings made for x
  1 settings made for y
  1 settings made for z
Setting up cg style minimization ...
  Unit style    : metal
  Current step  : 5236
Per MPI rank memory allocation (min/avg/max) = 5.441 | 5.816 | 6.074 Mbytes
Step PotEng KinEng TotEng v_fx v_fy v_fz 
    5236     -1152449            0     -1152449 -0.0029855489 0.00030271083 -0.002440088 
    5412     -1152449            0     -1152449 1.0371713e-05 -2.5956005e-05 3.5391411e-05 
Loop time of 2.05233 on 104 procs for 176 steps with 288751 atoms

99.9% CPU use with 104 MPI tasks x 1 OpenMP threads

Minimization stats:
  Stopping criterion = energy tolerance
  Energy initial, next-to-last, final = 
     -1152448.96436813  -1152448.96603057  -1152448.96603057
  Force two-norm initial, final = 0.17554311 0.00019432144
  Force max component initial, final = 0.14210053 3.5391411e-05
  Final line search alpha, max atom move = 1.0000000 3.5391411e-05
  Iterations, force evaluations = 176 352

MPI task timing breakdown:
Section |  min time  |  avg time  |  max time  |%varavg| %total
---------------------------------------------------------------
Pair    | 0.53229    | 1.4855     | 1.9271     |  32.8 | 72.38
Neigh   | 0          | 0          | 0          |   0.0 |  0.00
Comm    | 0.032431   | 0.33474    | 1.0017     |  48.6 | 16.31
Output  | 0          | 0          | 0          |   0.0 |  0.00
Modify  | 2.3164e-05 | 0.0029091  | 0.006461   |   2.5 |  0.14
Other   |            | 0.2292     |            |       | 11.17

Nlocal:        2776.45 ave        3938 max           0 min
Histogram: 8 4 4 0 4 12 8 0 28 36
Nghost:        3879.18 ave        5426 max         232 min
Histogram: 8 0 8 0 16 0 8 8 16 40
Neighs:        79213.6 ave      114693 max           0 min
Histogram: 8 4 4 0 8 8 8 8 22 34

Total # of neighbors = 8238219
Ave neighs/atom = 28.530530
Neighbor list builds = 0
Dangerous builds = 0
The dot product: -2.47249619556126e-07
Setting atom values ...
  1 settings made for x
  1 settings made for y
  1 settings made for z
Setting up cg style minimization ...
  Unit style    : metal
  Current step  : 5412
Per MPI rank memory allocation (min/avg/max) = 5.441 | 5.816 | 6.074 Mbytes
Step PotEng KinEng TotEng v_fx v_fy v_fz 
    5412   -1152448.9            0   -1152448.9 -0.0012301575 -0.00040317536 -0.00042459191 
    5592   -1152448.9            0   -1152448.9 1.2894891e-05 -3.9992322e-05 5.1292131e-05 
Loop time of 2.09523 on 104 procs for 180 steps with 288751 atoms

99.9% CPU use with 104 MPI tasks x 1 OpenMP threads

Minimization stats:
  Stopping criterion = energy tolerance
  Energy initial, next-to-last, final = 
     -1152448.93099922  -1152448.93270989  -1152448.93270989
  Force two-norm initial, final = 0.17635675 0.00022248185
  Force max component initial, final = 0.14374828 5.1292131e-05
  Final line search alpha, max atom move = 1.0000000 5.1292131e-05
  Iterations, force evaluations = 180 360

MPI task timing breakdown:
Section |  min time  |  avg time  |  max time  |%varavg| %total
---------------------------------------------------------------
Pair    | 0.54603    | 1.5168     | 1.9617     |  33.1 | 72.39
Neigh   | 0          | 0          | 0          |   0.0 |  0.00
Comm    | 0.033983   | 0.3413     | 1.0275     |  49.1 | 16.29
Output  | 0          | 0          | 0          |   0.0 |  0.00
Modify  | 2.4598e-05 | 0.0029843  | 0.0066256  |   2.6 |  0.14
Other   |            | 0.2342     |            |       | 11.18

Nlocal:        2776.45 ave        3939 max           0 min
Histogram: 8 4 4 0 4 12 8 0 28 36
Nghost:        3879.20 ave        5426 max         232 min
Histogram: 8 0 8 0 16 0 8 8 16 40
Neighs:        79213.6 ave      114718 max           0 min
Histogram: 8 4 4 0 9 7 8 8 22 34

Total # of neighbors = 8238215
Ave neighs/atom = 28.530516
Neighbor list builds = 0
Dangerous builds = 0
The dot product: -3.39429341774872e-07
Setting atom values ...
  1 settings made for x
  1 settings made for y
  1 settings made for z
Setting up cg style minimization ...
  Unit style    : metal
  Current step  : 5592
Per MPI rank memory allocation (min/avg/max) = 5.441 | 5.816 | 6.074 Mbytes
Step PotEng KinEng TotEng v_fx v_fy v_fz 
    5592   -1152448.9            0   -1152448.9 5.6044551e-05 -0.001360168 0.0014526966 
    5789   -1152448.9            0   -1152448.9 -5.7607581e-06 1.7430879e-05 -2.2043001e-05 
Loop time of 2.28891 on 104 procs for 197 steps with 288751 atoms

99.9% CPU use with 104 MPI tasks x 1 OpenMP threads

Minimization stats:
  Stopping criterion = energy tolerance
  Energy initial, next-to-last, final = 
      -1152448.8967994  -1152448.89843088  -1152448.89843088
  Force two-norm initial, final = 0.17711733 9.9272084e-05
  Force max component initial, final = 0.14519639 2.2043001e-05
  Final line search alpha, max atom move = 1.0000000 2.2043001e-05
  Iterations, force evaluations = 197 394

MPI task timing breakdown:
Section |  min time  |  avg time  |  max time  |%varavg| %total
---------------------------------------------------------------
Pair    | 0.59437    | 1.6561     | 2.1516     |  34.7 | 72.35
Neigh   | 0          | 0          | 0          |   0.0 |  0.00
Comm    | 0.03759    | 0.37053    | 1.1213     |  51.6 | 16.19
Output  | 0          | 0          | 0          |   0.0 |  0.00
Modify  | 2.6018e-05 | 0.0032585  | 0.0072065  |   2.7 |  0.14
Other   |            | 0.259      |            |       | 11.32

Nlocal:        2776.45 ave        3939 max           0 min
Histogram: 8 4 4 0 4 12 8 0 28 36
Nghost:        3879.18 ave        5426 max         232 min
Histogram: 8 0 8 0 16 0 8 8 16 40
Neighs:        79213.6 ave      114717 max           0 min
Histogram: 8 4 4 0 9 7 8 8 22 34

Total # of neighbors = 8238216
Ave neighs/atom = 28.530519
Neighbor list builds = 0
Dangerous builds = 0
The dot product: 1.22897762734309e-07
Setting atom values ...
  1 settings made for x
  1 settings made for y
  1 settings made for z
Setting up cg style minimization ...
  Unit style    : metal
  Current step  : 5789
Per MPI rank memory allocation (min/avg/max) = 5.441 | 5.816 | 6.074 Mbytes
Step PotEng KinEng TotEng v_fx v_fy v_fz 
    5789   -1152448.9            0   -1152448.9 0.0016046822 -0.0032946391 0.0044505096 
    5985   -1152448.9            0   -1152448.9 5.5856119e-06 -1.427845e-05 1.8370839e-05 
Loop time of 2.26147 on 104 procs for 196 steps with 288751 atoms

99.9% CPU use with 104 MPI tasks x 1 OpenMP threads

Minimization stats:
  Stopping criterion = energy tolerance
  Energy initial, next-to-last, final = 
     -1152448.86148633  -1152448.86309733  -1152448.86309733
  Force two-norm initial, final = 0.17834621 0.00010204901
  Force max component initial, final = 0.14685667 1.8370839e-05
  Final line search alpha, max atom move = 1.0000000 1.8370839e-05
  Iterations, force evaluations = 196 392

MPI task timing breakdown:
Section |  min time  |  avg time  |  max time  |%varavg| %total
---------------------------------------------------------------
Pair    | 0.59404    | 1.6499     | 2.1331     |  34.6 | 72.96
Neigh   | 0          | 0          | 0          |   0.0 |  0.00
Comm    | 0.036825   | 0.36692    | 1.1044     |  51.4 | 16.22
Output  | 0          | 0          | 0          |   0.0 |  0.00
Modify  | 2.5012e-05 | 0.003239   | 0.0071606  |   2.7 |  0.14
Other   |            | 0.2414     |            |       | 10.67

Nlocal:        2776.45 ave        3939 max           0 min
Histogram: 8 4 4 0 4 12 8 0 28 36
Nghost:        3879.18 ave        5426 max         232 min
Histogram: 8 0 8 0 16 0 8 8 16 40
Neighs:        79213.6 ave      114721 max           0 min
Histogram: 8 4 4 0 9 7 8 8 22 34

Total # of neighbors = 8238215
Ave neighs/atom = 28.530516
Neighbor list builds = 0
Dangerous builds = 0
The dot product: -8.39555182218533e-08
Setting atom values ...
  1 settings made for x
  1 settings made for y
  1 settings made for z
Setting up cg style minimization ...
  Unit style    : metal
  Current step  : 5985
Per MPI rank memory allocation (min/avg/max) = 5.441 | 5.816 | 6.074 Mbytes
Step PotEng KinEng TotEng v_fx v_fy v_fz 
    5985   -1152448.8            0   -1152448.8 0.0029035578 -0.0054909052 0.0074835012 
    6000   -1152448.8            0   -1152448.8 0.00025054491 0.0028015925 -0.0026700806 
    6220   -1152448.8            0   -1152448.8 -1.8577724e-06 5.9310086e-06 -7.2357656e-06 
Loop time of 2.72056 on 104 procs for 235 steps with 288751 atoms

99.9% CPU use with 104 MPI tasks x 1 OpenMP threads

Minimization stats:
  Stopping criterion = energy tolerance
  Energy initial, next-to-last, final = 
     -1152448.82511191  -1152448.82683596  -1152448.82683596
  Force two-norm initial, final = 0.17965959 3.8247576e-05
  Force max component initial, final = 0.14848127 7.2357656e-06
  Final line search alpha, max atom move = 1.0000000 7.2357656e-06
  Iterations, force evaluations = 235 470

MPI task timing breakdown:
Section |  min time  |  avg time  |  max time  |%varavg| %total
---------------------------------------------------------------
Pair    | 0.71138    | 1.968      | 2.5604     |  37.8 | 72.34
Neigh   | 0          | 0          | 0          |   0.0 |  0.00
Comm    | 0.046101   | 0.4391     | 1.3241     |  55.9 | 16.14
Output  | 0.00015157 | 0.00016076 | 0.00024669 |   0.0 |  0.01
Modify  | 3.0019e-05 | 0.0038911  | 0.0086044  |   2.9 |  0.14
Other   |            | 0.3095     |            |       | 11.37

Nlocal:        2776.45 ave        3939 max           0 min
Histogram: 8 4 4 0 4 12 8 0 28 36
Nghost:        3879.16 ave        5426 max         232 min
Histogram: 8 0 8 0 16 0 8 8 16 40
Neighs:        79213.6 ave      114713 max           0 min
Histogram: 8 4 4 0 9 7 8 8 22 34

Total # of neighbors = 8238217
Ave neighs/atom = 28.530523
Neighbor list builds = 0
Dangerous builds = 0
The dot product: 3.0625088966109e-08
Setting atom values ...
  1 settings made for x
  1 settings made for y
  1 settings made for z
Setting up cg style minimization ...
  Unit style    : metal
  Current step  : 6220
Per MPI rank memory allocation (min/avg/max) = 5.441 | 5.816 | 6.074 Mbytes
Step PotEng KinEng TotEng v_fx v_fy v_fz 
    6220   -1152448.8            0   -1152448.8 0.0035493629 -0.0071354888 0.0094788654 
    6424   -1152448.8            0   -1152448.8 4.1739764e-06 -1.1509487e-05 1.4269902e-05 
Loop time of 2.38994 on 104 procs for 204 steps with 288751 atoms

99.9% CPU use with 104 MPI tasks x 1 OpenMP threads

Minimization stats:
  Stopping criterion = energy tolerance
  Energy initial, next-to-last, final = 
     -1152448.78803521  -1152448.78965622  -1152448.78965622
  Force two-norm initial, final = 0.18020387 8.5434759e-05
  Force max component initial, final = 0.14949549 1.4269902e-05
  Final line search alpha, max atom move = 1.0000000 1.4269902e-05
  Iterations, force evaluations = 204 408

MPI task timing breakdown:
Section |  min time  |  avg time  |  max time  |%varavg| %total
---------------------------------------------------------------
Pair    | 0.62067    | 1.7264     | 2.2432     |  35.4 | 72.24
Neigh   | 0          | 0          | 0          |   0.0 |  0.00
Comm    | 0.038398   | 0.39008    | 1.167      |  52.0 | 16.32
Output  | 0          | 0          | 0          |   0.0 |  0.00
Modify  | 2.6211e-05 | 0.0033784  | 0.0074709  |   2.7 |  0.14
Other   |            | 0.27       |            |       | 11.30

Nlocal:        2776.45 ave        3940 max           0 min
Histogram: 8 4 4 0 4 12 8 0 28 36
Nghost:        3879.20 ave        5426 max         232 min
Histogram: 8 0 8 0 16 0 8 8 16 40
Neighs:        79213.6 ave      114768 max           0 min
Histogram: 8 4 4 0 10 6 8 8 22 34

Total # of neighbors = 8238213
Ave neighs/atom = 28.530509
Neighbor list builds = 0
Dangerous builds = 0
The dot product: -4.13822016463423e-08
Setting atom values ...
  1 settings made for x
  1 settings made for y
  1 settings made for z
Setting up cg style minimization ...
  Unit style    : metal
  Current step  : 6424
Per MPI rank memory allocation (min/avg/max) = 5.441 | 5.816 | 6.074 Mbytes
Step PotEng KinEng TotEng v_fx v_fy v_fz 
    6424   -1152448.7            0   -1152448.7 0.0045799708 -0.010082186  0.013018632 
    6574   -1152448.8            0   -1152448.8 1.3430111e-05 -3.3982103e-05 4.2567081e-05 
Loop time of 1.76303 on 104 procs for 150 steps with 288751 atoms

99.9% CPU use with 104 MPI tasks x 1 OpenMP threads

Minimization stats:
  Stopping criterion = energy tolerance
  Energy initial, next-to-last, final = 
     -1152448.74983713  -1152448.75146861  -1152448.75146861
  Force two-norm initial, final = 0.18124023 0.00029511108
  Force max component initial, final = 0.15086955 5.3091574e-05
  Final line search alpha, max atom move = 1.0000000 5.3091574e-05
  Iterations, force evaluations = 150 300

MPI task timing breakdown:
Section |  min time  |  avg time  |  max time  |%varavg| %total
---------------------------------------------------------------
Pair    | 0.45377    | 1.2616     | 1.6435     |  30.3 | 71.56
Neigh   | 0          | 0          | 0          |   0.0 |  0.00
Comm    | 0.032949   | 0.2867     | 0.85611    |  44.2 | 16.26
Output  | 0          | 0          | 0          |   0.0 |  0.00
Modify  | 1.9186e-05 | 0.0024847  | 0.0054997  |   2.3 |  0.14
Other   |            | 0.2123     |            |       | 12.04

Nlocal:        2776.45 ave        3940 max           0 min
Histogram: 8 4 4 0 4 12 8 0 28 36
Nghost:        3879.26 ave        5426 max         232 min
Histogram: 8 0 8 0 16 0 8 8 16 40
Neighs:        79213.6 ave      114761 max           0 min
Histogram: 8 4 4 0 10 6 8 8 22 34

Total # of neighbors = 8238213
Ave neighs/atom = 28.530509
Neighbor list builds = 0
Dangerous builds = 0
The dot product: -7.1827911839142e-08
Setting atom values ...
  1 settings made for x
  1 settings made for y
  1 settings made for z
Setting up cg style minimization ...
  Unit style    : metal
  Current step  : 6574
Per MPI rank memory allocation (min/avg/max) = 5.441 | 5.816 | 6.074 Mbytes
Step PotEng KinEng TotEng v_fx v_fy v_fz 
    6574   -1152448.7            0   -1152448.7 0.0052446484 -0.012978063  0.016269405 
    6746   -1152448.7            0   -1152448.7 1.570629e-06 -6.6396361e-06 7.5972525e-06 
Loop time of 2.0353 on 104 procs for 172 steps with 288751 atoms

99.9% CPU use with 104 MPI tasks x 1 OpenMP threads

Minimization stats:
  Stopping criterion = energy tolerance
  Energy initial, next-to-last, final = 
     -1152448.71072254  -1152448.71253113  -1152448.71253113
  Force two-norm initial, final = 0.18170034 0.00016637671
  Force max component initial, final = 0.1519321 7.5972525e-06
  Final line search alpha, max atom move = 1.0000000 7.5972525e-06
  Iterations, force evaluations = 172 344

MPI task timing breakdown:
Section |  min time  |  avg time  |  max time  |%varavg| %total
---------------------------------------------------------------
Pair    | 0.52916    | 1.4652     | 1.8854     |  32.1 | 71.99
Neigh   | 0          | 0          | 0          |   0.0 |  0.00
Comm    | 0.038761   | 0.32932    | 0.98728    |  47.8 | 16.18
Output  | 0          | 0          | 0          |   0.0 |  0.00
Modify  | 2.2396e-05 | 0.0028515  | 0.0063104  |   2.5 |  0.14
Other   |            | 0.238      |            |       | 11.69

Nlocal:        2776.45 ave        3940 max           0 min
Histogram: 8 4 4 0 4 12 8 0 28 36
Nghost:        3879.28 ave        5426 max         232 min
Histogram: 8 0 8 0 16 0 8 8 16 40
Neighs:        79213.6 ave      114760 max           0 min
Histogram: 8 4 4 0 10 6 8 8 22 34

Total # of neighbors = 8238212
Ave neighs/atom = 28.530506
Neighbor list builds = 0
Dangerous builds = 0
The dot product: -9.32157989564003e-09
Setting atom values ...
  1 settings made for x
  1 settings made for y
  1 settings made for z
Setting up cg style minimization ...
  Unit style    : metal
  Current step  : 6746
Per MPI rank memory allocation (min/avg/max) = 5.441 | 5.816 | 6.074 Mbytes
Step PotEng KinEng TotEng v_fx v_fy v_fz 
    6746   -1152448.7            0   -1152448.7 0.0056024519 -0.014939316  0.018398224 
    6897   -1152448.7            0   -1152448.7 2.4265515e-06 -1.540386e-05 1.6782567e-05 
Loop time of 1.75285 on 104 procs for 151 steps with 288751 atoms

99.9% CPU use with 104 MPI tasks x 1 OpenMP threads

Minimization stats:
  Stopping criterion = energy tolerance
  Energy initial, next-to-last, final = 
     -1152448.67133235  -1152448.67308244  -1152448.67308244
  Force two-norm initial, final = 0.18053484 0.00016915494
  Force max component initial, final = 0.15192139 3.6232773e-05
  Final line search alpha, max atom move = 1.0000000 3.6232773e-05
  Iterations, force evaluations = 151 302

MPI task timing breakdown:
Section |  min time  |  avg time  |  max time  |%varavg| %total
---------------------------------------------------------------
Pair    | 0.45734    | 1.2696     | 1.6492     |  30.4 | 72.43
Neigh   | 0          | 0          | 0          |   0.0 |  0.00
Comm    | 0.029628   | 0.28404    | 0.85669    |  44.9 | 16.20
Output  | 0          | 0          | 0          |   0.0 |  0.00
Modify  | 1.9252e-05 | 0.0025026  | 0.0055324  |   2.4 |  0.14
Other   |            | 0.1968     |            |       | 11.22

Nlocal:        2776.45 ave        3941 max           0 min
Histogram: 8 4 4 0 4 12 8 0 28 36
Nghost:        3879.26 ave        5426 max         232 min
Histogram: 8 0 8 0 16 0 8 8 16 40
Neighs:        79213.5 ave      114793 max           0 min
Histogram: 8 4 4 0 10 6 8 8 22 34

Total # of neighbors = 8238207
Ave neighs/atom = 28.530488
Neighbor list builds = 0
Dangerous builds = 0
The dot product: 1.92662654626315e-09
Setting atom values ...
  1 settings made for x
  1 settings made for y
  1 settings made for z
Setting up cg style minimization ...
  Unit style    : metal
  Current step  : 6897
Per MPI rank memory allocation (min/avg/max) = 5.441 | 5.816 | 6.074 Mbytes
Step PotEng KinEng TotEng v_fx v_fy v_fz 
    6897   -1152448.6            0   -1152448.6 0.0059655839 -0.017887116   0.02155715 
    7000   -1152448.6            0   -1152448.6 4.1499789e-05 -7.8467345e-05 0.00010461983 
    7147   -1152448.6            0   -1152448.6 4.1473986e-06 -8.6471932e-06 1.1249922e-05 
Loop time of 2.90875 on 104 procs for 250 steps with 288751 atoms

99.9% CPU use with 104 MPI tasks x 1 OpenMP threads

Minimization stats:
  Stopping criterion = energy tolerance
  Energy initial, next-to-last, final = 
     -1152448.63158937   -1152448.6336078   -1152448.6336078
  Force two-norm initial, final = 0.17960943 5.3592405e-05
  Force max component initial, final = 0.15167906 1.1249922e-05
  Final line search alpha, max atom move = 1.0000000 1.1249922e-05
  Iterations, force evaluations = 250 500

MPI task timing breakdown:
Section |  min time  |  avg time  |  max time  |%varavg| %total
---------------------------------------------------------------
Pair    | 0.7589     | 2.1084     | 2.7225     |  39.1 | 72.48
Neigh   | 0          | 0          | 0          |   0.0 |  0.00
Comm    | 0.057616   | 0.47547    | 1.4154     |  57.2 | 16.35
Output  | 0.00018079 | 0.00018419 | 0.00033787 |   0.0 |  0.01
Modify  | 3.2825e-05 | 0.0041482  | 0.0091374  |   3.0 |  0.14
Other   |            | 0.3206     |            |       | 11.02

Nlocal:        2776.45 ave        3941 max           0 min
Histogram: 8 4 4 0 4 12 8 0 28 36
Nghost:        3879.26 ave        5426 max         232 min
Histogram: 8 0 8 0 16 0 8 8 16 40
Neighs:        79213.5 ave      114791 max           0 min
Histogram: 8 4 4 0 10 6 8 8 22 34

Total # of neighbors = 8238199
Ave neighs/atom = 28.530461
Neighbor list builds = 0
Dangerous builds = 0
The dot product: 9.62599901322881e-09
Setting atom values ...
  1 settings made for x
  1 settings made for y
  1 settings made for z
Setting up cg style minimization ...
  Unit style    : metal
  Current step  : 7147
Per MPI rank memory allocation (min/avg/max) = 5.441 | 5.816 | 6.074 Mbytes
Step PotEng KinEng TotEng v_fx v_fy v_fz 
    7147   -1152448.6            0   -1152448.6 0.0094518349 -0.018921822  0.024909859 
    7340   -1152448.6            0   -1152448.6 5.0228918e-06 -9.4941568e-06 1.2683695e-05 
Loop time of 2.23337 on 104 procs for 193 steps with 288751 atoms

99.9% CPU use with 104 MPI tasks x 1 OpenMP threads

Minimization stats:
  Stopping criterion = energy tolerance
  Energy initial, next-to-last, final = 
     -1152448.59289749  -1152448.59507172  -1152448.59507172
  Force two-norm initial, final = 0.17786284 0.0001947871
  Force max component initial, final = 0.14907677 1.2683695e-05
  Final line search alpha, max atom move = 1.0000000 1.2683695e-05
  Iterations, force evaluations = 193 386

MPI task timing breakdown:
Section |  min time  |  avg time  |  max time  |%varavg| %total
---------------------------------------------------------------
Pair    | 0.58524    | 1.6214     | 2.1063     |  34.3 | 72.60
Neigh   | 0          | 0          | 0          |   0.0 |  0.00
Comm    | 0.037303   | 0.36368    | 1.0986     |  50.9 | 16.28
Output  | 0          | 0          | 0          |   0.0 |  0.00
Modify  | 2.4971e-05 | 0.003194   | 0.0070627  |   2.7 |  0.14
Other   |            | 0.2451     |            |       | 10.97

Nlocal:        2776.45 ave        3942 max           0 min
Histogram: 8 4 4 0 4 12 8 0 28 36
Nghost:        3879.25 ave        5426 max         232 min
Histogram: 8 0 8 0 16 0 8 8 16 40
Neighs:        79213.5 ave      114829 max           0 min
Histogram: 8 4 4 0 10 6 8 8 22 34

Total # of neighbors = 8238205
Ave neighs/atom = 28.530481
Neighbor list builds = 0
Dangerous builds = 0
The dot product: 7.4445222035425e-09
Setting atom values ...
  1 settings made for x
  1 settings made for y
  1 settings made for z
Setting up cg style minimization ...
  Unit style    : metal
  Current step  : 7340
Per MPI rank memory allocation (min/avg/max) = 5.441 | 5.816 | 6.074 Mbytes
Step PotEng KinEng TotEng v_fx v_fy v_fz 
    7340   -1152448.6            0   -1152448.6  0.011420893 -0.018593295  0.025921563 
    7600   -1152448.6            0   -1152448.6 2.0806993e-06 -5.0067543e-06 6.3195129e-06 
Loop time of 3.01006 on 104 procs for 260 steps with 288751 atoms

99.9% CPU use with 104 MPI tasks x 1 OpenMP threads

Minimization stats:
  Stopping criterion = energy tolerance
  Energy initial, next-to-last, final = 
     -1152448.55619155  -1152448.56858047  -1152448.56858047
  Force two-norm initial, final = 0.18586014 3.4450041e-05
  Force max component initial, final = 0.14653361 6.3195129e-06
  Final line search alpha, max atom move = 1.0000000 6.3195129e-06
  Iterations, force evaluations = 260 520

MPI task timing breakdown:
Section |  min time  |  avg time  |  max time  |%varavg| %total
---------------------------------------------------------------
Pair    | 0.79729    | 2.1952     | 2.8295     |  39.6 | 72.93
Neigh   | 1.0186e-05 | 0.0029344  | 0.0042409  |   2.2 |  0.10
Comm    | 0.052017   | 0.49073    | 1.4855     |  59.3 | 16.30
Output  | 0          | 0          | 0          |   0.0 |  0.00
Modify  | 3.3249e-05 | 0.0043011  | 0.0095177  |   3.1 |  0.14
Other   |            | 0.3169     |            |       | 10.53

Nlocal:        2776.45 ave        3942 max           0 min
Histogram: 8 4 4 0 4 12 8 0 28 36
Nghost:        3879.25 ave        5426 max         232 min
Histogram: 8 0 8 0 16 0 8 8 16 40
Neighs:        79213.4 ave      114829 max           0 min
Histogram: 8 4 4 0 10 6 8 8 22 34

Total # of neighbors = 8238192
Ave neighs/atom = 28.530436
Neighbor list builds = 1
Dangerous builds = 0
The dot product: -1.18401621321023e-07
Setting atom values ...
  1 settings made for x
  1 settings made for y
  1 settings made for z
Setting up cg style minimization ...
  Unit style    : metal
  Current step  : 7600
Per MPI rank memory allocation (min/avg/max) = 5.441 | 5.816 | 6.074 Mbytes
Step PotEng KinEng TotEng v_fx v_fy v_fz 
    7600   -1152448.5            0   -1152448.5  0.005323959 -0.014133288  0.016830676 
    7859   -1152448.5            0   -1152448.5 -8.813009e-06 2.0503479e-05 -2.5119689e-05 
[...]
Histogram: 8 4 4 0 4 12 8 0 28 36
Nghost:        3878.66 ave        5427 max         232 min
Histogram: 8 0 8 0 16 0 8 8 16 40
Neighs:        79213.5 ave      115049 max           0 min
Histogram: 8 4 4 0 10 6 8 8 24 32

Total # of neighbors = 8238201
Ave neighs/atom = 28.530467
Neighbor list builds = 0
Dangerous builds = 0
The dot product: -7.00219303060422e-08
Setting atom values ...
  1 settings made for x
  1 settings made for y
  1 settings made for z
Setting up cg style minimization ...
  Unit style    : metal
  Current step  : 27231
Per MPI rank memory allocation (min/avg/max) = 5.441 | 5.816 | 6.074 Mbytes
Step PotEng KinEng TotEng v_fx v_fy v_fz 
   27231   -1152449.4            0   -1152449.4  0.024477173  0.018764569 -0.040575935 
   27423   -1152449.4            0   -1152449.4 -1.5032197e-05 2.6442799e-05 -2.1975593e-05 
Loop time of 2.24223 on 104 procs for 192 steps with 288751 atoms

99.9% CPU use with 104 MPI tasks x 1 OpenMP threads

Minimization stats:
  Stopping criterion = energy tolerance
  Energy initial, next-to-last, final = 
      -1152449.4282309  -1152449.42963519  -1152449.42963519
  Force two-norm initial, final = 0.17114637 0.00011410415
  Force max component initial, final = 0.07361917 2.8860814e-05
  Final line search alpha, max atom move = 1.0000000 2.8860814e-05
  Iterations, force evaluations = 192 384

MPI task timing breakdown:
Section |  min time  |  avg time  |  max time  |%varavg| %total
---------------------------------------------------------------
Pair    | 0.57753    | 1.6146     | 2.0989     |  34.2 | 72.01
Neigh   | 0          | 0          | 0          |   0.0 |  0.00
Comm    | 0.036639   | 0.37124    | 1.1195     |  50.2 | 16.56
Output  | 0          | 0          | 0          |   0.0 |  0.00
Modify  | 2.3435e-05 | 0.003191   | 0.0067548  |   2.7 |  0.14
Other   |            | 0.2532     |            |       | 11.29

Nlocal:        2776.45 ave        3947 max           0 min
Histogram: 8 4 4 0 4 12 8 0 28 36
Nghost:        3878.66 ave        5427 max         232 min
Histogram: 8 0 8 0 16 0 8 8 16 40
Neighs:        79213.5 ave      115059 max           0 min
Histogram: 8 4 4 0 10 6 8 8 24 32

Total # of neighbors = 8238205
Ave neighs/atom = 28.530481
Neighbor list builds = 0
Dangerous builds = 0
The dot product: 1.03392499473978e-07
Setting atom values ...
  1 settings made for x
  1 settings made for y
  1 settings made for z
Setting up cg style minimization ...
  Unit style    : metal
  Current step  : 27423
Per MPI rank memory allocation (min/avg/max) = 5.441 | 5.816 | 6.074 Mbytes
Step PotEng KinEng TotEng v_fx v_fy v_fz 
   27423   -1152449.4            0   -1152449.4  0.027682552  0.015125232  -0.03844485 
   27588   -1152449.4            0   -1152449.4 4.8232891e-06 -5.1715693e-05 6.0602516e-05 
Loop time of 1.93755 on 104 procs for 165 steps with 288751 atoms

99.9% CPU use with 104 MPI tasks x 1 OpenMP threads

Minimization stats:
  Stopping criterion = energy tolerance
  Energy initial, next-to-last, final = 
     -1152449.42121162  -1152449.42256193  -1152449.42256193
  Force two-norm initial, final = 0.16844867 0.00027713314
  Force max component initial, final = 0.072783758 6.0602516e-05
  Final line search alpha, max atom move = 1.0000000 6.0602516e-05
  Iterations, force evaluations = 165 330

MPI task timing breakdown:
Section |  min time  |  avg time  |  max time  |%varavg| %total
---------------------------------------------------------------
Pair    | 0.4966     | 1.3904     | 1.8226     |  31.8 | 71.76
Neigh   | 0          | 0          | 0          |   0.0 |  0.00
Comm    | 0.030315   | 0.3206     | 0.95545    |  46.3 | 16.55
Output  | 0          | 0          | 0          |   0.0 |  0.00
Modify  | 2.1117e-05 | 0.0027372  | 0.0058383  |   2.5 |  0.14
Other   |            | 0.2238     |            |       | 11.55

Nlocal:        2776.45 ave        3945 max           0 min
Histogram: 8 4 4 0 4 12 8 0 27 37
Nghost:        3878.66 ave        5427 max         232 min
Histogram: 8 0 8 0 16 0 8 8 16 40
Neighs:        79213.5 ave      115008 max           0 min
Histogram: 8 4 4 0 10 6 8 8 24 32

Total # of neighbors = 8238205
Ave neighs/atom = 28.530481
Neighbor list builds = 0
Dangerous builds = 0
The dot product: -2.29585379217065e-07
Setting atom values ...
  1 settings made for x
  1 settings made for y
  1 settings made for z
Setting up cg style minimization ...
  Unit style    : metal
  Current step  : 27588
Per MPI rank memory allocation (min/avg/max) = 5.441 | 5.816 | 6.074 Mbytes
Step PotEng KinEng TotEng v_fx v_fy v_fz 
   27588   -1152449.4            0   -1152449.4  0.031830389  0.010412821 -0.035642164 
   27785   -1152449.4            0   -1152449.4 1.6172551e-06 -1.3202329e-05 1.5230227e-05 
Loop time of 2.29623 on 104 procs for 197 steps with 288751 atoms

99.9% CPU use with 104 MPI tasks x 1 OpenMP threads

Minimization stats:
  Stopping criterion = energy tolerance
  Energy initial, next-to-last, final = 
     -1152449.41265444  -1152449.41394944  -1152449.41394944
  Force two-norm initial, final = 0.1660054 9.6363871e-05
  Force max component initial, final = 0.071953068 2.1910384e-05
  Final line search alpha, max atom move = 1.0000000 2.1910384e-05
  Iterations, force evaluations = 197 394

MPI task timing breakdown:
Section |  min time  |  avg time  |  max time  |%varavg| %total
---------------------------------------------------------------
Pair    | 0.59202    | 1.6534     | 2.1554     |  34.7 | 72.00
Neigh   | 0          | 0          | 0          |   0.0 |  0.00
Comm    | 0.035743   | 0.37508    | 1.1168     |  50.7 | 16.33
Output  | 0          | 0          | 0          |   0.0 |  0.00
Modify  | 2.4826e-05 | 0.0032589  | 0.0069225  |   2.7 |  0.14
Other   |            | 0.2645     |            |       | 11.52

Nlocal:        2776.45 ave        3945 max           0 min
Histogram: 8 4 4 0 4 12 8 0 27 37
Nghost:        3878.66 ave        5427 max         232 min
Histogram: 8 0 8 0 16 0 8 8 16 40
Neighs:        79213.5 ave      115016 max           0 min
Histogram: 8 4 4 0 10 6 8 8 24 32

Total # of neighbors = 8238207
Ave neighs/atom = 28.530488
Neighbor list builds = 0
Dangerous builds = 0
The dot product: -4.58894639649317e-08
Setting atom values ...
  1 settings made for x
  1 settings made for y
  1 settings made for z
Setting up cg style minimization ...
  Unit style    : metal
  Current step  : 27785
Per MPI rank memory allocation (min/avg/max) = 5.441 | 5.816 | 6.074 Mbytes
Step PotEng KinEng TotEng v_fx v_fy v_fz 
   27785   -1152449.4            0   -1152449.4  0.038104288 0.0033961381 -0.031488965 
   27958   -1152449.4            0   -1152449.4 1.7918884e-05 2.0160464e-07 -1.3072988e-05 
Loop time of 2.03122 on 104 procs for 173 steps with 288751 atoms

99.9% CPU use with 104 MPI tasks x 1 OpenMP threads

Minimization stats:
  Stopping criterion = energy tolerance
  Energy initial, next-to-last, final = 
     -1152449.40272804  -1152449.40398695  -1152449.40398695
  Force two-norm initial, final = 0.16484786 0.00015866513
  Force max component initial, final = 0.071631478 3.3977729e-05
  Final line search alpha, max atom move = 1.0000000 3.3977729e-05
  Iterations, force evaluations = 173 346

MPI task timing breakdown:
Section |  min time  |  avg time  |  max time  |%varavg| %total
---------------------------------------------------------------
Pair    | 0.52597    | 1.4572     | 1.9112     |  32.5 | 71.74
Neigh   | 0          | 0          | 0          |   0.0 |  0.00
Comm    | 0.030333   | 0.33188    | 0.98276    |  47.5 | 16.34
Output  | 0          | 0          | 0          |   0.0 |  0.00
Modify  | 2.1786e-05 | 0.0028612  | 0.0060559  |   2.5 |  0.14
Other   |            | 0.2393     |            |       | 11.78

Nlocal:        2776.45 ave        3945 max           0 min
Histogram: 8 4 4 0 4 12 8 0 26 38
Nghost:        3878.72 ave        5428 max         232 min
Histogram: 8 0 8 0 16 0 8 8 16 40
Neighs:        79213.5 ave      115016 max           0 min
Histogram: 8 4 4 0 10 6 8 8 24 32

Total # of neighbors = 8238204
Ave neighs/atom = 28.530478
Neighbor list builds = 0
Dangerous builds = 0
The dot product: 8.05281753670284e-08
Setting atom values ...
  1 settings made for x
  1 settings made for y
  1 settings made for z
Setting up cg style minimization ...
  Unit style    : metal
  Current step  : 27958
Per MPI rank memory allocation (min/avg/max) = 5.441 | 5.816 | 6.074 Mbytes
Step PotEng KinEng TotEng v_fx v_fy v_fz 
   27958   -1152449.4            0   -1152449.4  0.045837743 -0.0051945358 -0.026455612 
   28000   -1152449.4            0   -1152449.4 1.2210212e-05 -1.0907914e-06 -7.4117702e-06 
   28003   -1152449.4            0   -1152449.4 2.9203572e-05 -8.9020986e-06 -9.894927e-06 
Loop time of 0.526051 on 104 procs for 45 steps with 288751 atoms

99.9% CPU use with 104 MPI tasks x 1 OpenMP threads

Minimization stats:
  Stopping criterion = energy tolerance
  Energy initial, next-to-last, final = 
     -1152449.39184055  -1152449.39330845  -1152449.39330845
  Force two-norm initial, final = 0.1672583 0.00022161799
  Force max component initial, final = 0.071430801 2.9203572e-05
  Final line search alpha, max atom move = 1.0000000 2.9203572e-05
  Iterations, force evaluations = 45 90

MPI task timing breakdown:
Section |  min time  |  avg time  |  max time  |%varavg| %total
---------------------------------------------------------------
Pair    | 0.13645    | 0.38063    | 0.49525    |  16.6 | 72.36
Neigh   | 0          | 0          | 0          |   0.0 |  0.00
Comm    | 0.007977   | 0.086509   | 0.26008    |  24.5 | 16.44
Output  | 0.00015405 | 0.00015897 | 0.00027412 |   0.0 |  0.03
Modify  | 6.506e-06  | 0.00075416 | 0.0016071  |   0.0 |  0.14
Other   |            | 0.05799    |            |       | 11.02

Nlocal:        2776.45 ave        3945 max           0 min
Histogram: 8 4 4 0 4 12 8 0 26 38
Nghost:        3878.74 ave        5428 max         232 min
Histogram: 8 0 8 0 16 0 8 8 16 40
Neighs:        79213.5 ave      115024 max           0 min
Histogram: 8 4 4 0 10 6 8 8 24 32

Total # of neighbors = 8238204
Ave neighs/atom = 28.530478
Neighbor list builds = 0
Dangerous builds = 0
The dot product: 2.94699058579209e-07
Setting atom values ...
  1 settings made for x
  1 settings made for y
  1 settings made for z
Setting up cg style minimization ...
  Unit style    : metal
  Current step  : 28003
Per MPI rank memory allocation (min/avg/max) = 5.441 | 5.816 | 6.074 Mbytes
Step PotEng KinEng TotEng v_fx v_fy v_fz 
   28003   -1152449.4            0   -1152449.4  0.053380675  -0.01321261 -0.022201777 
   28207   -1152449.4            0   -1152449.4 -8.8821097e-06 1.1376718e-05 -7.7111833e-06 
Loop time of 2.39098 on 104 procs for 204 steps with 288751 atoms

99.9% CPU use with 104 MPI tasks x 1 OpenMP threads

Minimization stats:
  Stopping criterion = energy tolerance
  Energy initial, next-to-last, final = 
      -1152449.3812575  -1152449.38324692  -1152449.38324692
  Force two-norm initial, final = 0.17129352 5.8607832e-05
  Force max component initial, final = 0.070136949 1.1376718e-05
  Final line search alpha, max atom move = 1.0000000 1.1376718e-05
  Iterations, force evaluations = 204 408

MPI task timing breakdown:
Section |  min time  |  avg time  |  max time  |%varavg| %total
---------------------------------------------------------------
Pair    | 0.61165    | 1.7169     | 2.2538     |  35.4 | 71.81
Neigh   | 0          | 0          | 0          |   0.0 |  0.00
Comm    | 0.036468   | 0.39117    | 1.1552     |  51.5 | 16.36
Output  | 0          | 0          | 0          |   0.0 |  0.00
Modify  | 2.5584e-05 | 0.0033779  | 0.007151   |   2.7 |  0.14
Other   |            | 0.2795     |            |       | 11.69

Nlocal:        2776.45 ave        3945 max           0 min
Histogram: 8 4 4 0 4 12 8 0 26 38
Nghost:        3878.74 ave        5428 max         232 min
Histogram: 8 0 8 0 16 0 8 8 16 40
Neighs:        79213.5 ave      115026 max           0 min
Histogram: 8 4 4 0 10 6 8 8 24 32

Total # of neighbors = 8238207
Ave neighs/atom = 28.530488
Neighbor list builds = 0
Dangerous builds = 0
The dot product: -2.3479665303853e-07
Setting atom values ...
  1 settings made for x
  1 settings made for y
  1 settings made for z
Setting up cg style minimization ...
  Unit style    : metal
  Current step  : 28207
Per MPI rank memory allocation (min/avg/max) = 5.441 | 5.816 | 6.074 Mbytes
Step PotEng KinEng TotEng v_fx v_fy v_fz 
   28207   -1152449.4            0   -1152449.4  0.052913775 -0.013483078 -0.022054816 
   28296   -1152449.4            0   -1152449.4 -1.5415994e-05 -1.3166818e-05 2.7580125e-05 
Loop time of 1.03651 on 104 procs for 89 steps with 288751 atoms

99.9% CPU use with 104 MPI tasks x 1 OpenMP threads

Minimization stats:
  Stopping criterion = energy tolerance
  Energy initial, next-to-last, final = 
     -1152449.37208337  -1152449.37373132  -1152449.37373132
  Force two-norm initial, final = 0.16740767 0.00015292104
  Force max component initial, final = 0.070097963 4.0247724e-05
  Final line search alpha, max atom move = 1.0000000 4.0247724e-05
  Iterations, force evaluations = 89 178

MPI task timing breakdown:
Section |  min time  |  avg time  |  max time  |%varavg| %total
---------------------------------------------------------------
Pair    | 0.26721    | 0.74896    | 0.97779    |  23.4 | 72.26
Neigh   | 0          | 0          | 0          |   0.0 |  0.00
Comm    | 0.01642    | 0.17043    | 0.51147    |  34.3 | 16.44
Output  | 0          | 0          | 0          |   0.0 |  0.00
Modify  | 1.1445e-05 | 0.0014782  | 0.0031329  |   1.8 |  0.14
Other   |            | 0.1156     |            |       | 11.16

Nlocal:        2776.45 ave        3945 max           0 min
Histogram: 8 4 4 0 4 12 8 0 26 38
Nghost:        3878.68 ave        5427 max         232 min
Histogram: 8 0 8 0 16 0 8 8 16 40
Neighs:        79213.5 ave      115024 max           0 min
Histogram: 8 4 4 0 10 6 8 8 24 32

Total # of neighbors = 8238205
Ave neighs/atom = 28.530481
Neighbor list builds = 0
Dangerous builds = 0
The dot product: -9.50180100038936e-08
Setting atom values ...
  1 settings made for x
  1 settings made for y
  1 settings made for z
Setting up cg style minimization ...
  Unit style    : metal
  Current step  : 28296
Per MPI rank memory allocation (min/avg/max) = 5.441 | 5.816 | 6.074 Mbytes
Step PotEng KinEng TotEng v_fx v_fy v_fz 
   28296   -1152449.4            0   -1152449.4  0.050132918 -0.011958296 -0.022259869 
   28388   -1152449.4            0   -1152449.4 5.9675044e-06 1.7747447e-06 -6.5970267e-06 
Loop time of 1.07613 on 104 procs for 92 steps with 288751 atoms

99.9% CPU use with 104 MPI tasks x 1 OpenMP threads

Minimization stats:
  Stopping criterion = energy tolerance
  Energy initial, next-to-last, final = 
     -1152449.36268258  -1152449.36412678  -1152449.36412678
  Force two-norm initial, final = 0.16301941 0.00013333398
  Force max component initial, final = 0.069757929 1.2384975e-05
  Final line search alpha, max atom move = 1.0000000 1.2384975e-05
  Iterations, force evaluations = 92 184

MPI task timing breakdown:
Section |  min time  |  avg time  |  max time  |%varavg| %total
---------------------------------------------------------------
Pair    | 0.27765    | 0.77601    | 1.0132     |  23.8 | 72.11
Neigh   | 0          | 0          | 0          |   0.0 |  0.00
Comm    | 0.017019   | 0.17662    | 0.5243     |  34.8 | 16.41
Output  | 0          | 0          | 0          |   0.0 |  0.00
Modify  | 1.1594e-05 | 0.0015255  | 0.0032407  |   1.8 |  0.14
Other   |            | 0.122      |            |       | 11.33

Nlocal:        2776.45 ave        3945 max           0 min
Histogram: 8 4 4 0 4 12 8 0 26 38
Nghost:        3878.68 ave        5427 max         232 min
Histogram: 8 0 8 0 16 0 8 8 16 40
Neighs:        79213.5 ave      115025 max           0 min
Histogram: 8 4 4 0 10 6 8 8 24 32

Total # of neighbors = 8238206
Ave neighs/atom = 28.530485
Neighbor list builds = 0
Dangerous builds = 0
The dot product: 4.44363520782511e-08
Setting atom values ...
  1 settings made for x
  1 settings made for y
  1 settings made for z
Setting up cg style minimization ...
  Unit style    : metal
  Current step  : 28388
Per MPI rank memory allocation (min/avg/max) = 5.441 | 5.816 | 6.074 Mbytes
Step PotEng KinEng TotEng v_fx v_fy v_fz 
   28388   -1152449.4            0   -1152449.4  0.048721242  -0.01169256 -0.021803851 
   28534   -1152449.4            0   -1152449.4 -8.1775966e-06 2.4272839e-05 -2.3832969e-05 
Loop time of 1.70406 on 104 procs for 146 steps with 288751 atoms

99.9% CPU use with 104 MPI tasks x 1 OpenMP threads

Minimization stats:
  Stopping criterion = energy tolerance
  Energy initial, next-to-last, final = 
     -1152449.35275563  -1152449.35413104  -1152449.35413104
  Force two-norm initial, final = 0.16012548 0.00012387344
  Force max component initial, final = 0.069235628 2.4272839e-05
  Final line search alpha, max atom move = 1.0000000 2.4272839e-05
  Iterations, force evaluations = 146 292

MPI task timing breakdown:
Section |  min time  |  avg time  |  max time  |%varavg| %total
---------------------------------------------------------------
Pair    | 0.43939    | 1.2277     | 1.6007     |  29.9 | 72.04
Neigh   | 0          | 0          | 0          |   0.0 |  0.00
Comm    | 0.026198   | 0.2819     | 0.84094    |  43.8 | 16.54
Output  | 0          | 0          | 0          |   0.0 |  0.00
Modify  | 1.8135e-05 | 0.0024235  | 0.0051362  |   2.3 |  0.14
Other   |            | 0.1921     |            |       | 11.27

Nlocal:        2776.45 ave        3945 max           0 min
Histogram: 8 4 4 0 4 12 8 0 26 38
Nghost:        3878.68 ave        5427 max         232 min
Histogram: 8 0 8 0 16 0 8 8 16 40
Neighs:        79213.5 ave      115018 max           0 min
Histogram: 8 4 4 0 10 6 8 8 24 32

Total # of neighbors = 8238203
Ave neighs/atom = 28.530474
Neighbor list builds = 0
Dangerous builds = 0
The dot product: -1.28240657101299e-07
Setting atom values ...
  1 settings made for x
  1 settings made for y
  1 settings made for z
Setting up cg style minimization ...
  Unit style    : metal
  Current step  : 28534
Per MPI rank memory allocation (min/avg/max) = 5.441 | 5.816 | 6.074 Mbytes
Step PotEng KinEng TotEng v_fx v_fy v_fz 
   28534   -1152449.3            0   -1152449.3  0.048944541 -0.013358592 -0.020145372 
   28675   -1152449.3            0   -1152449.3 -3.7296556e-06 -1.7866593e-06 4.9867881e-06 
Loop time of 1.69564 on 104 procs for 141 steps with 288751 atoms

99.9% CPU use with 104 MPI tasks x 1 OpenMP threads

Minimization stats:
  Stopping criterion = energy tolerance
  Energy initial, next-to-last, final = 
     -1152449.34233389  -1152449.34372271  -1152449.34372271
  Force two-norm initial, final = 0.15854885 9.6411215e-05
  Force max component initial, final = 0.068555098 1.1716842e-05
  Final line search alpha, max atom move = 1.0000000 1.1716842e-05
  Iterations, force evaluations = 141 282

MPI task timing breakdown:
Section |  min time  |  avg time  |  max time  |%varavg| %total
---------------------------------------------------------------
Pair    | 0.44318    | 1.1999     | 1.5724     |  29.2 | 70.76
Neigh   | 0          | 0          | 0          |   0.0 |  0.00
Comm    | 0.0345     | 0.28346    | 0.82825    |  41.7 | 16.72
Output  | 0          | 0          | 0          |   0.0 |  0.00
Modify  | 1.7381e-05 | 0.0023404  | 0.0049536  |   2.3 |  0.14
Other   |            | 0.21       |            |       | 12.38

Nlocal:        2776.45 ave        3945 max           0 min
Histogram: 8 4 4 0 4 12 8 0 26 38
Nghost:        3878.68 ave        5427 max         232 min
Histogram: 8 0 8 0 16 0 8 8 16 40
Neighs:        79213.5 ave      115019 max           0 min
Histogram: 8 4 4 0 10 6 8 8 24 32

Total # of neighbors = 8238204
Ave neighs/atom = 28.530478
Neighbor list builds = 0
Dangerous builds = 0
The dot product: -2.21380769422672e-08
