LAMMPS (29 Oct 2020)
OMP_NUM_THREADS environment is not set. Defaulting to 1 thread. (../comm.cpp:94)
  using 1 OpenMP thread(s) per MPI task
########
#
########
variable                delta             equal     0.02 # the step size should be larger otherwise the number of
#the energy minimum sites is smaller
variable                iter_tot          equal     150

label                   loop
variable                seed              loop     310 319 #20 simulations
variable                iteration         loop      ${iter_tot} #The maximum ietration number per random direction
variable                iteration         loop      150 
clear
OMP_NUM_THREADS environment is not set. Defaulting to 1 thread. (../comm.cpp:94)
  using 1 OpenMP thread(s) per MPI task
units                   metal
atom_style              atomic
dimension                   3
boundary                p p p
atom_modify             map array sort 0 0.0

read_data               poslmp_carbon.dat
Reading data file ...
  orthogonal box = (-122.39241 -121.13707 -37.090501) to (122.39241 121.13707 37.090501)
  13 by 4 by 2 MPI processor grid
  reading atoms ...
  288751 atoms
  read_data CPU = 0.434 seconds

variable                zmax     equal    zhi
variable                zmin     equal    zlo

region                  inner   cylinder   z  1.16564  0.67298333  100.0  ${zmin}  ${zmax}  units  box
region                  inner   cylinder   z  1.16564  0.67298333  100.0  -37.0905005093422  ${zmax}  units  box
region                  inner   cylinder   z  1.16564  0.67298333  100.0  -37.0905005093422  37.0905005093422  units  box
group                   inner   region     inner
199981 atoms in group inner
group                   outer   subtract   all  inner
88770 atoms in group outer
group                   carbon  type       2
1 atoms in group carbon

pair_style              eam/alloy
pair_coeff              * * FeC-Becquart2013.eam.txt Fe C
neighbor                0.3 bin
neigh_modify            delay 0 check yes every 1

compute                 force     carbon   reduce  sum  fx fy fz
variable                fx    equal    c_force[1]
variable                fy    equal    c_force[2]
variable                fz    equal    c_force[3]

fix                     force    outer    setforce      0.0 0.0 0.0
thermo_style            custom   step     v_fx v_fy v_fz pe ke etotal
min_style               cg
minimize                1.0e-30 1.0e-30 10000 10000
Neighbor list info ...
  update every 1 steps, delay 0 steps, check yes
  max neighbors/atom: 2000, page size: 100000
  master list distance cutoff = 5.6
  ghost atom cutoff = 5.6
  binsize = 2.8, bins = 88 87 27
  1 neighbor lists, perpetual/occasional/extra = 1 0 0
  (1) pair eam/alloy, perpetual
      attributes: half, newton on
      pair build: half/bin/atomonly/newton
      stencil: half/bin/3d/newton
      bin: standard
Per MPI rank memory allocation (min/avg/max) = 5.441 | 5.816 | 6.074 Mbytes
Step v_fx v_fy v_fz PotEng KinEng TotEng 
       0    26.011324    15.449763    -51.17125   -1152433.1            0   -1152433.1 
     234 -2.3535746e-06 -3.5877935e-06 -1.2760012e-06   -1152449.5            0   -1152449.5 
Loop time of 2.76431 on 104 procs for 234 steps with 288751 atoms

99.8% CPU use with 104 MPI tasks x 1 OpenMP threads

Minimization stats:
  Stopping criterion = energy tolerance
  Energy initial, next-to-last, final = 
     -1152433.06534485  -1152449.45035262  -1152449.45035262
  Force two-norm initial, final = 88.991004 2.1299099e-05
  Force max component initial, final = 58.294153 3.5877935e-06
  Final line search alpha, max atom move = 1.0000000 3.5877935e-06
  Iterations, force evaluations = 234 459

MPI task timing breakdown:
Section |  min time  |  avg time  |  max time  |%varavg| %total
---------------------------------------------------------------
Pair    | 0.72303    | 1.9426     | 2.517      |  37.1 | 70.27
Neigh   | 5.2702e-05 | 0.014655   | 0.021588   |   5.0 |  0.53
Comm    | 0.053138   | 0.44521    | 1.2956     |  53.9 | 16.11
Output  | 0          | 0          | 0          |   0.0 |  0.00
Modify  | 2.7192e-05 | 0.0024881  | 0.0063786  |   3.1 |  0.09
Other   |            | 0.3594     |            |       | 13.00

Nlocal:        2776.45 ave        3960 max           0 min
Histogram: 8 4 4 0 4 12 8 2 28 34
Nghost:        3879.01 ave        5424 max         232 min
Histogram: 8 0 8 0 16 0 8 8 16 40
Neighs:        79213.5 ave      115432 max           0 min
Histogram: 8 4 4 0 10 6 8 8 24 32

Total # of neighbors = 8238207
Ave neighs/atom = 28.530488
Neighbor list builds = 5
Dangerous builds = 0
#write_data              minimize.dat
#quit

variable                fx_0  equal    ${fx}
variable                fx_0  equal    -2.35357455513618e-06
variable                fy_0  equal    ${fy}
variable                fy_0  equal    -3.58779348230698e-06
variable                fz_0  equal    ${fz}
variable                fz_0  equal    -1.27600123689398e-06

variable                i     equal    288751

variable                x0    equal    x[v_i]
variable                y0    equal    y[v_i]
variable                z0    equal    z[v_i]

variable                x     equal    x[v_i]+v_delta*random(-1.0,1.0,${seed})
variable                x     equal    x[v_i]+v_delta*random(-1.0,1.0,310)
variable                y     equal    y[v_i]+v_delta*random(-1.0,1.0,${seed})
variable                y     equal    y[v_i]+v_delta*random(-1.0,1.0,310)
variable                z     equal    z[v_i]+v_delta*random(-1.0,1.0,${seed})
variable                z     equal    z[v_i]+v_delta*random(-1.0,1.0,310)
variable                x_0    equal     ${x0}
variable                x_0    equal     2.91402219594961
variable                y_0    equal     ${y0}
variable                y_0    equal     1.02288036803822
variable                z_0    equal     ${z0}
variable                z_0    equal     -23.6635697914274
variable                x_1    equal     $x
variable                x_1    equal     2.90681340040212
variable                y_1    equal     $y
variable                y_1    equal     1.01364933471302
variable                z_1    equal     $z
variable                z_1    equal     -23.6606785489233

set                atom        $i    x  ${x_1}  y  ${y_1}  z  ${z_1}
set                atom        288751    x  ${x_1}  y  ${y_1}  z  ${z_1}
set                atom        288751    x  2.90681340040212  y  ${y_1}  z  ${z_1}
set                atom        288751    x  2.90681340040212  y  1.01364933471302  z  ${z_1}
set                atom        288751    x  2.90681340040212  y  1.01364933471302  z  -23.6606785489233
Setting atom values ...
  1 settings made for x
  1 settings made for y
  1 settings made for z
variable           vector_x          equal     ${x_1}-${x_0}
variable           vector_x          equal     2.90681340040212-${x_0}
variable           vector_x          equal     2.90681340040212-2.91402219594961
variable           vector_y          equal     ${y_1}-${y_0}
variable           vector_y          equal     1.01364933471302-${y_0}
variable           vector_y          equal     1.01364933471302-1.02288036803822
variable           vector_z          equal     ${z_1}-${z_0}
variable           vector_z          equal     -23.6606785489233-${z_0}
variable           vector_z          equal     -23.6606785489233--23.6635697914274

#dump               1     all   custom   1000   dump_minimize.atom.* id type x y z
#dump_modify        1     element  Fe C
thermo_style       custom   step  pe ke etotal v_fx v_fy v_fz
thermo             1000

fix                hold    carbon   planeforce   ${vector_x}  ${vector_y}  ${vector_z}
fix                hold    carbon   planeforce   -0.00720879554748999  ${vector_y}  ${vector_z}
fix                hold    carbon   planeforce   -0.00720879554748999  -0.00923103332519992  ${vector_z}
fix                hold    carbon   planeforce   -0.00720879554748999  -0.00923103332519992  0.00289124250409856
min_style          cg
minimize           1.0e-30 1.0e-30 10000 10000
Per MPI rank memory allocation (min/avg/max) = 5.441 | 5.816 | 6.074 Mbytes
Step PotEng KinEng TotEng v_fx v_fy v_fz 
     234   -1152449.4            0   -1152449.4 -0.000640123 0.0013175195 0.0026104868 
     368   -1152449.5            0   -1152449.5 1.0550673e-07 3.2599457e-06 1.0671275e-05 
Loop time of 1.60923 on 104 procs for 134 steps with 288751 atoms

99.9% CPU use with 104 MPI tasks x 1 OpenMP threads

Minimization stats:
  Stopping criterion = energy tolerance
  Energy initial, next-to-last, final = 
     -1152449.44942743  -1152449.45004198  -1152449.45004198
  Force two-norm initial, final = 0.11512173 0.00012809298
  Force max component initial, final = 0.053216844 1.0671275e-05
  Final line search alpha, max atom move = 1.0000000 1.0671275e-05
  Iterations, force evaluations = 134 268

MPI task timing breakdown:
Section |  min time  |  avg time  |  max time  |%varavg| %total
---------------------------------------------------------------
Pair    | 0.41347    | 1.1394     | 1.4857     |  28.8 | 70.80
Neigh   | 0          | 0          | 0          |   0.0 |  0.00
Comm    | 0.031236   | 0.26169    | 0.7692     |  41.4 | 16.26
Output  | 0          | 0          | 0          |   0.0 |  0.00
Modify  | 1.6722e-05 | 0.0022223  | 0.0047617  |   2.2 |  0.14
Other   |            | 0.2059     |            |       | 12.80

Nlocal:        2776.45 ave        3960 max           0 min
Histogram: 8 4 4 0 4 12 8 2 28 34
Nghost:        3879.01 ave        5425 max         232 min
Histogram: 8 0 8 0 16 0 8 8 16 40
Neighs:        79213.4 ave      115413 max           0 min
Histogram: 8 4 4 0 10 6 8 8 24 32

Total # of neighbors = 8238197
Ave neighs/atom = 28.530454
Neighbor list builds = 0
Dangerous builds = 0
unfix              hold

variable           new_x         equal     ${x0}-${x_0}
variable           new_x         equal     2.9071340534599-${x_0}
variable           new_x         equal     2.9071340534599-2.91402219594961
variable           new_y         equal     ${y0}-${y_0}
variable           new_y         equal     1.01328749698213-${y_0}
variable           new_y         equal     1.01328749698213-1.02288036803822
variable           new_z         equal     ${z0}-${z_0}
variable           new_z         equal     -23.6610343177028-${z_0}
variable           new_z         equal     -23.6610343177028--23.6635697914274

label iteration
variable           norm          equal     sqrt(${new_x}^2+${new_y}^2+${new_z}^2)
variable           norm          equal     sqrt(-0.00688814248970981^2+${new_y}^2+${new_z}^2)
variable           norm          equal     sqrt(-0.00688814248970981^2+-0.00959287105608997^2+${new_z}^2)
variable           norm          equal     sqrt(-0.00688814248970981^2+-0.00959287105608997^2+0.00253547372459906^2)
variable           unit_x        equal     ${new_x}/${norm}
variable           unit_x        equal     -0.00688814248970981/${norm}
variable           unit_x        equal     -0.00688814248970981/0.0120788372397945
variable           unit_y        equal     ${new_y}/${norm}
variable           unit_y        equal     -0.00959287105608997/${norm}
variable           unit_y        equal     -0.00959287105608997/0.0120788372397945
variable           unit_z        equal     ${new_z}/${norm}
variable           unit_z        equal     0.00253547372459906/${norm}
variable           unit_z        equal     0.00253547372459906/0.0120788372397945
variable           x_new         equal     ${x0}+${delta}*${unit_x}
variable           x_new         equal     2.9071340534599+${delta}*${unit_x}
variable           x_new         equal     2.9071340534599+0.02*${unit_x}
variable           x_new         equal     2.9071340534599+0.02*-0.570265361885694
variable           y_new         equal     ${y0}+${delta}*${unit_y}
variable           y_new         equal     1.01328749698213+${delta}*${unit_y}
variable           y_new         equal     1.01328749698213+0.02*${unit_y}
variable           y_new         equal     1.01328749698213+0.02*-0.794188286972329
variable           z_new         equal     ${z0}+${delta}*${unit_z}
variable           z_new         equal     -23.6610343177028+${delta}*${unit_z}
variable           z_new         equal     -23.6610343177028+0.02*${unit_z}
variable           z_new         equal     -23.6610343177028+0.02*0.2099104139135

set                atom          $i    x  ${x_new}  y  ${y_new}  z   ${z_new}
set                atom          288751    x  ${x_new}  y  ${y_new}  z   ${z_new}
set                atom          288751    x  2.89572874622219  y  ${y_new}  z   ${z_new}
set                atom          288751    x  2.89572874622219  y  0.997403731242683  z   ${z_new}
set                atom          288751    x  2.89572874622219  y  0.997403731242683  z   -23.6568361094245
Setting atom values ...
  1 settings made for x
  1 settings made for y
  1 settings made for z

fix                hold    carbon   planeforce   ${new_x}  ${new_y}  ${new_z}
fix                hold    carbon   planeforce   -0.00688814248970981  ${new_y}  ${new_z}
fix                hold    carbon   planeforce   -0.00688814248970981  -0.00959287105608997  ${new_z}
fix                hold    carbon   planeforce   -0.00688814248970981  -0.00959287105608997  0.00253547372459906
min_style          cg
minimize           1.0e-30 1.0e-30 10000 10000
Per MPI rank memory allocation (min/avg/max) = 5.441 | 5.816 | 6.074 Mbytes
Step PotEng KinEng TotEng v_fx v_fy v_fz 
     368   -1152449.4            0   -1152449.4 -0.0048931891 0.0043621202 0.0032105532 
     581   -1152449.4            0   -1152449.4 -7.2820188e-07 -6.3134585e-07 -4.3669858e-06 
Loop time of 2.50344 on 104 procs for 213 steps with 288751 atoms

99.9% CPU use with 104 MPI tasks x 1 OpenMP threads

Minimization stats:
  Stopping criterion = energy tolerance
  Energy initial, next-to-last, final = 
     -1152449.44646512  -1152449.44816113  -1152449.44816113
  Force two-norm initial, final = 0.1915602 3.2760975e-05
  Force max component initial, final = 0.088737058 4.3669858e-06
  Final line search alpha, max atom move = 1.0000000 4.3669858e-06
  Iterations, force evaluations = 213 426

MPI task timing breakdown:
Section |  min time  |  avg time  |  max time  |%varavg| %total
---------------------------------------------------------------
Pair    | 0.64962    | 1.7952     | 2.3304     |  36.2 | 71.71
Neigh   | 0          | 0          | 0          |   0.0 |  0.00
Comm    | 0.045334   | 0.40715    | 1.2009     |  52.7 | 16.26
Output  | 0          | 0          | 0          |   0.0 |  0.00
Modify  | 2.5854e-05 | 0.0035212  | 0.0074818  |   2.8 |  0.14
Other   |            | 0.2976     |            |       | 11.89

Nlocal:        2776.45 ave        3959 max           0 min
Histogram: 8 4 4 0 4 12 8 2 28 34
Nghost:        3879.01 ave        5424 max         232 min
Histogram: 8 0 8 0 16 0 8 8 16 40
Neighs:        79213.4 ave      115390 max           0 min
Histogram: 8 4 4 0 10 6 8 8 24 32

Total # of neighbors = 8238196
Ave neighs/atom = 28.530450
Neighbor list builds = 0
Dangerous builds = 0
unfix              hold

variable           new_x         delete
variable           new_y         delete
variable           new_z         delete
variable           dot           delete
variable           new_x         equal     ${x0}-${x_0}
variable           new_x         equal     2.89561017220721-${x_0}
variable           new_x         equal     2.89561017220721-2.91402219594961
variable           new_y         equal     ${y0}-${y_0}
variable           new_y         equal     0.997286341467824-${y_0}
variable           new_y         equal     0.997286341467824-1.02288036803822
variable           new_z         equal     ${z0}-${z_0}
variable           new_z         equal     -23.6576023803053-${z_0}
variable           new_z         equal     -23.6576023803053--23.6635697914274

variable           dot      equal     ${fx}*${new_x}+${fy}*${new_y}+${fz}*${new_z}
variable           dot      equal     -7.28201884651597e-07*${new_x}+${fy}*${new_y}+${fz}*${new_z}
variable           dot      equal     -7.28201884651597e-07*-0.0184120237424001+${fy}*${new_y}+${fz}*${new_z}
variable           dot      equal     -7.28201884651597e-07*-0.0184120237424001+-6.31345847277991e-07*${new_y}+${fz}*${new_z}
variable           dot      equal     -7.28201884651597e-07*-0.0184120237424001+-6.31345847277991e-07*-0.0255940265703959+${fz}*${new_z}
variable           dot      equal     -7.28201884651597e-07*-0.0184120237424001+-6.31345847277991e-07*-0.0255940265703959+-4.36698575892246e-06*${new_z}
variable           dot      equal     -7.28201884651597e-07*-0.0184120237424001+-6.31345847277991e-07*-0.0255940265703959+-4.36698575892246e-06*0.00596741112209997
print              "The dot product: ${dot}"
The dot product: 3.50675339196165e-09

if "(${dot} >= 0.0) && (${dot} < 1.0e-10)" then "jump TaR.in relaxation" elif "(${dot} < 0.0) && (${dot} > -1.0e-10)" "jump TaR.in relaxation" elif "(${iteration} == ${iter_tot}) && (${seed} < 319)" "print 'The iteration number is maximum!'" "next seed" "variable iteration delete" "jump TaR.in loop" elif "(${iteration} == ${iter_tot}) && (${seed} == 319)" "quit" else    "next iteration"    "jump TaR.in iteration"
next iteration
jump TaR.in iteration
variable           norm          equal     sqrt(${new_x}^2+${new_y}^2+${new_z}^2)
variable           norm          equal     sqrt(-0.0184120237424001^2+${new_y}^2+${new_z}^2)
variable           norm          equal     sqrt(-0.0184120237424001^2+-0.0255940265703959^2+${new_z}^2)
variable           norm          equal     sqrt(-0.0184120237424001^2+-0.0255940265703959^2+0.00596741112209997^2)
variable           unit_x        equal     ${new_x}/${norm}
variable           unit_x        equal     -0.0184120237424001/${norm}
variable           unit_x        equal     -0.0184120237424001/0.0320884217417591
variable           unit_y        equal     ${new_y}/${norm}
variable           unit_y        equal     -0.0255940265703959/${norm}
variable           unit_y        equal     -0.0255940265703959/0.0320884217417591
variable           unit_z        equal     ${new_z}/${norm}
variable           unit_z        equal     0.00596741112209997/${norm}
variable           unit_z        equal     0.00596741112209997/0.0320884217417591
variable           x_new         equal     ${x0}+${delta}*${unit_x}
variable           x_new         equal     2.89561017220721+${delta}*${unit_x}
variable           x_new         equal     2.89561017220721+0.02*${unit_x}
variable           x_new         equal     2.89561017220721+0.02*-0.57379025651608
variable           y_new         equal     ${y0}+${delta}*${unit_y}
variable           y_new         equal     0.997286341467824+${delta}*${unit_y}
variable           y_new         equal     0.997286341467824+0.02*${unit_y}
variable           y_new         equal     0.997286341467824+0.02*-0.797609392458478
variable           z_new         equal     ${z0}+${delta}*${unit_z}
variable           z_new         equal     -23.6576023803053+${delta}*${unit_z}
variable           z_new         equal     -23.6576023803053+0.02*${unit_z}
variable           z_new         equal     -23.6576023803053+0.02*0.185967735344681

set                atom          $i    x  ${x_new}  y  ${y_new}  z   ${z_new}
set                atom          288751    x  ${x_new}  y  ${y_new}  z   ${z_new}
set                atom          288751    x  2.88413436707689  y  ${y_new}  z   ${z_new}
set                atom          288751    x  2.88413436707689  y  0.981334153618655  z   ${z_new}
set                atom          288751    x  2.88413436707689  y  0.981334153618655  z   -23.6538830255984
Setting atom values ...
  1 settings made for x
  1 settings made for y
  1 settings made for z

fix                hold    carbon   planeforce   ${new_x}  ${new_y}  ${new_z}
fix                hold    carbon   planeforce   -0.0184120237424001  ${new_y}  ${new_z}
fix                hold    carbon   planeforce   -0.0184120237424001  -0.0255940265703959  ${new_z}
fix                hold    carbon   planeforce   -0.0184120237424001  -0.0255940265703959  0.00596741112209997
min_style          cg
minimize           1.0e-30 1.0e-30 10000 10000
Per MPI rank memory allocation (min/avg/max) = 5.441 | 5.816 | 6.074 Mbytes
Step PotEng KinEng TotEng v_fx v_fy v_fz 
     581   -1152449.4            0   -1152449.4 -0.011912708 0.0087488852 0.00076786024 
     755   -1152449.4            0   -1152449.4 2.1904689e-06 2.2232275e-06 1.6293885e-05 
Loop time of 2.04807 on 104 procs for 174 steps with 288751 atoms

99.9% CPU use with 104 MPI tasks x 1 OpenMP threads

Minimization stats:
  Stopping criterion = energy tolerance
  Energy initial, next-to-last, final = 
     -1152449.44295241  -1152449.44465856  -1152449.44465856
  Force two-norm initial, final = 0.19226352 0.00010233087
  Force max component initial, final = 0.088487035 1.6293885e-05
  Final line search alpha, max atom move = 1.0000000 1.6293885e-05
  Iterations, force evaluations = 174 348

MPI task timing breakdown:
Section |  min time  |  avg time  |  max time  |%varavg| %total
---------------------------------------------------------------
Pair    | 0.53368    | 1.4721     | 1.9066     |  32.6 | 71.88
Neigh   | 0          | 0          | 0          |   0.0 |  0.00
Comm    | 0.037673   | 0.33484    | 1.0093     |  48.1 | 16.35
Output  | 0          | 0          | 0          |   0.0 |  0.00
Modify  | 2.1517e-05 | 0.0028843  | 0.006194   |   2.5 |  0.14
Other   |            | 0.2383     |            |       | 11.63

Nlocal:        2776.45 ave        3959 max           0 min
Histogram: 8 4 4 0 4 12 8 2 28 34
Nghost:        3879.01 ave        5424 max         232 min
Histogram: 8 0 8 0 16 0 8 8 16 40
Neighs:        79213.4 ave      115390 max           0 min
Histogram: 8 4 4 0 10 6 8 8 24 32

Total # of neighbors = 8238197
Ave neighs/atom = 28.530454
Neighbor list builds = 0
Dangerous builds = 0
unfix              hold

variable           new_x         delete
variable           new_y         delete
variable           new_z         delete
variable           dot           delete
variable           new_x         equal     ${x0}-${x_0}
variable           new_x         equal     2.88239521012304-${x_0}
variable           new_x         equal     2.88239521012304-2.91402219594961
variable           new_y         equal     ${y0}-${y_0}
variable           new_y         equal     0.982318752757879-${y_0}
variable           new_y         equal     0.982318752757879-1.02288036803822
variable           new_z         equal     ${z0}-${z_0}
variable           new_z         equal     -23.6550261582662-${z_0}
variable           new_z         equal     -23.6550261582662--23.6635697914274

variable           dot      equal     ${fx}*${new_x}+${fy}*${new_y}+${fz}*${new_z}
variable           dot      equal     2.19046886585235e-06*${new_x}+${fy}*${new_y}+${fz}*${new_z}
variable           dot      equal     2.19046886585235e-06*-0.0316269858265699+${fy}*${new_y}+${fz}*${new_z}
variable           dot      equal     2.19046886585235e-06*-0.0316269858265699+2.22322754350071e-06*${new_y}+${fz}*${new_z}
variable           dot      equal     2.19046886585235e-06*-0.0316269858265699+2.22322754350071e-06*-0.0405616152803409+${fz}*${new_z}
variable           dot      equal     2.19046886585235e-06*-0.0316269858265699+2.22322754350071e-06*-0.0405616152803409+1.62938848345993e-05*${new_z}
variable           dot      equal     2.19046886585235e-06*-0.0316269858265699+2.22322754350071e-06*-0.0405616152803409+1.62938848345993e-05*0.00854363316119944
print              "The dot product: ${dot}"
The dot product: -2.02466532763408e-08

if "(${dot} >= 0.0) && (${dot} < 1.0e-10)" then "jump TaR.in relaxation" elif "(${dot} < 0.0) && (${dot} > -1.0e-10)" "jump TaR.in relaxation" elif "(${iteration} == ${iter_tot}) && (${seed} < 319)" "print 'The iteration number is maximum!'" "next seed" "variable iteration delete" "jump TaR.in loop" elif "(${iteration} == ${iter_tot}) && (${seed} == 319)" "quit" else    "next iteration"    "jump TaR.in iteration"
next iteration
jump TaR.in iteration
variable           norm          equal     sqrt(${new_x}^2+${new_y}^2+${new_z}^2)
variable           norm          equal     sqrt(-0.0316269858265699^2+${new_y}^2+${new_z}^2)
variable           norm          equal     sqrt(-0.0316269858265699^2+-0.0405616152803409^2+${new_z}^2)
variable           norm          equal     sqrt(-0.0316269858265699^2+-0.0405616152803409^2+0.00854363316119944^2)
variable           unit_x        equal     ${new_x}/${norm}
variable           unit_x        equal     -0.0316269858265699/${norm}
variable           unit_x        equal     -0.0316269858265699/0.0521392801467146
variable           unit_y        equal     ${new_y}/${norm}
variable           unit_y        equal     -0.0405616152803409/${norm}
variable           unit_y        equal     -0.0405616152803409/0.0521392801467146
variable           unit_z        equal     ${new_z}/${norm}
variable           unit_z        equal     0.00854363316119944/${norm}
variable           unit_z        equal     0.00854363316119944/0.0521392801467146
variable           x_new         equal     ${x0}+${delta}*${unit_x}
variable           x_new         equal     2.88239521012304+${delta}*${unit_x}
variable           x_new         equal     2.88239521012304+0.02*${unit_x}
variable           x_new         equal     2.88239521012304+0.02*-0.606586545452388
variable           y_new         equal     ${y0}+${delta}*${unit_y}
variable           y_new         equal     0.982318752757879+${delta}*${unit_y}
variable           y_new         equal     0.982318752757879+0.02*${unit_y}
variable           y_new         equal     0.982318752757879+0.02*-0.777947358809033
variable           z_new         equal     ${z0}+${delta}*${unit_z}
variable           z_new         equal     -23.6550261582662+${delta}*${unit_z}
variable           z_new         equal     -23.6550261582662+0.02*${unit_z}
variable           z_new         equal     -23.6550261582662+0.02*0.163861739885141

set                atom          $i    x  ${x_new}  y  ${y_new}  z   ${z_new}
set                atom          288751    x  ${x_new}  y  ${y_new}  z   ${z_new}
set                atom          288751    x  2.87026347921399  y  ${y_new}  z   ${z_new}
set                atom          288751    x  2.87026347921399  y  0.966759805581698  z   ${z_new}
set                atom          288751    x  2.87026347921399  y  0.966759805581698  z   -23.6517489234685
Setting atom values ...
  1 settings made for x
  1 settings made for y
  1 settings made for z

fix                hold    carbon   planeforce   ${new_x}  ${new_y}  ${new_z}
fix                hold    carbon   planeforce   -0.0316269858265699  ${new_y}  ${new_z}
fix                hold    carbon   planeforce   -0.0316269858265699  -0.0405616152803409  ${new_z}
fix                hold    carbon   planeforce   -0.0316269858265699  -0.0405616152803409  0.00854363316119944
min_style          cg
minimize           1.0e-30 1.0e-30 10000 10000
Per MPI rank memory allocation (min/avg/max) = 5.441 | 5.816 | 6.074 Mbytes
Step PotEng KinEng TotEng v_fx v_fy v_fz 
     755   -1152449.4            0   -1152449.4  -0.01755234  0.013651434 -0.0001642627 
     870   -1152449.4            0   -1152449.4 -5.1121096e-06 -5.4934218e-06 -4.5004587e-05 
Loop time of 1.36234 on 104 procs for 115 steps with 288751 atoms

99.9% CPU use with 104 MPI tasks x 1 OpenMP threads

Minimization stats:
  Stopping criterion = energy tolerance
  Energy initial, next-to-last, final = 
      -1152449.4380524  -1152449.43977392  -1152449.43977392
  Force two-norm initial, final = 0.19280193 0.00016535032
  Force max component initial, final = 0.08759651 4.5004587e-05
  Final line search alpha, max atom move = 1.0000000 4.5004587e-05
  Iterations, force evaluations = 115 230

MPI task timing breakdown:
Section |  min time  |  avg time  |  max time  |%varavg| %total
---------------------------------------------------------------
Pair    | 0.35041    | 0.96924    | 1.2558     |  26.6 | 71.15
Neigh   | 0          | 0          | 0          |   0.0 |  0.00
Comm    | 0.022163   | 0.22119    | 0.64563    |  38.3 | 16.24
Output  | 0          | 0          | 0          |   0.0 |  0.00
Modify  | 1.4026e-05 | 0.0019079  | 0.0040663  |   2.0 |  0.14
Other   |            | 0.17       |            |       | 12.48

Nlocal:        2776.45 ave        3958 max           0 min
Histogram: 8 4 4 0 4 12 8 2 28 34
Nghost:        3879.01 ave        5424 max         232 min
Histogram: 8 0 8 0 16 0 8 8 16 40
Neighs:        79213.4 ave      115362 max           0 min
Histogram: 8 4 4 0 10 6 8 8 24 32

Total # of neighbors = 8238196
Ave neighs/atom = 28.530450
Neighbor list builds = 0
Dangerous builds = 0
unfix              hold

variable           new_x         delete
variable           new_y         delete
variable           new_z         delete
variable           dot           delete
variable           new_x         equal     ${x0}-${x_0}
variable           new_x         equal     2.8672961754326-${x_0}
variable           new_x         equal     2.8672961754326-2.91402219594961
variable           new_y         equal     ${y0}-${y_0}
variable           new_y         equal     0.968817732039421-${y_0}
variable           new_y         equal     0.968817732039421-1.02288036803822
variable           new_z         equal     ${z0}-${z_0}
variable           new_z         equal     -23.6529631672437-${z_0}
variable           new_z         equal     -23.6529631672437--23.6635697914274

variable           dot      equal     ${fx}*${new_x}+${fy}*${new_y}+${fz}*${new_z}
variable           dot      equal     -5.11210959561275e-06*${new_x}+${fy}*${new_y}+${fz}*${new_z}
variable           dot      equal     -5.11210959561275e-06*-0.0467260205170099+${fy}*${new_y}+${fz}*${new_z}
variable           dot      equal     -5.11210959561275e-06*-0.0467260205170099+-5.49342181930168e-06*${new_y}+${fz}*${new_z}
variable           dot      equal     -5.11210959561275e-06*-0.0467260205170099+-5.49342181930168e-06*-0.0540626359987989+${fz}*${new_z}
variable           dot      equal     -5.11210959561275e-06*-0.0467260205170099+-5.49342181930168e-06*-0.0540626359987989+-4.50045867930433e-05*${new_z}
variable           dot      equal     -5.11210959561275e-06*-0.0467260205170099+-5.49342181930168e-06*-0.0540626359987989+-4.50045867930433e-05*0.0106066241836977
print              "The dot product: ${dot}"
The dot product: 5.85106633981558e-08

if "(${dot} >= 0.0) && (${dot} < 1.0e-10)" then "jump TaR.in relaxation" elif "(${dot} < 0.0) && (${dot} > -1.0e-10)" "jump TaR.in relaxation" elif "(${iteration} == ${iter_tot}) && (${seed} < 319)" "print 'The iteration number is maximum!'" "next seed" "variable iteration delete" "jump TaR.in loop" elif "(${iteration} == ${iter_tot}) && (${seed} == 319)" "quit" else    "next iteration"    "jump TaR.in iteration"
next iteration
jump TaR.in iteration
variable           norm          equal     sqrt(${new_x}^2+${new_y}^2+${new_z}^2)
variable           norm          equal     sqrt(-0.0467260205170099^2+${new_y}^2+${new_z}^2)
variable           norm          equal     sqrt(-0.0467260205170099^2+-0.0540626359987989^2+${new_z}^2)
variable           norm          equal     sqrt(-0.0467260205170099^2+-0.0540626359987989^2+0.0106066241836977^2)
variable           unit_x        equal     ${new_x}/${norm}
variable           unit_x        equal     -0.0467260205170099/${norm}
variable           unit_x        equal     -0.0467260205170099/0.0722398095309564
variable           unit_y        equal     ${new_y}/${norm}
variable           unit_y        equal     -0.0540626359987989/${norm}
variable           unit_y        equal     -0.0540626359987989/0.0722398095309564
variable           unit_z        equal     ${new_z}/${norm}
variable           unit_z        equal     0.0106066241836977/${norm}
variable           unit_z        equal     0.0106066241836977/0.0722398095309564
variable           x_new         equal     ${x0}+${delta}*${unit_x}
variable           x_new         equal     2.8672961754326+${delta}*${unit_x}
variable           x_new         equal     2.8672961754326+0.02*${unit_x}
variable           x_new         equal     2.8672961754326+0.02*-0.646818157749803
variable           y_new         equal     ${y0}+${delta}*${unit_y}
variable           y_new         equal     0.968817732039421+${delta}*${unit_y}
variable           y_new         equal     0.968817732039421+0.02*${unit_y}
variable           y_new         equal     0.968817732039421+0.02*-0.748377333077433
variable           z_new         equal     ${z0}+${delta}*${unit_z}
variable           z_new         equal     -23.6529631672437+${delta}*${unit_z}
variable           z_new         equal     -23.6529631672437+0.02*${unit_z}
variable           z_new         equal     -23.6529631672437+0.02*0.146825195865896

set                atom          $i    x  ${x_new}  y  ${y_new}  z   ${z_new}
set                atom          288751    x  ${x_new}  y  ${y_new}  z   ${z_new}
set                atom          288751    x  2.8543598122776  y  ${y_new}  z   ${z_new}
set                atom          288751    x  2.8543598122776  y  0.953850185377872  z   ${z_new}
set                atom          288751    x  2.8543598122776  y  0.953850185377872  z   -23.6500266633264
Setting atom values ...
  1 settings made for x
  1 settings made for y
  1 settings made for z

fix                hold    carbon   planeforce   ${new_x}  ${new_y}  ${new_z}
fix                hold    carbon   planeforce   -0.0467260205170099  ${new_y}  ${new_z}
fix                hold    carbon   planeforce   -0.0467260205170099  -0.0540626359987989  ${new_z}
fix                hold    carbon   planeforce   -0.0467260205170099  -0.0540626359987989  0.0106066241836977
min_style          cg
minimize           1.0e-30 1.0e-30 10000 10000
Per MPI rank memory allocation (min/avg/max) = 5.441 | 5.816 | 6.074 Mbytes
Step PotEng KinEng TotEng v_fx v_fy v_fz 
     870   -1152449.4            0   -1152449.4 -0.018154164   0.01602937 0.0017270489 
     988   -1152449.4            0   -1152449.4 2.9907276e-06 6.8682606e-06 4.8183198e-05 
Loop time of 1.38061 on 104 procs for 118 steps with 288751 atoms

99.9% CPU use with 104 MPI tasks x 1 OpenMP threads

Minimization stats:
  Stopping criterion = energy tolerance
  Energy initial, next-to-last, final = 
      -1152449.4318956  -1152449.43361223  -1152449.43361223
  Force two-norm initial, final = 0.1921816 0.00014752277
  Force max component initial, final = 0.08647934 4.8183198e-05
  Final line search alpha, max atom move = 1.0000000 4.8183198e-05
  Iterations, force evaluations = 118 236

MPI task timing breakdown:
Section |  min time  |  avg time  |  max time  |%varavg| %total
---------------------------------------------------------------
Pair    | 0.35916    | 0.99675    | 1.2968     |  26.9 | 72.20
Neigh   | 0          | 0          | 0          |   0.0 |  0.00
Comm    | 0.023116   | 0.22478    | 0.67115    |  39.7 | 16.28
Output  | 0          | 0          | 0          |   0.0 |  0.00
Modify  | 1.422e-05  | 0.0019532  | 0.0041981  |   2.1 |  0.14
Other   |            | 0.1571     |            |       | 11.38

Nlocal:        2776.45 ave        3958 max           0 min
Histogram: 8 4 4 0 4 12 8 2 28 34
Nghost:        3879.01 ave        5424 max         232 min
Histogram: 8 0 8 0 16 0 8 8 16 40
Neighs:        79213.4 ave      115362 max           0 min
Histogram: 8 4 4 0 10 6 8 8 24 32

Total # of neighbors = 8238198
Ave neighs/atom = 28.530457
Neighbor list builds = 0
Dangerous builds = 0
unfix              hold

variable           new_x         delete
variable           new_y         delete
variable           new_z         delete
variable           dot           delete
variable           new_x         equal     ${x0}-${x_0}
variable           new_x         equal     2.85172000077612-${x_0}
variable           new_x         equal     2.85172000077612-2.91402219594961
variable           new_y         equal     ${y0}-${y_0}
variable           new_y         equal     0.955973336713688-${y_0}
variable           new_y         equal     0.955973336713688-1.02288036803822
variable           new_z         equal     ${z0}-${z_0}
variable           new_z         equal     -23.6508341519667-${z_0}
variable           new_z         equal     -23.6508341519667--23.6635697914274

variable           dot      equal     ${fx}*${new_x}+${fy}*${new_y}+${fz}*${new_z}
variable           dot      equal     2.99072756059352e-06*${new_x}+${fy}*${new_y}+${fz}*${new_z}
variable           dot      equal     2.99072756059352e-06*-0.0623021951734901+${fy}*${new_y}+${fz}*${new_z}
variable           dot      equal     2.99072756059352e-06*-0.0623021951734901+6.86826060034838e-06*${new_y}+${fz}*${new_z}
variable           dot      equal     2.99072756059352e-06*-0.0623021951734901+6.86826060034838e-06*-0.0669070313245319+${fz}*${new_z}
variable           dot      equal     2.99072756059352e-06*-0.0623021951734901+6.86826060034838e-06*-0.0669070313245319+4.81831977156368e-05*${new_z}
variable           dot      equal     2.99072756059352e-06*-0.0623021951734901+6.86826060034838e-06*-0.0669070313245319+4.81831977156368e-05*0.0127356394607006
print              "The dot product: ${dot}"
The dot product: -3.22199851533877e-08

if "(${dot} >= 0.0) && (${dot} < 1.0e-10)" then "jump TaR.in relaxation" elif "(${dot} < 0.0) && (${dot} > -1.0e-10)" "jump TaR.in relaxation" elif "(${iteration} == ${iter_tot}) && (${seed} < 319)" "print 'The iteration number is maximum!'" "next seed" "variable iteration delete" "jump TaR.in loop" elif "(${iteration} == ${iter_tot}) && (${seed} == 319)" "quit" else    "next iteration"    "jump TaR.in iteration"
next iteration
jump TaR.in iteration
variable           norm          equal     sqrt(${new_x}^2+${new_y}^2+${new_z}^2)
variable           norm          equal     sqrt(-0.0623021951734901^2+${new_y}^2+${new_z}^2)
variable           norm          equal     sqrt(-0.0623021951734901^2+-0.0669070313245319^2+${new_z}^2)
variable           norm          equal     sqrt(-0.0623021951734901^2+-0.0669070313245319^2+0.0127356394607006^2)
variable           unit_x        equal     ${new_x}/${norm}
variable           unit_x        equal     -0.0623021951734901/${norm}
variable           unit_x        equal     -0.0623021951734901/0.092305530043278
variable           unit_y        equal     ${new_y}/${norm}
variable           unit_y        equal     -0.0669070313245319/${norm}
variable           unit_y        equal     -0.0669070313245319/0.092305530043278
variable           unit_z        equal     ${new_z}/${norm}
variable           unit_z        equal     0.0127356394607006/${norm}
variable           unit_z        equal     0.0127356394607006/0.092305530043278
variable           x_new         equal     ${x0}+${delta}*${unit_x}
variable           x_new         equal     2.85172000077612+${delta}*${unit_x}
variable           x_new         equal     2.85172000077612+0.02*${unit_x}
variable           x_new         equal     2.85172000077612+0.02*-0.674956258246709
variable           y_new         equal     ${y0}+${delta}*${unit_y}
variable           y_new         equal     0.955973336713688+${delta}*${unit_y}
variable           y_new         equal     0.955973336713688+0.02*${unit_y}
variable           y_new         equal     0.955973336713688+0.02*-0.724843151793421
variable           z_new         equal     ${z0}+${delta}*${unit_z}
variable           z_new         equal     -23.6508341519667+${delta}*${unit_z}
variable           z_new         equal     -23.6508341519667+0.02*${unit_z}
variable           z_new         equal     -23.6508341519667+0.02*0.137972659435783

set                atom          $i    x  ${x_new}  y  ${y_new}  z   ${z_new}
set                atom          288751    x  ${x_new}  y  ${y_new}  z   ${z_new}
set                atom          288751    x  2.83822087561119  y  ${y_new}  z   ${z_new}
set                atom          288751    x  2.83822087561119  y  0.94147647367782  z   ${z_new}
set                atom          288751    x  2.83822087561119  y  0.94147647367782  z   -23.648074698778
Setting atom values ...
  1 settings made for x
  1 settings made for y
  1 settings made for z

fix                hold    carbon   planeforce   ${new_x}  ${new_y}  ${new_z}
fix                hold    carbon   planeforce   -0.0623021951734901  ${new_y}  ${new_z}
fix                hold    carbon   planeforce   -0.0623021951734901  -0.0669070313245319  ${new_z}
fix                hold    carbon   planeforce   -0.0623021951734901  -0.0669070313245319  0.0127356394607006
min_style          cg
minimize           1.0e-30 1.0e-30 10000 10000
Per MPI rank memory allocation (min/avg/max) = 5.441 | 5.816 | 6.074 Mbytes
Step PotEng KinEng TotEng v_fx v_fy v_fz 
     988   -1152449.4            0   -1152449.4 -0.015958346  0.015762984 0.0047437332 
    1000   -1152449.4            0   -1152449.4 0.00012620698 -3.8218261e-05 0.00041661839 
    1096   -1152449.4            0   -1152449.4 2.2670805e-06 1.8000148e-06 2.0546886e-05 
Loop time of 1.26803 on 104 procs for 108 steps with 288751 atoms

99.9% CPU use with 104 MPI tasks x 1 OpenMP threads

Minimization stats:
  Stopping criterion = energy tolerance
  Energy initial, next-to-last, final = 
     -1152449.42448874  -1152449.42618247  -1152449.42618247
  Force two-norm initial, final = 0.19084377 0.00020068673
  Force max component initial, final = 0.085856832 2.0546886e-05
  Final line search alpha, max atom move = 1.0000000 2.0546886e-05
  Iterations, force evaluations = 108 216

MPI task timing breakdown:
Section |  min time  |  avg time  |  max time  |%varavg| %total
---------------------------------------------------------------
Pair    | 0.33236    | 0.90978    | 1.1798     |  25.7 | 71.75
Neigh   | 0          | 0          | 0          |   0.0 |  0.00
Comm    | 0.02435    | 0.20509    | 0.6086     |  37.7 | 16.17
Output  | 0.0002295  | 0.00024087 | 0.00031287 |   0.0 |  0.02
Modify  | 1.3188e-05 | 0.0017912  | 0.0038309  |   2.0 |  0.14
Other   |            | 0.1511     |            |       | 11.92

Nlocal:        2776.45 ave        3956 max           0 min
Histogram: 8 4 4 0 4 12 8 0 30 34
Nghost:        3879.01 ave        5424 max         232 min
Histogram: 8 0 8 0 16 0 8 8 16 40
Neighs:        79213.4 ave      115302 max           0 min
Histogram: 8 4 4 0 10 6 8 8 24 32

Total # of neighbors = 8238198
Ave neighs/atom = 28.530457
Neighbor list builds = 0
Dangerous builds = 0
unfix              hold

variable           new_x         delete
variable           new_y         delete
variable           new_z         delete
variable           dot           delete
variable           new_x         equal     ${x0}-${x_0}
variable           new_x         equal     2.83650848691329-${x_0}
variable           new_x         equal     2.83650848691329-2.91402219594961
variable           new_y         equal     ${y0}-${y_0}
variable           new_y         equal     0.94304295982056-${y_0}
variable           new_y         equal     0.94304295982056-1.02288036803822
variable           new_z         equal     ${z0}-${z_0}
variable           new_z         equal     -23.6482220519952-${z_0}
variable           new_z         equal     -23.6482220519952--23.6635697914274

variable           dot      equal     ${fx}*${new_x}+${fy}*${new_y}+${fz}*${new_z}
variable           dot      equal     2.26708047409527e-06*${new_x}+${fy}*${new_y}+${fz}*${new_z}
variable           dot      equal     2.26708047409527e-06*-0.07751370903632+${fy}*${new_y}+${fz}*${new_z}
variable           dot      equal     2.26708047409527e-06*-0.07751370903632+1.80001479662934e-06*${new_y}+${fz}*${new_z}
variable           dot      equal     2.26708047409527e-06*-0.07751370903632+1.80001479662934e-06*-0.0798374082176599+${fz}*${new_z}
variable           dot      equal     2.26708047409527e-06*-0.07751370903632+1.80001479662934e-06*-0.0798374082176599+2.0546886346816e-05*${new_z}
variable           dot      equal     2.26708047409527e-06*-0.07751370903632+1.80001479662934e-06*-0.0798374082176599+2.0546886346816e-05*0.0153477394321975
print              "The dot product: ${dot}"
The dot product: -4.09007455335946e-09

if "(${dot} >= 0.0) && (${dot} < 1.0e-10)" then "jump TaR.in relaxation" elif "(${dot} < 0.0) && (${dot} > -1.0e-10)" "jump TaR.in relaxation" elif "(${iteration} == ${iter_tot}) && (${seed} < 319)" "print 'The iteration number is maximum!'" "next seed" "variable iteration delete" "jump TaR.in loop" elif "(${iteration} == ${iter_tot}) && (${seed} == 319)" "quit" else    "next iteration"    "jump TaR.in iteration"
next iteration
jump TaR.in iteration
variable           norm          equal     sqrt(${new_x}^2+${new_y}^2+${new_z}^2)
variable           norm          equal     sqrt(-0.07751370903632^2+${new_y}^2+${new_z}^2)
variable           norm          equal     sqrt(-0.07751370903632^2+-0.0798374082176599^2+${new_z}^2)
variable           norm          equal     sqrt(-0.07751370903632^2+-0.0798374082176599^2+0.0153477394321975^2)
variable           unit_x        equal     ${new_x}/${norm}
variable           unit_x        equal     -0.07751370903632/${norm}
variable           unit_x        equal     -0.07751370903632/0.112329604046125
variable           unit_y        equal     ${new_y}/${norm}
variable           unit_y        equal     -0.0798374082176599/${norm}
variable           unit_y        equal     -0.0798374082176599/0.112329604046125
variable           unit_z        equal     ${new_z}/${norm}
variable           unit_z        equal     0.0153477394321975/${norm}
variable           unit_z        equal     0.0153477394321975/0.112329604046125
variable           x_new         equal     ${x0}+${delta}*${unit_x}
variable           x_new         equal     2.83650848691329+${delta}*${unit_x}
variable           x_new         equal     2.83650848691329+0.02*${unit_x}
variable           x_new         equal     2.83650848691329+0.02*-0.69005592688185
variable           y_new         equal     ${y0}+${delta}*${unit_y}
variable           y_new         equal     0.94304295982056+${delta}*${unit_y}
variable           y_new         equal     0.94304295982056+0.02*${unit_y}
variable           y_new         equal     0.94304295982056+0.02*-0.710742363027265
variable           z_new         equal     ${z0}+${delta}*${unit_z}
variable           z_new         equal     -23.6482220519952+${delta}*${unit_z}
variable           z_new         equal     -23.6482220519952+0.02*${unit_z}
variable           z_new         equal     -23.6482220519952+0.02*0.13663129646478

set                atom          $i    x  ${x_new}  y  ${y_new}  z   ${z_new}
set                atom          288751    x  ${x_new}  y  ${y_new}  z   ${z_new}
set                atom          288751    x  2.82270736837565  y  ${y_new}  z   ${z_new}
set                atom          288751    x  2.82270736837565  y  0.928828112560015  z   ${z_new}
set                atom          288751    x  2.82270736837565  y  0.928828112560015  z   -23.6454894260659
Setting atom values ...
  1 settings made for x
  1 settings made for y
  1 settings made for z

fix                hold    carbon   planeforce   ${new_x}  ${new_y}  ${new_z}
fix                hold    carbon   planeforce   -0.07751370903632  ${new_y}  ${new_z}
fix                hold    carbon   planeforce   -0.07751370903632  -0.0798374082176599  ${new_z}
fix                hold    carbon   planeforce   -0.07751370903632  -0.0798374082176599  0.0153477394321975
min_style          cg
minimize           1.0e-30 1.0e-30 10000 10000
Per MPI rank memory allocation (min/avg/max) = 5.441 | 5.816 | 6.074 Mbytes
Step PotEng KinEng TotEng v_fx v_fy v_fz 
    1096   -1152449.4            0   -1152449.4 -0.012808446  0.013898285 0.0076084757 
    1276   -1152449.4            0   -1152449.4 1.3391379e-06 4.8926064e-07 9.3083965e-06 
Loop time of 2.11452 on 104 procs for 180 steps with 288751 atoms

99.9% CPU use with 104 MPI tasks x 1 OpenMP threads

Minimization stats:
  Stopping criterion = energy tolerance
  Energy initial, next-to-last, final = 
     -1152449.41577573  -1152449.41744856  -1152449.41744856
  Force two-norm initial, final = 0.18932204 7.7588649e-05
  Force max component initial, final = 0.086055254 1.2952287e-05
  Final line search alpha, max atom move = 1.0000000 1.2952287e-05
  Iterations, force evaluations = 180 360

MPI task timing breakdown:
Section |  min time  |  avg time  |  max time  |%varavg| %total
---------------------------------------------------------------
Pair    | 0.54903    | 1.5194     | 1.9831     |  33.2 | 71.86
Neigh   | 0          | 0          | 0          |   0.0 |  0.00
Comm    | 0.034569   | 0.34397    | 1.0174     |  48.6 | 16.27
Output  | 0          | 0          | 0          |   0.0 |  0.00
Modify  | 2.2187e-05 | 0.0029722  | 0.0063905  |   2.6 |  0.14
Other   |            | 0.2482     |            |       | 11.74

Nlocal:        2776.45 ave        3955 max           0 min
Histogram: 8 4 4 0 4 12 8 1 29 34
Nghost:        3879.01 ave        5424 max         232 min
Histogram: 8 0 8 0 16 0 8 8 16 40
Neighs:        79213.5 ave      115269 max           0 min
Histogram: 8 4 4 0 10 6 8 8 24 32

Total # of neighbors = 8238202
Ave neighs/atom = 28.530471
Neighbor list builds = 0
Dangerous builds = 0
unfix              hold

variable           new_x         delete
variable           new_y         delete
variable           new_z         delete
variable           dot           delete
variable           new_x         equal     ${x0}-${x_0}
variable           new_x         equal     2.8219679471782-${x_0}
variable           new_x         equal     2.8219679471782-2.91402219594961
variable           new_y         equal     ${y0}-${y_0}
variable           new_y         equal     0.929666631771831-${y_0}
variable           new_y         equal     0.929666631771831-1.02288036803822
variable           new_z         equal     ${z0}-${z_0}
variable           new_z         equal     -23.6448619772418-${z_0}
variable           new_z         equal     -23.6448619772418--23.6635697914274

variable           dot      equal     ${fx}*${new_x}+${fy}*${new_y}+${fz}*${new_z}
variable           dot      equal     1.33913786563332e-06*${new_x}+${fy}*${new_y}+${fz}*${new_z}
variable           dot      equal     1.33913786563332e-06*-0.0920542487714098+${fy}*${new_y}+${fz}*${new_z}
variable           dot      equal     1.33913786563332e-06*-0.0920542487714098+4.89260639958752e-07*${new_y}+${fz}*${new_z}
variable           dot      equal     1.33913786563332e-06*-0.0920542487714098+4.89260639958752e-07*-0.093213736266389+${fz}*${new_z}
variable           dot      equal     1.33913786563332e-06*-0.0920542487714098+4.89260639958752e-07*-0.093213736266389+9.30839651986163e-06*${new_z}
variable           dot      equal     1.33913786563332e-06*-0.0920542487714098+4.89260639958752e-07*-0.093213736266389+9.30839651986163e-06*0.0187078141855999
print              "The dot product: ${dot}"
The dot product: 5.26060997859193e-09

if "(${dot} >= 0.0) && (${dot} < 1.0e-10)" then "jump TaR.in relaxation" elif "(${dot} < 0.0) && (${dot} > -1.0e-10)" "jump TaR.in relaxation" elif "(${iteration} == ${iter_tot}) && (${seed} < 319)" "print 'The iteration number is maximum!'" "next seed" "variable iteration delete" "jump TaR.in loop" elif "(${iteration} == ${iter_tot}) && (${seed} == 319)" "quit" else    "next iteration"    "jump TaR.in iteration"
next iteration
jump TaR.in iteration
variable           norm          equal     sqrt(${new_x}^2+${new_y}^2+${new_z}^2)
variable           norm          equal     sqrt(-0.0920542487714098^2+${new_y}^2+${new_z}^2)
variable           norm          equal     sqrt(-0.0920542487714098^2+-0.093213736266389^2+${new_z}^2)
variable           norm          equal     sqrt(-0.0920542487714098^2+-0.093213736266389^2+0.0187078141855999^2)
variable           unit_x        equal     ${new_x}/${norm}
variable           unit_x        equal     -0.0920542487714098/${norm}
variable           unit_x        equal     -0.0920542487714098/0.132335813962855
variable           unit_y        equal     ${new_y}/${norm}
variable           unit_y        equal     -0.093213736266389/${norm}
variable           unit_y        equal     -0.093213736266389/0.132335813962855
variable           unit_z        equal     ${new_z}/${norm}
variable           unit_z        equal     0.0187078141855999/${norm}
variable           unit_z        equal     0.0187078141855999/0.132335813962855
variable           x_new         equal     ${x0}+${delta}*${unit_x}
variable           x_new         equal     2.8219679471782+${delta}*${unit_x}
variable           x_new         equal     2.8219679471782+0.02*${unit_x}
variable           x_new         equal     2.8219679471782+0.02*-0.695611006686733
variable           y_new         equal     ${y0}+${delta}*${unit_y}
variable           y_new         equal     0.929666631771831+${delta}*${unit_y}
variable           y_new         equal     0.929666631771831+0.02*${unit_y}
variable           y_new         equal     0.929666631771831+0.02*-0.704372712684965
variable           z_new         equal     ${z0}+${delta}*${unit_z}
variable           z_new         equal     -23.6448619772418+${delta}*${unit_z}
variable           z_new         equal     -23.6448619772418+0.02*${unit_z}
variable           z_new         equal     -23.6448619772418+0.02*0.141366222985192

set                atom          $i    x  ${x_new}  y  ${y_new}  z   ${z_new}
set                atom          288751    x  ${x_new}  y  ${y_new}  z   ${z_new}
set                atom          288751    x  2.80805572704447  y  ${y_new}  z   ${z_new}
set                atom          288751    x  2.80805572704447  y  0.915579177518132  z   ${z_new}
set                atom          288751    x  2.80805572704447  y  0.915579177518132  z   -23.6420346527821
Setting atom values ...
  1 settings made for x
  1 settings made for y
  1 settings made for z

fix                hold    carbon   planeforce   ${new_x}  ${new_y}  ${new_z}
fix                hold    carbon   planeforce   -0.0920542487714098  ${new_y}  ${new_z}
fix                hold    carbon   planeforce   -0.0920542487714098  -0.093213736266389  ${new_z}
fix                hold    carbon   planeforce   -0.0920542487714098  -0.093213736266389  0.0187078141855999
min_style          cg
minimize           1.0e-30 1.0e-30 10000 10000
Per MPI rank memory allocation (min/avg/max) = 5.441 | 5.816 | 6.074 Mbytes
Step PotEng KinEng TotEng v_fx v_fy v_fz 
    1276   -1152449.4            0   -1152449.4 -0.0093244801  0.011259612  0.010219927 
    1398   -1152449.4            0   -1152449.4 -2.3343127e-06 -1.211729e-06 -1.7523864e-05 
Loop time of 1.41861 on 104 procs for 122 steps with 288751 atoms

99.9% CPU use with 104 MPI tasks x 1 OpenMP threads

Minimization stats:
  Stopping criterion = energy tolerance
  Energy initial, next-to-last, final = 
     -1152449.40572368  -1152449.40739165  -1152449.40739165
  Force two-norm initial, final = 0.18791246 0.00016112583
  Force max component initial, final = 0.086983147 1.7523864e-05
  Final line search alpha, max atom move = 1.0000000 1.7523864e-05
  Iterations, force evaluations = 122 244

MPI task timing breakdown:
Section |  min time  |  avg time  |  max time  |%varavg| %total
---------------------------------------------------------------
Pair    | 0.37238    | 1.0267     | 1.3304     |  27.3 | 72.37
Neigh   | 0          | 0          | 0          |   0.0 |  0.00
Comm    | 0.024554   | 0.22964    | 0.6853     |  40.3 | 16.19
Output  | 0          | 0          | 0          |   0.0 |  0.00
Modify  | 1.4996e-05 | 0.002018   | 0.0043083  |   2.1 |  0.14
Other   |            | 0.1602     |            |       | 11.30

Nlocal:        2776.45 ave        3954 max           0 min
Histogram: 8 4 4 0 4 12 8 2 28 34
Nghost:        3879.01 ave        5424 max         232 min
Histogram: 8 0 8 0 16 0 8 8 16 40
Neighs:        79213.5 ave      115236 max           0 min
Histogram: 8 4 4 0 10 6 8 8 24 32

Total # of neighbors = 8238206
Ave neighs/atom = 28.530485
Neighbor list builds = 0
Dangerous builds = 0
unfix              hold

variable           new_x         delete
variable           new_y         delete
variable           new_z         delete
variable           dot           delete
variable           new_x         equal     ${x0}-${x_0}
variable           new_x         equal     2.80827924990887-${x_0}
variable           new_x         equal     2.80827924990887-2.91402219594961
variable           new_y         equal     ${y0}-${y_0}
variable           new_y         equal     0.915656391768454-${y_0}
variable           new_y         equal     0.915656391768454-1.02288036803822
variable           new_z         equal     ${z0}-${z_0}
variable           new_z         equal     -23.6405500507942-${z_0}
variable           new_z         equal     -23.6405500507942--23.6635697914274

variable           dot      equal     ${fx}*${new_x}+${fy}*${new_y}+${fz}*${new_z}
variable           dot      equal     -2.33431272777648e-06*${new_x}+${fy}*${new_y}+${fz}*${new_z}
variable           dot      equal     -2.33431272777648e-06*-0.10574294604074+${fy}*${new_y}+${fz}*${new_z}
variable           dot      equal     -2.33431272777648e-06*-0.10574294604074+-1.21172895681509e-06*${new_y}+${fz}*${new_z}
variable           dot      equal     -2.33431272777648e-06*-0.10574294604074+-1.21172895681509e-06*-0.107223976269766+${fz}*${new_z}
variable           dot      equal     -2.33431272777648e-06*-0.10574294604074+-1.21172895681509e-06*-0.107223976269766+-1.75238638101685e-05*${new_z}
variable           dot      equal     -2.33431272777648e-06*-0.10574294604074+-1.21172895681509e-06*-0.107223976269766+-1.75238638101685e-05*0.0230197406331989
print              "The dot product: ${dot}"
The dot product: -2.66312980751691e-08

if "(${dot} >= 0.0) && (${dot} < 1.0e-10)" then "jump TaR.in relaxation" elif "(${dot} < 0.0) && (${dot} > -1.0e-10)" "jump TaR.in relaxation" elif "(${iteration} == ${iter_tot}) && (${seed} < 319)" "print 'The iteration number is maximum!'" "next seed" "variable iteration delete" "jump TaR.in loop" elif "(${iteration} == ${iter_tot}) && (${seed} == 319)" "quit" else    "next iteration"    "jump TaR.in iteration"
next iteration
jump TaR.in iteration
variable           norm          equal     sqrt(${new_x}^2+${new_y}^2+${new_z}^2)
variable           norm          equal     sqrt(-0.10574294604074^2+${new_y}^2+${new_z}^2)
variable           norm          equal     sqrt(-0.10574294604074^2+-0.107223976269766^2+${new_z}^2)
variable           norm          equal     sqrt(-0.10574294604074^2+-0.107223976269766^2+0.0230197406331989^2)
variable           unit_x        equal     ${new_x}/${norm}
variable           unit_x        equal     -0.10574294604074/${norm}
variable           unit_x        equal     -0.10574294604074/0.152343231498134
variable           unit_y        equal     ${new_y}/${norm}
variable           unit_y        equal     -0.107223976269766/${norm}
variable           unit_y        equal     -0.107223976269766/0.152343231498134
variable           unit_z        equal     ${new_z}/${norm}
variable           unit_z        equal     0.0230197406331989/${norm}
variable           unit_z        equal     0.0230197406331989/0.152343231498134
variable           x_new         equal     ${x0}+${delta}*${unit_x}
variable           x_new         equal     2.80827924990887+${delta}*${unit_x}
variable           x_new         equal     2.80827924990887+0.02*${unit_x}
variable           x_new         equal     2.80827924990887+0.02*-0.694109905644447
variable           y_new         equal     ${y0}+${delta}*${unit_y}
variable           y_new         equal     0.915656391768454+${delta}*${unit_y}
variable           y_new         equal     0.915656391768454+0.02*${unit_y}
variable           y_new         equal     0.915656391768454+0.02*-0.703831573056
variable           z_new         equal     ${z0}+${delta}*${unit_z}
variable           z_new         equal     -23.6405500507942+${delta}*${unit_z}
variable           z_new         equal     -23.6405500507942+0.02*${unit_z}
variable           z_new         equal     -23.6405500507942+0.02*0.151104452799276

set                atom          $i    x  ${x_new}  y  ${y_new}  z   ${z_new}
set                atom          288751    x  ${x_new}  y  ${y_new}  z   ${z_new}
set                atom          288751    x  2.79439705179598  y  ${y_new}  z   ${z_new}
set                atom          288751    x  2.79439705179598  y  0.901579760307334  z   ${z_new}
set                atom          288751    x  2.79439705179598  y  0.901579760307334  z   -23.6375279617382
Setting atom values ...
  1 settings made for x
  1 settings made for y
  1 settings made for z

fix                hold    carbon   planeforce   ${new_x}  ${new_y}  ${new_z}
fix                hold    carbon   planeforce   -0.10574294604074  ${new_y}  ${new_z}
fix                hold    carbon   planeforce   -0.10574294604074  -0.107223976269766  ${new_z}
fix                hold    carbon   planeforce   -0.10574294604074  -0.107223976269766  0.0230197406331989
min_style          cg
minimize           1.0e-30 1.0e-30 10000 10000
Per MPI rank memory allocation (min/avg/max) = 5.441 | 5.816 | 6.074 Mbytes
Step PotEng KinEng TotEng v_fx v_fy v_fz 
    1398   -1152449.4            0   -1152449.4 -0.0057074718 0.0083338987  0.012600875 
    1571   -1152449.4            0   -1152449.4 -9.5125045e-07 3.400208e-06 1.1468235e-05 
Loop time of 2.04901 on 104 procs for 173 steps with 288751 atoms

99.9% CPU use with 104 MPI tasks x 1 OpenMP threads

Minimization stats:
  Stopping criterion = energy tolerance
  Energy initial, next-to-last, final = 
     -1152449.39433922  -1152449.39603344  -1152449.39603344
  Force two-norm initial, final = 0.1866171 0.00014311745
  Force max component initial, final = 0.088521472 1.5385324e-05
  Final line search alpha, max atom move = 1.0000000 1.5385324e-05
  Iterations, force evaluations = 173 346

MPI task timing breakdown:
Section |  min time  |  avg time  |  max time  |%varavg| %total
---------------------------------------------------------------
Pair    | 0.53361    | 1.4688     | 1.9121     |  32.5 | 71.68
Neigh   | 0          | 0          | 0          |   0.0 |  0.00
Comm    | 0.04669    | 0.33608    | 0.9979     |  47.5 | 16.40
Output  | 0          | 0          | 0          |   0.0 |  0.00
Modify  | 2.0509e-05 | 0.0028658  | 0.0060945  |   2.5 |  0.14
Other   |            | 0.2413     |            |       | 11.78

Nlocal:        2776.45 ave        3953 max           0 min
Histogram: 8 4 4 0 4 12 8 2 28 34
Nghost:        3878.99 ave        5424 max         232 min
Histogram: 8 0 8 0 16 0 8 8 16 40
Neighs:        79213.5 ave      115202 max           0 min
Histogram: 8 4 4 0 10 6 8 8 24 32

Total # of neighbors = 8238204
Ave neighs/atom = 28.530478
Neighbor list builds = 0
Dangerous builds = 0
unfix              hold

variable           new_x         delete
variable           new_y         delete
variable           new_z         delete
variable           dot           delete
variable           new_x         equal     ${x0}-${x_0}
variable           new_x         equal     2.79572788205832-${x_0}
variable           new_x         equal     2.79572788205832-2.91402219594961
variable           new_y         equal     ${y0}-${y_0}
variable           new_y         equal     0.90093394036603-${y_0}
variable           new_y         equal     0.90093394036603-1.02288036803822
variable           new_z         equal     ${z0}-${z_0}
variable           new_z         equal     -23.6344228646098-${z_0}
variable           new_z         equal     -23.6344228646098--23.6635697914274

variable           dot      equal     ${fx}*${new_x}+${fy}*${new_y}+${fz}*${new_z}
variable           dot      equal     -9.51250452520459e-07*${new_x}+${fy}*${new_y}+${fz}*${new_z}
variable           dot      equal     -9.51250452520459e-07*-0.11829431389129+${fy}*${new_y}+${fz}*${new_z}
variable           dot      equal     -9.51250452520459e-07*-0.11829431389129+3.40020795509254e-06*${new_y}+${fz}*${new_z}
variable           dot      equal     -9.51250452520459e-07*-0.11829431389129+3.40020795509254e-06*-0.12194642767219+${fz}*${new_z}
variable           dot      equal     -9.51250452520459e-07*-0.11829431389129+3.40020795509254e-06*-0.12194642767219+1.1468234850671e-05*${new_z}
variable           dot      equal     -9.51250452520459e-07*-0.11829431389129+3.40020795509254e-06*-0.12194642767219+1.1468234850671e-05*0.0291469268175995
print              "The dot product: ${dot}"
The dot product: 3.21481080731411e-08

if "(${dot} >= 0.0) && (${dot} < 1.0e-10)" then "jump TaR.in relaxation" elif "(${dot} < 0.0) && (${dot} > -1.0e-10)" "jump TaR.in relaxation" elif "(${iteration} == ${iter_tot}) && (${seed} < 319)" "print 'The iteration number is maximum!'" "next seed" "variable iteration delete" "jump TaR.in loop" elif "(${iteration} == ${iter_tot}) && (${seed} == 319)" "quit" else    "next iteration"    "jump TaR.in iteration"
next iteration
jump TaR.in iteration
variable           norm          equal     sqrt(${new_x}^2+${new_y}^2+${new_z}^2)
variable           norm          equal     sqrt(-0.11829431389129^2+${new_y}^2+${new_z}^2)
variable           norm          equal     sqrt(-0.11829431389129^2+-0.12194642767219^2+${new_z}^2)
variable           norm          equal     sqrt(-0.11829431389129^2+-0.12194642767219^2+0.0291469268175995^2)
variable           unit_x        equal     ${new_x}/${norm}
variable           unit_x        equal     -0.11829431389129/${norm}
variable           unit_x        equal     -0.11829431389129/0.172377548607498
variable           unit_y        equal     ${new_y}/${norm}
variable           unit_y        equal     -0.12194642767219/${norm}
variable           unit_y        equal     -0.12194642767219/0.172377548607498
variable           unit_z        equal     ${new_z}/${norm}
variable           unit_z        equal     0.0291469268175995/${norm}
variable           unit_z        equal     0.0291469268175995/0.172377548607498
variable           x_new         equal     ${x0}+${delta}*${unit_x}
variable           x_new         equal     2.79572788205832+${delta}*${unit_x}
variable           x_new         equal     2.79572788205832+0.02*${unit_x}
variable           x_new         equal     2.79572788205832+0.02*-0.686251282994197
variable           y_new         equal     ${y0}+${delta}*${unit_y}
variable           y_new         equal     0.90093394036603+${delta}*${unit_y}
variable           y_new         equal     0.90093394036603+0.02*${unit_y}
variable           y_new         equal     0.90093394036603+0.02*-0.707437996753631
variable           z_new         equal     ${z0}+${delta}*${unit_z}
variable           z_new         equal     -23.6344228646098+${delta}*${unit_z}
variable           z_new         equal     -23.6344228646098+0.02*${unit_z}
variable           z_new         equal     -23.6344228646098+0.02*0.169087720837513

set                atom          $i    x  ${x_new}  y  ${y_new}  z   ${z_new}
set                atom          288751    x  ${x_new}  y  ${y_new}  z   ${z_new}
set                atom          288751    x  2.78200285639844  y  ${y_new}  z   ${z_new}
set                atom          288751    x  2.78200285639844  y  0.886785180430957  z   ${z_new}
set                atom          288751    x  2.78200285639844  y  0.886785180430957  z   -23.631041110193
Setting atom values ...
  1 settings made for x
  1 settings made for y
  1 settings made for z

fix                hold    carbon   planeforce   ${new_x}  ${new_y}  ${new_z}
fix                hold    carbon   planeforce   -0.11829431389129  ${new_y}  ${new_z}
fix                hold    carbon   planeforce   -0.11829431389129  -0.12194642767219  ${new_z}
fix                hold    carbon   planeforce   -0.11829431389129  -0.12194642767219  0.0291469268175995
min_style          cg
minimize           1.0e-30 1.0e-30 10000 10000
Per MPI rank memory allocation (min/avg/max) = 5.441 | 5.816 | 6.074 Mbytes
Step PotEng KinEng TotEng v_fx v_fy v_fz 
    1571   -1152449.4            0   -1152449.4 -0.0013980587 0.0054041703  0.016936155 
    1769   -1152449.4            0   -1152449.4 3.3117946e-07 1.3950949e-06 7.1809797e-06 
Loop time of 2.31248 on 104 procs for 198 steps with 288751 atoms

99.9% CPU use with 104 MPI tasks x 1 OpenMP threads

Minimization stats:
  Stopping criterion = energy tolerance
  Energy initial, next-to-last, final = 
     -1152449.38171467  -1152449.38356315  -1152449.38356315
  Force two-norm initial, final = 0.18536167 6.9880242e-05
  Force max component initial, final = 0.090715259 1.6575050e-05
  Final line search alpha, max atom move = 1.0000000 1.6575050e-05
  Iterations, force evaluations = 198 396

MPI task timing breakdown:
Section |  min time  |  avg time  |  max time  |%varavg| %total
---------------------------------------------------------------
Pair    | 0.60371    | 1.6733     | 2.1562     |  34.8 | 72.36
Neigh   | 0          | 0          | 0          |   0.0 |  0.00
Comm    | 0.037942   | 0.37609    | 1.119      |  51.5 | 16.26
Output  | 0          | 0          | 0          |   0.0 |  0.00
Modify  | 2.3655e-05 | 0.0032714  | 0.0069796  |   2.7 |  0.14
Other   |            | 0.2598     |            |       | 11.24

Nlocal:        2776.45 ave        3951 max           0 min
Histogram: 8 4 4 0 4 12 8 2 28 34
Nghost:        3879.03 ave        5424 max         232 min
Histogram: 8 0 8 0 16 0 8 8 16 40
Neighs:        79213.5 ave      115127 max           0 min
Histogram: 8 4 4 0 10 6 8 8 24 32

Total # of neighbors = 8238203
Ave neighs/atom = 28.530474
Neighbor list builds = 0
Dangerous builds = 0
unfix              hold

variable           new_x         delete
variable           new_y         delete
variable           new_z         delete
variable           dot           delete
variable           new_x         equal     ${x0}-${x_0}
variable           new_x         equal     2.78484355983119-${x_0}
variable           new_x         equal     2.78484355983119-2.91402219594961
variable           new_y         equal     ${y0}-${y_0}
variable           new_y         equal     0.885559119404268-${y_0}
variable           new_y         equal     0.885559119404268-1.02288036803822
variable           new_z         equal     ${z0}-${z_0}
variable           new_z         equal     -23.6246416258703-${z_0}
variable           new_z         equal     -23.6246416258703--23.6635697914274

variable           dot      equal     ${fx}*${new_x}+${fy}*${new_y}+${fz}*${new_z}
variable           dot      equal     3.31179456663378e-07*${new_x}+${fy}*${new_y}+${fz}*${new_z}
variable           dot      equal     3.31179456663378e-07*-0.12917863611842+${fy}*${new_y}+${fz}*${new_z}
variable           dot      equal     3.31179456663378e-07*-0.12917863611842+1.39509493638918e-06*${new_y}+${fz}*${new_z}
variable           dot      equal     3.31179456663378e-07*-0.12917863611842+1.39509493638918e-06*-0.137321248633952+${fz}*${new_z}
variable           dot      equal     3.31179456663378e-07*-0.12917863611842+1.39509493638918e-06*-0.137321248633952+7.18097971870253e-06*${new_z}
variable           dot      equal     3.31179456663378e-07*-0.12917863611842+1.39509493638918e-06*-0.137321248633952+7.18097971870253e-06*0.038928165557099
print              "The dot product: ${dot}"
The dot product: 4.51848782017417e-08

if "(${dot} >= 0.0) && (${dot} < 1.0e-10)" then "jump TaR.in relaxation" elif "(${dot} < 0.0) && (${dot} > -1.0e-10)" "jump TaR.in relaxation" elif "(${iteration} == ${iter_tot}) && (${seed} < 319)" "print 'The iteration number is maximum!'" "next seed" "variable iteration delete" "jump TaR.in loop" elif "(${iteration} == ${iter_tot}) && (${seed} == 319)" "quit" else    "next iteration"    "jump TaR.in iteration"
next iteration
jump TaR.in iteration
variable           norm          equal     sqrt(${new_x}^2+${new_y}^2+${new_z}^2)
variable           norm          equal     sqrt(-0.12917863611842^2+${new_y}^2+${new_z}^2)
variable           norm          equal     sqrt(-0.12917863611842^2+-0.137321248633952^2+${new_z}^2)
variable           norm          equal     sqrt(-0.12917863611842^2+-0.137321248633952^2+0.038928165557099^2)
variable           unit_x        equal     ${new_x}/${norm}
variable           unit_x        equal     -0.12917863611842/${norm}
variable           unit_x        equal     -0.12917863611842/0.192508824289807
variable           unit_y        equal     ${new_y}/${norm}
variable           unit_y        equal     -0.137321248633952/${norm}
variable           unit_y        equal     -0.137321248633952/0.192508824289807
variable           unit_z        equal     ${new_z}/${norm}
variable           unit_z        equal     0.038928165557099/${norm}
variable           unit_z        equal     0.038928165557099/0.192508824289807
variable           x_new         equal     ${x0}+${delta}*${unit_x}
variable           x_new         equal     2.78484355983119+${delta}*${unit_x}
variable           x_new         equal     2.78484355983119+0.02*${unit_x}
variable           x_new         equal     2.78484355983119+0.02*-0.671027089770969
variable           y_new         equal     ${y0}+${delta}*${unit_y}
variable           y_new         equal     0.885559119404268+${delta}*${unit_y}
variable           y_new         equal     0.885559119404268+0.02*${unit_y}
variable           y_new         equal     0.885559119404268+0.02*-0.713324436635827
variable           z_new         equal     ${z0}+${delta}*${unit_z}
variable           z_new         equal     -23.6246416258703+${delta}*${unit_z}
variable           z_new         equal     -23.6246416258703+0.02*${unit_z}
variable           z_new         equal     -23.6246416258703+0.02*0.202214967031826

set                atom          $i    x  ${x_new}  y  ${y_new}  z   ${z_new}
set                atom          288751    x  ${x_new}  y  ${y_new}  z   ${z_new}
set                atom          288751    x  2.77142301803577  y  ${y_new}  z   ${z_new}
set                atom          288751    x  2.77142301803577  y  0.871292630671551  z   ${z_new}
set                atom          288751    x  2.77142301803577  y  0.871292630671551  z   -23.6205973265297
Setting atom values ...
  1 settings made for x
  1 settings made for y
  1 settings made for z

fix                hold    carbon   planeforce   ${new_x}  ${new_y}  ${new_z}
fix                hold    carbon   planeforce   -0.12917863611842  ${new_y}  ${new_z}
fix                hold    carbon   planeforce   -0.12917863611842  -0.137321248633952  ${new_z}
fix                hold    carbon   planeforce   -0.12917863611842  -0.137321248633952  0.038928165557099
min_style          cg
minimize           1.0e-30 1.0e-30 10000 10000
Per MPI rank memory allocation (min/avg/max) = 5.441 | 5.816 | 6.074 Mbytes
Step PotEng KinEng TotEng v_fx v_fy v_fz 
    1769   -1152449.4            0   -1152449.4 0.0044575995 0.0029849537  0.025321619 
    1950   -1152449.4            0   -1152449.4 -6.9399932e-06 -8.7497487e-06 -5.3894789e-05 
Loop time of 2.11038 on 104 procs for 181 steps with 288751 atoms

99.9% CPU use with 104 MPI tasks x 1 OpenMP threads

Minimization stats:
  Stopping criterion = energy tolerance
  Energy initial, next-to-last, final = 
     -1152449.36816301   -1152449.3700274   -1152449.3700274
  Force two-norm initial, final = 0.18425807 0.00016479668
  Force max component initial, final = 0.093938124 5.3894789e-05
  Final line search alpha, max atom move = 1.0000000 5.3894789e-05
  Iterations, force evaluations = 181 362

MPI task timing breakdown:
Section |  min time  |  avg time  |  max time  |%varavg| %total
---------------------------------------------------------------
Pair    | 0.54928    | 1.5255     | 1.9747     |  33.2 | 72.29
Neigh   | 0          | 0          | 0          |   0.0 |  0.00
Comm    | 0.044845   | 0.34593    | 1.0297     |  49.0 | 16.39
Output  | 0          | 0          | 0          |   0.0 |  0.00
Modify  | 2.4149e-05 | 0.0029914  | 0.0064085  |   2.6 |  0.14
Other   |            | 0.2359     |            |       | 11.18

Nlocal:        2776.45 ave        3950 max           0 min
Histogram: 8 4 4 0 4 12 8 2 26 36
Nghost:        3879.01 ave        5424 max         232 min
Histogram: 8 0 8 0 16 0 8 8 16 40
Neighs:        79213.5 ave      115086 max           0 min
Histogram: 8 4 4 0 10 6 8 8 24 32

Total # of neighbors = 8238205
Ave neighs/atom = 28.530481
Neighbor list builds = 0
Dangerous builds = 0
unfix              hold

variable           new_x         delete
variable           new_y         delete
variable           new_z         delete
variable           dot           delete
variable           new_x         equal     ${x0}-${x_0}
variable           new_x         equal     2.77529309389269-${x_0}
variable           new_x         equal     2.77529309389269-2.91402219594961
variable           new_y         equal     ${y0}-${y_0}
variable           new_y         equal     0.869984460449202-${y_0}
variable           new_y         equal     0.869984460449202-1.02288036803822
variable           new_z         equal     ${z0}-${z_0}
variable           new_z         equal     -23.6123695678379-${z_0}
variable           new_z         equal     -23.6123695678379--23.6635697914274

variable           dot      equal     ${fx}*${new_x}+${fy}*${new_y}+${fz}*${new_z}
variable           dot      equal     -6.93999317161946e-06*${new_x}+${fy}*${new_y}+${fz}*${new_z}
variable           dot      equal     -6.93999317161946e-06*-0.13872910205692+${fy}*${new_y}+${fz}*${new_z}
variable           dot      equal     -6.93999317161946e-06*-0.13872910205692+-8.74974868500476e-06*${new_y}+${fz}*${new_z}
variable           dot      equal     -6.93999317161946e-06*-0.13872910205692+-8.74974868500476e-06*-0.152895907589018+${fz}*${new_z}
variable           dot      equal     -6.93999317161946e-06*-0.13872910205692+-8.74974868500476e-06*-0.152895907589018+-5.38947889584163e-05*${new_z}
variable           dot      equal     -6.93999317161946e-06*-0.13872910205692+-8.74974868500476e-06*-0.152895907589018+-5.38947889584163e-05*0.0512002235895004
print              "The dot product: ${dot}"
The dot product: -4.58845457630309e-07

if "(${dot} >= 0.0) && (${dot} < 1.0e-10)" then "jump TaR.in relaxation" elif "(${dot} < 0.0) && (${dot} > -1.0e-10)" "jump TaR.in relaxation" elif "(${iteration} == ${iter_tot}) && (${seed} < 319)" "print 'The iteration number is maximum!'" "next seed" "variable iteration delete" "jump TaR.in loop" elif "(${iteration} == ${iter_tot}) && (${seed} == 319)" "quit" else    "next iteration"    "jump TaR.in iteration"
next iteration
jump TaR.in iteration
variable           norm          equal     sqrt(${new_x}^2+${new_y}^2+${new_z}^2)
variable           norm          equal     sqrt(-0.13872910205692^2+${new_y}^2+${new_z}^2)
variable           norm          equal     sqrt(-0.13872910205692^2+-0.152895907589018^2+${new_z}^2)
variable           norm          equal     sqrt(-0.13872910205692^2+-0.152895907589018^2+0.0512002235895004^2)
variable           unit_x        equal     ${new_x}/${norm}
variable           unit_x        equal     -0.13872910205692/${norm}
variable           unit_x        equal     -0.13872910205692/0.212707275876035
variable           unit_y        equal     ${new_y}/${norm}
variable           unit_y        equal     -0.152895907589018/${norm}
variable           unit_y        equal     -0.152895907589018/0.212707275876035
[...]
variable           unit_x        equal     -1.283139527954/3.04798620598097
variable           unit_y        equal     ${new_y}/${norm}
variable           unit_y        equal     2.14847908980023/${norm}
variable           unit_y        equal     2.14847908980023/3.04798620598097
variable           unit_z        equal     ${new_z}/${norm}
variable           unit_z        equal     -1.7400604772086/${norm}
variable           unit_z        equal     -1.7400604772086/3.04798620598097
variable           x_new         equal     ${x0}+${delta}*${unit_x}
variable           x_new         equal     1.63088266799561+${delta}*${unit_x}
variable           x_new         equal     1.63088266799561+0.02*${unit_x}
variable           x_new         equal     1.63088266799561+0.02*-0.420979440601186
variable           y_new         equal     ${y0}+${delta}*${unit_y}
variable           y_new         equal     3.17135945783845+${delta}*${unit_y}
variable           y_new         equal     3.17135945783845+0.02*${unit_y}
variable           y_new         equal     3.17135945783845+0.02*0.704884781166114
variable           z_new         equal     ${z0}+${delta}*${unit_z}
variable           z_new         equal     -25.403630268636+${delta}*${unit_z}
variable           z_new         equal     -25.403630268636+0.02*${unit_z}
variable           z_new         equal     -25.403630268636+0.02*-0.570888566947623

set                atom          $i    x  ${x_new}  y  ${y_new}  z   ${z_new}
set                atom          288751    x  ${x_new}  y  ${y_new}  z   ${z_new}
set                atom          288751    x  1.62246307918359  y  ${y_new}  z   ${z_new}
set                atom          288751    x  1.62246307918359  y  3.18545715346177  z   ${z_new}
set                atom          288751    x  1.62246307918359  y  3.18545715346177  z   -25.415048039975
Setting atom values ...
  1 settings made for x
  1 settings made for y
  1 settings made for z

fix                hold    carbon   planeforce   ${new_x}  ${new_y}  ${new_z}
fix                hold    carbon   planeforce   -1.283139527954  ${new_y}  ${new_z}
fix                hold    carbon   planeforce   -1.283139527954  2.14847908980023  ${new_z}
fix                hold    carbon   planeforce   -1.283139527954  2.14847908980023  -1.7400604772086
min_style          cg
minimize           1.0e-30 1.0e-30 10000 10000
Per MPI rank memory allocation (min/avg/max) = 5.441 | 5.816 | 6.074 Mbytes
Step PotEng KinEng TotEng v_fx v_fy v_fz 
   28959   -1152449.4            0   -1152449.4 -0.050593268 -0.012177326  0.022272498 
   29000   -1152449.4            0   -1152449.4 4.1126389e-05 -6.6232518e-05 -0.00011210534 
   29018   -1152449.4            0   -1152449.4 -3.3616477e-06 -2.591511e-05 -2.9518864e-05 
Loop time of 0.704755 on 104 procs for 59 steps with 288751 atoms

99.9% CPU use with 104 MPI tasks x 1 OpenMP threads

Minimization stats:
  Stopping criterion = energy tolerance
  Energy initial, next-to-last, final = 
     -1152449.36443402  -1152449.36590511  -1152449.36590511
  Force two-norm initial, final = 0.16376176 0.00023726364
  Force max component initial, final = 0.069876215 2.9518864e-05
  Final line search alpha, max atom move = 1.0000000 2.9518864e-05
  Iterations, force evaluations = 59 118

MPI task timing breakdown:
Section |  min time  |  avg time  |  max time  |%varavg| %total
---------------------------------------------------------------
Pair    | 0.17898    | 0.50081    | 0.66492    |  19.3 | 71.06
Neigh   | 0          | 0          | 0          |   0.0 |  0.00
Comm    | 0.010217   | 0.11735    | 0.34219    |  27.3 | 16.65
Output  | 0.00016224 | 0.00016546 | 0.00028598 |   0.0 |  0.02
Modify  | 7.4286e-06 | 0.0009817  | 0.0020988  |   0.0 |  0.14
Other   |            | 0.08545    |            |       | 12.12

Nlocal:        2776.45 ave        3947 max           0 min
Histogram: 8 4 4 0 4 12 8 0 28 36
Nghost:        3878.82 ave        5424 max         232 min
Histogram: 8 0 8 0 16 0 8 8 16 40
Neighs:        79213.5 ave      115089 max           0 min
Histogram: 8 4 4 0 10 6 8 8 24 32

Total # of neighbors = 8238206
Ave neighs/atom = 28.530485
Neighbor list builds = 0
Dangerous builds = 0
unfix              hold

variable           new_x         delete
variable           new_y         delete
variable           new_z         delete
variable           dot           delete
variable           new_x         equal     ${x0}-${x_0}
variable           new_x         equal     1.6141028739007-${x_0}
variable           new_x         equal     1.6141028739007-2.91402219594961
variable           new_y         equal     ${y0}-${y_0}
variable           new_y         equal     3.1809665413842-${y_0}
variable           new_y         equal     3.1809665413842-1.02288036803822
variable           new_z         equal     ${z0}-${z_0}
variable           new_z         equal     -25.4144277605506-${z_0}
variable           new_z         equal     -25.4144277605506--23.6635697914274

variable           dot      equal     ${fx}*${new_x}+${fy}*${new_y}+${fz}*${new_z}
variable           dot      equal     -3.36164766995482e-06*${new_x}+${fy}*${new_y}+${fz}*${new_z}
variable           dot      equal     -3.36164766995482e-06*-1.29991932204891+${fy}*${new_y}+${fz}*${new_z}
variable           dot      equal     -3.36164766995482e-06*-1.29991932204891+-2.59151099460126e-05*${new_y}+${fz}*${new_z}
variable           dot      equal     -3.36164766995482e-06*-1.29991932204891+-2.59151099460126e-05*2.15808617334598+${fz}*${new_z}
variable           dot      equal     -3.36164766995482e-06*-1.29991932204891+-2.59151099460126e-05*2.15808617334598+-2.95188641414092e-05*${new_z}
variable           dot      equal     -3.36164766995482e-06*-1.29991932204891+-2.59151099460126e-05*2.15808617334598+-2.95188641414092e-05*-1.7508579691232
print              "The dot product: ${dot}"
The dot product: 1.26168826315658e-07

if "(${dot} >= 0.0) && (${dot} < 1.0e-10)" then "jump TaR.in relaxation" elif "(${dot} < 0.0) && (${dot} > -1.0e-10)" "jump TaR.in relaxation" elif "(${iteration} == ${iter_tot}) && (${seed} < 319)" "print 'The iteration number is maximum!'" "next seed" "variable iteration delete" "jump TaR.in loop" elif "(${iteration} == ${iter_tot}) && (${seed} == 319)" "quit" else    "next iteration"    "jump TaR.in iteration"
next iteration
jump TaR.in iteration
variable           norm          equal     sqrt(${new_x}^2+${new_y}^2+${new_z}^2)
variable           norm          equal     sqrt(-1.29991932204891^2+${new_y}^2+${new_z}^2)
variable           norm          equal     sqrt(-1.29991932204891^2+2.15808617334598^2+${new_z}^2)
variable           norm          equal     sqrt(-1.29991932204891^2+2.15808617334598^2+-1.7508579691232^2)
variable           unit_x        equal     ${new_x}/${norm}
variable           unit_x        equal     -1.29991932204891/${norm}
variable           unit_x        equal     -1.29991932204891/3.06800094580582
variable           unit_y        equal     ${new_y}/${norm}
variable           unit_y        equal     2.15808617334598/${norm}
variable           unit_y        equal     2.15808617334598/3.06800094580582
variable           unit_z        equal     ${new_z}/${norm}
variable           unit_z        equal     -1.7508579691232/${norm}
variable           unit_z        equal     -1.7508579691232/3.06800094580582
variable           x_new         equal     ${x0}+${delta}*${unit_x}
variable           x_new         equal     1.6141028739007+${delta}*${unit_x}
variable           x_new         equal     1.6141028739007+0.02*${unit_x}
variable           x_new         equal     1.6141028739007+0.02*-0.423702386345739
variable           y_new         equal     ${y0}+${delta}*${unit_y}
variable           y_new         equal     3.1809665413842+${delta}*${unit_y}
variable           y_new         equal     3.1809665413842+0.02*${unit_y}
variable           y_new         equal     3.1809665413842+0.02*0.703417701450269
variable           z_new         equal     ${z0}+${delta}*${unit_z}
variable           z_new         equal     -25.4144277605506+${delta}*${unit_z}
variable           z_new         equal     -25.4144277605506+0.02*${unit_z}
variable           z_new         equal     -25.4144277605506+0.02*-0.570683647121019

set                atom          $i    x  ${x_new}  y  ${y_new}  z   ${z_new}
set                atom          288751    x  ${x_new}  y  ${y_new}  z   ${z_new}
set                atom          288751    x  1.60562882617379  y  ${y_new}  z   ${z_new}
set                atom          288751    x  1.60562882617379  y  3.19503489541321  z   ${z_new}
set                atom          288751    x  1.60562882617379  y  3.19503489541321  z   -25.425841433493
Setting atom values ...
  1 settings made for x
  1 settings made for y
  1 settings made for z

fix                hold    carbon   planeforce   ${new_x}  ${new_y}  ${new_z}
fix                hold    carbon   planeforce   -1.29991932204891  ${new_y}  ${new_z}
fix                hold    carbon   planeforce   -1.29991932204891  2.15808617334598  ${new_z}
fix                hold    carbon   planeforce   -1.29991932204891  2.15808617334598  -1.7508579691232
min_style          cg
minimize           1.0e-30 1.0e-30 10000 10000
Per MPI rank memory allocation (min/avg/max) = 5.441 | 5.816 | 6.074 Mbytes
Step PotEng KinEng TotEng v_fx v_fy v_fz 
   29018   -1152449.4            0   -1152449.4 -0.048794214 -0.011552219  0.021987997 
   29134   -1152449.4            0   -1152449.4 -3.0945795e-05 1.2760775e-06 2.4548492e-05 
Loop time of 1.3688 on 104 procs for 116 steps with 288751 atoms

99.9% CPU use with 104 MPI tasks x 1 OpenMP threads

Minimization stats:
  Stopping criterion = energy tolerance
  Energy initial, next-to-last, final = 
     -1152449.35461001  -1152449.35598864  -1152449.35598864
  Force two-norm initial, final = 0.16048099 0.00020386821
  Force max component initial, final = 0.069330599 3.0945795e-05
  Final line search alpha, max atom move = 1.0000000 3.0945795e-05
  Iterations, force evaluations = 116 232

MPI task timing breakdown:
Section |  min time  |  avg time  |  max time  |%varavg| %total
---------------------------------------------------------------
Pair    | 0.35173    | 0.97779    | 1.2887     |  26.8 | 71.43
Neigh   | 0          | 0          | 0          |   0.0 |  0.00
Comm    | 0.020395   | 0.22434    | 0.66119    |  38.5 | 16.39
Output  | 0          | 0          | 0          |   0.0 |  0.00
Modify  | 1.3951e-05 | 0.0019209  | 0.0040853  |   2.1 |  0.14
Other   |            | 0.1647     |            |       | 12.04

Nlocal:        2776.45 ave        3947 max           0 min
Histogram: 8 4 4 0 4 12 8 0 28 36
Nghost:        3878.82 ave        5424 max         232 min
Histogram: 8 0 8 0 16 0 8 8 16 40
Neighs:        79213.5 ave      115089 max           0 min
Histogram: 8 4 4 0 10 6 8 8 24 32

Total # of neighbors = 8238204
Ave neighs/atom = 28.530478
Neighbor list builds = 0
Dangerous builds = 0
unfix              hold

variable           new_x         delete
variable           new_y         delete
variable           new_z         delete
variable           dot           delete
variable           new_x         equal     ${x0}-${x_0}
variable           new_x         equal     1.59858235872004-${x_0}
variable           new_x         equal     1.59858235872004-2.91402219594961
variable           new_y         equal     ${y0}-${y_0}
variable           new_y         equal     3.19137185399023-${y_0}
variable           new_y         equal     3.19137185399023-1.02288036803822
variable           new_z         equal     ${z0}-${z_0}
variable           new_z         equal     -25.4251248247388-${z_0}
variable           new_z         equal     -25.4251248247388--23.6635697914274

variable           dot      equal     ${fx}*${new_x}+${fy}*${new_y}+${fz}*${new_z}
variable           dot      equal     -3.0945795104182e-05*${new_x}+${fy}*${new_y}+${fz}*${new_z}
variable           dot      equal     -3.0945795104182e-05*-1.31543983722957+${fy}*${new_y}+${fz}*${new_z}
variable           dot      equal     -3.0945795104182e-05*-1.31543983722957+1.27607749749119e-06*${new_y}+${fz}*${new_z}
variable           dot      equal     -3.0945795104182e-05*-1.31543983722957+1.27607749749119e-06*2.16849148595201+${fz}*${new_z}
variable           dot      equal     -3.0945795104182e-05*-1.31543983722957+1.27607749749119e-06*2.16849148595201+2.45484916272231e-05*${new_z}
variable           dot      equal     -3.0945795104182e-05*-1.31543983722957+1.27607749749119e-06*2.16849148595201+2.45484916272231e-05*-1.7615550333114
print              "The dot product: ${dot}"
The dot product: 2.30975877371773e-07

if "(${dot} >= 0.0) && (${dot} < 1.0e-10)" then "jump TaR.in relaxation" elif "(${dot} < 0.0) && (${dot} > -1.0e-10)" "jump TaR.in relaxation" elif "(${iteration} == ${iter_tot}) && (${seed} < 319)" "print 'The iteration number is maximum!'" "next seed" "variable iteration delete" "jump TaR.in loop" elif "(${iteration} == ${iter_tot}) && (${seed} == 319)" "quit" else    "next iteration"    "jump TaR.in iteration"
next iteration
jump TaR.in iteration
variable           norm          equal     sqrt(${new_x}^2+${new_y}^2+${new_z}^2)
variable           norm          equal     sqrt(-1.31543983722957^2+${new_y}^2+${new_z}^2)
variable           norm          equal     sqrt(-1.31543983722957^2+2.16849148595201^2+${new_z}^2)
variable           norm          equal     sqrt(-1.31543983722957^2+2.16849148595201^2+-1.7615550333114^2)
variable           unit_x        equal     ${new_x}/${norm}
variable           unit_x        equal     -1.31543983722957/${norm}
variable           unit_x        equal     -1.31543983722957/3.08801124113913
variable           unit_y        equal     ${new_y}/${norm}
variable           unit_y        equal     2.16849148595201/${norm}
variable           unit_y        equal     2.16849148595201/3.08801124113913
variable           unit_z        equal     ${new_z}/${norm}
variable           unit_z        equal     -1.7615550333114/${norm}
variable           unit_z        equal     -1.7615550333114/3.08801124113913
variable           x_new         equal     ${x0}+${delta}*${unit_x}
variable           x_new         equal     1.59858235872004+${delta}*${unit_x}
variable           x_new         equal     1.59858235872004+0.02*${unit_x}
variable           x_new         equal     1.59858235872004+0.02*-0.425982852557337
variable           y_new         equal     ${y0}+${delta}*${unit_y}
variable           y_new         equal     3.19137185399023+${delta}*${unit_y}
variable           y_new         equal     3.19137185399023+0.02*${unit_y}
variable           y_new         equal     3.19137185399023+0.02*0.702229142518302
variable           z_new         equal     ${z0}+${delta}*${unit_z}
variable           z_new         equal     -25.4251248247388+${delta}*${unit_z}
variable           z_new         equal     -25.4251248247388+0.02*${unit_z}
variable           z_new         equal     -25.4251248247388+0.02*-0.570449682903869

set                atom          $i    x  ${x_new}  y  ${y_new}  z   ${z_new}
set                atom          288751    x  ${x_new}  y  ${y_new}  z   ${z_new}
set                atom          288751    x  1.59006270166889  y  ${y_new}  z   ${z_new}
set                atom          288751    x  1.59006270166889  y  3.2054164368406  z   ${z_new}
set                atom          288751    x  1.59006270166889  y  3.2054164368406  z   -25.4365338183969
Setting atom values ...
  1 settings made for x
  1 settings made for y
  1 settings made for z

fix                hold    carbon   planeforce   ${new_x}  ${new_y}  ${new_z}
fix                hold    carbon   planeforce   -1.31543983722957  ${new_y}  ${new_z}
fix                hold    carbon   planeforce   -1.31543983722957  2.16849148595201  ${new_z}
fix                hold    carbon   planeforce   -1.31543983722957  2.16849148595201  -1.7615550333114
min_style          cg
minimize           1.0e-30 1.0e-30 10000 10000
Per MPI rank memory allocation (min/avg/max) = 5.441 | 5.816 | 6.074 Mbytes
Step PotEng KinEng TotEng v_fx v_fy v_fz 
   29134   -1152449.3            0   -1152449.3 -0.048801404 -0.012900725  0.020561492 
   29240   -1152449.3            0   -1152449.3 -1.2822695e-05 4.4749425e-05 6.4662317e-05 
Loop time of 1.25971 on 104 procs for 106 steps with 288751 atoms

99.9% CPU use with 104 MPI tasks x 1 OpenMP threads

Minimization stats:
  Stopping criterion = energy tolerance
  Energy initial, next-to-last, final = 
     -1152449.34426829  -1152449.34564391  -1152449.34564391
  Force two-norm initial, final = 0.15875552 0.00024951272
  Force max component initial, final = 0.068697553 6.4662317e-05
  Final line search alpha, max atom move = 1.0000000 6.4662317e-05
  Iterations, force evaluations = 106 212

MPI task timing breakdown:
Section |  min time  |  avg time  |  max time  |%varavg| %total
---------------------------------------------------------------
Pair    | 0.32006    | 0.89603    | 1.1893     |  25.7 | 71.13
Neigh   | 0          | 0          | 0          |   0.0 |  0.00
Comm    | 0.017995   | 0.21135    | 0.62143    |  36.8 | 16.78
Output  | 0          | 0          | 0          |   0.0 |  0.00
Modify  | 1.2625e-05 | 0.0017545  | 0.0037273  |   2.0 |  0.14
Other   |            | 0.1506     |            |       | 11.95

Nlocal:        2776.45 ave        3947 max           0 min
Histogram: 8 4 4 0 4 12 8 0 28 36
Nghost:        3878.78 ave        5424 max         232 min
Histogram: 8 0 8 0 16 0 8 8 16 40
Neighs:        79213.5 ave      115089 max           0 min
Histogram: 8 4 4 0 10 6 8 8 24 32

Total # of neighbors = 8238205
Ave neighs/atom = 28.530481
Neighbor list builds = 0
Dangerous builds = 0
unfix              hold

variable           new_x         delete
variable           new_y         delete
variable           new_z         delete
variable           dot           delete
variable           new_x         equal     ${x0}-${x_0}
variable           new_x         equal     1.58309423615878-${x_0}
variable           new_x         equal     1.58309423615878-2.91402219594961
variable           new_y         equal     ${y0}-${y_0}
variable           new_y         equal     3.20165280966089-${y_0}
variable           new_y         equal     3.20165280966089-1.02288036803822
variable           new_z         equal     ${z0}-${z_0}
variable           new_z         equal     -25.4359631841437-${z_0}
variable           new_z         equal     -25.4359631841437--23.6635697914274

variable           dot      equal     ${fx}*${new_x}+${fy}*${new_y}+${fz}*${new_z}
variable           dot      equal     -1.28226945234962e-05*${new_x}+${fy}*${new_y}+${fz}*${new_z}
variable           dot      equal     -1.28226945234962e-05*-1.33092795979083+${fy}*${new_y}+${fz}*${new_z}
variable           dot      equal     -1.28226945234962e-05*-1.33092795979083+4.47494248162637e-05*${new_y}+${fz}*${new_z}
variable           dot      equal     -1.28226945234962e-05*-1.33092795979083+4.47494248162637e-05*2.17877244162267+${fz}*${new_z}
variable           dot      equal     -1.28226945234962e-05*-1.33092795979083+4.47494248162637e-05*2.17877244162267+6.46623169631113e-05*${new_z}
variable           dot      equal     -1.28226945234962e-05*-1.33092795979083+4.47494248162637e-05*2.17877244162267+6.46623169631113e-05*-1.7723933927163
print              "The dot product: ${dot}"
The dot product: -4.21671138268022e-08

if "(${dot} >= 0.0) && (${dot} < 1.0e-10)" then "jump TaR.in relaxation" elif "(${dot} < 0.0) && (${dot} > -1.0e-10)" "jump TaR.in relaxation" elif "(${iteration} == ${iter_tot}) && (${seed} < 319)" "print 'The iteration number is maximum!'" "next seed" "variable iteration delete" "jump TaR.in loop" elif "(${iteration} == ${iter_tot}) && (${seed} == 319)" "quit" else    "next iteration"    "jump TaR.in iteration"
quit
