LAMMPS (29 Oct 2020)
OMP_NUM_THREADS environment is not set. Defaulting to 1 thread. (../comm.cpp:94)
  using 1 OpenMP thread(s) per MPI task
Reading data file ...
  orthogonal box = (-122.39241 -121.13707 -37.090501) to (122.39241 121.13707 37.090501)
  13 by 4 by 1 MPI processor grid
  reading atoms ...
  288751 atoms
  read_data CPU = 0.433 seconds
199981 atoms in group inner
88770 atoms in group outer
1 atoms in group carbon
Neighbor list info ...
  update every 1 steps, delay 0 steps, check yes
  max neighbors/atom: 2000, page size: 100000
  master list distance cutoff = 5.6
  ghost atom cutoff = 5.6
  binsize = 2.8, bins = 88 87 27
  1 neighbor lists, perpetual/occasional/extra = 1 0 0
  (1) pair eam/alloy, perpetual
      attributes: half, newton on
      pair build: half/bin/atomonly/newton
      stencil: half/bin/3d/newton
      bin: standard
Setting up cg style minimization ...
  Unit style    : metal
  Current step  : 0
Per MPI rank memory allocation (min/avg/max) = 5.465 | 6.344 | 6.728 Mbytes
Step v_fx v_fy v_fz PotEng KinEng TotEng 
       0   -0.2036089    1.9201377   -2.5795005   -1152447.8            0   -1152447.8 
     163 1.0158052e-05 -1.526881e-05 3.8753475e-05   -1152449.5            0   -1152449.5 
Loop time of 3.64623 on 52 procs for 163 steps with 288751 atoms

99.9% CPU use with 52 MPI tasks x 1 OpenMP threads

Minimization stats:
  Stopping criterion = linesearch alpha is zero
  Energy initial, next-to-last, final = 
     -1152447.77718772   -1152449.4503526   -1152449.4503526
  Force two-norm initial, final = 10.219425 0.00012989562
  Force max component initial, final = 6.2547942 3.8753475e-05
  Final line search alpha, max atom move = 0.5 1.9376738e-05
  Iterations, force evaluations = 163 326

MPI task timing breakdown:
Section |  min time  |  avg time  |  max time  |%varavg| %total
---------------------------------------------------------------
Pair    | 0.95404    | 2.6165     | 3.4618     |  44.4 | 71.76
Neigh   | 6.0923e-05 | 0.019085   | 0.028045   |   5.9 |  0.52
Comm    | 0.053063   | 0.59216    | 1.8255     |  67.2 | 16.24
Output  | 0          | 0          | 0          |   0.0 |  0.00
Modify  | 4.3526e-05 | 0.0035924  | 0.0092637  |   3.8 |  0.10
Other   |            | 0.4149     |            |       | 11.38

Nlocal:        5552.90 ave        7912 max           0 min
Histogram: 4 2 2 0 2 6 4 0 15 17
Nghost:        6213.54 ave        8769 max         412 min
Histogram: 4 0 4 0 8 0 4 5 7 20
Neighs:       158427.0 ave      230638 max           0 min
Histogram: 4 2 2 0 5 3 4 4 12 16

Total # of neighbors = 8238203
Ave neighs/atom = 28.530474
Neighbor list builds = 3
Dangerous builds = 0
-0.31 1.2 -12.41 -0.582747538925512 1.02288021402507 -12.6026987208644
Total wall time: 0:00:04
