LAMMPS (29 Oct 2020)
OMP_NUM_THREADS environment is not set. Defaulting to 1 thread. (../comm.cpp:94)
  using 1 OpenMP thread(s) per MPI task
OMP_NUM_THREADS environment is not set. Defaulting to 1 thread. (../comm.cpp:94)
  using 1 OpenMP thread(s) per MPI task
Reading data file ...
  orthogonal box = (-122.39241 -121.13707 -37.090501) to (122.39241 121.13707 37.090501)
  13 by 4 by 1 MPI processor grid
  reading atoms ...
  288751 atoms
  read_data CPU = 0.434 seconds
199981 atoms in group inner
88770 atoms in group outer
1 atoms in group carbon
Neighbor list info ...
  update every 1 steps, delay 0 steps, check yes
  max neighbors/atom: 2000, page size: 100000
  master list distance cutoff = 5.6
  ghost atom cutoff = 5.6
  binsize = 2.8, bins = 88 87 27
  1 neighbor lists, perpetual/occasional/extra = 1 0 0
  (1) pair eam/alloy, perpetual
      attributes: half, newton on
      pair build: half/bin/atomonly/newton
      stencil: half/bin/3d/newton
      bin: standard
Setting up cg style minimization ...
  Unit style    : metal
  Current step  : 0
Per MPI rank memory allocation (min/avg/max) = 5.465 | 6.344 | 6.728 Mbytes
Step v_fx v_fy v_fz PotEng KinEng TotEng 
       0  0.041604951   0.12489456 0.0034732548   -1152444.6            0   -1152444.6 
     245 -1.0962374e-07 4.044078e-07 3.2827185e-07     -1152449            0     -1152449 
Loop time of 5.50543 on 52 procs for 245 steps with 288751 atoms

99.9% CPU use with 52 MPI tasks x 1 OpenMP threads

Minimization stats:
  Stopping criterion = linesearch alpha is zero
  Energy initial, next-to-last, final = 
     -1152444.63021145  -1152448.97218896  -1152448.97218896
  Force two-norm initial, final = 23.793819 0.00011721096
  Force max component initial, final = 13.982997 1.0998607e-05
  Final line search alpha, max atom move = 0.5 5.4993037e-06
  Iterations, force evaluations = 245 488

MPI task timing breakdown:
Section |  min time  |  avg time  |  max time  |%varavg| %total
---------------------------------------------------------------
Pair    | 1.4587     | 3.9187     | 5.1972     |  53.7 | 71.18
Neigh   | 0.00020812 | 0.054493   | 0.081604   |   9.8 |  0.99
Comm    | 0.076379   | 0.88051    | 2.7279     |  81.4 | 15.99
Output  | 0          | 0          | 0          |   0.0 |  0.00
Modify  | 8.1995e-05 | 0.0053914  | 0.013986   |   4.6 |  0.10
Other   |            | 0.6463     |            |       | 11.74

Nlocal:        5552.90 ave        7900 max           0 min
Histogram: 4 2 2 0 2 6 4 0 14 18
Nghost:        6213.65 ave        8768 max         412 min
Histogram: 4 0 4 0 8 0 4 5 7 20
Neighs:       158427.0 ave      230168 max           0 min
Histogram: 4 2 2 0 5 3 4 4 12 16

Total # of neighbors = 8238205
Ave neighs/atom = 28.530481
Neighbor list builds = 9
Dangerous builds = 0
Setting atom values ...
  1 settings made for x
  1 settings made for y
  1 settings made for z
Setting up cg style minimization ...
  Unit style    : metal
  Current step  : 245
Per MPI rank memory allocation (min/avg/max) = 5.465 | 6.344 | 6.728 Mbytes
Step PotEng KinEng TotEng v_fx v_fy v_fz 
     245     -1152449            0     -1152449 -0.0092259404 -0.0083427936 0.00033783824 
     529     -1152449            0     -1152449 -3.0613675e-05 -1.2753394e-05 2.9466074e-05 
Loop time of 6.26943 on 52 procs for 284 steps with 288751 atoms

99.9% CPU use with 52 MPI tasks x 1 OpenMP threads

Minimization stats:
  Stopping criterion = energy tolerance
  Energy initial, next-to-last, final = 
     -1152448.96783105   -1152448.9709097   -1152448.9709097
  Force two-norm initial, final = 0.22568702 0.00025536091
  Force max component initial, final = 0.10757582 7.5099658e-05
  Final line search alpha, max atom move = 1.0000000 7.5099658e-05
  Iterations, force evaluations = 284 568

MPI task timing breakdown:
Section |  min time  |  avg time  |  max time  |%varavg| %total
---------------------------------------------------------------
Pair    | 1.5883     | 4.5277     | 6.0192     |  59.1 | 72.22
Neigh   | 0          | 0          | 0          |   0.0 |  0.00
Comm    | 0.077533   | 1.0099     | 3.1585     |  89.2 | 16.11
Output  | 0          | 0          | 0          |   0.0 |  0.00
Modify  | 0.00010732 | 0.0093787  | 0.019905   |   4.5 |  0.15
Other   |            | 0.7225     |            |       | 11.52

Nlocal:        5552.90 ave        7900 max           0 min
Histogram: 4 2 2 0 2 6 4 0 14 18
Nghost:        6213.69 ave        8768 max         412 min
Histogram: 4 0 4 0 8 0 4 5 7 20
Neighs:       158427.0 ave      230184 max           0 min
Histogram: 4 2 2 0 5 3 4 4 12 16

Total # of neighbors = 8238204
Ave neighs/atom = 28.530478
Neighbor list builds = 0
Dangerous builds = 0
Setting atom values ...
  1 settings made for x
  1 settings made for y
  1 settings made for z
Setting up cg style minimization ...
  Unit style    : metal
  Current step  : 529
Per MPI rank memory allocation (min/avg/max) = 5.465 | 6.344 | 6.728 Mbytes
Step PotEng KinEng TotEng v_fx v_fy v_fz 
     529     -1152449            0     -1152449 0.0070311526  0.022005097  0.011375007 
     715     -1152449            0     -1152449 -2.9653351e-05 -4.9877899e-07 2.4621202e-05 
Loop time of 4.15264 on 52 procs for 186 steps with 288751 atoms

99.9% CPU use with 52 MPI tasks x 1 OpenMP threads

Minimization stats:
  Stopping criterion = linesearch alpha is zero
  Energy initial, next-to-last, final = 
     -1152448.96716177   -1152448.9690573   -1152448.9690573
  Force two-norm initial, final = 0.1582965 0.00022732885
  Force max component initial, final = 0.080437841 2.9653351e-05
  Final line search alpha, max atom move = 0.125 3.7066689e-06
  Iterations, force evaluations = 186 377

MPI task timing breakdown:
Section |  min time  |  avg time  |  max time  |%varavg| %total
---------------------------------------------------------------
Pair    | 1.0632     | 2.9993     | 3.976      |  48.2 | 72.23
Neigh   | 0          | 0          | 0          |   0.0 |  0.00
Comm    | 0.053755   | 0.66597    | 2.0816     |  72.5 | 16.04
Output  | 0          | 0          | 0          |   0.0 |  0.00
Modify  | 6.8833e-05 | 0.0063102  | 0.013507   |   3.7 |  0.15
Other   |            | 0.4811     |            |       | 11.58

Nlocal:        5552.90 ave        7900 max           0 min
Histogram: 4 2 2 0 2 6 4 0 14 18
Nghost:        6213.77 ave        8768 max         412 min
Histogram: 4 0 4 0 8 0 4 5 7 20
Neighs:       158427.0 ave      230179 max           0 min
Histogram: 4 2 2 0 5 3 4 4 12 16

Total # of neighbors = 8238200
Ave neighs/atom = 28.530464
Neighbor list builds = 0
Dangerous builds = 0
The dot product: 4.54740757635548e-07
Setting atom values ...
  1 settings made for x
  1 settings made for y
  1 settings made for z
Setting up cg style minimization ...
  Unit style    : metal
  Current step  : 715
Per MPI rank memory allocation (min/avg/max) = 5.465 | 6.344 | 6.728 Mbytes
Step PotEng KinEng TotEng v_fx v_fy v_fz 
     715     -1152449            0     -1152449  0.018701533  0.043270065 0.0059957855 
     879     -1152449            0     -1152449 4.5618497e-05 -3.4419323e-06 -2.4002767e-05 
Loop time of 3.61957 on 52 procs for 164 steps with 288751 atoms

99.9% CPU use with 52 MPI tasks x 1 OpenMP threads

Minimization stats:
  Stopping criterion = energy tolerance
  Energy initial, next-to-last, final = 
     -1152448.96445169  -1152448.96699807  -1152448.96699807
  Force two-norm initial, final = 0.16834867 0.00018550203
  Force max component initial, final = 0.092700036 6.6273954e-05
  Final line search alpha, max atom move = 1.0000000 6.6273954e-05
  Iterations, force evaluations = 164 328

MPI task timing breakdown:
Section |  min time  |  avg time  |  max time  |%varavg| %total
---------------------------------------------------------------
Pair    | 0.91353    | 2.6122     | 3.4801     |  45.1 | 72.17
Neigh   | 0          | 0          | 0          |   0.0 |  0.00
Comm    | 0.041284   | 0.58202    | 1.8241     |  68.3 | 16.08
Output  | 0          | 0          | 0          |   0.0 |  0.00
Modify  | 5.8701e-05 | 0.0054205  | 0.011511   |   3.4 |  0.15
Other   |            | 0.4199     |            |       | 11.60

Nlocal:        5552.90 ave        7900 max           0 min
Histogram: 4 2 2 0 2 6 4 0 14 18
Nghost:        6213.73 ave        8768 max         412 min
Histogram: 4 0 4 0 8 0 4 5 7 20
Neighs:       158427.0 ave      230181 max           0 min
Histogram: 4 2 2 0 5 3 4 4 12 16

Total # of neighbors = 8238204
Ave neighs/atom = 28.530478
Neighbor list builds = 0
Dangerous builds = 0
The dot product: -1.59616053975217e-06
Setting atom values ...
  1 settings made for x
  1 settings made for y
  1 settings made for z
Setting up cg style minimization ...
  Unit style    : metal
  Current step  : 879
Per MPI rank memory allocation (min/avg/max) = 5.465 | 6.344 | 6.728 Mbytes
Step PotEng KinEng TotEng v_fx v_fy v_fz 
     879     -1152449            0     -1152449  0.022725827   0.04776929 0.0025132975 
    1000     -1152449            0     -1152449 0.00013282166 1.5521795e-06 -1.0829336e-05 
    1064     -1152449            0     -1152449 -1.3363149e-05 3.8985861e-07 1.1397228e-06 
Loop time of 4.08857 on 52 procs for 185 steps with 288751 atoms

99.9% CPU use with 52 MPI tasks x 1 OpenMP threads

Minimization stats:
  Stopping criterion = linesearch alpha is zero
  Energy initial, next-to-last, final = 
     -1152448.96250067  -1152448.96547316  -1152448.96547316
  Force two-norm initial, final = 0.18937231 5.8293741e-05
  Force max component initial, final = 0.086071463 1.3363149e-05
  Final line search alpha, max atom move = 0.5 6.6815743e-06
  Iterations, force evaluations = 185 371

MPI task timing breakdown:
Section |  min time  |  avg time  |  max time  |%varavg| %total
---------------------------------------------------------------
Pair    | 1.0457     | 2.9507     | 3.9183     |  47.9 | 72.17
Neigh   | 0          | 0          | 0          |   0.0 |  0.00
Comm    | 0.052164   | 0.65675    | 2.053      |  71.9 | 16.06
Output  | 0.00020144 | 0.00020512 | 0.00035599 |   0.0 |  0.01
Modify  | 6.5763e-05 | 0.0062319  | 0.013206   |   3.7 |  0.15
Other   |            | 0.4747     |            |       | 11.61

Nlocal:        5552.90 ave        7902 max           0 min
Histogram: 4 2 2 0 2 6 4 0 15 17
Nghost:        6213.69 ave        8769 max         412 min
Histogram: 4 0 4 0 8 0 4 5 7 20
Neighs:       158427.0 ave      230245 max           0 min
Histogram: 4 2 2 0 5 3 4 4 12 16

Total # of neighbors = 8238211
Ave neighs/atom = 28.530502
Neighbor list builds = 0
Dangerous builds = 0
The dot product: 2.98413502049044e-07
Setting atom values ...
  1 settings made for x
  1 settings made for y
  1 settings made for z
Setting up cg style minimization ...
  Unit style    : metal
  Current step  : 1064
Per MPI rank memory allocation (min/avg/max) = 5.465 | 6.344 | 6.728 Mbytes
Step PotEng KinEng TotEng v_fx v_fy v_fz 
    1064     -1152449            0     -1152449  0.042297204  0.037752749 0.0056395142 
    1231     -1152449            0     -1152449 -6.8988202e-05 -1.6988742e-06 -9.1320851e-06 
Loop time of 3.68374 on 52 procs for 167 steps with 288751 atoms

99.8% CPU use with 52 MPI tasks x 1 OpenMP threads

Minimization stats:
  Stopping criterion = energy tolerance
  Energy initial, next-to-last, final = 
     -1152448.96089257  -1152448.96415318  -1152448.96415318
  Force two-norm initial, final = 0.20450597 0.00035290448
  Force max component initial, final = 0.097718353 7.4076214e-05
  Final line search alpha, max atom move = 1.0000000 7.4076214e-05
  Iterations, force evaluations = 167 334

MPI task timing breakdown:
Section |  min time  |  avg time  |  max time  |%varavg| %total
---------------------------------------------------------------
Pair    | 0.93893    | 2.6579     | 3.5094     |  45.4 | 72.15
Neigh   | 0          | 0          | 0          |   0.0 |  0.00
Comm    | 0.04416    | 0.59121    | 1.8563     |  68.8 | 16.05
Output  | 0          | 0          | 0          |   0.0 |  0.00
Modify  | 6.3541e-05 | 0.0056071  | 0.01182    |   3.5 |  0.15
Other   |            | 0.429      |            |       | 11.65

Nlocal:        5552.90 ave        7902 max           0 min
Histogram: 4 2 2 0 2 6 4 0 15 17
Nghost:        6213.69 ave        8769 max         412 min
Histogram: 4 0 4 0 8 0 4 5 7 20
Neighs:       158427.0 ave      230246 max           0 min
Histogram: 4 2 2 0 5 3 4 4 12 16

Total # of neighbors = 8238213
Ave neighs/atom = 28.530509
Neighbor list builds = 0
Dangerous builds = 0
The dot product: 9.54682435762036e-07
Setting atom values ...
  1 settings made for x
  1 settings made for y
  1 settings made for z
Setting up cg style minimization ...
  Unit style    : metal
  Current step  : 1231
Per MPI rank memory allocation (min/avg/max) = 5.465 | 6.344 | 6.728 Mbytes
Step PotEng KinEng TotEng v_fx v_fy v_fz 
    1231     -1152449            0     -1152449  0.052742628  0.031849677  0.012395713 
    1375     -1152449            0     -1152449 -4.139231e-05 -3.6496052e-06 -1.0172241e-05 
Loop time of 3.21152 on 52 procs for 144 steps with 288751 atoms

99.9% CPU use with 52 MPI tasks x 1 OpenMP threads

Minimization stats:
  Stopping criterion = linesearch alpha is zero
  Energy initial, next-to-last, final = 
     -1152448.95999126  -1152448.96251705  -1152448.96251705
  Force two-norm initial, final = 0.21452639 0.00019211394
  Force max component initial, final = 0.10927336 5.6180719e-05
  Final line search alpha, max atom move = 0.25 1.4045180e-05
  Iterations, force evaluations = 144 291

MPI task timing breakdown:
Section |  min time  |  avg time  |  max time  |%varavg| %total
---------------------------------------------------------------
Pair    | 0.81521    | 2.3177     | 3.0854     |  42.3 | 72.17
Neigh   | 0          | 0          | 0          |   0.0 |  0.00
Comm    | 0.037639   | 0.51435    | 1.609      |  64.0 | 16.02
Output  | 0          | 0          | 0          |   0.0 |  0.00
Modify  | 4.9493e-05 | 0.0048157  | 0.010228   |   3.2 |  0.15
Other   |            | 0.3747     |            |       | 11.67

Nlocal:        5552.90 ave        7904 max           0 min
Histogram: 4 2 2 0 2 6 4 0 15 17
Nghost:        6213.58 ave        8769 max         412 min
Histogram: 4 0 4 0 8 0 4 5 7 20
Neighs:       158427.0 ave      230332 max           0 min
Histogram: 4 2 2 0 5 3 4 4 12 16

Total # of neighbors = 8238213
Ave neighs/atom = 28.530509
Neighbor list builds = 0
Dangerous builds = 0
The dot product: -6.02123106372663e-08
Setting atom values ...
  1 settings made for x
  1 settings made for y
  1 settings made for z
Setting up cg style minimization ...
  Unit style    : metal
  Current step  : 1375
Per MPI rank memory allocation (min/avg/max) = 5.465 | 6.344 | 6.728 Mbytes
Step PotEng KinEng TotEng v_fx v_fy v_fz 
    1375     -1152449            0     -1152449  0.063469873   0.03343179  0.013975782 
    1583     -1152449            0     -1152449 -1.413902e-05 -1.1232852e-06 -3.3323843e-06 
Loop time of 4.60182 on 52 procs for 208 steps with 288751 atoms

99.9% CPU use with 52 MPI tasks x 1 OpenMP threads

Minimization stats:
  Stopping criterion = linesearch alpha is zero
  Energy initial, next-to-last, final = 
     -1152448.95774268  -1152448.96021568  -1152448.96021568
  Force two-norm initial, final = 0.2169984 6.8977700e-05
  Force max component initial, final = 0.10934946 2.0441112e-05
  Final line search alpha, max atom move = 0.5 1.0220556e-05
  Iterations, force evaluations = 208 417

MPI task timing breakdown:
Section |  min time  |  avg time  |  max time  |%varavg| %total
---------------------------------------------------------------
Pair    | 1.1707     | 3.3234     | 4.418      |  50.9 | 72.22
Neigh   | 0          | 0          | 0          |   0.0 |  0.00
Comm    | 0.054803   | 0.74371    | 2.3329     |  76.4 | 16.16
Output  | 0          | 0          | 0          |   0.0 |  0.00
Modify  | 8.9029e-05 | 0.0069417  | 0.015307   |   3.9 |  0.15
Other   |            | 0.5278     |            |       | 11.47

Nlocal:        5552.90 ave        7905 max           0 min
Histogram: 4 2 2 0 2 6 4 0 15 17
Nghost:        6213.62 ave        8769 max         412 min
Histogram: 4 0 4 0 8 0 4 5 7 20
Neighs:       158427.0 ave      230371 max           0 min
Histogram: 4 2 2 0 5 3 4 4 12 16

Total # of neighbors = 8238210
Ave neighs/atom = 28.530499
Neighbor list builds = 0
Dangerous builds = 0
The dot product: -7.27921420231253e-08
Setting atom values ...
  1 settings made for x
  1 settings made for y
  1 settings made for z
Setting up cg style minimization ...
  Unit style    : metal
  Current step  : 1583
Per MPI rank memory allocation (min/avg/max) = 5.465 | 6.344 | 6.728 Mbytes
Step PotEng KinEng TotEng v_fx v_fy v_fz 
    1583     -1152449            0     -1152449  0.070207636  0.035513739   0.01286301 
    1756     -1152449            0     -1152449 -3.1356732e-05 -3.153923e-06 -6.3547062e-06 
Loop time of 3.82074 on 52 procs for 173 steps with 288751 atoms

99.9% CPU use with 52 MPI tasks x 1 OpenMP threads

Minimization stats:
  Stopping criterion = energy tolerance
  Energy initial, next-to-last, final = 
     -1152448.95490635  -1152448.95750697  -1152448.95750697
  Force two-norm initial, final = 0.21691557 0.00017968988
  Force max component initial, final = 0.10705121 5.6404287e-05
  Final line search alpha, max atom move = 1.0000000 5.6404287e-05
  Iterations, force evaluations = 173 346

MPI task timing breakdown:
Section |  min time  |  avg time  |  max time  |%varavg| %total
---------------------------------------------------------------
Pair    | 0.97251    | 2.7546     | 3.6685     |  46.3 | 72.10
Neigh   | 0          | 0          | 0          |   0.0 |  0.00
Comm    | 0.046265   | 0.61214    | 1.9089     |  69.5 | 16.02
Output  | 0          | 0          | 0          |   0.0 |  0.00
Modify  | 6.1359e-05 | 0.0057775  | 0.012662   |   3.6 |  0.15
Other   |            | 0.4482     |            |       | 11.73

Nlocal:        5552.90 ave        7906 max           0 min
Histogram: 4 2 2 0 2 6 4 0 15 17
Nghost:        6213.62 ave        8769 max         412 min
Histogram: 4 0 4 0 8 0 4 5 7 20
Neighs:       158427.0 ave      230418 max           0 min
Histogram: 4 2 2 0 5 3 4 4 12 16

Total # of neighbors = 8238205
Ave neighs/atom = 28.530481
Neighbor list builds = 0
Dangerous builds = 0
The dot product: -1.48184769053794e-07
Setting atom values ...
  1 settings made for x
  1 settings made for y
  1 settings made for z
Setting up cg style minimization ...
  Unit style    : metal
  Current step  : 1756
Per MPI rank memory allocation (min/avg/max) = 5.465 | 6.344 | 6.728 Mbytes
Step PotEng KinEng TotEng v_fx v_fy v_fz 
    1756     -1152449            0     -1152449  0.073316758  0.037271488  0.011120145 
    1919     -1152449            0     -1152449 2.332552e-05 1.0236437e-06 4.1993741e-06 
Loop time of 3.61426 on 52 procs for 163 steps with 288751 atoms

99.9% CPU use with 52 MPI tasks x 1 OpenMP threads

Minimization stats:
  Stopping criterion = energy tolerance
  Energy initial, next-to-last, final = 
     -1152448.95184373  -1152448.95412738  -1152448.95412738
  Force two-norm initial, final = 0.21602135 0.00023997773
  Force max component initial, final = 0.1049349 4.7568822e-05
  Final line search alpha, max atom move = 1.0000000 4.7568822e-05
  Iterations, force evaluations = 163 326

MPI task timing breakdown:
Section |  min time  |  avg time  |  max time  |%varavg| %total
---------------------------------------------------------------
Pair    | 0.92745    | 2.6042     | 3.4663     |  44.7 | 72.05
Neigh   | 0          | 0          | 0          |   0.0 |  0.00
Comm    | 0.043776   | 0.5813     | 1.8202     |  67.7 | 16.08
Output  | 0          | 0          | 0          |   0.0 |  0.00
Modify  | 5.959e-05  | 0.0054544  | 0.011471   |   3.4 |  0.15
Other   |            | 0.4233     |            |       | 11.71

Nlocal:        5552.90 ave        7906 max           0 min
Histogram: 4 2 2 0 2 6 4 0 15 17
Nghost:        6213.62 ave        8769 max         412 min
Histogram: 4 0 4 0 8 0 4 5 7 20
Neighs:       158427.0 ave      230427 max           0 min
Histogram: 4 2 2 0 5 3 4 4 12 16

Total # of neighbors = 8238204
Ave neighs/atom = 28.530478
Neighbor list builds = 0
Dangerous builds = 0
The dot product: 1.56058096854492e-07
Setting atom values ...
  1 settings made for x
  1 settings made for y
  1 settings made for z
Setting up cg style minimization ...
  Unit style    : metal
  Current step  : 1919
Per MPI rank memory allocation (min/avg/max) = 5.465 | 6.344 | 6.728 Mbytes
Step PotEng KinEng TotEng v_fx v_fy v_fz 
    1919   -1152448.9            0   -1152448.9   0.07841513   0.03915746 0.0088440778 
    2000   -1152448.9            0   -1152448.9 -0.00018157088 -2.4470565e-05 -2.5433497e-05 
    2088   -1152448.9            0   -1152448.9 3.6532702e-05 3.9176096e-06 5.1926048e-06 
Loop time of 3.71101 on 52 procs for 169 steps with 288751 atoms

99.9% CPU use with 52 MPI tasks x 1 OpenMP threads

Minimization stats:
  Stopping criterion = energy tolerance
  Energy initial, next-to-last, final = 
      -1152448.9477275  -1152448.94995896  -1152448.94995896
  Force two-norm initial, final = 0.21509644 0.0001699025
  Force max component initial, final = 0.101771 6.0458820e-05
  Final line search alpha, max atom move = 1.0000000 6.0458820e-05
  Iterations, force evaluations = 169 338

MPI task timing breakdown:
Section |  min time  |  avg time  |  max time  |%varavg| %total
---------------------------------------------------------------
Pair    | 0.95105    | 2.6896     | 3.5607     |  45.7 | 72.48
Neigh   | 0          | 0          | 0          |   0.0 |  0.00
Comm    | 0.044945   | 0.59381    | 1.8683     |  69.1 | 16.00
Output  | 0.00013164 | 0.00013518 | 0.00028096 |   0.0 |  0.00
Modify  | 6.3167e-05 | 0.0056429  | 0.01199    |   3.5 |  0.15
Other   |            | 0.4218     |            |       | 11.37

Nlocal:        5552.90 ave        7906 max           0 min
Histogram: 4 2 2 0 2 6 4 0 15 17
Nghost:        6213.62 ave        8769 max         412 min
Histogram: 4 0 4 0 8 0 4 5 7 20
Neighs:       158427.0 ave      230442 max           0 min
Histogram: 4 2 2 0 5 3 4 4 12 16

Total # of neighbors = 8238201
Ave neighs/atom = 28.530467
Neighbor list builds = 0
Dangerous builds = 0
The dot product: 3.00048374005012e-07
Setting atom values ...
  1 settings made for x
  1 settings made for y
  1 settings made for z
Setting up cg style minimization ...
  Unit style    : metal
  Current step  : 2088
Per MPI rank memory allocation (min/avg/max) = 5.465 | 6.344 | 6.728 Mbytes
Step PotEng KinEng TotEng v_fx v_fy v_fz 
    2088   -1152448.9            0   -1152448.9  0.082456362  0.040215786 0.0059274999 
    2234   -1152448.9            0   -1152448.9 -6.651988e-06 4.5251121e-09 -7.6277957e-07 
Loop time of 3.28875 on 52 procs for 146 steps with 288751 atoms

99.9% CPU use with 52 MPI tasks x 1 OpenMP threads

Minimization stats:
  Stopping criterion = energy tolerance
  Energy initial, next-to-last, final = 
     -1152448.94286446  -1152448.94505371  -1152448.94505371
  Force two-norm initial, final = 0.21338363 0.00027802896
  Force max component initial, final = 0.097685254 2.9644774e-05
  Final line search alpha, max atom move = 1.0000000 2.9644774e-05
  Iterations, force evaluations = 146 298

MPI task timing breakdown:
Section |  min time  |  avg time  |  max time  |%varavg| %total
---------------------------------------------------------------
Pair    | 0.83285    | 2.3762     | 3.1625     |  42.9 | 72.25
Neigh   | 0          | 0          | 0          |   0.0 |  0.00
Comm    | 0.038153   | 0.52932    | 1.6604     |  64.9 | 16.09
Output  | 0          | 0          | 0          |   0.0 |  0.00
Modify  | 5.1963e-05 | 0.0049288  | 0.010487   |   3.3 |  0.15
Other   |            | 0.3783     |            |       | 11.50

Nlocal:        5552.90 ave        7907 max           0 min
Histogram: 4 2 2 0 2 6 4 0 15 17
Nghost:        6213.65 ave        8769 max         412 min
Histogram: 4 0 4 0 8 0 4 5 7 20
Neighs:       158427.0 ave      230496 max           0 min
Histogram: 4 2 2 0 5 3 4 4 12 16

Total # of neighbors = 8238208
Ave neighs/atom = 28.530492
Neighbor list builds = 0
Dangerous builds = 0
The dot product: -5.41339737950811e-08
Setting atom values ...
  1 settings made for x
  1 settings made for y
  1 settings made for z
Setting up cg style minimization ...
  Unit style    : metal
  Current step  : 2234
Per MPI rank memory allocation (min/avg/max) = 5.465 | 6.344 | 6.728 Mbytes
Step PotEng KinEng TotEng v_fx v_fy v_fz 
    2234   -1152448.9            0   -1152448.9   0.08451965   0.04101888 0.0027467047 
    2430   -1152448.9            0   -1152448.9 -5.4243802e-06 -9.7430313e-07 -3.4234159e-07 
Loop time of 4.33584 on 52 procs for 196 steps with 288751 atoms

99.9% CPU use with 52 MPI tasks x 1 OpenMP threads

Minimization stats:
  Stopping criterion = linesearch alpha is zero
  Energy initial, next-to-last, final = 
      -1152448.9372809  -1152448.93935228  -1152448.93935228
  Force two-norm initial, final = 0.21110172 6.7035372e-05
  Force max component initial, final = 0.093261025 9.9174860e-06
  Final line search alpha, max atom move = 0.5 4.9587430e-06
  Iterations, force evaluations = 196 393

MPI task timing breakdown:
Section |  min time  |  avg time  |  max time  |%varavg| %total
---------------------------------------------------------------
Pair    | 1.1016     | 3.1293     | 4.1669     |  49.3 | 72.17
Neigh   | 0          | 0          | 0          |   0.0 |  0.00
Comm    | 0.051733   | 0.69594    | 2.1723     |  74.0 | 16.05
Output  | 0          | 0          | 0          |   0.0 |  0.00
Modify  | 7.1733e-05 | 0.0065233  | 0.013991   |   3.8 |  0.15
Other   |            | 0.5041     |            |       | 11.63

Nlocal:        5552.90 ave        7908 max           0 min
Histogram: 4 2 2 0 2 6 4 0 15 17
Nghost:        6213.65 ave        8769 max         412 min
Histogram: 4 0 4 0 8 0 4 5 7 20
Neighs:       158427.0 ave      230519 max           0 min
Histogram: 4 2 2 0 5 3 4 4 12 16

Total # of neighbors = 8238202
Ave neighs/atom = 28.530471
Neighbor list builds = 0
Dangerous builds = 0
The dot product: -4.13100155011798e-08
Setting atom values ...
  1 settings made for x
  1 settings made for y
  1 settings made for z
Setting up cg style minimization ...
  Unit style    : metal
  Current step  : 2430
Per MPI rank memory allocation (min/avg/max) = 5.465 | 6.344 | 6.728 Mbytes
Step PotEng KinEng TotEng v_fx v_fy v_fz 
    2430   -1152448.9            0   -1152448.9  0.084231624  0.041986791 -0.00018930493 
    2596   -1152448.9            0   -1152448.9 2.8660258e-05 4.7026475e-06 1.0295021e-06 
Loop time of 3.67273 on 52 procs for 166 steps with 288751 atoms

99.9% CPU use with 52 MPI tasks x 1 OpenMP threads

Minimization stats:
  Stopping criterion = energy tolerance
  Energy initial, next-to-last, final = 
       -1152448.930825  -1152448.93280591  -1152448.93280591
  Force two-norm initial, final = 0.20875151 0.00014417709
  Force max component initial, final = 0.089538161 3.8224436e-05
  Final line search alpha, max atom move = 1.0000000 3.8224436e-05
  Iterations, force evaluations = 166 334

MPI task timing breakdown:
Section |  min time  |  avg time  |  max time  |%varavg| %total
---------------------------------------------------------------
Pair    | 0.9408     | 2.6621     | 3.5292     |  45.6 | 72.48
Neigh   | 0          | 0          | 0          |   0.0 |  0.00
Comm    | 0.043526   | 0.59132    | 1.8583     |  68.7 | 16.10
Output  | 0          | 0          | 0          |   0.0 |  0.00
Modify  | 5.771e-05  | 0.0055832  | 0.012005   |   3.5 |  0.15
Other   |            | 0.4137     |            |       | 11.26

Nlocal:        5552.90 ave        7909 max           0 min
Histogram: 4 2 2 0 2 6 4 0 15 17
Nghost:        6213.65 ave        8769 max         412 min
Histogram: 4 0 4 0 8 0 4 5 7 20
Neighs:       158427.0 ave      230550 max           0 min
Histogram: 4 2 2 0 5 3 4 4 12 16

Total # of neighbors = 8238200
Ave neighs/atom = 28.530464
Neighbor list builds = 0
Dangerous builds = 0
The dot product: 1.95722115152738e-07
Setting atom values ...
  1 settings made for x
  1 settings made for y
  1 settings made for z
Setting up cg style minimization ...
  Unit style    : metal
  Current step  : 2596
Per MPI rank memory allocation (min/avg/max) = 5.465 | 6.344 | 6.728 Mbytes
Step PotEng KinEng TotEng v_fx v_fy v_fz 
    2596   -1152448.9            0   -1152448.9  0.083457843  0.036177133 -0.0019206606 
    2762   -1152448.9            0   -1152448.9 -3.5220065e-05 -5.8629833e-06 -4.0330299e-07 
Loop time of 3.67326 on 52 procs for 166 steps with 288751 atoms

99.9% CPU use with 52 MPI tasks x 1 OpenMP threads

Minimization stats:
  Stopping criterion = linesearch alpha is zero
  Energy initial, next-to-last, final = 
     -1152448.92336884  -1152448.92526124  -1152448.92526124
  Force two-norm initial, final = 0.20508804 0.00014029695
  Force max component initial, final = 0.086206045 3.5220065e-05
  Final line search alpha, max atom move = 0.5 1.7610032e-05
  Iterations, force evaluations = 166 333

MPI task timing breakdown:
Section |  min time  |  avg time  |  max time  |%varavg| %total
---------------------------------------------------------------
Pair    | 0.93509    | 2.6503     | 3.5304     |  45.3 | 72.15
Neigh   | 0          | 0          | 0          |   0.0 |  0.00
Comm    | 0.043409   | 0.58826    | 1.8349     |  68.2 | 16.01
Output  | 0          | 0          | 0          |   0.0 |  0.00
Modify  | 5.4963e-05 | 0.0055412  | 0.011949   |   3.5 |  0.15
Other   |            | 0.4292     |            |       | 11.68

Nlocal:        5552.90 ave        7909 max           0 min
Histogram: 4 2 2 0 2 6 4 0 15 17
Nghost:        6213.65 ave        8769 max         412 min
Histogram: 4 0 4 0 8 0 4 5 7 20
Neighs:       158427.0 ave      230552 max           0 min
Histogram: 4 2 2 0 5 3 4 4 12 16

Total # of neighbors = 8238199
Ave neighs/atom = 28.530461
Neighbor list builds = 0
Dangerous builds = 0
The dot product: -2.07370677954641e-07
Setting atom values ...
  1 settings made for x
  1 settings made for y
  1 settings made for z
Setting up cg style minimization ...
  Unit style    : metal
  Current step  : 2762
Per MPI rank memory allocation (min/avg/max) = 5.465 | 6.344 | 6.728 Mbytes
Step PotEng KinEng TotEng v_fx v_fy v_fz 
    2762   -1152448.9            0   -1152448.9  0.082723876  0.026212065 -0.0023847749 
    2942   -1152448.9            0   -1152448.9 -5.5605864e-06 -2.1352795e-06 2.1193751e-07 
Loop time of 3.99643 on 52 procs for 180 steps with 288751 atoms

99.9% CPU use with 52 MPI tasks x 1 OpenMP threads

Minimization stats:
  Stopping criterion = linesearch alpha is zero
  Energy initial, next-to-last, final = 
     -1152448.91460134  -1152448.91647173  -1152448.91647173
  Force two-norm initial, final = 0.20200621 9.5066853e-05
  Force max component initial, final = 0.0838398 5.5605864e-06
  Final line search alpha, max atom move = 0.5 2.7802932e-06
  Iterations, force evaluations = 180 361

MPI task timing breakdown:
Section |  min time  |  avg time  |  max time  |%varavg| %total
---------------------------------------------------------------
Pair    | 1.0154     | 2.8753     | 3.8256     |  47.4 | 71.95
Neigh   | 0          | 0          | 0          |   0.0 |  0.00
Comm    | 0.047864   | 0.64415    | 2.0054     |  70.6 | 16.12
Output  | 0          | 0          | 0          |   0.0 |  0.00
Modify  | 8.4342e-05 | 0.006054   | 0.01322    |   3.7 |  0.15
Other   |            | 0.471      |            |       | 11.78

Nlocal:        5552.90 ave        7909 max           0 min
Histogram: 4 2 2 0 2 6 4 0 15 17
Nghost:        6213.65 ave        8769 max         412 min
Histogram: 4 0 4 0 8 0 4 5 7 20
Neighs:       158427.0 ave      230552 max           0 min
Histogram: 4 2 2 0 5 3 4 4 12 16

Total # of neighbors = 8238198
Ave neighs/atom = 28.530457
Neighbor list builds = 0
Dangerous builds = 0
The dot product: -2.85709357309312e-08
Setting atom values ...
  1 settings made for x
  1 settings made for y
  1 settings made for z
Setting up cg style minimization ...
  Unit style    : metal
  Current step  : 2942
Per MPI rank memory allocation (min/avg/max) = 5.465 | 6.344 | 6.728 Mbytes
Step PotEng KinEng TotEng v_fx v_fy v_fz 
    2942   -1152448.9            0   -1152448.9  0.082391498  0.020507716 -0.002882369 
    3000   -1152448.9            0   -1152448.9 -0.000137589 -1.3792213e-05 1.9236809e-06 
    3086   -1152448.9            0   -1152448.9 2.6331421e-05 4.5043812e-06 -6.3160771e-07 
Loop time of 3.18731 on 52 procs for 144 steps with 288751 atoms

99.9% CPU use with 52 MPI tasks x 1 OpenMP threads

Minimization stats:
  Stopping criterion = energy tolerance
  Energy initial, next-to-last, final = 
      -1152448.9044646  -1152448.90632809  -1152448.90632809
  Force two-norm initial, final = 0.20047991 0.00030753093
  Force max component initial, final = 0.082510848 2.6331421e-05
  Final line search alpha, max atom move = 1.0000000 2.6331421e-05
  Iterations, force evaluations = 144 288

MPI task timing breakdown:
Section |  min time  |  avg time  |  max time  |%varavg| %total
---------------------------------------------------------------
Pair    | 0.80937    | 2.2941     | 3.0594     |  42.2 | 71.98
Neigh   | 0          | 0          | 0          |   0.0 |  0.00
Comm    | 0.04049    | 0.51144    | 1.5915     |  63.3 | 16.05
Output  | 0.00020237 | 0.00020673 | 0.00035729 |   0.0 |  0.01
Modify  | 5.5458e-05 | 0.0047953  | 0.010255   |   3.2 |  0.15
Other   |            | 0.3768     |            |       | 11.82

Nlocal:        5552.90 ave        7909 max           0 min
Histogram: 4 2 2 0 2 6 4 0 15 17
Nghost:        6213.65 ave        8769 max         412 min
Histogram: 4 0 4 0 8 0 4 5 7 20
Neighs:       158427.0 ave      230553 max           0 min
Histogram: 4 2 2 0 5 3 4 4 12 16

Total # of neighbors = 8238198
Ave neighs/atom = 28.530457
Neighbor list builds = 0
Dangerous builds = 0
The dot product: 1.10008799184904e-07
Setting atom values ...
  1 settings made for x
  1 settings made for y
  1 settings made for z
Setting up cg style minimization ...
  Unit style    : metal
  Current step  : 3086
Per MPI rank memory allocation (min/avg/max) = 5.465 | 6.344 | 6.728 Mbytes
Step PotEng KinEng TotEng v_fx v_fy v_fz 
    3086   -1152448.9            0   -1152448.9  0.081966717    0.0170741 -0.0033994438 
    3253   -1152448.9            0   -1152448.9 -5.036388e-05 -9.2923491e-06 1.9193053e-06 
Loop time of 3.70087 on 52 procs for 167 steps with 288751 atoms

99.9% CPU use with 52 MPI tasks x 1 OpenMP threads

Minimization stats:
  Stopping criterion = energy tolerance
  Energy initial, next-to-last, final = 
      -1152448.8929652  -1152448.89483691  -1152448.89483691
  Force two-norm initial, final = 0.19952619 0.00015292689
  Force max component initial, final = 0.084144046 5.0363880e-05
  Final line search alpha, max atom move = 1.0000000 5.0363880e-05
  Iterations, force evaluations = 167 334

MPI task timing breakdown:
Section |  min time  |  avg time  |  max time  |%varavg| %total
---------------------------------------------------------------
Pair    | 0.93271    | 2.6572     | 3.5443     |  45.4 | 71.80
Neigh   | 0          | 0          | 0          |   0.0 |  0.00
Comm    | 0.0441     | 0.59501    | 1.8602     |  68.4 | 16.08
Output  | 0          | 0          | 0          |   0.0 |  0.00
Modify  | 6.1476e-05 | 0.0055368  | 0.011706   |   3.5 |  0.15
Other   |            | 0.4431     |            |       | 11.97

Nlocal:        5552.90 ave        7910 max           0 min
Histogram: 4 2 2 0 2 6 4 0 15 17
Nghost:        6213.60 ave        8769 max         412 min
Histogram: 4 0 4 0 8 0 4 5 7 20
Neighs:       158427.0 ave      230589 max           0 min
Histogram: 4 2 2 0 5 3 4 4 12 16

Total # of neighbors = 8238200
Ave neighs/atom = 28.530464
Neighbor list builds = 0
Dangerous builds = 0
The dot product: -1.51455441907612e-07
Setting atom values ...
  1 settings made for x
  1 settings made for y
  1 settings made for z
Setting up cg style minimization ...
  Unit style    : metal
  Current step  : 3253
Per MPI rank memory allocation (min/avg/max) = 5.465 | 6.344 | 6.728 Mbytes
Step PotEng KinEng TotEng v_fx v_fy v_fz 
    3253   -1152448.9            0   -1152448.9  0.080452685   0.01452547 -0.0036902571 
    3454   -1152448.9            0   -1152448.9 3.4466559e-05 6.5709451e-06 -1.629799e-06 
Loop time of 4.44345 on 52 procs for 201 steps with 288751 atoms

99.9% CPU use with 52 MPI tasks x 1 OpenMP threads

Minimization stats:
  Stopping criterion = linesearch alpha is zero
  Energy initial, next-to-last, final = 
     -1152448.88015542  -1152448.88212356  -1152448.88212356
  Force two-norm initial, final = 0.19856239 0.00011201443
  Force max component initial, final = 0.085589329 3.4466559e-05
  Final line search alpha, max atom move = 0.5 1.7233280e-05
  Iterations, force evaluations = 201 403

MPI task timing breakdown:
Section |  min time  |  avg time  |  max time  |%varavg| %total
---------------------------------------------------------------
Pair    | 1.137      | 3.2074     | 4.2705     |  50.0 | 72.18
Neigh   | 0          | 0          | 0          |   0.0 |  0.00
Comm    | 0.051667   | 0.71169    | 2.219      |  74.8 | 16.02
Output  | 0          | 0          | 0          |   0.0 |  0.00
Modify  | 7.1705e-05 | 0.0067478  | 0.014657   |   3.9 |  0.15
Other   |            | 0.5176     |            |       | 11.65

Nlocal:        5552.90 ave        7910 max           0 min
Histogram: 4 2 2 0 2 6 4 0 15 17
Nghost:        6213.67 ave        8770 max         412 min
Histogram: 4 0 4 0 8 0 4 5 7 20
Neighs:       158427.0 ave      230591 max           0 min
Histogram: 4 2 2 0 5 3 4 4 12 16

Total # of neighbors = 8238198
Ave neighs/atom = 28.530457
Neighbor list builds = 0
Dangerous builds = 0
The dot product: -1.03762458535818e-07
Setting atom values ...
  1 settings made for x
  1 settings made for y
  1 settings made for z
Setting up cg style minimization ...
  Unit style    : metal
  Current step  : 3454
Per MPI rank memory allocation (min/avg/max) = 5.465 | 6.344 | 6.728 Mbytes
Step PotEng KinEng TotEng v_fx v_fy v_fz 
    3454   -1152448.9            0   -1152448.9  0.071362288  0.013414588 -0.0027849706 
    3595   -1152448.9            0   -1152448.9 -4.8100674e-05 -1.1131468e-05 2.1676186e-06 
Loop time of 3.11302 on 52 procs for 141 steps with 288751 atoms

99.9% CPU use with 52 MPI tasks x 1 OpenMP threads

Minimization stats:
  Stopping criterion = energy tolerance
  Energy initial, next-to-last, final = 
     -1152448.86649424  -1152448.86917957  -1152448.86917957
  Force two-norm initial, final = 0.19618896 0.00019242122
  Force max component initial, final = 0.085395575 5.2917769e-05
  Final line search alpha, max atom move = 1.0000000 5.2917769e-05
  Iterations, force evaluations = 141 282

MPI task timing breakdown:
Section |  min time  |  avg time  |  max time  |%varavg| %total
---------------------------------------------------------------
Pair    | 0.78517    | 2.2446     | 2.9927     |  41.8 | 72.10
Neigh   | 0          | 0          | 0          |   0.0 |  0.00
Comm    | 0.035623   | 0.50263    | 1.5751     |  63.1 | 16.15
Output  | 0          | 0          | 0          |   0.0 |  0.00
Modify  | 5.2461e-05 | 0.0046663  | 0.0098962  |   3.2 |  0.15
Other   |            | 0.3611     |            |       | 11.60

Nlocal:        5552.90 ave        7912 max           0 min
Histogram: 4 2 2 0 2 6 4 0 15 17
Nghost:        6213.67 ave        8770 max         412 min
Histogram: 4 0 4 0 8 0 4 5 7 20
Neighs:       158427.0 ave      230649 max           0 min
Histogram: 4 2 2 0 5 3 4 4 12 16

Total # of neighbors = 8238193
Ave neighs/atom = 28.530440
Neighbor list builds = 0
Dangerous builds = 0
The dot product: 9.04671729486768e-07
Setting atom values ...
  1 settings made for x
  1 settings made for y
  1 settings made for z
Setting up cg style minimization ...
  Unit style    : metal
  Current step  : 3595
Per MPI rank memory allocation (min/avg/max) = 5.465 | 6.344 | 6.728 Mbytes
Step PotEng KinEng TotEng v_fx v_fy v_fz 
    3595   -1152448.9            0   -1152448.9  0.048372546  0.013245034 -0.00019483384 
    3777   -1152448.9            0   -1152448.9 -2.7998212e-05 -4.2013741e-06 -3.5932452e-07 
Loop time of 4.03765 on 52 procs for 182 steps with 288751 atoms

99.9% CPU use with 52 MPI tasks x 1 OpenMP threads

Minimization stats:
  Stopping criterion = energy tolerance
  Energy initial, next-to-last, final = 
     -1152448.85327146  -1152448.85545179  -1152448.85545179
  Force two-norm initial, final = 0.19314751 0.00019097943
  Force max component initial, final = 0.08626304 4.7625996e-05
  Final line search alpha, max atom move = 1.0000000 4.7625996e-05
  Iterations, force evaluations = 182 364

MPI task timing breakdown:
Section |  min time  |  avg time  |  max time  |%varavg| %total
---------------------------------------------------------------
Pair    | 1.0208     | 2.9035     | 3.8579     |  47.5 | 71.91
Neigh   | 0          | 0          | 0          |   0.0 |  0.00
Comm    | 0.04787    | 0.64661    | 2.0204     |  71.3 | 16.01
Output  | 0          | 0          | 0          |   0.0 |  0.00
Modify  | 6.4191e-05 | 0.0060446  | 0.013134   |   3.6 |  0.15
Other   |            | 0.4815     |            |       | 11.93

Nlocal:        5552.90 ave        7912 max           0 min
Histogram: 4 2 2 0 2 6 4 0 15 17
Nghost:        6213.62 ave        8769 max         412 min
Histogram: 4 0 4 0 8 0 4 5 7 20
Neighs:       158427.0 ave      230645 max           0 min
Histogram: 4 2 2 0 5 3 4 4 12 16

Total # of neighbors = 8238194
Ave neighs/atom = 28.530443
Neighbor list builds = 0
Dangerous builds = 0
The dot product: 3.62252973223203e-07
Setting atom values ...
  1 settings made for x
  1 settings made for y
  1 settings made for z
Setting up cg style minimization ...
  Unit style    : metal
  Current step  : 3777
Per MPI rank memory allocation (min/avg/max) = 5.465 | 6.344 | 6.728 Mbytes
Step PotEng KinEng TotEng v_fx v_fy v_fz 
    3777   -1152448.8            0   -1152448.8  0.057632205  0.011482385 0.0021343092 
    3984   -1152448.8            0   -1152448.8 -2.1917622e-05 -3.9746368e-06 -8.6355165e-07 
Loop time of 4.58686 on 52 procs for 207 steps with 288751 atoms

99.9% CPU use with 52 MPI tasks x 1 OpenMP threads

Minimization stats:
  Stopping criterion = energy tolerance
  Energy initial, next-to-last, final = 
     -1152448.83822357   -1152448.8403045   -1152448.8403045
  Force two-norm initial, final = 0.19812547 9.6316885e-05
  Force max component initial, final = 0.090866009 2.6903828e-05
  Final line search alpha, max atom move = 1.0000000 2.6903828e-05
  Iterations, force evaluations = 207 416

MPI task timing breakdown:
Section |  min time  |  avg time  |  max time  |%varavg| %total
---------------------------------------------------------------
Pair    | 1.168      | 3.3104     | 4.4095     |  50.9 | 72.17
Neigh   | 0          | 0          | 0          |   0.0 |  0.00
Comm    | 0.055615   | 0.74168    | 2.3184     |  75.8 | 16.17
Output  | 0          | 0          | 0          |   0.0 |  0.00
Modify  | 9.9529e-05 | 0.0069031  | 0.015032   |   3.9 |  0.15
Other   |            | 0.5279     |            |       | 11.51

Nlocal:        5552.90 ave        7913 max           0 min
Histogram: 4 2 2 0 2 6 4 1 14 17
Nghost:        6213.73 ave        8770 max         412 min
Histogram: 4 0 4 0 8 0 4 5 7 20
Neighs:       158427.0 ave      230678 max           0 min
Histogram: 4 2 2 0 5 3 4 4 12 16

Total # of neighbors = 8238191
Ave neighs/atom = 28.530433
Neighbor list builds = 0
Dangerous builds = 0
The dot product: 2.54744033041322e-07
Setting atom values ...
  1 settings made for x
  1 settings made for y
  1 settings made for z
Setting up cg style minimization ...
  Unit style    : metal
  Current step  : 3984
Per MPI rank memory allocation (min/avg/max) = 5.465 | 6.344 | 6.728 Mbytes
Step PotEng KinEng TotEng v_fx v_fy v_fz 
    3984   -1152448.8            0   -1152448.8  0.059991517 0.0084750522 0.0042483636 
    4000   -1152448.8            0   -1152448.8 0.0016914219 -0.00011419047 0.00016429149 
    4147   -1152448.8            0   -1152448.8 6.5738265e-05 7.9205528e-06 4.8275478e-06 
Loop time of 3.66456 on 52 procs for 163 steps with 288751 atoms

99.9% CPU use with 52 MPI tasks x 1 OpenMP threads

Minimization stats:
  Stopping criterion = linesearch alpha is zero
  Energy initial, next-to-last, final = 
     -1152448.82178086  -1152448.82389163  -1152448.82389163
  Force two-norm initial, final = 0.20080353 0.00025851351
  Force max component initial, final = 0.095476533 0.00010855776
  Final line search alpha, max atom move = 0.125 1.3569719e-05
  Iterations, force evaluations = 163 331

MPI task timing breakdown:
Section |  min time  |  avg time  |  max time  |%varavg| %total
---------------------------------------------------------------
Pair    | 0.92857    | 2.6354     | 3.5085     |  45.2 | 71.91
Neigh   | 0          | 0          | 0          |   0.0 |  0.00
Comm    | 0.042311   | 0.58516    | 1.8244     |  68.1 | 15.97
Output  | 0.00012088 | 0.00012429 | 0.00026359 |   0.0 |  0.00
Modify  | 5.822e-05  | 0.0054981  | 0.011707   |   3.5 |  0.15
Other   |            | 0.4384     |            |       | 11.96

Nlocal:        5552.90 ave        7915 max           0 min
Histogram: 4 2 2 0 2 6 4 1 14 17
Nghost:        6213.73 ave        8770 max         412 min
Histogram: 4 0 4 0 8 0 4 5 7 20
Neighs:       158427.0 ave      230739 max           0 min
Histogram: 4 2 2 0 5 3 4 4 12 16

Total # of neighbors = 8238191
Ave neighs/atom = 28.530433
Neighbor list builds = 0
Dangerous builds = 0
The dot product: -5.35350464227741e-07
Setting atom values ...
  1 settings made for x
  1 settings made for y
  1 settings made for z
Setting up cg style minimization ...
  Unit style    : metal
  Current step  : 4147
Per MPI rank memory allocation (min/avg/max) = 5.465 | 6.344 | 6.728 Mbytes
Step PotEng KinEng TotEng v_fx v_fy v_fz 
    4147   -1152448.8            0   -1152448.8  0.066321787 0.0082065571 0.0060179139 
    4321   -1152448.8            0   -1152448.8 -1.0276973e-05  1.29425e-06 -1.242156e-06 
Loop time of 3.84958 on 52 procs for 174 steps with 288751 atoms

99.9% CPU use with 52 MPI tasks x 1 OpenMP threads

Minimization stats:
  Stopping criterion = linesearch alpha is zero
  Energy initial, next-to-last, final = 
     -1152448.80403203  -1152448.80603962  -1152448.80603962
  Force two-norm initial, final = 0.20425478 0.0001463957
  Force max component initial, final = 0.098809064 4.6996842e-05
  Final line search alpha, max atom move = 0.5 2.3498421e-05
  Iterations, force evaluations = 174 349

MPI task timing breakdown:
Section |  min time  |  avg time  |  max time  |%varavg| %total
---------------------------------------------------------------
Pair    | 0.97951    | 2.7882     | 3.7006     |  46.6 | 72.43
Neigh   | 0          | 0          | 0          |   0.0 |  0.00
Comm    | 0.045682   | 0.62047    | 1.9453     |  70.3 | 16.12
Output  | 0          | 0          | 0          |   0.0 |  0.00
Modify  | 7.3416e-05 | 0.0057707  | 0.012245   |   3.5 |  0.15
Other   |            | 0.4351     |            |       | 11.30

Nlocal:        5552.90 ave        7917 max           0 min
Histogram: 4 2 2 0 2 6 4 1 14 17
Nghost:        6213.65 ave        8770 max         412 min
Histogram: 4 0 4 0 8 0 4 5 7 20
Neighs:       158427.0 ave      230825 max           0 min
Histogram: 4 2 2 0 5 3 4 4 12 16

Total # of neighbors = 8238191
Ave neighs/atom = 28.530433
Neighbor list builds = 0
Dangerous builds = 0
The dot product: 3.88510523681048e-08
Setting atom values ...
  1 settings made for x
  1 settings made for y
  1 settings made for z
Setting up cg style minimization ...
  Unit style    : metal
  Current step  : 4321
Per MPI rank memory allocation (min/avg/max) = 5.465 | 6.344 | 6.728 Mbytes
Step PotEng KinEng TotEng v_fx v_fy v_fz 
    4321   -1152448.8            0   -1152448.8  0.073728437 0.0086112733 0.0074042069 
    4510   -1152448.8            0   -1152448.8 3.5278101e-07 -1.1770779e-06 1.7757505e-07 
Loop time of 4.17965 on 52 procs for 189 steps with 288751 atoms

99.9% CPU use with 52 MPI tasks x 1 OpenMP threads

Minimization stats:
  Stopping criterion = linesearch alpha is zero
  Energy initial, next-to-last, final = 
     -1152448.78479815  -1152448.78674533  -1152448.78674533
  Force two-norm initial, final = 0.20731404 8.0917178e-05
  Force max component initial, final = 0.1002512 2.2913862e-05
  Final line search alpha, max atom move = 0.5 1.1456931e-05
  Iterations, force evaluations = 189 379

MPI task timing breakdown:
Section |  min time  |  avg time  |  max time  |%varavg| %total
---------------------------------------------------------------
Pair    | 1.0602     | 3.0179     | 4.0176     |  48.3 | 72.20
Neigh   | 0          | 0          | 0          |   0.0 |  0.00
Comm    | 0.050188   | 0.66965    | 2.0975     |  73.0 | 16.02
Output  | 0          | 0          | 0          |   0.0 |  0.00
Modify  | 7.3459e-05 | 0.0062564  | 0.013276   |   3.7 |  0.15
Other   |            | 0.4859     |            |       | 11.63

Nlocal:        5552.90 ave        7917 max           0 min
Histogram: 4 2 2 0 2 6 4 1 14 17
Nghost:        6213.65 ave        8769 max         412 min
Histogram: 4 0 4 0 8 0 4 5 7 20
Neighs:       158427.0 ave      230815 max           0 min
Histogram: 4 2 2 0 5 3 4 4 12 16

Total # of neighbors = 8238191
Ave neighs/atom = 28.530433
Neighbor list builds = 0
Dangerous builds = 0
The dot product: 1.90663428373785e-09
Setting atom values ...
  1 settings made for x
  1 settings made for y
  1 settings made for z
Setting up cg style minimization ...
  Unit style    : metal
  Current step  : 4510
Per MPI rank memory allocation (min/avg/max) = 5.465 | 6.344 | 6.728 Mbytes
Step PotEng KinEng TotEng v_fx v_fy v_fz 
    4510   -1152448.8            0   -1152448.8  0.080711815 0.0085914312 0.0083022869 
    4716   -1152448.8            0   -1152448.8 -1.5008959e-05 -3.1209046e-06 -1.3714694e-06 
Loop time of 4.5656 on 52 procs for 206 steps with 288751 atoms

99.9% CPU use with 52 MPI tasks x 1 OpenMP threads

Minimization stats:
  Stopping criterion = linesearch alpha is zero
  Energy initial, next-to-last, final = 
     -1152448.76404978  -1152448.76592965  -1152448.76592965
  Force two-norm initial, final = 0.20970739 5.0644299e-05
  Force max component initial, final = 0.10051822 1.5008959e-05
  Final line search alpha, max atom move = 0.5 7.5044793e-06
  Iterations, force evaluations = 206 413

MPI task timing breakdown:
Section |  min time  |  avg time  |  max time  |%varavg| %total
---------------------------------------------------------------
Pair    | 1.152      | 3.2917     | 4.3792     |  50.6 | 72.10
Neigh   | 0          | 0          | 0          |   0.0 |  0.00
Comm    | 0.054594   | 0.73523    | 2.2897     |  76.3 | 16.10
Output  | 0          | 0          | 0          |   0.0 |  0.00
Modify  | 7.8595e-05 | 0.006843   | 0.01451    |   3.8 |  0.15
Other   |            | 0.5318     |            |       | 11.65

Nlocal:        5552.90 ave        7917 max           0 min
Histogram: 4 2 2 0 2 6 4 1 14 17
Nghost:        6213.58 ave        8768 max         412 min
Histogram: 4 0 4 0 8 0 4 5 7 20
Neighs:       158427.0 ave      230814 max           0 min
Histogram: 4 2 2 0 5 3 4 4 12 16

Total # of neighbors = 8238188
Ave neighs/atom = 28.530422
Neighbor list builds = 0
Dangerous builds = 0
The dot product: -3.44086859469316e-08
Setting atom values ...
  1 settings made for x
  1 settings made for y
  1 settings made for z
Setting up cg style minimization ...
  Unit style    : metal
  Current step  : 4716
Per MPI rank memory allocation (min/avg/max) = 5.465 | 6.344 | 6.728 Mbytes
Step PotEng KinEng TotEng v_fx v_fy v_fz 
    4716   -1152448.7            0   -1152448.7   0.08652782 0.0082452928 0.0085927908 
    4891   -1152448.7            0   -1152448.7 -2.6111699e-06 -8.7273154e-07 -1.9096301e-07 
Loop time of 3.87141 on 52 procs for 175 steps with 288751 atoms

99.9% CPU use with 52 MPI tasks x 1 OpenMP threads

Minimization stats:
  Stopping criterion = linesearch alpha is zero
  Energy initial, next-to-last, final = 
     -1152448.74173196   -1152448.7435874   -1152448.7435874
  Force two-norm initial, final = 0.21113251 7.5072551e-05
  Force max component initial, final = 0.099498696 4.1792966e-06
  Final line search alpha, max atom move = 0.5 2.0896483e-06
  Iterations, force evaluations = 175 351

MPI task timing breakdown:
Section |  min time  |  avg time  |  max time  |%varavg| %total
---------------------------------------------------------------
Pair    | 0.98685    | 2.7917     | 3.7217     |  46.7 | 72.11
Neigh   | 0          | 0          | 0          |   0.0 |  0.00
Comm    | 0.047731   | 0.62146    | 1.9303     |  69.7 | 16.05
Output  | 0          | 0          | 0          |   0.0 |  0.00
Modify  | 6.3709e-05 | 0.005867   | 0.01277    |   3.6 |  0.15
Other   |            | 0.4523     |            |       | 11.68

Nlocal:        5552.90 ave        7917 max           0 min
Histogram: 4 2 2 0 2 6 4 1 14 17
Nghost:        6213.62 ave        8768 max         412 min
Histogram: 4 0 4 0 8 0 4 5 7 20
Neighs:       158427.0 ave      230799 max           0 min
Histogram: 4 2 2 0 5 3 4 4 12 16

Total # of neighbors = 8238186
Ave neighs/atom = 28.530415
Neighbor list builds = 0
Dangerous builds = 0
The dot product: -1.0361172418337e-08
Setting atom values ...
  1 settings made for x
  1 settings made for y
  1 settings made for z
Setting up cg style minimization ...
  Unit style    : metal
  Current step  : 4891
Per MPI rank memory allocation (min/avg/max) = 5.465 | 6.344 | 6.728 Mbytes
Step PotEng KinEng TotEng v_fx v_fy v_fz 
    4891   -1152448.7            0   -1152448.7  0.089950169 0.0083745474 0.0082129162 
    5000   -1152448.7            0   -1152448.7 -9.7014632e-05 -1.036315e-05 -8.7171123e-06 
    5033   -1152448.7            0   -1152448.7 -3.2893747e-05 -5.1153841e-06 -2.7861437e-06 
Loop time of 3.17445 on 52 procs for 142 steps with 288751 atoms

99.9% CPU use with 52 MPI tasks x 1 OpenMP threads

Minimization stats:
  Stopping criterion = energy tolerance
  Energy initial, next-to-last, final = 
      -1152448.7178976  -1152448.71972931  -1152448.71972931
  Force two-norm initial, final = 0.21132349 0.00027375072
  Force max component initial, final = 0.097750913 6.0710562e-05
  Final line search alpha, max atom move = 1.0000000 6.0710562e-05
  Iterations, force evaluations = 142 284

MPI task timing breakdown:
Section |  min time  |  avg time  |  max time  |%varavg| %total
---------------------------------------------------------------
Pair    | 0.80477    | 2.2693     | 3.0479     |  41.8 | 71.49
Neigh   | 0          | 0          | 0          |   0.0 |  0.00
Comm    | 0.03903    | 0.51068    | 1.586      |  62.7 | 16.09
Output  | 0.00020538 | 0.00021276 | 0.0003672  |   0.0 |  0.01
Modify  | 5.5377e-05 | 0.0047468  | 0.010026   |   3.2 |  0.15
Other   |            | 0.3895     |            |       | 12.27

Nlocal:        5552.90 ave        7917 max           0 min
Histogram: 4 2 2 0 2 6 4 1 14 17
Nghost:        6213.58 ave        8768 max         412 min
Histogram: 4 0 4 0 8 0 4 5 7 20
Neighs:       158427.0 ave      230801 max           0 min
Histogram: 4 2 2 0 5 3 4 4 12 16

Total # of neighbors = 8238186
Ave neighs/atom = 28.530415
Neighbor list builds = 0
Dangerous builds = 0
The dot product: -1.82628234135267e-07
Setting atom values ...
  1 settings made for x
  1 settings made for y
  1 settings made for z
Setting up cg style minimization ...
  Unit style    : metal
  Current step  : 5033
Per MPI rank memory allocation (min/avg/max) = 5.465 | 6.344 | 6.728 Mbytes
Step PotEng KinEng TotEng v_fx v_fy v_fz 
    5033   -1152448.7            0   -1152448.7  0.091603978 0.0092488068  0.007362814 
    5195   -1152448.7            0   -1152448.7 1.2260543e-05 1.0118942e-06 1.0085459e-06 
Loop time of 3.61631 on 52 procs for 162 steps with 288751 atoms

99.9% CPU use with 52 MPI tasks x 1 OpenMP threads

Minimization stats:
  Stopping criterion = linesearch alpha is zero
  Energy initial, next-to-last, final = 
     -1152448.69257217  -1152448.69437291  -1152448.69437291
  Force two-norm initial, final = 0.21058431 0.00012440834
  Force max component initial, final = 0.095424379 1.8597809e-05
  Final line search alpha, max atom move = 0.5 9.2989046e-06
  Iterations, force evaluations = 162 327

MPI task timing breakdown:
Section |  min time  |  avg time  |  max time  |%varavg| %total
---------------------------------------------------------------
Pair    | 0.91512    | 2.6088     | 3.468      |  44.9 | 72.14
Neigh   | 0          | 0          | 0          |   0.0 |  0.00
Comm    | 0.042489   | 0.58136    | 1.8201     |  67.8 | 16.08
Output  | 0          | 0          | 0          |   0.0 |  0.00
Modify  | 5.8431e-05 | 0.0054017  | 0.011488   |   3.4 |  0.15
Other   |            | 0.4207     |            |       | 11.63

Nlocal:        5552.90 ave        7917 max           0 min
Histogram: 4 2 2 0 2 6 4 1 14 17
Nghost:        6213.52 ave        8768 max         412 min
Histogram: 4 0 4 0 8 0 4 5 7 20
Neighs:       158427.0 ave      230805 max           0 min
Histogram: 4 2 2 0 5 3 4 4 12 16

Total # of neighbors = 8238188
Ave neighs/atom = 28.530422
Neighbor list builds = 0
Dangerous builds = 0
The dot product: 7.98359747045846e-08
Setting atom values ...
  1 settings made for x
  1 settings made for y
  1 settings made for z
Setting up cg style minimization ...
  Unit style    : metal
  Current step  : 5195
Per MPI rank memory allocation (min/avg/max) = 5.465 | 6.344 | 6.728 Mbytes
Step PotEng KinEng TotEng v_fx v_fy v_fz 
    5195   -1152448.7            0   -1152448.7  0.092003467  0.011071962 0.0061945233 
    5346   -1152448.7            0   -1152448.7 7.7687717e-05 8.5405414e-06 5.3105168e-06 
Loop time of 3.33323 on 52 procs for 151 steps with 288751 atoms

99.9% CPU use with 52 MPI tasks x 1 OpenMP threads

Minimization stats:
  Stopping criterion = energy tolerance
  Energy initial, next-to-last, final = 
     -1152448.66577855  -1152448.66754175  -1152448.66754175
  Force two-norm initial, final = 0.20934479 0.00020851398
  Force max component initial, final = 0.092876959 9.2594416e-05
  Final line search alpha, max atom move = 1.0000000 9.2594416e-05
  Iterations, force evaluations = 151 302

MPI task timing breakdown:
Section |  min time  |  avg time  |  max time  |%varavg| %total
---------------------------------------------------------------
Pair    | 0.84834    | 2.4102     | 3.204      |  43.4 | 72.31
Neigh   | 0          | 0          | 0          |   0.0 |  0.00
Comm    | 0.03955    | 0.53982    | 1.6905     |  64.9 | 16.20
Output  | 0          | 0          | 0          |   0.0 |  0.00
Modify  | 6.4628e-05 | 0.0050213  | 0.010903   |   3.3 |  0.15
Other   |            | 0.3782     |            |       | 11.35

Nlocal:        5552.90 ave        7917 max           0 min
Histogram: 4 2 2 0 2 6 4 1 14 17
Nghost:        6213.52 ave        8768 max         412 min
Histogram: 4 0 4 0 8 0 4 5 7 20
Neighs:       158427.0 ave      230804 max           0 min
Histogram: 4 2 2 0 5 3 4 4 12 16

Total # of neighbors = 8238186
Ave neighs/atom = 28.530415
Neighbor list builds = 0
Dangerous builds = 0
The dot product: 5.45708484949275e-07
Setting atom values ...
  1 settings made for x
  1 settings made for y
  1 settings made for z
Setting up cg style minimization ...
  Unit style    : metal
  Current step  : 5346
Per MPI rank memory allocation (min/avg/max) = 5.465 | 6.344 | 6.728 Mbytes
Step PotEng KinEng TotEng v_fx v_fy v_fz 
    5346   -1152448.6            0   -1152448.6  0.091248574  0.014025297 0.0047900128 
    5498   -1152448.6            0   -1152448.6 4.5582081e-05 3.7829145e-06 2.7019389e-06 
Loop time of 3.35778 on 52 procs for 152 steps with 288751 atoms

99.9% CPU use with 52 MPI tasks x 1 OpenMP threads

Minimization stats:
  Stopping criterion = energy tolerance
  Energy initial, next-to-last, final = 
     -1152448.63754491  -1152448.63926591  -1152448.63926591
  Force two-norm initial, final = 0.20772695 0.00019400438
  Force max component initial, final = 0.091248574 6.5590774e-05
  Final line search alpha, max atom move = 1.0000000 6.5590774e-05
  Iterations, force evaluations = 152 304

MPI task timing breakdown:
Section |  min time  |  avg time  |  max time  |%varavg| %total
---------------------------------------------------------------
Pair    | 0.84947    | 2.4174     | 3.223      |  43.2 | 72.00
Neigh   | 0          | 0          | 0          |   0.0 |  0.00
Comm    | 0.038263   | 0.53843    | 1.6861     |  65.3 | 16.04
Output  | 0          | 0          | 0          |   0.0 |  0.00
Modify  | 5.3288e-05 | 0.0050277  | 0.010675   |   3.3 |  0.15
Other   |            | 0.3969     |            |       | 11.82

Nlocal:        5552.90 ave        7917 max           0 min
Histogram: 4 2 2 0 2 6 4 1 14 17
Nghost:        6213.52 ave        8768 max         412 min
Histogram: 4 0 4 0 8 0 4 5 7 20
Neighs:       158427.0 ave      230782 max           0 min
Histogram: 4 2 2 0 5 3 4 4 12 16

Total # of neighbors = 8238188
Ave neighs/atom = 28.530422
Neighbor list builds = 0
Dangerous builds = 0
The dot product: 3.41618951595054e-07
Setting atom values ...
  1 settings made for x
  1 settings made for y
  1 settings made for z
Setting up cg style minimization ...
  Unit style    : metal
  Current step  : 5498
Per MPI rank memory allocation (min/avg/max) = 5.465 | 6.344 | 6.728 Mbytes
Step PotEng KinEng TotEng v_fx v_fy v_fz 
    5498   -1152448.6            0   -1152448.6   0.08925869  0.018407145 0.0031827279 
    5653   -1152448.6            0   -1152448.6 -6.8939102e-05 -8.6632638e-06 -2.9801609e-06 
Loop time of 3.45497 on 52 procs for 155 steps with 288751 atoms

99.9% CPU use with 52 MPI tasks x 1 OpenMP threads

Minimization stats:
  Stopping criterion = linesearch alpha is zero
  Energy initial, next-to-last, final = 
     -1152448.60790789  -1152448.60958464  -1152448.60958464
  Force two-norm initial, final = 0.20581803 0.00019040975
  Force max component initial, final = 0.08925869 8.9414408e-05
  Final line search alpha, max atom move = 0.25 2.2353602e-05
  Iterations, force evaluations = 155 313

MPI task timing breakdown:
Section |  min time  |  avg time  |  max time  |%varavg| %total
---------------------------------------------------------------
Pair    | 0.87594    | 2.4982     | 3.3203     |  44.0 | 72.31
Neigh   | 0          | 0          | 0          |   0.0 |  0.00
Comm    | 0.041289   | 0.55971    | 1.7569     |  66.3 | 16.20
Output  | 0          | 0          | 0          |   0.0 |  0.00
Modify  | 5.5709e-05 | 0.0051709  | 0.01098    |   3.3 |  0.15
Other   |            | 0.3919     |            |       | 11.34

Nlocal:        5552.90 ave        7917 max           0 min
Histogram: 4 2 2 0 2 6 4 1 14 17
Nghost:        6213.52 ave        8768 max         412 min
Histogram: 4 0 4 0 8 0 4 5 7 20
Neighs:       158427.0 ave      230783 max           0 min
Histogram: 4 2 2 0 5 3 4 4 12 16

Total # of neighbors = 8238188
Ave neighs/atom = 28.530422
Neighbor list builds = 0
Dangerous builds = 0
The dot product: -5.4107081847825e-07
Setting atom values ...
  1 settings made for x
  1 settings made for y
  1 settings made for z
Setting up cg style minimization ...
  Unit style    : metal
  Current step  : 5653
Per MPI rank memory allocation (min/avg/max) = 5.465 | 6.344 | 6.728 Mbytes
Step PotEng KinEng TotEng v_fx v_fy v_fz 
    5653   -1152448.6            0   -1152448.6  0.086137519  0.023538576 0.0014819058 
    5831   -1152448.6            0   -1152448.6 2.9772637e-06 -6.6632563e-07 1.8977134e-07 
Loop time of 3.92653 on 52 procs for 178 steps with 288751 atoms

99.9% CPU use with 52 MPI tasks x 1 OpenMP threads

Minimization stats:
  Stopping criterion = energy tolerance
  Energy initial, next-to-last, final = 
     -1152448.57692353  -1152448.57855709  -1152448.57855709
  Force two-norm initial, final = 0.20367402 8.0846474e-05
  Force max component initial, final = 0.086506333 2.0617413e-05
  Final line search alpha, max atom move = 1.0000000 2.0617413e-05
  Iterations, force evaluations = 178 356

MPI task timing breakdown:
Section |  min time  |  avg time  |  max time  |%varavg| %total
---------------------------------------------------------------
Pair    | 1.002      | 2.8307     | 3.7744     |  47.1 | 72.09
Neigh   | 0          | 0          | 0          |   0.0 |  0.00
Comm    | 0.046488   | 0.62932    | 1.9608     |  70.3 | 16.03
Output  | 0          | 0          | 0          |   0.0 |  0.00
Modify  | 6.5733e-05 | 0.0059594  | 0.01297    |   3.7 |  0.15
Other   |            | 0.4605     |            |       | 11.73

Nlocal:        5552.90 ave        7917 max           0 min
Histogram: 4 2 2 0 2 6 4 1 14 17
Nghost:        6213.56 ave        8768 max         412 min
Histogram: 4 0 4 0 8 0 4 5 7 20
Neighs:       158427.0 ave      230784 max           0 min
Histogram: 4 2 2 0 5 3 4 4 12 16

Total # of neighbors = 8238187
Ave neighs/atom = 28.530419
Neighbor list builds = 0
Dangerous builds = 0
The dot product: 2.32646803734486e-08
Setting atom values ...
  1 settings made for x
  1 settings made for y
  1 settings made for z
Setting up cg style minimization ...
  Unit style    : metal
  Current step  : 5831
Per MPI rank memory allocation (min/avg/max) = 5.465 | 6.344 | 6.728 Mbytes
Step PotEng KinEng TotEng v_fx v_fy v_fz 
    5831   -1152448.5            0   -1152448.5  0.082126372   0.03172968 -0.00053567426 
    6000   -1152448.6            0   -1152448.6 0.0015530801 0.00032444301 1.6283154e-05 
    6118   -1152448.6            0   -1152448.6 -2.970244e-05 -6.5711347e-06 -2.7631519e-07 
Loop time of 6.37875 on 52 procs for 287 steps with 288751 atoms

99.9% CPU use with 52 MPI tasks x 1 OpenMP threads

Minimization stats:
  Stopping criterion = linesearch alpha is zero
  Energy initial, next-to-last, final = 
     -1152448.54473553  -1152448.61730816  -1152448.61730816
  Force two-norm initial, final = 0.20198987 0.00011443235
  Force max component initial, final = 0.088327036 3.5659676e-05
  Final line search alpha, max atom move = 0.5 1.7829838e-05
  Iterations, force evaluations = 287 576

MPI task timing breakdown:
Section |  min time  |  avg time  |  max time  |%varavg| %total
---------------------------------------------------------------
Pair    | 1.6323     | 4.5911     | 6.1045     |  59.3 | 71.98
Neigh   | 3.8109e-05 | 0.011455   | 0.016866   |   4.5 |  0.18
Comm    | 0.076117   | 1.0218     | 3.2028     |  90.3 | 16.02
Output  | 0.00012394 | 0.00012814 | 0.00028557 |   0.0 |  0.00
Modify  | 0.0001097  | 0.009584   | 0.02018    |   4.5 |  0.15
Other   |            | 0.7446     |            |       | 11.67

Nlocal:        5552.90 ave        7910 max           0 min
Histogram: 4 2 2 0 2 6 4 0 15 17
Nghost:        6213.54 ave        8768 max         412 min
Histogram: 4 0 4 0 8 0 4 5 7 20
Neighs:       158427.0 ave      230557 max           0 min
Histogram: 4 2 2 0 5 3 4 4 12 16

Total # of neighbors = 8238203
Ave neighs/atom = 28.530474
Neighbor list builds = 2
Dangerous builds = 0
The dot product: -3.26765105993574e-06
Setting atom values ...
  1 settings made for x
  1 settings made for y
  1 settings made for z
Setting up cg style minimization ...
  Unit style    : metal
  Current step  : 6118
Per MPI rank memory allocation (min/avg/max) = 5.465 | 6.344 | 6.728 Mbytes
Step PotEng KinEng TotEng v_fx v_fy v_fz 
    6118   -1152448.6            0   -1152448.6  0.076795467   0.14611159  -0.08797103 
    6309   -1152448.6            0   -1152448.6 -4.0172073e-05 -3.6354405e-08 1.1934564e-06 
Loop time of 4.22 on 52 procs for 191 steps with 288751 atoms

99.9% CPU use with 52 MPI tasks x 1 OpenMP threads

Minimization stats:
  Stopping criterion = linesearch alpha is zero
  Energy initial, next-to-last, final = 
     -1152448.61057552    -1152448.613623    -1152448.613623
  Force two-norm initial, final = 0.23163067 0.00021962658
  Force max component initial, final = 0.14611159 6.9720075e-05
  Final line search alpha, max atom move = 0.25 1.7430019e-05
  Iterations, force evaluations = 191 385

MPI task timing breakdown:
Section |  min time  |  avg time  |  max time  |%varavg| %total
---------------------------------------------------------------
Pair    | 1.0819     | 3.0571     | 4.0552     |  48.7 | 72.44
Neigh   | 0          | 0          | 0          |   0.0 |  0.00
Comm    | 0.051321   | 0.67641    | 2.1246     |  73.4 | 16.03
Output  | 0          | 0          | 0          |   0.0 |  0.00
Modify  | 6.6605e-05 | 0.0064223  | 0.013675   |   3.7 |  0.15
Other   |            | 0.4801     |            |       | 11.38

Nlocal:        5552.90 ave        7907 max           0 min
Histogram: 4 2 2 0 2 6 4 0 15 17
Nghost:        6213.62 ave        8769 max         412 min
Histogram: 4 0 4 0 8 0 4 5 7 20
Neighs:       158427.0 ave      230476 max           0 min
Histogram: 4 2 2 0 5 3 4 4 12 16

Total # of neighbors = 8238185
Ave neighs/atom = 28.530412
Neighbor list builds = 0
Dangerous builds = 0
The dot product: -1.34841487163709e-07
Setting atom values ...
  1 settings made for x
  1 settings made for y
  1 settings made for z
Setting up cg style minimization ...
  Unit style    : metal
  Current step  : 6309
Per MPI rank memory allocation (min/avg/max) = 5.465 | 6.344 | 6.728 Mbytes
Step PotEng KinEng TotEng v_fx v_fy v_fz 
    6309   -1152448.6            0   -1152448.6  0.065574548  0.035107164  -0.02470306 
    6589     -1152449            0     -1152449 -3.1623956e-06 2.2218909e-05 -1.4104612e-05 
Loop time of 6.27461 on 52 procs for 280 steps with 288751 atoms

99.9% CPU use with 52 MPI tasks x 1 OpenMP threads

Minimization stats:
  Stopping criterion = energy tolerance
  Energy initial, next-to-last, final = 
     -1152448.60681905  -1152448.99154492  -1152448.99154492
  Force two-norm initial, final = 0.1577453 0.0001598465
  Force max component initial, final = 0.074493194 3.8042597e-05
  Final line search alpha, max atom move = 1.0000000 3.8042597e-05
  Iterations, force evaluations = 280 562

MPI task timing breakdown:
Section |  min time  |  avg time  |  max time  |%varavg| %total
---------------------------------------------------------------
Pair    | 1.6128     | 4.4945     | 5.9528     |  58.2 | 71.63
Neigh   | 0.00011308 | 0.034356   | 0.05092    |   7.8 |  0.55
Comm    | 0.074235   | 1.003      | 3.144      |  88.8 | 15.99
Output  | 0          | 0          | 0          |   0.0 |  0.00
Modify  | 9.892e-05  | 0.0092746  | 0.019643   |   4.5 |  0.15
Other   |            | 0.7335     |            |       | 11.69

Nlocal:        5552.90 ave        7901 max           0 min
Histogram: 4 2 2 0 2 6 4 0 15 17
Nghost:        6213.62 ave        8769 max         412 min
Histogram: 4 0 4 0 8 0 4 5 7 20
Neighs:       158427.0 ave      230246 max           0 min
Histogram: 4 2 2 0 5 3 4 4 12 16

Total # of neighbors = 8238216
Ave neighs/atom = 28.530519
Neighbor list builds = 6
Dangerous builds = 0
The dot product: 7.57304275391803e-06
Setting atom values ...
  1 settings made for x
  1 settings made for y
  1 settings made for z
Setting up cg style minimization ...
  Unit style    : metal
  Current step  : 6589
Per MPI rank memory allocation (min/avg/max) = 5.465 | 6.344 | 6.728 Mbytes
Step PotEng KinEng TotEng v_fx v_fy v_fz 
    6589     -1152449            0     -1152449  -0.61703928 -0.058534524   0.76339544 
    6853   -1152449.2            0   -1152449.2 -1.0316639e-05 -9.1210605e-06 2.5062082e-05 
Loop time of 5.87493 on 52 procs for 264 steps with 288751 atoms

99.9% CPU use with 52 MPI tasks x 1 OpenMP threads

Minimization stats:
  Stopping criterion = linesearch alpha is zero
  Energy initial, next-to-last, final = 
     -1152449.01580104  -1152449.17340311  -1152449.17340311
  Force two-norm initial, final = 0.995295 0.00012546733
  Force max component initial, final = 0.76339544 3.1754293e-05
  Final line search alpha, max atom move = 0.5 1.5877147e-05
  Iterations, force evaluations = 264 531

MPI task timing breakdown:
Section |  min time  |  avg time  |  max time  |%varavg| %total
---------------------------------------------------------------
Pair    | 1.5034     | 4.2271     | 5.6272     |  57.0 | 71.95
Neigh   | 3.7058e-05 | 0.011452   | 0.016928   |   4.5 |  0.19
Comm    | 0.071839   | 0.94404    | 2.9274     |  85.9 | 16.07
Output  | 0          | 0          | 0          |   0.0 |  0.00
Modify  | 9.3161e-05 | 0.0088717  | 0.0193     |   4.5 |  0.15
Other   |            | 0.6835     |            |       | 11.63

Nlocal:        5552.90 ave        7869 max           0 min
Histogram: 4 2 2 0 2 6 4 0 14 18
Nghost:        6213.69 ave        8770 max         412 min
Histogram: 4 0 4 0 8 0 4 5 7 20
Neighs:       158427.0 ave      229182 max           0 min
Histogram: 4 2 2 0 4 4 4 4 10 18

Total # of neighbors = 8238204
Ave neighs/atom = 28.530478
Neighbor list builds = 2
Dangerous builds = 0
The dot product: 7.91610157505041e-06
Setting atom values ...
  1 settings made for x
  1 settings made for y
  1 settings made for z
Setting up cg style minimization ...
  Unit style    : metal
  Current step  : 6853
Per MPI rank memory allocation (min/avg/max) = 5.465 | 6.344 | 6.728 Mbytes
Step PotEng KinEng TotEng v_fx v_fy v_fz 
    6853   -1152449.2            0   -1152449.2    0.3810899  0.076121151  -0.23935092 
    7000   -1152449.2            0   -1152449.2 0.00010835305 -0.00018187912 0.00014611351 
    7100   -1152449.2            0   -1152449.2 -4.6891565e-06 -6.5056086e-06 8.8053509e-06 
Loop time of 5.45422 on 52 procs for 247 steps with 288751 atoms

99.9% CPU use with 52 MPI tasks x 1 OpenMP threads

Minimization stats:
  Stopping criterion = energy tolerance
  Energy initial, next-to-last, final = 
     -1152449.19775286  -1152449.22536386  -1152449.22536386
  Force two-norm initial, final = 0.48662763 6.0732639e-05
  Force max component initial, final = 0.3810899 9.9038223e-06
  Final line search alpha, max atom move = 1.0000000 9.9038223e-06
  Iterations, force evaluations = 247 494

MPI task timing breakdown:
Section |  min time  |  avg time  |  max time  |%varavg| %total
---------------------------------------------------------------
Pair    | 1.3948     | 3.9378     | 5.2355     |  55.3 | 72.20
Neigh   | 1.8572e-05 | 0.0057343  | 0.0084442  |   3.2 |  0.11
Comm    | 0.06549    | 0.88007    | 2.7628     |  82.9 | 16.14
Output  | 0.0001224  | 0.00012661 | 0.00028678 |   0.0 |  0.00
Modify  | 8.6809e-05 | 0.0082126  | 0.01797    |   4.3 |  0.15
Other   |            | 0.6223     |            |       | 11.41

Nlocal:        5552.90 ave        7864 max           0 min
Histogram: 4 2 2 0 2 6 4 0 13 19
Nghost:        6213.69 ave        8771 max         412 min
Histogram: 4 0 4 0 8 0 4 5 7 20
Neighs:       158427.0 ave      229041 max           0 min
Histogram: 4 2 2 0 4 4 4 4 10 18

Total # of neighbors = 8238197
Ave neighs/atom = 28.530454
Neighbor list builds = 1
Dangerous builds = 0
The dot product: -1.10818832029686e-06
Setting atom values ...
  1 settings made for x
  1 settings made for y
  1 settings made for z
Setting up cg style minimization ...
  Unit style    : metal
  Current step  : 7100
Per MPI rank memory allocation (min/avg/max) = 5.465 | 6.344 | 6.728 Mbytes
Step PotEng KinEng TotEng v_fx v_fy v_fz 
    7100   -1152449.2            0   -1152449.2 -0.090925272 0.0012699643  0.054847272 
    7344   -1152449.3            0   -1152449.3 -6.8389095e-07 5.0353942e-06 -5.43436e-06 
Loop time of 5.39311 on 52 procs for 244 steps with 288751 atoms

99.9% CPU use with 52 MPI tasks x 1 OpenMP threads

Minimization stats:
  Stopping criterion = linesearch alpha is zero
  Energy initial, next-to-last, final = 
     -1152449.24711775  -1152449.25193666  -1152449.25193666
  Force two-norm initial, final = 0.19086199 3.1021169e-05
  Force max component initial, final = 0.090925272 7.7784577e-06
  Final line search alpha, max atom move = 0.5 3.8892288e-06
  Iterations, force evaluations = 244 489

MPI task timing breakdown:
Section |  min time  |  avg time  |  max time  |%varavg| %total
---------------------------------------------------------------
Pair    | 1.3779     | 3.8915     | 5.1704     |  54.9 | 72.16
Neigh   | 0          | 0          | 0          |   0.0 |  0.00
Comm    | 0.063941   | 0.86551    | 2.6949     |  82.3 | 16.05
Output  | 0          | 0          | 0          |   0.0 |  0.00
Modify  | 0.00010142 | 0.0081649  | 0.017518   |   4.2 |  0.15
Other   |            | 0.6279     |            |       | 11.64

Nlocal:        5552.90 ave        7866 max           0 min
Histogram: 4 2 2 0 2 6 4 0 13 19
Nghost:        6213.69 ave        8771 max         412 min
Histogram: 4 0 4 0 8 0 4 5 7 20
Neighs:       158427.0 ave      229089 max           0 min
Histogram: 4 2 2 0 4 4 4 4 10 18

Total # of neighbors = 8238205
Ave neighs/atom = 28.530481
Neighbor list builds = 0
Dangerous builds = 0
The dot product: -9.40633896570847e-08
Setting atom values ...
  1 settings made for x
  1 settings made for y
  1 settings made for z
Setting up cg style minimization ...
  Unit style    : metal
  Current step  : 7344
Per MPI rank memory allocation (min/avg/max) = 5.465 | 6.344 | 6.728 Mbytes
Step PotEng KinEng TotEng v_fx v_fy v_fz 
    7344   -1152449.3            0   -1152449.3  0.067756525 0.0062686433  -0.04385233 
    7495   -1152449.3            0   -1152449.3 -2.9978332e-05 -3.07827e-05 5.0948384e-05 
Loop time of 3.33796 on 52 procs for 151 steps with 288751 atoms

99.9% CPU use with 52 MPI tasks x 1 OpenMP threads

Minimization stats:
  Stopping criterion = energy tolerance
  Energy initial, next-to-last, final = 
     -1152449.27280225  -1152449.27444844  -1152449.27444844
  Force two-norm initial, final = 0.18040796 0.00025930035
  Force max component initial, final = 0.089171568 5.0948384e-05
  Final line search alpha, max atom move = 1.0000000 5.0948384e-05
  Iterations, force evaluations = 151 302

MPI task timing breakdown:
Section |  min time  |  avg time  |  max time  |%varavg| %total
---------------------------------------------------------------
Pair    | 0.85036    | 2.412      | 3.2038     |  43.4 | 72.26
Neigh   | 0          | 0          | 0          |   0.0 |  0.00
Comm    | 0.039891   | 0.54097    | 1.6948     |  65.0 | 16.21
Output  | 0          | 0          | 0          |   0.0 |  0.00
Modify  | 6.4333e-05 | 0.0050187  | 0.010833   |   3.3 |  0.15
Other   |            | 0.3799     |            |       | 11.38

Nlocal:        5552.90 ave        7865 max           0 min
Histogram: 4 2 2 0 2 6 4 0 13 19
Nghost:        6213.69 ave        8771 max         412 min
Histogram: 4 0 4 0 8 0 4 5 7 20
Neighs:       158427.0 ave      229053 max           0 min
Histogram: 4 2 2 0 4 4 4 4 10 18

Total # of neighbors = 8238203
Ave neighs/atom = 28.530474
Neighbor list builds = 0
Dangerous builds = 0
The dot product: -5.44506665490786e-07
Setting atom values ...
  1 settings made for x
  1 settings made for y
  1 settings made for z
Setting up cg style minimization ...
  Unit style    : metal
  Current step  : 7495
Per MPI rank memory allocation (min/avg/max) = 5.465 | 6.344 | 6.728 Mbytes
Step PotEng KinEng TotEng v_fx v_fy v_fz 
    7495   -1152449.3            0   -1152449.3  0.017136347 0.0072396793 -0.017824465 
    7693   -1152449.3            0   -1152449.3 9.517838e-06 -9.1291746e-06 5.0056805e-06 
Loop time of 4.34888 on 52 procs for 198 steps with 288751 atoms

99.9% CPU use with 52 MPI tasks x 1 OpenMP threads

Minimization stats:
  Stopping criterion = linesearch alpha is zero
[...]
Nghost:        6213.58 ave        8769 max         412 min
Histogram: 4 0 4 0 8 0 4 5 7 20
Neighs:       158427.0 ave      229992 max           0 min
Histogram: 4 2 2 0 5 3 4 4 12 16

Total # of neighbors = 8238190
Ave neighs/atom = 28.530429
Neighbor list builds = 0
Dangerous builds = 0
The dot product: 9.7284150507932e-08
Setting atom values ...
  1 settings made for x
  1 settings made for y
  1 settings made for z
Setting up cg style minimization ...
  Unit style    : metal
  Current step  : 16706
Per MPI rank memory allocation (min/avg/max) = 5.465 | 6.344 | 6.728 Mbytes
Step PotEng KinEng TotEng v_fx v_fy v_fz 
   16706   -1152449.3            0   -1152449.3 -0.042458448  0.025267829 0.0019203272 
   16858   -1152449.3            0   -1152449.3 -4.5456309e-05 1.9598645e-05 1.2728664e-05 
Loop time of 3.29136 on 52 procs for 152 steps with 288751 atoms

99.9% CPU use with 52 MPI tasks x 1 OpenMP threads

Minimization stats:
  Stopping criterion = energy tolerance
  Energy initial, next-to-last, final = 
     -1152449.33224139  -1152449.33327069  -1152449.33327069
  Force two-norm initial, final = 0.14056223 0.00030258376
  Force max component initial, final = 0.058461699 4.5456309e-05
  Final line search alpha, max atom move = 1.0000000 4.5456309e-05
  Iterations, force evaluations = 152 304

MPI task timing breakdown:
Section |  min time  |  avg time  |  max time  |%varavg| %total
---------------------------------------------------------------
Pair    | 0.85459    | 2.3919     | 3.1609     |  42.7 | 72.67
Neigh   | 0          | 0          | 0          |   0.0 |  0.00
Comm    | 0.038688   | 0.5257     | 1.6644     |  65.4 | 15.97
Output  | 0          | 0          | 0          |   0.0 |  0.00
Modify  | 4.0379e-05 | 0.0050499  | 0.010617   |   3.3 |  0.15
Other   |            | 0.3687     |            |       | 11.20

Nlocal:        5552.90 ave        7900 max           0 min
Histogram: 4 2 2 0 2 6 4 0 14 18
Nghost:        6213.58 ave        8769 max         412 min
Histogram: 4 0 4 0 8 0 4 5 7 20
Neighs:       158427.0 ave      230199 max           0 min
Histogram: 4 2 2 0 5 3 4 4 12 16

Total # of neighbors = 8238191
Ave neighs/atom = 28.530433
Neighbor list builds = 0
Dangerous builds = 0
The dot product: 1.44368294330452e-07
Setting atom values ...
  1 settings made for x
  1 settings made for y
  1 settings made for z
Setting up cg style minimization ...
  Unit style    : metal
  Current step  : 16858
Per MPI rank memory allocation (min/avg/max) = 5.465 | 6.344 | 6.728 Mbytes
Step PotEng KinEng TotEng v_fx v_fy v_fz 
   16858   -1152449.3            0   -1152449.3 -0.043188289  0.025988688 0.0014148752 
   17000   -1152449.3            0   -1152449.3 -6.1614054e-05 -2.3395735e-05 8.866725e-05 
   17033   -1152449.3            0   -1152449.3 1.0048642e-05 -1.2952376e-05 9.5655859e-06 
Loop time of 3.78779 on 52 procs for 175 steps with 288751 atoms

99.9% CPU use with 52 MPI tasks x 1 OpenMP threads

Minimization stats:
  Stopping criterion = linesearch alpha is zero
  Energy initial, next-to-last, final = 
     -1152449.33883903  -1152449.33988296  -1152449.33988296
  Force two-norm initial, final = 0.14149174 0.000157838
  Force max component initial, final = 0.060177231 2.4473927e-05
  Final line search alpha, max atom move = 0.5 1.2236964e-05
  Iterations, force evaluations = 175 351

MPI task timing breakdown:
Section |  min time  |  avg time  |  max time  |%varavg| %total
---------------------------------------------------------------
Pair    | 0.98274    | 2.7582     | 3.6407     |  46.0 | 72.82
Neigh   | 0          | 0          | 0          |   0.0 |  0.00
Comm    | 0.044141   | 0.60489    | 1.9217     |  70.4 | 15.97
Output  | 0.00012395 | 0.00012838 | 0.00031983 |   0.0 |  0.00
Modify  | 4.7461e-05 | 0.0058586  | 0.012249   |   3.6 |  0.15
Other   |            | 0.4187     |            |       | 11.05

Nlocal:        5552.90 ave        7904 max           0 min
Histogram: 4 2 2 0 2 6 4 0 15 17
Nghost:        6213.58 ave        8769 max         412 min
Histogram: 4 0 4 0 8 0 4 5 7 20
Neighs:       158427.0 ave      230305 max           0 min
Histogram: 4 2 2 0 5 3 4 4 12 16

Total # of neighbors = 8238192
Ave neighs/atom = 28.530436
Neighbor list builds = 0
Dangerous builds = 0
The dot product: -4.25118644169417e-08
Setting atom values ...
  1 settings made for x
  1 settings made for y
  1 settings made for z
Setting up cg style minimization ...
  Unit style    : metal
  Current step  : 17033
Per MPI rank memory allocation (min/avg/max) = 5.465 | 6.344 | 6.728 Mbytes
Step PotEng KinEng TotEng v_fx v_fy v_fz 
   17033   -1152449.3            0   -1152449.3 -0.042969304  0.026492502 0.0003635472 
   17191   -1152449.3            0   -1152449.3 3.6387501e-05 -2.386301e-05 1.7402581e-06 
Loop time of 3.44399 on 52 procs for 158 steps with 288751 atoms

99.9% CPU use with 52 MPI tasks x 1 OpenMP threads

Minimization stats:
  Stopping criterion = energy tolerance
  Energy initial, next-to-last, final = 
     -1152449.34395731  -1152449.34501301  -1152449.34501301
  Force two-norm initial, final = 0.1419804 0.00026397861
  Force max component initial, final = 0.061803594 3.6387501e-05
  Final line search alpha, max atom move = 1.0000000 3.6387501e-05
  Iterations, force evaluations = 158 316

MPI task timing breakdown:
Section |  min time  |  avg time  |  max time  |%varavg| %total
---------------------------------------------------------------
Pair    | 0.88867    | 2.487      | 3.2881     |  43.6 | 72.21
Neigh   | 0          | 0          | 0          |   0.0 |  0.00
Comm    | 0.040201   | 0.54781    | 1.7364     |  66.5 | 15.91
Output  | 0          | 0          | 0          |   0.0 |  0.00
Modify  | 3.9786e-05 | 0.0052608  | 0.011026   |   3.4 |  0.15
Other   |            | 0.4039     |            |       | 11.73

Nlocal:        5552.90 ave        7908 max           0 min
Histogram: 4 2 2 0 2 6 4 0 15 17
Nghost:        6213.54 ave        8769 max         412 min
Histogram: 4 0 4 0 8 0 4 5 7 20
Neighs:       158427.0 ave      230433 max           0 min
Histogram: 4 2 2 0 5 3 4 4 12 16

Total # of neighbors = 8238191
Ave neighs/atom = 28.530433
Neighbor list builds = 0
Dangerous builds = 0
The dot product: -1.33391207843055e-07
Setting atom values ...
  1 settings made for x
  1 settings made for y
  1 settings made for z
Setting up cg style minimization ...
  Unit style    : metal
  Current step  : 17191
Per MPI rank memory allocation (min/avg/max) = 5.465 | 6.344 | 6.728 Mbytes
Step PotEng KinEng TotEng v_fx v_fy v_fz 
   17191   -1152449.3            0   -1152449.3 -0.042046775  0.026838618 -0.0010892857 
   17417   -1152449.3            0   -1152449.3 1.1029216e-07 -1.4398792e-07 1.084374e-07 
Loop time of 4.90143 on 52 procs for 226 steps with 288751 atoms

99.9% CPU use with 52 MPI tasks x 1 OpenMP threads

Minimization stats:
  Stopping criterion = linesearch alpha is zero
  Energy initial, next-to-last, final = 
     -1152449.34760051  -1152449.34866736  -1152449.34866736
  Force two-norm initial, final = 0.14224731 2.2366996e-05
  Force max component initial, final = 0.063413609 1.6673909e-06
  Final line search alpha, max atom move = 0.5 8.3369545e-07
  Iterations, force evaluations = 226 453

MPI task timing breakdown:
Section |  min time  |  avg time  |  max time  |%varavg| %total
---------------------------------------------------------------
Pair    | 1.2733     | 3.5625     | 4.7068     |  52.2 | 72.68
Neigh   | 0          | 0          | 0          |   0.0 |  0.00
Comm    | 0.057538   | 0.78193    | 2.4767     |  79.9 | 15.95
Output  | 0          | 0          | 0          |   0.0 |  0.00
Modify  | 6.4767e-05 | 0.0075319  | 0.015741   |   4.0 |  0.15
Other   |            | 0.5495     |            |       | 11.21

Nlocal:        5552.90 ave        7910 max           0 min
Histogram: 4 2 2 0 2 6 4 0 15 17
Nghost:        6213.54 ave        8769 max         412 min
Histogram: 4 0 4 0 8 0 4 5 7 20
Neighs:       158427.0 ave      230528 max           0 min
Histogram: 4 2 2 0 5 3 4 4 12 16

Total # of neighbors = 8238188
Ave neighs/atom = 28.530422
Neighbor list builds = 0
Dangerous builds = 0
The dot product: -4.85425415624192e-10
Setting atom values ...
  1 settings made for x
  1 settings made for y
  1 settings made for z
Setting up cg style minimization ...
  Unit style    : metal
  Current step  : 17417
Per MPI rank memory allocation (min/avg/max) = 5.465 | 6.344 | 6.728 Mbytes
Step PotEng KinEng TotEng v_fx v_fy v_fz 
   17417   -1152449.3            0   -1152449.3 -0.040717207  0.027104256 -0.0027827625 
   17581   -1152449.4            0   -1152449.4 -4.370708e-06 -1.8873425e-06 6.5881145e-06 
Loop time of 3.56527 on 52 procs for 164 steps with 288751 atoms

99.9% CPU use with 52 MPI tasks x 1 OpenMP threads

Minimization stats:
  Stopping criterion = energy tolerance
  Energy initial, next-to-last, final = 
     -1152449.34977475  -1152449.35085081  -1152449.35085081
  Force two-norm initial, final = 0.14240797 0.00023089218
  Force max component initial, final = 0.06497521 1.8567485e-05
  Final line search alpha, max atom move = 1.0000000 1.8567485e-05
  Iterations, force evaluations = 164 328

MPI task timing breakdown:
Section |  min time  |  avg time  |  max time  |%varavg| %total
---------------------------------------------------------------
Pair    | 0.92068    | 2.584      | 3.4149     |  44.4 | 72.48
Neigh   | 0          | 0          | 0          |   0.0 |  0.00
Comm    | 0.045953   | 0.57016    | 1.8047     |  67.9 | 15.99
Output  | 0          | 0          | 0          |   0.0 |  0.00
Modify  | 4.5384e-05 | 0.0054409  | 0.011424   |   3.4 |  0.15
Other   |            | 0.4057     |            |       | 11.38

Nlocal:        5552.90 ave        7913 max           0 min
Histogram: 4 2 2 0 2 6 4 1 14 17
Nghost:        6213.54 ave        8769 max         412 min
Histogram: 4 0 4 0 8 0 4 5 7 20
Neighs:       158427.0 ave      230647 max           0 min
Histogram: 4 2 2 0 5 3 4 4 12 16

Total # of neighbors = 8238188
Ave neighs/atom = 28.530422
Neighbor list builds = 0
Dangerous builds = 0
The dot product: 9.74248019729518e-09
Setting atom values ...
  1 settings made for x
  1 settings made for y
  1 settings made for z
Setting up cg style minimization ...
  Unit style    : metal
  Current step  : 17581
Per MPI rank memory allocation (min/avg/max) = 5.465 | 6.344 | 6.728 Mbytes
Step PotEng KinEng TotEng v_fx v_fy v_fz 
   17581   -1152449.4            0   -1152449.4  -0.03933363  0.027292537 -0.0044038255 
   17755   -1152449.4            0   -1152449.4 -2.3268693e-05  8.26833e-06 8.7127634e-06 
Loop time of 3.83052 on 52 procs for 174 steps with 288751 atoms

99.9% CPU use with 52 MPI tasks x 1 OpenMP threads

Minimization stats:
  Stopping criterion = linesearch alpha is zero
  Energy initial, next-to-last, final = 
     -1152449.35049086  -1152449.35157343  -1152449.35157343
  Force two-norm initial, final = 0.14245498 0.00016373773
  Force max component initial, final = 0.06645737 2.3523170e-05
  Final line search alpha, max atom move = 0.25 5.8807926e-06
  Iterations, force evaluations = 174 353

MPI task timing breakdown:
Section |  min time  |  avg time  |  max time  |%varavg| %total
---------------------------------------------------------------
Pair    | 0.992      | 2.7784     | 3.676      |  46.1 | 72.53
Neigh   | 0          | 0          | 0          |   0.0 |  0.00
Comm    | 0.043815   | 0.61162    | 1.9321     |  70.3 | 15.97
Output  | 0          | 0          | 0          |   0.0 |  0.00
Modify  | 4.6414e-05 | 0.0058758  | 0.012306   |   3.6 |  0.15
Other   |            | 0.4346     |            |       | 11.35

Nlocal:        5552.90 ave        7916 max           0 min
Histogram: 4 2 2 0 2 6 4 1 14 17
Nghost:        6213.54 ave        8769 max         412 min
Histogram: 4 0 4 0 8 0 4 5 7 20
Neighs:       158427.0 ave      230742 max           0 min
Histogram: 4 2 2 0 5 3 4 4 12 16

Total # of neighbors = 8238190
Ave neighs/atom = 28.530429
Neighbor list builds = 0
Dangerous builds = 0
The dot product: 7.30850924213963e-08
Setting atom values ...
  1 settings made for x
  1 settings made for y
  1 settings made for z
Setting up cg style minimization ...
  Unit style    : metal
  Current step  : 17755
Per MPI rank memory allocation (min/avg/max) = 5.465 | 6.344 | 6.728 Mbytes
Step PotEng KinEng TotEng v_fx v_fy v_fz 
   17755   -1152449.3            0   -1152449.3 -0.038594311  0.027580515 -0.0055901076 
   17948   -1152449.4            0   -1152449.4 2.8191196e-06 5.6407898e-06 -1.0599589e-05 
Loop time of 4.19473 on 52 procs for 193 steps with 288751 atoms

99.9% CPU use with 52 MPI tasks x 1 OpenMP threads

Minimization stats:
  Stopping criterion = linesearch alpha is zero
  Energy initial, next-to-last, final = 
     -1152449.34977914  -1152449.35086557  -1152449.35086557
  Force two-norm initial, final = 0.14252767 9.1380209e-05
  Force max component initial, final = 0.067928397 1.7102341e-05
  Final line search alpha, max atom move = 0.5 8.5511704e-06
  Iterations, force evaluations = 193 387

MPI task timing breakdown:
Section |  min time  |  avg time  |  max time  |%varavg| %total
---------------------------------------------------------------
Pair    | 1.0872     | 3.0442     | 4.0322     |  48.3 | 72.57
Neigh   | 0          | 0          | 0          |   0.0 |  0.00
Comm    | 0.048709   | 0.67024    | 2.1203     |  73.6 | 15.98
Output  | 0          | 0          | 0          |   0.0 |  0.00
Modify  | 5.1085e-05 | 0.0064116  | 0.013475   |   3.7 |  0.15
Other   |            | 0.4738     |            |       | 11.30

Nlocal:        5552.90 ave        7917 max           0 min
Histogram: 4 2 2 0 2 6 4 1 14 17
Nghost:        6213.54 ave        8769 max         412 min
Histogram: 4 0 4 0 8 0 4 5 7 20
Neighs:       158427.0 ave      230796 max           0 min
Histogram: 4 2 2 0 5 3 4 4 12 16

Total # of neighbors = 8238196
Ave neighs/atom = 28.530450
Neighbor list builds = 0
Dangerous builds = 0
The dot product: 5.9427659296926e-10
Setting atom values ...
  1 settings made for x
  1 settings made for y
  1 settings made for z
Setting up cg style minimization ...
  Unit style    : metal
  Current step  : 17948
Per MPI rank memory allocation (min/avg/max) = 5.465 | 6.344 | 6.728 Mbytes
Step PotEng KinEng TotEng v_fx v_fy v_fz 
   17948   -1152449.3            0   -1152449.3   -0.0392361  0.028074612 -0.0058548024 
   18000   -1152449.3            0   -1152449.3 0.00023380375 0.0001196058 -0.00037799606 
   18119   -1152449.3            0   -1152449.3 -2.8594102e-05 8.8687859e-06 1.2414319e-05 
Loop time of 3.70195 on 52 procs for 171 steps with 288751 atoms

99.9% CPU use with 52 MPI tasks x 1 OpenMP threads

Minimization stats:
  Stopping criterion = energy tolerance
  Energy initial, next-to-last, final = 
     -1152449.34771746  -1152449.34880954  -1152449.34880954
  Force two-norm initial, final = 0.1427617 0.00017452891
  Force max component initial, final = 0.069328282 2.8594102e-05
  Final line search alpha, max atom move = 1.0000000 2.8594102e-05
  Iterations, force evaluations = 171 342

MPI task timing breakdown:
Section |  min time  |  avg time  |  max time  |%varavg| %total
---------------------------------------------------------------
Pair    | 0.96165    | 2.6901     | 3.5588     |  45.4 | 72.67
Neigh   | 0          | 0          | 0          |   0.0 |  0.00
Comm    | 0.042582   | 0.59139    | 1.8705     |  69.4 | 15.98
Output  | 0.00012411 | 0.00012869 | 0.00032323 |   0.0 |  0.00
Modify  | 4.8615e-05 | 0.0056976  | 0.0119     |   3.5 |  0.15
Other   |            | 0.4146     |            |       | 11.20

Nlocal:        5552.90 ave        7917 max           0 min
Histogram: 4 2 2 0 2 6 4 1 14 17
Nghost:        6213.54 ave        8769 max         412 min
Histogram: 4 0 4 0 8 0 4 5 7 20
Neighs:       158427.0 ave      230796 max           0 min
Histogram: 4 2 2 0 5 3 4 4 12 16

Total # of neighbors = 8238193
Ave neighs/atom = 28.530440
Neighbor list builds = 0
Dangerous builds = 0
The dot product: 9.73130036711141e-08
Setting atom values ...
  1 settings made for x
  1 settings made for y
  1 settings made for z
Setting up cg style minimization ...
  Unit style    : metal
  Current step  : 18119
Per MPI rank memory allocation (min/avg/max) = 5.465 | 6.344 | 6.728 Mbytes
Step PotEng KinEng TotEng v_fx v_fy v_fz 
   18119   -1152449.3            0   -1152449.3 -0.042369647  0.028956131 -0.0045043332 
   18246   -1152449.3            0   -1152449.3 -2.0023776e-05 -2.1065986e-06 2.0616825e-05 
Loop time of 2.76051 on 52 procs for 127 steps with 288751 atoms

99.9% CPU use with 52 MPI tasks x 1 OpenMP threads

Minimization stats:
  Stopping criterion = energy tolerance
  Energy initial, next-to-last, final = 
     -1152449.34448455  -1152449.34561452  -1152449.34561452
  Force two-norm initial, final = 0.14408138 0.00031386653
  Force max component initial, final = 0.070667039 4.8440994e-05
  Final line search alpha, max atom move = 1.0000000 4.8440994e-05
  Iterations, force evaluations = 127 254

MPI task timing breakdown:
Section |  min time  |  avg time  |  max time  |%varavg| %total
---------------------------------------------------------------
Pair    | 0.71478    | 2.0009     | 2.6514     |  39.1 | 72.48
Neigh   | 0          | 0          | 0          |   0.0 |  0.00
Comm    | 0.031914   | 0.44086    | 1.3925     |  59.6 | 15.97
Output  | 0          | 0          | 0          |   0.0 |  0.00
Modify  | 3.1891e-05 | 0.0042083  | 0.0088339  |   3.0 |  0.15
Other   |            | 0.3145     |            |       | 11.39

Nlocal:        5552.90 ave        7918 max           0 min
Histogram: 4 2 2 0 2 6 4 1 14 17
Nghost:        6213.54 ave        8769 max         412 min
Histogram: 4 0 4 0 8 0 4 5 7 20
Neighs:       158427.0 ave      230834 max           0 min
Histogram: 4 2 2 0 5 3 4 4 12 16

Total # of neighbors = 8238193
Ave neighs/atom = 28.530440
Neighbor list builds = 0
Dangerous builds = 0
The dot product: 8.21102082129748e-08
Setting atom values ...
  1 settings made for x
  1 settings made for y
  1 settings made for z
Setting up cg style minimization ...
  Unit style    : metal
  Current step  : 18246
Per MPI rank memory allocation (min/avg/max) = 5.465 | 6.344 | 6.728 Mbytes
Step PotEng KinEng TotEng v_fx v_fy v_fz 
   18246   -1152449.3            0   -1152449.3 -0.049584813  0.030464018 -0.00055147871 
   18503   -1152449.3            0   -1152449.3 -2.02552e-06 -2.2114441e-05 3.3651676e-05 
Loop time of 5.58095 on 52 procs for 257 steps with 288751 atoms

99.9% CPU use with 52 MPI tasks x 1 OpenMP threads

Minimization stats:
  Stopping criterion = linesearch alpha is zero
  Energy initial, next-to-last, final = 
     -1152449.34053556  -1152449.34897946  -1152449.34897946
  Force two-norm initial, final = 0.14949707 0.000150213
  Force max component initial, final = 0.07190167 3.3651676e-05
  Final line search alpha, max atom move = 0.5 1.6825838e-05
  Iterations, force evaluations = 257 515

MPI task timing breakdown:
Section |  min time  |  avg time  |  max time  |%varavg| %total
---------------------------------------------------------------
Pair    | 1.4529     | 4.0478     | 5.3454     |  55.5 | 72.53
Neigh   | 1.8433e-05 | 0.0057232  | 0.0084335  |   3.2 |  0.10
Comm    | 0.068828   | 0.88948    | 2.8149     |  85.0 | 15.94
Output  | 0          | 0          | 0          |   0.0 |  0.00
Modify  | 7.0972e-05 | 0.0085562  | 0.017892   |   4.3 |  0.15
Other   |            | 0.6294     |            |       | 11.28

Nlocal:        5552.90 ave        7908 max           0 min
Histogram: 4 2 2 0 2 6 4 0 15 17
Nghost:        6213.54 ave        8769 max         412 min
Histogram: 4 0 4 0 8 0 4 5 7 20
Neighs:       158427.0 ave      230498 max           0 min
Histogram: 4 2 2 0 5 3 4 4 12 16

Total # of neighbors = 8238201
Ave neighs/atom = 28.530467
Neighbor list builds = 1
Dangerous builds = 0
The dot product: 3.9118281672285e-07
