LAMMPS (29 Oct 2020)
OMP_NUM_THREADS environment is not set. Defaulting to 1 thread. (../comm.cpp:94)
  using 1 OpenMP thread(s) per MPI task
OMP_NUM_THREADS environment is not set. Defaulting to 1 thread. (../comm.cpp:94)
  using 1 OpenMP thread(s) per MPI task
Reading data file ...
  orthogonal box = (-122.39241 -121.13707 -37.090501) to (122.39241 121.13707 37.090501)
  13 by 4 by 2 MPI processor grid
  reading atoms ...
  288751 atoms
  read_data CPU = 0.379 seconds
199981 atoms in group inner
88770 atoms in group outer
1 atoms in group carbon
Neighbor list info ...
  update every 1 steps, delay 0 steps, check yes
  max neighbors/atom: 2000, page size: 100000
  master list distance cutoff = 5.6
  ghost atom cutoff = 5.6
  binsize = 2.8, bins = 88 87 27
  1 neighbor lists, perpetual/occasional/extra = 1 0 0
  (1) pair eam/alloy, perpetual
      attributes: half, newton on
      pair build: half/bin/atomonly/newton
      stencil: half/bin/3d/newton
      bin: standard
Setting up cg style minimization ...
  Unit style    : metal
  Current step  : 0
Per MPI rank memory allocation (min/avg/max) = 5.441 | 5.816 | 6.074 Mbytes
Step v_fx v_fy v_fz PotEng KinEng TotEng 
       0   0.18291107   0.68441231   -0.6735301   -1152447.8            0   -1152447.8 
     165 7.7552881e-06 -1.7838425e-05 2.1359445e-05   -1152449.5            0   -1152449.5 
Loop time of 2.01443 on 104 procs for 165 steps with 288751 atoms

99.8% CPU use with 104 MPI tasks x 1 OpenMP threads

Minimization stats:
  Stopping criterion = energy tolerance
  Energy initial, next-to-last, final = 
     -1152447.83900478  -1152449.45035271  -1152449.45035271
  Force two-norm initial, final = 9.8663216 8.9598701e-05
  Force max component initial, final = 4.6993898 2.1359445e-05
  Final line search alpha, max atom move = 1.0000000 2.1359445e-05
  Iterations, force evaluations = 165 329

MPI task timing breakdown:
Section |  min time  |  avg time  |  max time  |%varavg| %total
---------------------------------------------------------------
Pair    | 0.5125     | 1.399      | 1.8197     |  31.4 | 69.45
Neigh   | 2.1531e-05 | 0.0058603  | 0.0085036  |   3.2 |  0.29
Comm    | 0.037542   | 0.32633    | 0.95376    |  45.5 | 16.20
Output  | 0          | 0          | 0          |   0.0 |  0.00
Modify  | 2.0027e-05 | 0.0017913  | 0.0045928  |   2.6 |  0.09
Other   |            | 0.2814     |            |       | 13.97

Nlocal:        2776.45 ave        3960 max           0 min
Histogram: 8 4 4 0 4 12 8 2 28 34
Nghost:        3879.05 ave        5424 max         232 min
Histogram: 8 0 8 0 16 0 8 8 16 40
Neighs:        79213.7 ave      115437 max           0 min
Histogram: 8 4 4 0 10 6 8 8 24 32

Total # of neighbors = 8238223
Ave neighs/atom = 28.530544
Neighbor list builds = 2
Dangerous builds = 0
Setting atom values ...
  1 settings made for x
  1 settings made for y
  1 settings made for z
Setting up cg style minimization ...
  Unit style    : metal
  Current step  : 165
Per MPI rank memory allocation (min/avg/max) = 5.441 | 5.816 | 6.074 Mbytes
Step PotEng KinEng TotEng v_fx v_fy v_fz 
     165   -1152449.4            0   -1152449.4 -0.017390874 0.0075649989  -0.01920783 
     307   -1152449.5            0   -1152449.5 -9.1287016e-06 1.2910745e-05 1.8460082e-05 
Loop time of 1.70213 on 104 procs for 142 steps with 288751 atoms

99.8% CPU use with 104 MPI tasks x 1 OpenMP threads

Minimization stats:
  Stopping criterion = energy tolerance
  Energy initial, next-to-last, final = 
     -1152449.44953756  -1152449.45002983  -1152449.45002983
  Force two-norm initial, final = 0.10017519 0.00013187072
  Force max component initial, final = 0.050913821 1.8460082e-05
  Final line search alpha, max atom move = 1.0000000 1.8460082e-05
  Iterations, force evaluations = 142 284

MPI task timing breakdown:
Section |  min time  |  avg time  |  max time  |%varavg| %total
---------------------------------------------------------------
Pair    | 0.42841    | 1.2036     | 1.5718     |  29.7 | 70.71
Neigh   | 0          | 0          | 0          |   0.0 |  0.00
Comm    | 0.026766   | 0.27467    | 0.81554    |  42.8 | 16.14
Output  | 0          | 0          | 0          |   0.0 |  0.00
Modify  | 1.9417e-05 | 0.0023619  | 0.0050195  |   2.3 |  0.14
Other   |            | 0.2215     |            |       | 13.01

Nlocal:        2776.45 ave        3961 max           0 min
Histogram: 8 4 4 0 6 10 8 2 28 34
Nghost:        3879.01 ave        5424 max         232 min
Histogram: 8 0 8 0 16 0 8 8 16 40
Neighs:        79213.4 ave      115460 max           0 min
Histogram: 8 4 4 0 10 6 8 8 24 32

Total # of neighbors = 8238197
Ave neighs/atom = 28.530454
Neighbor list builds = 0
Dangerous builds = 0
Setting atom values ...
  1 settings made for x
  1 settings made for y
  1 settings made for z
Setting up cg style minimization ...
  Unit style    : metal
  Current step  : 307
Per MPI rank memory allocation (min/avg/max) = 5.441 | 5.816 | 6.074 Mbytes
Step PotEng KinEng TotEng v_fx v_fy v_fz 
     307   -1152449.4            0   -1152449.4 -0.025129338  0.016352748 -0.024548404 
     434   -1152449.4            0   -1152449.4 -1.3087305e-05 2.2734364e-05 5.1548911e-05 
Loop time of 1.51282 on 104 procs for 127 steps with 288751 atoms

99.8% CPU use with 104 MPI tasks x 1 OpenMP threads

Minimization stats:
  Stopping criterion = energy tolerance
  Energy initial, next-to-last, final = 
      -1152449.4468406  -1152449.44812656  -1152449.44812656
  Force two-norm initial, final = 0.16025355 0.00017220028
  Force max component initial, final = 0.090291158 5.1548911e-05
  Final line search alpha, max atom move = 1.0000000 5.1548911e-05
  Iterations, force evaluations = 127 254

MPI task timing breakdown:
Section |  min time  |  avg time  |  max time  |%varavg| %total
---------------------------------------------------------------
Pair    | 0.38485    | 1.0711     | 1.4014     |  28.1 | 70.80
Neigh   | 0          | 0          | 0          |   0.0 |  0.00
Comm    | 0.022568   | 0.24516    | 0.7247     |  40.5 | 16.21
Output  | 0          | 0          | 0          |   0.0 |  0.00
Modify  | 1.6375e-05 | 0.0021152  | 0.0044854  |   2.2 |  0.14
Other   |            | 0.1944     |            |       | 12.85

Nlocal:        2776.45 ave        3961 max           0 min
Histogram: 8 4 4 0 6 10 8 2 28 34
Nghost:        3879.01 ave        5424 max         232 min
Histogram: 8 0 8 0 16 0 8 8 16 40
Neighs:        79213.4 ave      115460 max           0 min
Histogram: 8 4 4 0 10 6 8 8 24 32

Total # of neighbors = 8238196
Ave neighs/atom = 28.530450
Neighbor list builds = 0
Dangerous builds = 0
The dot product: -4.48550669561105e-08
Setting atom values ...
  1 settings made for x
  1 settings made for y
  1 settings made for z
Setting up cg style minimization ...
  Unit style    : metal
  Current step  : 434
Per MPI rank memory allocation (min/avg/max) = 5.441 | 5.816 | 6.074 Mbytes
Step PotEng KinEng TotEng v_fx v_fy v_fz 
     434   -1152449.4            0   -1152449.4 -0.021954844  0.018279866 -0.015756857 
     566   -1152449.4            0   -1152449.4 -3.142379e-07 -1.9151309e-06 -1.3621303e-05 
Loop time of 1.5781 on 104 procs for 132 steps with 288751 atoms

99.9% CPU use with 104 MPI tasks x 1 OpenMP threads

Minimization stats:
  Stopping criterion = energy tolerance
  Energy initial, next-to-last, final = 
     -1152449.44335701  -1152449.44460523  -1152449.44460523
  Force two-norm initial, final = 0.15619937 0.00010125627
  Force max component initial, final = 0.094806705 1.3621303e-05
  Final line search alpha, max atom move = 1.0000000 1.3621303e-05
  Iterations, force evaluations = 132 264

MPI task timing breakdown:
Section |  min time  |  avg time  |  max time  |%varavg| %total
---------------------------------------------------------------
Pair    | 0.40049    | 1.1229     | 1.4587     |  28.8 | 71.16
Neigh   | 0          | 0          | 0          |   0.0 |  0.00
Comm    | 0.023706   | 0.25699    | 0.76693    |  41.6 | 16.28
Output  | 0          | 0          | 0          |   0.0 |  0.00
Modify  | 1.8222e-05 | 0.0021908  | 0.0046284  |   2.2 |  0.14
Other   |            | 0.196      |            |       | 12.42

Nlocal:        2776.45 ave        3961 max           0 min
Histogram: 8 4 4 0 6 10 8 2 28 34
Nghost:        3879.01 ave        5424 max         232 min
Histogram: 8 0 8 0 16 0 8 8 16 40
Neighs:        79213.4 ave      115460 max           0 min
Histogram: 8 4 4 0 10 6 8 8 24 32

Total # of neighbors = 8238195
Ave neighs/atom = 28.530447
Neighbor list builds = 0
Dangerous builds = 0
The dot product: 1.02793548296802e-08
Setting atom values ...
  1 settings made for x
  1 settings made for y
  1 settings made for z
Setting up cg style minimization ...
  Unit style    : metal
  Current step  : 566
Per MPI rank memory allocation (min/avg/max) = 5.441 | 5.816 | 6.074 Mbytes
Step PotEng KinEng TotEng v_fx v_fy v_fz 
     566   -1152449.4            0   -1152449.4 -0.019169864  0.018410721 -0.0081563317 
     698   -1152449.4            0   -1152449.4 -8.4372862e-06 7.499145e-06 -7.8018882e-06 
Loop time of 1.57494 on 104 procs for 132 steps with 288751 atoms

99.8% CPU use with 104 MPI tasks x 1 OpenMP threads

Minimization stats:
  Stopping criterion = energy tolerance
  Energy initial, next-to-last, final = 
     -1152449.43830523  -1152449.43953266  -1152449.43953266
  Force two-norm initial, final = 0.15368108 9.6252080e-05
  Force max component initial, final = 0.09845187 8.4372862e-06
  Final line search alpha, max atom move = 1.0000000 8.4372862e-06
  Iterations, force evaluations = 132 264

MPI task timing breakdown:
Section |  min time  |  avg time  |  max time  |%varavg| %total
---------------------------------------------------------------
Pair    | 0.39885    | 1.1106     | 1.4522     |  28.5 | 70.52
Neigh   | 0          | 0          | 0          |   0.0 |  0.00
Comm    | 0.025283   | 0.2544     | 0.75409    |  41.2 | 16.15
Output  | 0          | 0          | 0          |   0.0 |  0.00
Modify  | 1.6118e-05 | 0.002197   | 0.0046899  |   2.2 |  0.14
Other   |            | 0.2077     |            |       | 13.19

Nlocal:        2776.45 ave        3960 max           0 min
Histogram: 8 4 4 0 4 12 8 2 28 34
Nghost:        3879.01 ave        5424 max         232 min
Histogram: 8 0 8 0 16 0 8 8 16 40
Neighs:        79213.4 ave      115417 max           0 min
Histogram: 8 4 4 0 10 6 8 8 24 32

Total # of neighbors = 8238194
Ave neighs/atom = 28.530443
Neighbor list builds = 0
Dangerous builds = 0
The dot product: 2.26680634403093e-08
Setting atom values ...
  1 settings made for x
  1 settings made for y
  1 settings made for z
Setting up cg style minimization ...
  Unit style    : metal
  Current step  : 698
Per MPI rank memory allocation (min/avg/max) = 5.441 | 5.816 | 6.074 Mbytes
Step PotEng KinEng TotEng v_fx v_fy v_fz 
     698   -1152449.4            0   -1152449.4 -0.018999456  0.020161801 -0.0024711244 
     819   -1152449.4            0   -1152449.4 -8.3557046e-06 1.6431645e-05 5.0135896e-05 
Loop time of 1.42208 on 104 procs for 121 steps with 288751 atoms

99.9% CPU use with 104 MPI tasks x 1 OpenMP threads

Minimization stats:
  Stopping criterion = energy tolerance
  Energy initial, next-to-last, final = 
     -1152449.43172295    -1152449.432935    -1152449.432935
  Force two-norm initial, final = 0.15255027 0.00016634772
  Force max component initial, final = 0.10152478 5.0135896e-05
  Final line search alpha, max atom move = 1.0000000 5.0135896e-05
  Iterations, force evaluations = 121 242

MPI task timing breakdown:
Section |  min time  |  avg time  |  max time  |%varavg| %total
---------------------------------------------------------------
Pair    | 0.36319    | 1.0225     | 1.332      |  27.4 | 71.90
Neigh   | 0          | 0          | 0          |   0.0 |  0.00
Comm    | 0.022071   | 0.23019    | 0.68581    |  40.0 | 16.19
Output  | 0          | 0          | 0          |   0.0 |  0.00
Modify  | 1.4656e-05 | 0.0020041  | 0.0042495  |   2.1 |  0.14
Other   |            | 0.1674     |            |       | 11.77

Nlocal:        2776.45 ave        3959 max           0 min
Histogram: 8 4 4 0 4 12 8 2 28 34
Nghost:        3879.05 ave        5424 max         232 min
Histogram: 8 0 8 0 16 0 8 8 16 40
Neighs:        79213.4 ave      115394 max           0 min
Histogram: 8 4 4 0 10 6 8 8 24 32

Total # of neighbors = 8238192
Ave neighs/atom = 28.530436
Neighbor list builds = 0
Dangerous builds = 0
The dot product: 8.27697778635284e-08
Setting atom values ...
  1 settings made for x
  1 settings made for y
  1 settings made for z
Setting up cg style minimization ...
  Unit style    : metal
  Current step  : 819
Per MPI rank memory allocation (min/avg/max) = 5.441 | 5.816 | 6.074 Mbytes
Step PotEng KinEng TotEng v_fx v_fy v_fz 
     819   -1152449.4            0   -1152449.4 -0.020658337  0.023940938 0.0020332917 
     940   -1152449.4            0   -1152449.4 2.8885042e-05 -3.070801e-05 1.3964512e-05 
Loop time of 1.41439 on 104 procs for 121 steps with 288751 atoms

99.9% CPU use with 104 MPI tasks x 1 OpenMP threads

Minimization stats:
  Stopping criterion = energy tolerance
  Energy initial, next-to-last, final = 
     -1152449.42366186  -1152449.42487479  -1152449.42487479
  Force two-norm initial, final = 0.15255364 0.00019826773
  Force max component initial, final = 0.10435255 3.0708010e-05
  Final line search alpha, max atom move = 1.0000000 3.0708010e-05
  Iterations, force evaluations = 121 242

MPI task timing breakdown:
Section |  min time  |  avg time  |  max time  |%varavg| %total
---------------------------------------------------------------
Pair    | 0.36611    | 1.0171     | 1.3258     |  27.3 | 71.91
Neigh   | 0          | 0          | 0          |   0.0 |  0.00
Comm    | 0.021133   | 0.23034    | 0.68905    |  39.9 | 16.29
Output  | 0          | 0          | 0          |   0.0 |  0.00
Modify  | 1.5683e-05 | 0.0020106  | 0.0042727  |   2.1 |  0.14
Other   |            | 0.165      |            |       | 11.66

Nlocal:        2776.45 ave        3958 max           0 min
Histogram: 8 4 4 0 4 12 8 2 28 34
Nghost:        3879.05 ave        5424 max         232 min
Histogram: 8 0 8 0 16 0 8 8 16 40
Neighs:        79213.4 ave      115371 max           0 min
Histogram: 8 4 4 0 10 6 8 8 24 32

Total # of neighbors = 8238190
Ave neighs/atom = 28.530429
Neighbor list builds = 0
Dangerous builds = 0
The dot product: -1.51814267178359e-07
Setting atom values ...
  1 settings made for x
  1 settings made for y
  1 settings made for z
Setting up cg style minimization ...
  Unit style    : metal
  Current step  : 940
Per MPI rank memory allocation (min/avg/max) = 5.441 | 5.816 | 6.074 Mbytes
Step PotEng KinEng TotEng v_fx v_fy v_fz 
     940   -1152449.4            0   -1152449.4 -0.024345566  0.031034939 0.0056718856 
    1000   -1152449.4            0   -1152449.4 3.2779309e-05 -0.00010681898 -0.00034779357 
    1127   -1152449.4            0   -1152449.4 5.1937756e-06 -1.6325448e-06 2.4881495e-05 
Loop time of 2.20435 on 104 procs for 187 steps with 288751 atoms

99.9% CPU use with 104 MPI tasks x 1 OpenMP threads

Minimization stats:
  Stopping criterion = energy tolerance
  Energy initial, next-to-last, final = 
     -1152449.41422651  -1152449.41548287  -1152449.41548287
  Force two-norm initial, final = 0.15403379 6.4502635e-05
  Force max component initial, final = 0.10711122 2.4881495e-05
  Final line search alpha, max atom move = 1.0000000 2.4881495e-05
  Iterations, force evaluations = 187 374

MPI task timing breakdown:
Section |  min time  |  avg time  |  max time  |%varavg| %total
---------------------------------------------------------------
Pair    | 0.5651     | 1.5785     | 2.0447     |  33.9 | 71.61
Neigh   | 0          | 0          | 0          |   0.0 |  0.00
Comm    | 0.036932   | 0.35753    | 1.0786     |  49.7 | 16.22
Output  | 0.00025851 | 0.00026479 | 0.00037746 |   0.0 |  0.01
Modify  | 2.633e-05  | 0.003116   | 0.0066548  |   2.6 |  0.14
Other   |            | 0.265      |            |       | 12.02

Nlocal:        2776.45 ave        3958 max           0 min
Histogram: 8 4 4 0 4 12 8 2 28 34
Nghost:        3879.05 ave        5424 max         232 min
Histogram: 8 0 8 0 16 0 8 8 16 40
Neighs:        79213.4 ave      115371 max           0 min
Histogram: 8 4 4 0 10 6 8 8 24 32

Total # of neighbors = 8238191
Ave neighs/atom = 28.530433
Neighbor list builds = 0
Dangerous builds = 0
The dot product: 1.5146924038829e-08
Setting atom values ...
  1 settings made for x
  1 settings made for y
  1 settings made for z
Setting up cg style minimization ...
  Unit style    : metal
  Current step  : 1127
Per MPI rank memory allocation (min/avg/max) = 5.441 | 5.816 | 6.074 Mbytes
Step PotEng KinEng TotEng v_fx v_fy v_fz 
    1127   -1152449.4            0   -1152449.4 -0.026520458  0.038299816 0.0081620288 
    1250   -1152449.4            0   -1152449.4 3.9280244e-06 4.2964557e-06 4.2323943e-05 
Loop time of 1.43226 on 104 procs for 123 steps with 288751 atoms

99.9% CPU use with 104 MPI tasks x 1 OpenMP threads

Minimization stats:
  Stopping criterion = energy tolerance
  Energy initial, next-to-last, final = 
      -1152449.4035591  -1152449.40487553  -1152449.40487553
  Force two-norm initial, final = 0.15577217 0.00020417749
  Force max component initial, final = 0.10973616 4.2323943e-05
  Final line search alpha, max atom move = 1.0000000 4.2323943e-05
  Iterations, force evaluations = 123 246

MPI task timing breakdown:
Section |  min time  |  avg time  |  max time  |%varavg| %total
---------------------------------------------------------------
Pair    | 0.37026    | 1.0342     | 1.3477     |  27.6 | 72.21
Neigh   | 0          | 0          | 0          |   0.0 |  0.00
Comm    | 0.021394   | 0.23251    | 0.69477    |  40.6 | 16.23
Output  | 0          | 0          | 0          |   0.0 |  0.00
Modify  | 1.4914e-05 | 0.0020438  | 0.0043379  |   2.1 |  0.14
Other   |            | 0.1635     |            |       | 11.42

Nlocal:        2776.45 ave        3957 max           0 min
Histogram: 8 4 4 0 4 12 8 2 28 34
Nghost:        3879.05 ave        5424 max         232 min
Histogram: 8 0 8 0 16 0 8 8 16 40
Neighs:        79213.4 ave      115340 max           0 min
Histogram: 8 4 4 0 10 6 8 8 24 32

Total # of neighbors = 8238192
Ave neighs/atom = 28.530436
Neighbor list builds = 0
Dangerous builds = 0
The dot product: 9.36950901053972e-08
Setting atom values ...
  1 settings made for x
  1 settings made for y
  1 settings made for z
Setting up cg style minimization ...
  Unit style    : metal
  Current step  : 1250
Per MPI rank memory allocation (min/avg/max) = 5.441 | 5.816 | 6.074 Mbytes
Step PotEng KinEng TotEng v_fx v_fy v_fz 
    1250   -1152449.4            0   -1152449.4 -0.025308929  0.042078079 0.0087275315 
    1391   -1152449.4            0   -1152449.4 -1.1835837e-05 1.886964e-05 1.1340304e-06 
Loop time of 1.64969 on 104 procs for 141 steps with 288751 atoms

99.9% CPU use with 104 MPI tasks x 1 OpenMP threads

Minimization stats:
  Stopping criterion = energy tolerance
  Energy initial, next-to-last, final = 
     -1152449.39171014  -1152449.39306464  -1152449.39306464
  Force two-norm initial, final = 0.15664668 0.00024157321
  Force max component initial, final = 0.11189371 3.5457823e-05
  Final line search alpha, max atom move = 1.0000000 3.5457823e-05
  Iterations, force evaluations = 141 282

MPI task timing breakdown:
Section |  min time  |  avg time  |  max time  |%varavg| %total
---------------------------------------------------------------
Pair    | 0.42472    | 1.1919     | 1.5396     |  29.5 | 72.25
Neigh   | 0          | 0          | 0          |   0.0 |  0.00
Comm    | 0.024977   | 0.26973    | 0.82262    |  43.4 | 16.35
Output  | 0          | 0          | 0          |   0.0 |  0.00
Modify  | 1.7445e-05 | 0.0023335  | 0.0049308  |   2.3 |  0.14
Other   |            | 0.1858     |            |       | 11.26

Nlocal:        2776.45 ave        3957 max           0 min
Histogram: 8 4 4 0 4 12 8 2 28 34
Nghost:        3879.05 ave        5424 max         232 min
Histogram: 8 0 8 0 16 0 8 8 16 40
Neighs:        79213.4 ave      115340 max           0 min
Histogram: 8 4 4 0 10 6 8 8 24 32

Total # of neighbors = 8238191
Ave neighs/atom = 28.530433
Neighbor list builds = 0
Dangerous builds = 0
The dot product: 2.3528846556611e-07
Setting atom values ...
  1 settings made for x
  1 settings made for y
  1 settings made for z
Setting up cg style minimization ...
  Unit style    : metal
  Current step  : 1391
Per MPI rank memory allocation (min/avg/max) = 5.441 | 5.816 | 6.074 Mbytes
Step PotEng KinEng TotEng v_fx v_fy v_fz 
    1391   -1152449.4            0   -1152449.4 -0.021795724  0.041975123 0.0082737965 
    1607   -1152449.4            0   -1152449.4 -3.1918779e-06 4.8982969e-06 -2.6391855e-06 
Loop time of 2.55578 on 104 procs for 216 steps with 288751 atoms

99.9% CPU use with 104 MPI tasks x 1 OpenMP threads

Minimization stats:
  Stopping criterion = energy tolerance
  Energy initial, next-to-last, final = 
     -1152449.37865469   -1152449.3800061   -1152449.3800061
  Force two-norm initial, final = 0.15667222 2.9702691e-05
  Force max component initial, final = 0.11337069 5.6830684e-06
  Final line search alpha, max atom move = 1.0000000 5.6830684e-06
  Iterations, force evaluations = 216 432

MPI task timing breakdown:
Section |  min time  |  avg time  |  max time  |%varavg| %total
---------------------------------------------------------------
Pair    | 0.65392    | 1.8214     | 2.3729     |  36.6 | 71.27
Neigh   | 0          | 0          | 0          |   0.0 |  0.00
Comm    | 0.040135   | 0.41516    | 1.2353     |  53.2 | 16.24
Output  | 0          | 0          | 0          |   0.0 |  0.00
Modify  | 2.7083e-05 | 0.0035821  | 0.0076263  |   2.8 |  0.14
Other   |            | 0.3156     |            |       | 12.35

Nlocal:        2776.45 ave        3957 max           0 min
Histogram: 8 4 4 0 4 12 8 2 28 34
Nghost:        3879.09 ave        5424 max         232 min
Histogram: 8 0 8 0 16 0 8 8 16 40
Neighs:        79213.4 ave      115340 max           0 min
Histogram: 8 4 4 0 10 6 8 8 24 32

Total # of neighbors = 8238192
Ave neighs/atom = 28.530436
Neighbor list builds = 0
Dangerous builds = 0
The dot product: 5.81355590983304e-08
Setting atom values ...
  1 settings made for x
  1 settings made for y
  1 settings made for z
Setting up cg style minimization ...
  Unit style    : metal
  Current step  : 1607
Per MPI rank memory allocation (min/avg/max) = 5.441 | 5.816 | 6.074 Mbytes
Step PotEng KinEng TotEng v_fx v_fy v_fz 
    1607   -1152449.4            0   -1152449.4 -0.017365074  0.038789987 0.0077236727 
    1734   -1152449.4            0   -1152449.4 9.0124184e-06 -7.3899359e-08 4.9103944e-05 
Loop time of 1.48343 on 104 procs for 127 steps with 288751 atoms

99.9% CPU use with 104 MPI tasks x 1 OpenMP threads

Minimization stats:
  Stopping criterion = energy tolerance
  Energy initial, next-to-last, final = 
     -1152449.36431499  -1152449.36563683  -1152449.36563683
  Force two-norm initial, final = 0.15630121 0.00019855149
  Force max component initial, final = 0.11433621 4.9103944e-05
  Final line search alpha, max atom move = 1.0000000 4.9103944e-05
  Iterations, force evaluations = 127 254

MPI task timing breakdown:
Section |  min time  |  avg time  |  max time  |%varavg| %total
---------------------------------------------------------------
Pair    | 0.38177    | 1.0713     | 1.3957     |  28.0 | 72.22
Neigh   | 0          | 0          | 0          |   0.0 |  0.00
Comm    | 0.022236   | 0.24155    | 0.72771    |  41.2 | 16.28
Output  | 0          | 0          | 0          |   0.0 |  0.00
Modify  | 1.5187e-05 | 0.0021099  | 0.0044688  |   2.1 |  0.14
Other   |            | 0.1685     |            |       | 11.36

Nlocal:        2776.45 ave        3957 max           0 min
Histogram: 8 4 4 0 4 12 8 2 28 34
Nghost:        3879.12 ave        5424 max         232 min
Histogram: 8 0 8 0 16 0 8 8 16 40
Neighs:        79213.4 ave      115340 max           0 min
Histogram: 8 4 4 0 10 6 8 8 24 32

Total # of neighbors = 8238193
Ave neighs/atom = 28.530440
Neighbor list builds = 0
Dangerous builds = 0
The dot product: 1.12409575696655e-08
Setting atom values ...
  1 settings made for x
  1 settings made for y
  1 settings made for z
Setting up cg style minimization ...
  Unit style    : metal
  Current step  : 1734
Per MPI rank memory allocation (min/avg/max) = 5.441 | 5.816 | 6.074 Mbytes
Step PotEng KinEng TotEng v_fx v_fy v_fz 
    1734   -1152449.3            0   -1152449.3 -0.013046799  0.033571501 0.0069695358 
    1918   -1152449.3            0   -1152449.3 -1.071708e-05 1.9317059e-05 -1.3427843e-05 
Loop time of 2.15382 on 104 procs for 184 steps with 288751 atoms

99.9% CPU use with 104 MPI tasks x 1 OpenMP threads

Minimization stats:
  Stopping criterion = energy tolerance
  Energy initial, next-to-last, final = 
      -1152449.3486228   -1152449.3499012   -1152449.3499012
  Force two-norm initial, final = 0.15590309 7.8746935e-05
  Force max component initial, final = 0.11489755 1.9317059e-05
  Final line search alpha, max atom move = 1.0000000 1.9317059e-05
  Iterations, force evaluations = 184 368

MPI task timing breakdown:
Section |  min time  |  avg time  |  max time  |%varavg| %total
---------------------------------------------------------------
Pair    | 0.55383    | 1.5445     | 2.016      |  33.6 | 71.71
Neigh   | 0          | 0          | 0          |   0.0 |  0.00
Comm    | 0.031557   | 0.34928    | 1.0459     |  49.3 | 16.22
Output  | 0          | 0          | 0          |   0.0 |  0.00
Modify  | 2.4564e-05 | 0.0030489  | 0.0065111  |   2.6 |  0.14
Other   |            | 0.257      |            |       | 11.93

Nlocal:        2776.45 ave        3957 max           0 min
Histogram: 8 4 4 0 4 12 8 2 28 34
Nghost:        3879.12 ave        5424 max         232 min
Histogram: 8 0 8 0 16 0 8 8 16 40
Neighs:        79213.4 ave      115340 max           0 min
Histogram: 8 4 4 0 10 6 8 8 24 32

Total # of neighbors = 8238192
Ave neighs/atom = 28.530436
Neighbor list builds = 0
Dangerous builds = 0
The dot product: 1.84054634314989e-07
Setting atom values ...
  1 settings made for x
  1 settings made for y
  1 settings made for z
Setting up cg style minimization ...
  Unit style    : metal
  Current step  : 1918
Per MPI rank memory allocation (min/avg/max) = 5.441 | 5.816 | 6.074 Mbytes
Step PotEng KinEng TotEng v_fx v_fy v_fz 
    1918   -1152449.3            0   -1152449.3 -0.0092362733  0.027288249 0.0064484021 
    2000   -1152449.3            0   -1152449.3 -6.2039962e-05 7.2545007e-05 -0.00018576655 
    2029   -1152449.3            0   -1152449.3 2.1734624e-05 -2.2031465e-05 7.2078515e-05 
Loop time of 1.29341 on 104 procs for 111 steps with 288751 atoms

99.9% CPU use with 104 MPI tasks x 1 OpenMP threads

Minimization stats:
  Stopping criterion = energy tolerance
  Energy initial, next-to-last, final = 
     -1152449.33152326   -1152449.3327564   -1152449.3327564
  Force two-norm initial, final = 0.15582838 0.00028522908
  Force max component initial, final = 0.11534739 7.2078515e-05
  Final line search alpha, max atom move = 1.0000000 7.2078515e-05
  Iterations, force evaluations = 111 222

MPI task timing breakdown:
Section |  min time  |  avg time  |  max time  |%varavg| %total
---------------------------------------------------------------
Pair    | 0.33418    | 0.9368     | 1.2198     |  26.2 | 72.43
Neigh   | 0          | 0          | 0          |   0.0 |  0.00
Comm    | 0.019309   | 0.21084    | 0.63486    |  38.5 | 16.30
Output  | 0.00015755 | 0.00016377 | 0.00028216 |   0.0 |  0.01
Modify  | 1.3968e-05 | 0.0018414  | 0.0039013  |   2.0 |  0.14
Other   |            | 0.1438     |            |       | 11.11

Nlocal:        2776.45 ave        3957 max           0 min
Histogram: 8 4 4 0 4 12 8 2 28 34
Nghost:        3879.14 ave        5424 max         232 min
Histogram: 8 0 8 0 16 0 8 8 16 40
Neighs:        79213.4 ave      115340 max           0 min
Histogram: 8 4 4 0 10 6 8 8 24 32

Total # of neighbors = 8238189
Ave neighs/atom = 28.530426
Neighbor list builds = 0
Dangerous builds = 0
The dot product: -1.74674487518799e-07
Setting atom values ...
  1 settings made for x
  1 settings made for y
  1 settings made for z
Setting up cg style minimization ...
  Unit style    : metal
  Current step  : 2029
Per MPI rank memory allocation (min/avg/max) = 5.441 | 5.816 | 6.074 Mbytes
Step PotEng KinEng TotEng v_fx v_fy v_fz 
    2029   -1152449.3            0   -1152449.3 -0.0060501219  0.020504261 0.0059036617 
    2199   -1152449.3            0   -1152449.3 -1.1180024e-05 7.9368175e-06 -4.5532602e-05 
Loop time of 2.02013 on 104 procs for 170 steps with 288751 atoms

99.9% CPU use with 104 MPI tasks x 1 OpenMP threads

Minimization stats:
  Stopping criterion = energy tolerance
  Energy initial, next-to-last, final = 
     -1152449.31297953  -1152449.31417598  -1152449.31417598
  Force two-norm initial, final = 0.15613786 0.00017092565
  Force max component initial, final = 0.11576507 4.5532602e-05
  Final line search alpha, max atom move = 1.0000000 4.5532602e-05
  Iterations, force evaluations = 170 340

MPI task timing breakdown:
Section |  min time  |  avg time  |  max time  |%varavg| %total
---------------------------------------------------------------
Pair    | 0.51188    | 1.4387     | 1.8942     |  32.8 | 71.22
Neigh   | 0          | 0          | 0          |   0.0 |  0.00
Comm    | 0.030577   | 0.32722    | 0.96028    |  46.8 | 16.20
Output  | 0          | 0          | 0          |   0.0 |  0.00
Modify  | 2.1093e-05 | 0.0028213  | 0.0060289  |   2.5 |  0.14
Other   |            | 0.2514     |            |       | 12.44

Nlocal:        2776.45 ave        3957 max           0 min
Histogram: 8 4 4 0 4 12 8 2 28 34
Nghost:        3879.14 ave        5424 max         232 min
Histogram: 8 0 8 0 16 0 8 8 16 40
Neighs:        79213.3 ave      115339 max           0 min
Histogram: 8 4 4 0 10 6 8 8 24 32

Total # of neighbors = 8238188
Ave neighs/atom = 28.530422
Neighbor list builds = 0
Dangerous builds = 0
The dot product: 4.9709979416318e-08
Setting atom values ...
  1 settings made for x
  1 settings made for y
  1 settings made for z
Setting up cg style minimization ...
  Unit style    : metal
  Current step  : 2199
Per MPI rank memory allocation (min/avg/max) = 5.441 | 5.816 | 6.074 Mbytes
Step PotEng KinEng TotEng v_fx v_fy v_fz 
    2199   -1152449.3            0   -1152449.3 -0.0034307086  0.013684708 0.0054005532 
    2392   -1152449.3            0   -1152449.3 5.0030656e-07 3.0119081e-06 7.9791927e-06 
Loop time of 2.27583 on 104 procs for 193 steps with 288751 atoms

99.9% CPU use with 104 MPI tasks x 1 OpenMP threads

Minimization stats:
  Stopping criterion = energy tolerance
  Energy initial, next-to-last, final = 
     -1152449.29297332  -1152449.29414393  -1152449.29414393
  Force two-norm initial, final = 0.15699637 5.8758058e-05
  Force max component initial, final = 0.11638021 1.2756505e-05
  Final line search alpha, max atom move = 1.0000000 1.2756505e-05
  Iterations, force evaluations = 193 386

MPI task timing breakdown:
Section |  min time  |  avg time  |  max time  |%varavg| %total
---------------------------------------------------------------
Pair    | 0.59051    | 1.6314     | 2.1194     |  34.3 | 71.68
Neigh   | 0          | 0          | 0          |   0.0 |  0.00
Comm    | 0.039685   | 0.37052    | 1.1162     |  50.2 | 16.28
Output  | 0          | 0          | 0          |   0.0 |  0.00
Modify  | 2.3253e-05 | 0.0032022  | 0.0068652  |   2.7 |  0.14
Other   |            | 0.2707     |            |       | 11.90

Nlocal:        2776.45 ave        3957 max           0 min
Histogram: 8 4 4 0 4 12 8 2 28 34
Nghost:        3879.14 ave        5424 max         232 min
Histogram: 8 0 8 0 16 0 8 8 16 40
Neighs:        79213.3 ave      115339 max           0 min
Histogram: 8 4 4 0 10 6 8 8 24 32

Total # of neighbors = 8238186
Ave neighs/atom = 28.530415
Neighbor list builds = 0
Dangerous builds = 0
The dot product: 1.38818653540594e-08
Setting atom values ...
  1 settings made for x
  1 settings made for y
  1 settings made for z
Setting up cg style minimization ...
  Unit style    : metal
  Current step  : 2392
Per MPI rank memory allocation (min/avg/max) = 5.441 | 5.816 | 6.074 Mbytes
Step PotEng KinEng TotEng v_fx v_fy v_fz 
    2392   -1152449.3            0   -1152449.3 -0.0011700479  0.006725431 0.0048338522 
    2531   -1152449.3            0   -1152449.3 9.0861799e-06 -2.725121e-06 4.4646406e-05 
Loop time of 1.62422 on 104 procs for 139 steps with 288751 atoms

99.9% CPU use with 104 MPI tasks x 1 OpenMP threads

Minimization stats:
  Stopping criterion = energy tolerance
  Energy initial, next-to-last, final = 
     -1152449.27149544  -1152449.27265314  -1152449.27265314
  Force two-norm initial, final = 0.15834721 0.00014626275
  Force max component initial, final = 0.11717103 4.4646406e-05
  Final line search alpha, max atom move = 1.0000000 4.4646406e-05
  Iterations, force evaluations = 139 278

MPI task timing breakdown:
Section |  min time  |  avg time  |  max time  |%varavg| %total
---------------------------------------------------------------
Pair    | 0.4182     | 1.1672     | 1.5295     |  29.3 | 71.86
Neigh   | 0          | 0          | 0          |   0.0 |  0.00
Comm    | 0.025079   | 0.26505    | 0.78842    |  42.7 | 16.32
Output  | 0          | 0          | 0          |   0.0 |  0.00
Modify  | 1.6741e-05 | 0.0023079  | 0.0049176  |   2.3 |  0.14
Other   |            | 0.1896     |            |       | 11.68

Nlocal:        2776.45 ave        3957 max           0 min
Histogram: 8 4 4 0 4 12 8 2 28 34
Nghost:        3879.14 ave        5424 max         232 min
Histogram: 8 0 8 0 16 0 8 8 16 40
Neighs:        79213.3 ave      115338 max           0 min
Histogram: 8 4 4 0 10 6 8 8 24 32

Total # of neighbors = 8238185
Ave neighs/atom = 28.530412
Neighbor list builds = 0
Dangerous builds = 0
The dot product: -1.2307984111157e-08
Setting atom values ...
  1 settings made for x
  1 settings made for y
  1 settings made for z
Setting up cg style minimization ...
  Unit style    : metal
  Current step  : 2531
Per MPI rank memory allocation (min/avg/max) = 5.441 | 5.816 | 6.074 Mbytes
Step PotEng KinEng TotEng v_fx v_fy v_fz 
    2531   -1152449.2            0   -1152449.2 0.00087968101 -0.00050067219 0.0039633897 
    2727   -1152449.2            0   -1152449.2 -1.7003608e-07 -8.8316101e-07 -2.3418736e-06 
Loop time of 2.28328 on 104 procs for 196 steps with 288751 atoms

99.9% CPU use with 104 MPI tasks x 1 OpenMP threads

Minimization stats:
  Stopping criterion = energy tolerance
  Energy initial, next-to-last, final = 
     -1152449.24854514  -1152449.24970472  -1152449.24970472
  Force two-norm initial, final = 0.16030502 4.9675839e-05
  Force max component initial, final = 0.11824937 4.9211124e-06
  Final line search alpha, max atom move = 1.0000000 4.9211124e-06
  Iterations, force evaluations = 196 392

MPI task timing breakdown:
Section |  min time  |  avg time  |  max time  |%varavg| %total
---------------------------------------------------------------
Pair    | 0.5885     | 1.6552     | 2.1424     |  34.7 | 72.49
Neigh   | 0          | 0          | 0          |   0.0 |  0.00
Comm    | 0.033738   | 0.37593    | 1.1458     |  51.2 | 16.46
Output  | 0          | 0          | 0          |   0.0 |  0.00
Modify  | 2.5318e-05 | 0.0032428  | 0.0068584  |   2.7 |  0.14
Other   |            | 0.2489     |            |       | 10.90

Nlocal:        2776.45 ave        3957 max           0 min
Histogram: 8 4 4 0 4 12 8 2 28 34
Nghost:        3879.14 ave        5424 max         232 min
Histogram: 8 0 8 0 16 0 8 8 16 40
Neighs:        79213.3 ave      115338 max           0 min
Histogram: 8 4 4 0 10 6 8 8 24 32

Total # of neighbors = 8238184
Ave neighs/atom = 28.530409
Neighbor list builds = 0
Dangerous builds = 0
The dot product: -7.39838906277198e-10
Setting atom values ...
  1 settings made for x
  1 settings made for y
  1 settings made for z
Setting up cg style minimization ...
  Unit style    : metal
  Current step  : 2727
Per MPI rank memory allocation (min/avg/max) = 5.441 | 5.816 | 6.074 Mbytes
Step PotEng KinEng TotEng v_fx v_fy v_fz 
    2727   -1152449.2            0   -1152449.2 0.0029573288 -0.0082822011 0.0028943557 
    2888   -1152449.2            0   -1152449.2 -1.6007748e-06 2.3282626e-05  2.83432e-05 
Loop time of 1.87657 on 104 procs for 161 steps with 288751 atoms

99.9% CPU use with 104 MPI tasks x 1 OpenMP threads

Minimization stats:
  Stopping criterion = energy tolerance
  Energy initial, next-to-last, final = 
     -1152449.22413228  -1152449.22531174  -1152449.22531174
  Force two-norm initial, final = 0.16298685 0.00014743126
  Force max component initial, final = 0.11966278 3.5756623e-05
  Final line search alpha, max atom move = 1.0000000 3.5756623e-05
  Iterations, force evaluations = 161 322

MPI task timing breakdown:
Section |  min time  |  avg time  |  max time  |%varavg| %total
---------------------------------------------------------------
Pair    | 0.48586    | 1.3539     | 1.763      |  31.6 | 72.15
Neigh   | 0          | 0          | 0          |   0.0 |  0.00
Comm    | 0.028147   | 0.30708    | 0.92003    |  46.2 | 16.36
Output  | 0          | 0          | 0          |   0.0 |  0.00
Modify  | 2.0478e-05 | 0.0026665  | 0.0056682  |   2.4 |  0.14
Other   |            | 0.2129     |            |       | 11.34

Nlocal:        2776.45 ave        3956 max           0 min
Histogram: 8 4 4 0 4 12 8 2 28 34
Nghost:        3879.14 ave        5424 max         232 min
Histogram: 8 0 8 0 16 0 8 8 16 40
Neighs:        79213.3 ave      115305 max           0 min
Histogram: 8 4 4 0 10 6 8 8 24 32

Total # of neighbors = 8238185
Ave neighs/atom = 28.530412
Neighbor list builds = 0
Dangerous builds = 0
The dot product: -2.91411513246863e-08
Setting atom values ...
  1 settings made for x
  1 settings made for y
  1 settings made for z
Setting up cg style minimization ...
  Unit style    : metal
  Current step  : 2888
Per MPI rank memory allocation (min/avg/max) = 5.441 | 5.816 | 6.074 Mbytes
Step PotEng KinEng TotEng v_fx v_fy v_fz 
    2888   -1152449.2            0   -1152449.2 0.0053079024 -0.017196177 0.0012596609 
    3000   -1152449.2            0   -1152449.2   1.4667e-05 -1.5927047e-05 5.4452006e-05 
    3016   -1152449.2            0   -1152449.2 -3.6716889e-06 1.9307064e-06 -1.6949411e-05 
Loop time of 1.4904 on 104 procs for 128 steps with 288751 atoms

99.9% CPU use with 104 MPI tasks x 1 OpenMP threads

Minimization stats:
  Stopping criterion = energy tolerance
  Energy initial, next-to-last, final = 
     -1152449.19828584  -1152449.19951403  -1152449.19951403
  Force two-norm initial, final = 0.16655349 0.00015089055
  Force max component initial, final = 0.12151223 1.6949411e-05
  Final line search alpha, max atom move = 1.0000000 1.6949411e-05
  Iterations, force evaluations = 128 256

MPI task timing breakdown:
Section |  min time  |  avg time  |  max time  |%varavg| %total
---------------------------------------------------------------
Pair    | 0.38576    | 1.0823     | 1.4008     |  28.2 | 72.62
Neigh   | 0          | 0          | 0          |   0.0 |  0.00
Comm    | 0.022431   | 0.24535    | 0.74522    |  41.4 | 16.46
Output  | 0.00024352 | 0.00025193 | 0.0003895  |   0.0 |  0.02
Modify  | 1.5198e-05 | 0.0021181  | 0.0044799  |   2.2 |  0.14
Other   |            | 0.1603     |            |       | 10.76

Nlocal:        2776.45 ave        3956 max           0 min
Histogram: 8 4 4 0 4 12 8 2 28 34
Nghost:        3879.14 ave        5424 max         232 min
Histogram: 8 0 8 0 16 0 8 8 16 40
Neighs:        79213.3 ave      115306 max           0 min
Histogram: 8 4 4 0 10 6 8 8 24 32

Total # of neighbors = 8238184
Ave neighs/atom = 28.530409
Neighbor list builds = 0
Dangerous builds = 0
The dot product: 5.10551328996474e-09
Setting atom values ...
  1 settings made for x
  1 settings made for y
  1 settings made for z
Setting up cg style minimization ...
  Unit style    : metal
  Current step  : 3016
Per MPI rank memory allocation (min/avg/max) = 5.441 | 5.816 | 6.074 Mbytes
Step PotEng KinEng TotEng v_fx v_fy v_fz 
    3016   -1152449.2            0   -1152449.2 0.0085219795 -0.028724131 -0.0013892114 
    3178   -1152449.2            0   -1152449.2 1.5755964e-05 -2.3643685e-05 4.7156213e-05 
Loop time of 1.91449 on 104 procs for 162 steps with 288751 atoms

99.9% CPU use with 104 MPI tasks x 1 OpenMP threads

Minimization stats:
  Stopping criterion = energy tolerance
  Energy initial, next-to-last, final = 
     -1152449.17107821  -1152449.17242022  -1152449.17242022
  Force two-norm initial, final = 0.17151538 0.00015663379
  Force max component initial, final = 0.12397365 4.7156213e-05
  Final line search alpha, max atom move = 1.0000000 4.7156213e-05
  Iterations, force evaluations = 162 324

MPI task timing breakdown:
Section |  min time  |  avg time  |  max time  |%varavg| %total
---------------------------------------------------------------
Pair    | 0.48835    | 1.366      | 1.7853     |  31.7 | 71.35
Neigh   | 0          | 0          | 0          |   0.0 |  0.00
Comm    | 0.028365   | 0.31019    | 0.92826    |  46.4 | 16.20
Output  | 0          | 0          | 0          |   0.0 |  0.00
Modify  | 2.2444e-05 | 0.0026909  | 0.0057166  |   2.4 |  0.14
Other   |            | 0.2356     |            |       | 12.31

Nlocal:        2776.45 ave        3956 max           0 min
Histogram: 8 4 4 0 4 12 8 2 28 34
Nghost:        3879.14 ave        5424 max         232 min
Histogram: 8 0 8 0 16 0 8 8 16 40
Neighs:        79213.3 ave      115306 max           0 min
Histogram: 8 4 4 0 10 6 8 8 24 32

Total # of neighbors = 8238185
Ave neighs/atom = 28.530412
Neighbor list builds = 0
Dangerous builds = 0
The dot product: 1.19775910985662e-07
Setting atom values ...
  1 settings made for x
  1 settings made for y
  1 settings made for z
Setting up cg style minimization ...
  Unit style    : metal
  Current step  : 3178
Per MPI rank memory allocation (min/avg/max) = 5.441 | 5.816 | 6.074 Mbytes
Step PotEng KinEng TotEng v_fx v_fy v_fz 
    3178   -1152449.1            0   -1152449.1  0.012028049 -0.042386062  -0.01039345 
    3371   -1152449.1            0   -1152449.1 1.0510848e-06 -4.2585839e-06 -1.9336534e-06 
Loop time of 2.25397 on 104 procs for 193 steps with 288751 atoms

99.9% CPU use with 104 MPI tasks x 1 OpenMP threads

Minimization stats:
  Stopping criterion = energy tolerance
  Energy initial, next-to-last, final = 
     -1152449.14259932  -1152449.14414081  -1152449.14414081
  Force two-norm initial, final = 0.17790134 4.3063092e-05
  Force max component initial, final = 0.12746355 7.8542696e-06
  Final line search alpha, max atom move = 1.0000000 7.8542696e-06
  Iterations, force evaluations = 193 386

MPI task timing breakdown:
Section |  min time  |  avg time  |  max time  |%varavg| %total
---------------------------------------------------------------
Pair    | 0.59153    | 1.6268     | 2.1017     |  34.1 | 72.18
Neigh   | 0          | 0          | 0          |   0.0 |  0.00
Comm    | 0.036875   | 0.36659    | 1.1087     |  50.5 | 16.26
Output  | 0          | 0          | 0          |   0.0 |  0.00
Modify  | 2.3125e-05 | 0.0031896  | 0.0067585  |   2.6 |  0.14
Other   |            | 0.2574     |            |       | 11.42

Nlocal:        2776.45 ave        3955 max           0 min
Histogram: 8 4 4 0 4 12 8 2 28 34
Nghost:        3879.13 ave        5424 max         232 min
Histogram: 8 0 8 0 16 0 8 8 16 40
Neighs:        79213.3 ave      115269 max           0 min
Histogram: 8 4 4 0 10 6 8 8 24 32

Total # of neighbors = 8238183
Ave neighs/atom = 28.530405
Neighbor list builds = 0
Dangerous builds = 0
The dot product: 5.81282115916241e-08
Setting atom values ...
  1 settings made for x
  1 settings made for y
  1 settings made for z
Setting up cg style minimization ...
  Unit style    : metal
  Current step  : 3371
Per MPI rank memory allocation (min/avg/max) = 5.441 | 5.816 | 6.074 Mbytes
Step PotEng KinEng TotEng v_fx v_fy v_fz 
    3371   -1152449.1            0   -1152449.1  0.015157891 -0.053036502 -0.022967962 
    3509   -1152449.1            0   -1152449.1 1.9350724e-06 1.0448613e-06 1.3670355e-05 
Loop time of 1.61926 on 104 procs for 138 steps with 288751 atoms

99.9% CPU use with 104 MPI tasks x 1 OpenMP threads

Minimization stats:
  Stopping criterion = energy tolerance
  Energy initial, next-to-last, final = 
     -1152449.11278773  -1152449.11457947  -1152449.11457947
  Force two-norm initial, final = 0.18586058 6.6160877e-05
  Force max component initial, final = 0.13184572 1.4270597e-05
  Final line search alpha, max atom move = 1.0000000 1.4270597e-05
  Iterations, force evaluations = 138 276

MPI task timing breakdown:
Section |  min time  |  avg time  |  max time  |%varavg| %total
---------------------------------------------------------------
Pair    | 0.41823    | 1.1598     | 1.5097     |  29.1 | 71.62
Neigh   | 0          | 0          | 0          |   0.0 |  0.00
Comm    | 0.024518   | 0.26394    | 0.78609    |  42.5 | 16.30
Output  | 0          | 0          | 0          |   0.0 |  0.00
Modify  | 1.6939e-05 | 0.0022837  | 0.0048937  |   2.2 |  0.14
Other   |            | 0.1933     |            |       | 11.94

Nlocal:        2776.45 ave        3955 max           0 min
Histogram: 8 4 4 0 4 12 8 2 28 34
Nghost:        3879.12 ave        5424 max         232 min
Histogram: 8 0 8 0 16 0 8 8 16 40
Neighs:        79213.3 ave      115269 max           0 min
Histogram: 8 4 4 0 10 6 8 8 24 32

Total # of neighbors = 8238181
Ave neighs/atom = 28.530398
Neighbor list builds = 0
Dangerous builds = 0
The dot product: -8.30951550771888e-08
Setting atom values ...
  1 settings made for x
  1 settings made for y
  1 settings made for z
Setting up cg style minimization ...
  Unit style    : metal
  Current step  : 3509
Per MPI rank memory allocation (min/avg/max) = 5.441 | 5.816 | 6.074 Mbytes
Step PotEng KinEng TotEng v_fx v_fy v_fz 
    3509   -1152449.1            0   -1152449.1  0.019122489 -0.060438115 -0.031143444 
    3638   -1152449.1            0   -1152449.1 4.1543079e-06 -8.8937167e-06 3.9706422e-06 
Loop time of 1.50552 on 104 procs for 129 steps with 288751 atoms

99.9% CPU use with 104 MPI tasks x 1 OpenMP threads

Minimization stats:
  Stopping criterion = energy tolerance
  Energy initial, next-to-last, final = 
     -1152449.08164455  -1152449.08364402  -1152449.08364402
  Force two-norm initial, final = 0.19337811 0.00014009299
  Force max component initial, final = 0.13680672 9.3718265e-06
  Final line search alpha, max atom move = 1.0000000 9.3718265e-06
  Iterations, force evaluations = 129 258

MPI task timing breakdown:
Section |  min time  |  avg time  |  max time  |%varavg| %total
---------------------------------------------------------------
Pair    | 0.38733    | 1.0883     | 1.4143     |  28.2 | 72.28
Neigh   | 0          | 0          | 0          |   0.0 |  0.00
Comm    | 0.023597   | 0.24342    | 0.73325    |  41.6 | 16.17
Output  | 0          | 0          | 0          |   0.0 |  0.00
Modify  | 1.6054e-05 | 0.0021385  | 0.004587   |   2.2 |  0.14
Other   |            | 0.1717     |            |       | 11.40

Nlocal:        2776.45 ave        3950 max           0 min
Histogram: 8 4 4 0 4 12 8 2 26 36
Nghost:        3879.12 ave        5424 max         232 min
Histogram: 8 0 8 0 16 0 8 8 16 40
Neighs:        79213.3 ave      115082 max           0 min
Histogram: 8 4 4 0 10 6 8 8 24 32

Total # of neighbors = 8238183
Ave neighs/atom = 28.530405
Neighbor list builds = 0
Dangerous builds = 0
The dot product: 1.27130609868393e-07
Setting atom values ...
  1 settings made for x
  1 settings made for y
  1 settings made for z
Setting up cg style minimization ...
  Unit style    : metal
  Current step  : 3638
Per MPI rank memory allocation (min/avg/max) = 5.441 | 5.816 | 6.074 Mbytes
Step PotEng KinEng TotEng v_fx v_fy v_fz 
    3638     -1152449            0     -1152449  0.022732709 -0.064581067 -0.039535459 
    3793   -1152449.1            0   -1152449.1 -2.1013135e-05 3.9614986e-05 -2.5737233e-05 
Loop time of 1.79444 on 104 procs for 155 steps with 288751 atoms

99.9% CPU use with 104 MPI tasks x 1 OpenMP threads

Minimization stats:
  Stopping criterion = energy tolerance
  Energy initial, next-to-last, final = 
      -1152449.0491788  -1152449.05133813  -1152449.05133813
  Force two-norm initial, final = 0.1998802 0.00024556418
  Force max component initial, final = 0.14190978 5.5193875e-05
  Final line search alpha, max atom move = 1.0000000 5.5193875e-05
  Iterations, force evaluations = 155 310

MPI task timing breakdown:
Section |  min time  |  avg time  |  max time  |%varavg| %total
---------------------------------------------------------------
Pair    | 0.46493    | 1.3001     | 1.6916     |  30.9 | 72.45
Neigh   | 0          | 0          | 0          |   0.0 |  0.00
Comm    | 0.026767   | 0.29175    | 0.87686    |  45.6 | 16.26
Output  | 0          | 0          | 0          |   0.0 |  0.00
Modify  | 1.8379e-05 | 0.0025641  | 0.0054565  |   2.4 |  0.14
Other   |            | 0.2001     |            |       | 11.15

Nlocal:        2776.45 ave        3944 max           0 min
Histogram: 8 4 4 0 4 12 8 2 26 36
Nghost:        3879.12 ave        5424 max         232 min
Histogram: 8 0 8 0 16 0 8 8 16 40
Neighs:        79213.3 ave      114917 max           0 min
Histogram: 8 4 4 0 10 6 8 8 22 34

Total # of neighbors = 8238179
Ave neighs/atom = 28.530391
Neighbor list builds = 0
Dangerous builds = 0
The dot product: -4.97504461848618e-07
Setting atom values ...
  1 settings made for x
  1 settings made for y
  1 settings made for z
Setting up cg style minimization ...
  Unit style    : metal
  Current step  : 3793
Per MPI rank memory allocation (min/avg/max) = 5.441 | 5.816 | 6.074 Mbytes
Step PotEng KinEng TotEng v_fx v_fy v_fz 
    3793     -1152449            0     -1152449  0.025098207 -0.065553018 -0.052770761 
    4000     -1152449            0     -1152449 3.7192534e-06 -6.3755081e-06 5.3700447e-06 
Loop time of 2.40592 on 104 procs for 207 steps with 288751 atoms

99.9% CPU use with 104 MPI tasks x 1 OpenMP threads

Minimization stats:
  Stopping criterion = energy tolerance
  Energy initial, next-to-last, final = 
     -1152449.01547519  -1152449.01780736  -1152449.01780736
  Force two-norm initial, final = 0.20642397 6.5965774e-05
  Force max component initial, final = 0.1470194 6.3755081e-06
  Final line search alpha, max atom move = 1.0000000 6.3755081e-06
  Iterations, force evaluations = 207 414

MPI task timing breakdown:
Section |  min time  |  avg time  |  max time  |%varavg| %total
---------------------------------------------------------------
Pair    | 0.62287    | 1.7514     | 2.2651     |  35.8 | 72.80
Neigh   | 0          | 0          | 0          |   0.0 |  0.00
Comm    | 0.036287   | 0.39585    | 1.2034     |  52.7 | 16.45
Output  | 0          | 0          | 0          |   0.0 |  0.00
Modify  | 2.5365e-05 | 0.0034255  | 0.0072401  |   2.7 |  0.14
Other   |            | 0.2553     |            |       | 10.61

Nlocal:        2776.45 ave        3934 max           0 min
Histogram: 8 4 4 0 4 12 8 0 28 36
Nghost:        3879.12 ave        5424 max         232 min
Histogram: 8 0 8 0 16 0 8 8 16 40
Neighs:        79213.2 ave      114613 max           0 min
Histogram: 8 4 4 0 8 8 8 8 20 36

Total # of neighbors = 8238177
Ave neighs/atom = 28.530384
Neighbor list builds = 0
Dangerous builds = 0
The dot product: 4.95425367412553e-08
Setting atom values ...
  1 settings made for x
  1 settings made for y
  1 settings made for z
Setting up cg style minimization ...
  Unit style    : metal
  Current step  : 4000
Per MPI rank memory allocation (min/avg/max) = 5.441 | 5.816 | 6.074 Mbytes
Step PotEng KinEng TotEng v_fx v_fy v_fz 
    4000     -1152449            0     -1152449  0.026300165 -0.062651765 -0.067555731 
    4197     -1152449            0     -1152449 5.8464298e-07 -1.8635144e-07 5.163054e-06 
Loop time of 2.27643 on 104 procs for 197 steps with 288751 atoms

99.9% CPU use with 104 MPI tasks x 1 OpenMP threads

Minimization stats:
  Stopping criterion = energy tolerance
  Energy initial, next-to-last, final = 
     -1152448.98077864  -1152448.98319371  -1152448.98319371
  Force two-norm initial, final = 0.21266548 0.00010399734
  Force max component initial, final = 0.15225605 1.1749400e-05
  Final line search alpha, max atom move = 1.0000000 1.1749400e-05
  Iterations, force evaluations = 197 394

MPI task timing breakdown:
Section |  min time  |  avg time  |  max time  |%varavg| %total
---------------------------------------------------------------
Pair    | 0.59928    | 1.6532     | 2.141      |  34.6 | 72.62
Neigh   | 0          | 0          | 0          |   0.0 |  0.00
Comm    | 0.035461   | 0.36933    | 1.1148     |  51.5 | 16.22
Output  | 0          | 0          | 0          |   0.0 |  0.00
Modify  | 2.3899e-05 | 0.003255   | 0.0069003  |   2.7 |  0.14
Other   |            | 0.2507     |            |       | 11.01

Nlocal:        2776.45 ave        3932 max           0 min
Histogram: 8 4 4 0 4 12 8 0 26 38
Nghost:        3879.13 ave        5424 max         232 min
Histogram: 8 0 8 0 16 0 8 8 16 40
Neighs:        79213.2 ave      114548 max           0 min
Histogram: 8 4 4 0 8 8 8 8 20 36

Total # of neighbors = 8238176
Ave neighs/atom = 28.530381
Neighbor list builds = 0
Dangerous builds = 0
The dot product: -7.07714594145295e-08
Setting atom values ...
  1 settings made for x
  1 settings made for y
  1 settings made for z
Setting up cg style minimization ...
  Unit style    : metal
  Current step  : 4197
Per MPI rank memory allocation (min/avg/max) = 5.441 | 5.816 | 6.074 Mbytes
Step PotEng KinEng TotEng v_fx v_fy v_fz 
    4197   -1152448.9            0   -1152448.9  0.025999333 -0.055312604  -0.07764119 
    4454     -1152449            0     -1152449 -2.7664306e-06 5.3147703e-06 3.1780228e-06 
Loop time of 2.97602 on 104 procs for 257 steps with 288751 atoms

99.9% CPU use with 104 MPI tasks x 1 OpenMP threads

Minimization stats:
  Stopping criterion = energy tolerance
  Energy initial, next-to-last, final = 
     -1152448.94525304  -1152448.98067991  -1152448.98067991
  Force two-norm initial, final = 0.21754687 0.00010477909
  Force max component initial, final = 0.1571423 3.3662241e-05
  Final line search alpha, max atom move = 1.0000000 3.3662241e-05
  Iterations, force evaluations = 257 513

MPI task timing breakdown:
Section |  min time  |  avg time  |  max time  |%varavg| %total
---------------------------------------------------------------
Pair    | 0.77278    | 2.1633     | 2.7779     |  39.7 | 72.69
Neigh   | 1.0615e-05 | 0.0029438  | 0.0042476  |   2.2 |  0.10
Comm    | 0.044453   | 0.48795    | 1.4873     |  59.0 | 16.40
Output  | 0          | 0          | 0          |   0.0 |  0.00
Modify  | 3.1782e-05 | 0.0042362  | 0.0089955  |   3.1 |  0.14
Other   |            | 0.3176     |            |       | 10.67

Nlocal:        2776.45 ave        3931 max           0 min
Histogram: 8 4 4 0 4 12 8 0 26 38
Nghost:        3879.18 ave        5424 max         232 min
Histogram: 8 0 8 0 16 0 8 8 16 40
Neighs:        79213.3 ave      114533 max           0 min
Histogram: 8 4 4 0 8 8 8 8 20 36

Total # of neighbors = 8238185
Ave neighs/atom = 28.530412
Neighbor list builds = 1
Dangerous builds = 0
The dot product: -2.70242133397444e-07
Setting atom values ...
  1 settings made for x
  1 settings made for y
  1 settings made for z
Setting up cg style minimization ...
  Unit style    : metal
  Current step  : 4454
Per MPI rank memory allocation (min/avg/max) = 5.441 | 5.816 | 6.074 Mbytes
Step PotEng KinEng TotEng v_fx v_fy v_fz 
    4454     -1152449            0     -1152449  0.023398309 -0.024662539  -0.13265025 
    4622     -1152449            0     -1152449 2.0151687e-05 -3.3266972e-05 -7.7500492e-06 
Loop time of 1.98128 on 104 procs for 168 steps with 288751 atoms

99.9% CPU use with 104 MPI tasks x 1 OpenMP threads

Minimization stats:
  Stopping criterion = energy tolerance
  Energy initial, next-to-last, final = 
     -1152448.95838362  -1152448.96189929  -1152448.96189929
  Force two-norm initial, final = 0.24794848 0.00018828527
  Force max component initial, final = 0.16644931 3.8040908e-05
  Final line search alpha, max atom move = 1.0000000 3.8040908e-05
  Iterations, force evaluations = 168 336

MPI task timing breakdown:
Section |  min time  |  avg time  |  max time  |%varavg| %total
---------------------------------------------------------------
Pair    | 0.5051     | 1.4163     | 1.8544     |  32.4 | 71.49
Neigh   | 0          | 0          | 0          |   0.0 |  0.00
Comm    | 0.029052   | 0.32319    | 0.96609    |  47.0 | 16.31
Output  | 0          | 0          | 0          |   0.0 |  0.00
Modify  | 2.1183e-05 | 0.0027912  | 0.005961   |   2.5 |  0.14
Other   |            | 0.239      |            |       | 12.06

Nlocal:        2776.45 ave        3952 max           0 min
Histogram: 8 4 4 0 4 12 8 2 28 34
Nghost:        3879.16 ave        5424 max         232 min
Histogram: 8 0 8 0 16 0 8 8 16 40
Neighs:        79213.3 ave      115161 max           0 min
Histogram: 8 4 4 0 10 6 8 8 24 32

Total # of neighbors = 8238183
Ave neighs/atom = 28.530405
Neighbor list builds = 0
Dangerous builds = 0
The dot product: 4.00742349811526e-07
Setting atom values ...
  1 settings made for x
  1 settings made for y
  1 settings made for z
Setting up cg style minimization ...
  Unit style    : metal
  Current step  : 4622
Per MPI rank memory allocation (min/avg/max) = 5.441 | 5.816 | 6.074 Mbytes
Step PotEng KinEng TotEng v_fx v_fy v_fz 
    4622   -1152448.9            0   -1152448.9  0.013690376 -0.0093388839 -0.065866462 
    4801   -1152448.9            0   -1152448.9 2.6632851e-06 -6.96332e-06 1.2512408e-05 
Loop time of 2.10049 on 104 procs for 179 steps with 288751 atoms

99.9% CPU use with 104 MPI tasks x 1 OpenMP threads

Minimization stats:
  Stopping criterion = energy tolerance
  Energy initial, next-to-last, final = 
     -1152448.93946445  -1152448.94177456  -1152448.94177456
  Force two-norm initial, final = 0.22208591 5.1531761e-05
  Force max component initial, final = 0.16897576 1.2512408e-05
  Final line search alpha, max atom move = 1.0000000 1.2512408e-05
  Iterations, force evaluations = 179 358

MPI task timing breakdown:
Section |  min time  |  avg time  |  max time  |%varavg| %total
---------------------------------------------------------------
Pair    | 0.5389     | 1.5094     | 1.9613     |  33.2 | 71.86
Neigh   | 0          | 0          | 0          |   0.0 |  0.00
Comm    | 0.034007   | 0.33952    | 1.0182     |  48.7 | 16.16
Output  | 0          | 0          | 0          |   0.0 |  0.00
Modify  | 2.1297e-05 | 0.00297    | 0.0063116  |   2.6 |  0.14
Other   |            | 0.2486     |            |       | 11.83

Nlocal:        2776.45 ave        3948 max           0 min
Histogram: 8 4 4 0 4 12 8 2 26 36
Nghost:        3879.16 ave        5424 max         232 min
Histogram: 8 0 8 0 16 0 8 8 16 40
Neighs:        79213.3 ave      115011 max           0 min
Histogram: 8 4 4 0 10 6 8 8 24 32

Total # of neighbors = 8238186
Ave neighs/atom = 28.530415
Neighbor list builds = 0
Dangerous builds = 0
The dot product: -1.48718102273054e-07
Setting atom values ...
  1 settings made for x
  1 settings made for y
  1 settings made for z
Setting up cg style minimization ...
  Unit style    : metal
  Current step  : 4801
Per MPI rank memory allocation (min/avg/max) = 5.441 | 5.816 | 6.074 Mbytes
Step PotEng KinEng TotEng v_fx v_fy v_fz 
    4801   -1152448.9            0   -1152448.9 0.0084712423 -0.0039712592 -0.040617272 
    4949   -1152448.9            0   -1152448.9 2.0102113e-05 -3.2030386e-05 -4.382925e-06 
Loop time of 1.73305 on 104 procs for 148 steps with 288751 atoms

99.9% CPU use with 104 MPI tasks x 1 OpenMP threads

Minimization stats:
  Stopping criterion = energy tolerance
  Energy initial, next-to-last, final = 
     -1152448.91933847  -1152448.92162051  -1152448.92162051
  Force two-norm initial, final = 0.22067183 0.00014722876
  Force max component initial, final = 0.17129685 3.2030386e-05
  Final line search alpha, max atom move = 1.0000000 3.2030386e-05
  Iterations, force evaluations = 148 296

MPI task timing breakdown:
Section |  min time  |  avg time  |  max time  |%varavg| %total
---------------------------------------------------------------
Pair    | 0.44594    | 1.2454     | 1.6221     |  30.3 | 71.86
Neigh   | 0          | 0          | 0          |   0.0 |  0.00
Comm    | 0.026984   | 0.28084    | 0.84459    |  44.4 | 16.20
Output  | 0          | 0          | 0          |   0.0 |  0.00
Modify  | 1.8639e-05 | 0.00245    | 0.0052094  |   2.3 |  0.14
Other   |            | 0.2044     |            |       | 11.79

Nlocal:        2776.45 ave        3948 max           0 min
Histogram: 8 4 4 0 4 12 8 2 26 36
Nghost:        3879.12 ave        5424 max         232 min
Histogram: 8 0 8 0 16 0 8 8 16 40
Neighs:        79213.3 ave      115010 max           0 min
Histogram: 8 4 4 0 10 6 8 8 24 32

Total # of neighbors = 8238183
Ave neighs/atom = 28.530405
Neighbor list builds = 0
Dangerous builds = 0
The dot product: 7.89925919459035e-08
Setting atom values ...
  1 settings made for x
  1 settings made for y
  1 settings made for z
Setting up cg style minimization ...
  Unit style    : metal
  Current step  : 4949
Per MPI rank memory allocation (min/avg/max) = 5.441 | 5.816 | 6.074 Mbytes
Step PotEng KinEng TotEng v_fx v_fy v_fz 
    4949   -1152448.9            0   -1152448.9 0.0063398661 -0.0022834813 -0.029874746 
    5000   -1152448.9            0   -1152448.9 1.7256325e-05 -3.0080022e-05 6.5590409e-06 
    5132   -1152448.9            0   -1152448.9 -9.702004e-07 1.3532984e-06 8.7539839e-07 
Loop time of 2.11844 on 104 procs for 183 steps with 288751 atoms

99.9% CPU use with 104 MPI tasks x 1 OpenMP threads

Minimization stats:
  Stopping criterion = energy tolerance
  Energy initial, next-to-last, final = 
     -1152448.89935635  -1152448.90132673  -1152448.90132673
  Force two-norm initial, final = 0.22062408 8.2409539e-05
  Force max component initial, final = 0.17365539 2.2051060e-05
  Final line search alpha, max atom move = 1.0000000 2.2051060e-05
  Iterations, force evaluations = 183 366

MPI task timing breakdown:
Section |  min time  |  avg time  |  max time  |%varavg| %total
---------------------------------------------------------------
Pair    | 0.55274    | 1.5403     | 1.9921     |  33.4 | 72.71
Neigh   | 0          | 0          | 0          |   0.0 |  0.00
Comm    | 0.033387   | 0.34392    | 1.05       |  49.8 | 16.23
Output  | 0.00020374 | 0.00020727 | 0.00032245 |   0.0 |  0.01
Modify  | 2.2745e-05 | 0.0030345  | 0.0065187  |   2.6 |  0.14
Other   |            | 0.231      |            |       | 10.90

Nlocal:        2776.45 ave        3948 max           0 min
Histogram: 8 4 4 0 4 12 8 2 26 36
Nghost:        3879.12 ave        5424 max         232 min
Histogram: 8 0 8 0 16 0 8 8 16 40
Neighs:        79213.3 ave      115010 max           0 min
Histogram: 8 4 4 0 10 6 8 8 24 32

Total # of neighbors = 8238182
Ave neighs/atom = 28.530402
Neighbor list builds = 0
Dangerous builds = 0
The dot product: -5.01018460345362e-09
Setting atom values ...
  1 settings made for x
  1 settings made for y
  1 settings made for z
Setting up cg style minimization ...
  Unit style    : metal
  Current step  : 5132
Per MPI rank memory allocation (min/avg/max) = 5.441 | 5.816 | 6.074 Mbytes
Step PotEng KinEng TotEng v_fx v_fy v_fz 
    5132   -1152448.9            0   -1152448.9 0.0046701893 -0.0019217354 -0.019999971 
    5256   -1152448.9            0   -1152448.9 -1.0870482e-05 1.0319618e-05 2.6120819e-05 
Loop time of 1.46813 on 104 procs for 124 steps with 288751 atoms

99.9% CPU use with 104 MPI tasks x 1 OpenMP threads

Minimization stats:
  Stopping criterion = energy tolerance
  Energy initial, next-to-last, final = 
     -1152448.87794299  -1152448.87975286  -1152448.87975286
  Force two-norm initial, final = 0.21936577 0.00027556719
  Force max component initial, final = 0.17594804 6.6653995e-05
  Final line search alpha, max atom move = 1.0000000 6.6653995e-05
  Iterations, force evaluations = 124 248

MPI task timing breakdown:
Section |  min time  |  avg time  |  max time  |%varavg| %total
---------------------------------------------------------------
Pair    | 0.3722     | 1.0422     | 1.3548     |  27.6 | 70.99
Neigh   | 0          | 0          | 0          |   0.0 |  0.00
Comm    | 0.022876   | 0.23688    | 0.71712    |  40.3 | 16.13
Output  | 0          | 0          | 0          |   0.0 |  0.00
Modify  | 1.5822e-05 | 0.0020538  | 0.004375   |   2.1 |  0.14
Other   |            | 0.187      |            |       | 12.74

Nlocal:        2776.45 ave        3947 max           0 min
Histogram: 8 4 4 0 4 12 8 2 26 36
Nghost:        3879.12 ave        5424 max         232 min
Histogram: 8 0 8 0 16 0 8 8 16 40
Neighs:        79213.3 ave      114988 max           0 min
Histogram: 8 4 4 0 10 6 8 8 24 32

Total # of neighbors = 8238180
Ave neighs/atom = 28.530395
Neighbor list builds = 0
Dangerous builds = 0
The dot product: -5.14961763124751e-08
Setting atom values ...
  1 settings made for x
  1 settings made for y
  1 settings made for z
Setting up cg style minimization ...
  Unit style    : metal
  Current step  : 5256
Per MPI rank memory allocation (min/avg/max) = 5.441 | 5.816 | 6.074 Mbytes
Step PotEng KinEng TotEng v_fx v_fy v_fz 
    5256   -1152448.9            0   -1152448.9  0.003301797 -0.0015500701 -0.013186784 
    5473   -1152448.9            0   -1152448.9 7.3272265e-07 -7.5982243e-07 -1.5052066e-06 
Loop time of 2.52624 on 104 procs for 217 steps with 288751 atoms

99.9% CPU use with 104 MPI tasks x 1 OpenMP threads

Minimization stats:
  Stopping criterion = energy tolerance
  Energy initial, next-to-last, final = 
     -1152448.85435373  -1152448.85627846  -1152448.85627846
  Force two-norm initial, final = 0.22338235 4.2675584e-05
  Force max component initial, final = 0.17829047 8.7939347e-06
  Final line search alpha, max atom move = 1.0000000 8.7939347e-06
  Iterations, force evaluations = 217 434

MPI task timing breakdown:
Section |  min time  |  avg time  |  max time  |%varavg| %total
---------------------------------------------------------------
Pair    | 0.64993    | 1.8312     | 2.3786     |  36.7 | 72.49
Neigh   | 0          | 0          | 0          |   0.0 |  0.00
Comm    | 0.037716   | 0.41169    | 1.2461     |  53.9 | 16.30
Output  | 0          | 0          | 0          |   0.0 |  0.00
Modify  | 2.7664e-05 | 0.0036004  | 0.0076407  |   2.8 |  0.14
Other   |            | 0.2798     |            |       | 11.08

Nlocal:        2776.45 ave        3945 max           0 min
Histogram: 8 4 4 0 4 12 8 2 26 36
Nghost:        3879.12 ave        5424 max         232 min
Histogram: 8 0 8 0 16 0 8 8 16 40
Neighs:        79213.3 ave      114920 max           0 min
Histogram: 8 4 4 0 10 6 8 8 22 34

Total # of neighbors = 8238179
Ave neighs/atom = 28.530391
Neighbor list builds = 0
Dangerous builds = 0
The dot product: 5.09926819890245e-10
Setting atom values ...
  1 settings made for x
  1 settings made for y
  1 settings made for z
Setting up cg style minimization ...
  Unit style    : metal
  Current step  : 5473
Per MPI rank memory allocation (min/avg/max) = 5.441 | 5.816 | 6.074 Mbytes
Step PotEng KinEng TotEng v_fx v_fy v_fz 
    5473   -1152448.8            0   -1152448.8 0.0025618043 -0.0013116573 -0.0097991881 
    5618   -1152448.8            0   -1152448.8 -1.7267556e-06 6.1628659e-06 -1.1270879e-05 
Loop time of 1.67788 on 104 procs for 145 steps with 288751 atoms

99.9% CPU use with 104 MPI tasks x 1 OpenMP threads

Minimization stats:
  Stopping criterion = energy tolerance
  Energy initial, next-to-last, final = 
      -1152448.8286431   -1152448.8306784   -1152448.8306784
  Force two-norm initial, final = 0.22798635 0.00019344883
  Force max component initial, final = 0.18046905 5.9117342e-05
  Final line search alpha, max atom move = 1.0000000 5.9117342e-05
  Iterations, force evaluations = 145 290

MPI task timing breakdown:
Section |  min time  |  avg time  |  max time  |%varavg| %total
---------------------------------------------------------------
Pair    | 0.43861    | 1.2181     | 1.5792     |  29.8 | 72.60
Neigh   | 0          | 0          | 0          |   0.0 |  0.00
Comm    | 0.026446   | 0.27311    | 0.82494    |  44.2 | 16.28
Output  | 0          | 0          | 0          |   0.0 |  0.00
Modify  | 1.8094e-05 | 0.0024058  | 0.005141   |   2.3 |  0.14
Other   |            | 0.1842     |            |       | 10.98

Nlocal:        2776.45 ave        3941 max           0 min
Histogram: 8 4 4 0 4 12 8 2 26 36
Nghost:        3879.12 ave        5424 max         232 min
Histogram: 8 0 8 0 16 0 8 8 16 40
Neighs:        79213.2 ave      114801 max           0 min
Histogram: 8 4 4 0 10 6 8 8 22 34

Total # of neighbors = 8238176
Ave neighs/atom = 28.530381
Neighbor list builds = 0
Dangerous builds = 0
The dot product: 5.54481681744263e-09
Setting atom values ...
  1 settings made for x
  1 settings made for y
  1 settings made for z
Setting up cg style minimization ...
  Unit style    : metal
  Current step  : 5618
Per MPI rank memory allocation (min/avg/max) = 5.441 | 5.816 | 6.074 Mbytes
Step PotEng KinEng TotEng v_fx v_fy v_fz 
    5618   -1152448.8            0   -1152448.8 0.0021408518 -0.0012705575 -0.0076134333 
    5801   -1152448.8            0   -1152448.8 -2.3489478e-06 4.1820917e-06 -1.0653963e-06 
Loop time of 2.12779 on 104 procs for 183 steps with 288751 atoms

99.9% CPU use with 104 MPI tasks x 1 OpenMP threads

Minimization stats:
  Stopping criterion = energy tolerance
  Energy initial, next-to-last, final = 
     -1152448.80069539  -1152448.80282998  -1152448.80282998
  Force two-norm initial, final = 0.23251033 0.0001778212
  Force max component initial, final = 0.18269334 6.3456856e-05
  Final line search alpha, max atom move = 1.0000000 6.3456856e-05
  Iterations, force evaluations = 183 366

MPI task timing breakdown:
Section |  min time  |  avg time  |  max time  |%varavg| %total
---------------------------------------------------------------
Pair    | 0.54894    | 1.5464     | 1.9995     |  33.7 | 72.67
Neigh   | 0          | 0          | 0          |   0.0 |  0.00
Comm    | 0.032589   | 0.34753    | 1.0476     |  49.9 | 16.33
Output  | 0          | 0          | 0          |   0.0 |  0.00
Modify  | 2.2731e-05 | 0.003031   | 0.0064641  |   2.6 |  0.14
Other   |            | 0.2309     |            |       | 10.85

Nlocal:        2776.45 ave        3932 max           0 min
Histogram: 8 4 4 0 4 12 8 0 26 38
Nghost:        3879.12 ave        5424 max         232 min
Histogram: 8 0 8 0 16 0 8 8 16 40
Neighs:        79213.2 ave      114527 max           0 min
Histogram: 8 4 4 0 8 8 8 8 20 36

Total # of neighbors = 8238176
Ave neighs/atom = 28.530381
Neighbor list builds = 0
Dangerous builds = 0
The dot product: 4.02483386549768e-09
Setting atom values ...
  1 settings made for x
  1 settings made for y
  1 settings made for z
Setting up cg style minimization ...
  Unit style    : metal
  Current step  : 5801
Per MPI rank memory allocation (min/avg/max) = 5.441 | 5.816 | 6.074 Mbytes
Step PotEng KinEng TotEng v_fx v_fy v_fz 
    5801   -1152448.8            0   -1152448.8 0.0020729275 -0.0015102552 -0.0064636174 
    5988   -1152448.8            0   -1152448.8 -1.1235915e-06 1.4387436e-06 1.4072504e-06 
Loop time of 2.17011 on 104 procs for 187 steps with 288751 atoms

99.9% CPU use with 104 MPI tasks x 1 OpenMP threads

Minimization stats:
  Stopping criterion = energy tolerance
  Energy initial, next-to-last, final = 
     -1152448.77043816  -1152448.77264756  -1152448.77264756
  Force two-norm initial, final = 0.23646395 0.00014109646
  Force max component initial, final = 0.18498475 4.6899644e-05
  Final line search alpha, max atom move = 1.0000000 4.6899644e-05
  Iterations, force evaluations = 187 374

MPI task timing breakdown:
Section |  min time  |  avg time  |  max time  |%varavg| %total
---------------------------------------------------------------
Pair    | 0.56338    | 1.5704     | 2.0403     |  33.9 | 72.37
Neigh   | 0          | 0          | 0          |   0.0 |  0.00
Comm    | 0.034426   | 0.35288    | 1.0621     |  50.1 | 16.26
Output  | 0          | 0          | 0          |   0.0 |  0.00
Modify  | 2.3054e-05 | 0.0031016  | 0.0066167  |   2.6 |  0.14
Other   |            | 0.2437     |            |       | 11.23

Nlocal:        2776.45 ave        3931 max           0 min
Histogram: 8 4 4 0 4 12 8 0 26 38
Nghost:        3879.11 ave        5424 max         232 min
Histogram: 8 0 8 0 16 0 8 8 16 40
Neighs:        79213.2 ave      114493 max           0 min
Histogram: 8 4 4 0 8 8 8 8 20 36

Total # of neighbors = 8238169
Ave neighs/atom = 28.530357
Neighbor list builds = 0
Dangerous builds = 0
The dot product: 2.35138177891956e-09
Setting atom values ...
  1 settings made for x
  1 settings made for y
  1 settings made for z
Setting up cg style minimization ...
  Unit style    : metal
  Current step  : 5988
Per MPI rank memory allocation (min/avg/max) = 5.441 | 5.816 | 6.074 Mbytes
Step PotEng KinEng TotEng v_fx v_fy v_fz 
    5988   -1152448.7            0   -1152448.7 0.0021993866 -0.0019222637 -0.0058271374 
    6000   -1152448.7            0   -1152448.7 1.5331755e-05 -0.0002398029 0.00072673665 
    6121   -1152448.7            0   -1152448.7 -6.8022688e-07 -1.6301814e-06 9.3424884e-06 
Loop time of 1.53848 on 104 procs for 133 steps with 288751 atoms

99.9% CPU use with 104 MPI tasks x 1 OpenMP threads

Minimization stats:
  Stopping criterion = energy tolerance
  Energy initial, next-to-last, final = 
     -1152448.73781458  -1152448.74007589  -1152448.74007589
  Force two-norm initial, final = 0.23967169 0.00023227673
  Force max component initial, final = 0.18732862 7.1423700e-05
  Final line search alpha, max atom move = 1.0000000 7.1423700e-05
  Iterations, force evaluations = 133 266

MPI task timing breakdown:
Section |  min time  |  avg time  |  max time  |%varavg| %total
---------------------------------------------------------------
Pair    | 0.40029    | 1.1213     | 1.445      |  28.6 | 72.88
Neigh   | 0          | 0          | 0          |   0.0 |  0.00
Comm    | 0.022665   | 0.25225    | 0.77224    |  42.4 | 16.40
Output  | 0.00015949 | 0.00016412 | 0.00023218 |   0.0 |  0.01
Modify  | 1.6939e-05 | 0.0022022  | 0.0047009  |   2.2 |  0.14
Other   |            | 0.1626     |            |       | 10.57

Nlocal:        2776.45 ave        3930 max           0 min
Histogram: 8 4 4 0 4 12 8 0 26 38
Nghost:        3879.11 ave        5424 max         232 min
Histogram: 8 0 8 0 16 0 8 8 16 40
Neighs:        79213.1 ave      114452 max           0 min
Histogram: 8 4 4 0 8 8 8 8 20 36

Total # of neighbors = 8238166
Ave neighs/atom = 28.530346
Neighbor list builds = 0
Dangerous builds = 0
The dot product: 5.52031394643871e-09
Setting atom values ...
  1 settings made for x
  1 settings made for y
  1 settings made for z
Setting up cg style minimization ...
  Unit style    : metal
  Current step  : 6121
Per MPI rank memory allocation (min/avg/max) = 5.441 | 5.816 | 6.074 Mbytes
Step PotEng KinEng TotEng v_fx v_fy v_fz 
    6121   -1152448.7            0   -1152448.7  0.002462304 -0.0024367874 -0.0056183023 
    6261   -1152448.7            0   -1152448.7 1.9596177e-05 -2.6095271e-05 -2.1900412e-05 
Loop time of 1.62349 on 104 procs for 140 steps with 288751 atoms

99.9% CPU use with 104 MPI tasks x 1 OpenMP threads

Minimization stats:
  Stopping criterion = energy tolerance
  Energy initial, next-to-last, final = 
     -1152448.70279496   -1152448.7050873   -1152448.7050873
  Force two-norm initial, final = 0.24213962 0.00027397918
  Force max component initial, final = 0.18966468 8.9779876e-05
  Final line search alpha, max atom move = 1.0000000 8.9779876e-05
  Iterations, force evaluations = 140 280

MPI task timing breakdown:
Section |  min time  |  avg time  |  max time  |%varavg| %total
---------------------------------------------------------------
Pair    | 0.42219    | 1.1769     | 1.5301     |  29.4 | 72.49
Neigh   | 0          | 0          | 0          |   0.0 |  0.00
Comm    | 0.024697   | 0.26375    | 0.79358    |  43.5 | 16.25
Output  | 0          | 0          | 0          |   0.0 |  0.00
Modify  | 1.7654e-05 | 0.0023202  | 0.0049472  |   2.3 |  0.14
Other   |            | 0.1806     |            |       | 11.12

Nlocal:        2776.45 ave        3930 max           0 min
Histogram: 8 4 4 0 4 12 8 0 26 38
Nghost:        3879.09 ave        5424 max         232 min
Histogram: 8 0 8 0 16 0 8 8 16 40
Neighs:        79213.1 ave      114452 max           0 min
Histogram: 8 4 4 0 8 8 8 8 20 36

Total # of neighbors = 8238166
Ave neighs/atom = 28.530346
Neighbor list builds = 0
Dangerous builds = 0
The dot product: -4.1137465357501e-08
Setting atom values ...
  1 settings made for x
  1 settings made for y
  1 settings made for z
Setting up cg style minimization ...
  Unit style    : metal
  Current step  : 6261
Per MPI rank memory allocation (min/avg/max) = 5.441 | 5.816 | 6.074 Mbytes
Step PotEng KinEng TotEng v_fx v_fy v_fz 
    6261   -1152448.7            0   -1152448.7 0.0028877937 -0.0030651694 -0.0059504761 
    6454   -1152448.7            0   -1152448.7 -9.4181141e-07 3.1606214e-06 -5.4519079e-06 
Loop time of 2.25352 on 104 procs for 193 steps with 288751 atoms

99.9% CPU use with 104 MPI tasks x 1 OpenMP threads

Minimization stats:
  Stopping criterion = energy tolerance
  Energy initial, next-to-last, final = 
     -1152448.66537085   -1152448.6676777   -1152448.6676777
  Force two-norm initial, final = 0.24422437 0.00012838584
  Force max component initial, final = 0.19222934 4.8352149e-05
  Final line search alpha, max atom move = 1.0000000 4.8352149e-05
  Iterations, force evaluations = 193 386

MPI task timing breakdown:
Section |  min time  |  avg time  |  max time  |%varavg| %total
---------------------------------------------------------------
Pair    | 0.57827    | 1.6269     | 2.1174     |  34.5 | 72.19
Neigh   | 0          | 0          | 0          |   0.0 |  0.00
Comm    | 0.033939   | 0.36453    | 1.0973     |  50.8 | 16.18
Output  | 0          | 0          | 0          |   0.0 |  0.00
Modify  | 2.3811e-05 | 0.0031973  | 0.0068499  |   2.7 |  0.14
Other   |            | 0.2589     |            |       | 11.49

Nlocal:        2776.45 ave        3930 max           0 min
Histogram: 8 4 4 0 4 12 8 0 26 38
Nghost:        3879.11 ave        5424 max         232 min
Histogram: 8 0 8 0 16 0 8 8 16 40
Neighs:        79213.1 ave      114452 max           0 min
Histogram: 8 4 4 0 8 8 8 8 20 36

Total # of neighbors = 8238163
Ave neighs/atom = 28.530336
Neighbor list builds = 0
Dangerous builds = 0
The dot product: -2.10000952552717e-09
Setting atom values ...
  1 settings made for x
  1 settings made for y
  1 settings made for z
Setting up cg style minimization ...
  Unit style    : metal
  Current step  : 6454
Per MPI rank memory allocation (min/avg/max) = 5.441 | 5.816 | 6.074 Mbytes
Step PotEng KinEng TotEng v_fx v_fy v_fz 
    6454   -1152448.6            0   -1152448.6 0.0034202531 -0.0037493869 -0.0067122421 
    6592   -1152448.6            0   -1152448.6 8.6578259e-07 -1.2220939e-06 -7.6031584e-07 
Loop time of 1.60268 on 104 procs for 138 steps with 288751 atoms

99.9% CPU use with 104 MPI tasks x 1 OpenMP threads

Minimization stats:
  Stopping criterion = energy tolerance
  Energy initial, next-to-last, final = 
[...]

Nlocal:        2776.45 ave        3947 max           0 min
Histogram: 8 4 4 0 4 12 8 0 28 36
Nghost:        3879.11 ave        5423 max         232 min
Histogram: 8 0 8 0 16 0 8 8 16 40
Neighs:        79213.5 ave      115005 max           0 min
Histogram: 8 4 4 0 10 6 8 8 24 32

Total # of neighbors = 8238206
Ave neighs/atom = 28.530485
Neighbor list builds = 0
Dangerous builds = 0
The dot product: -1.00758469468612e-08
Setting atom values ...
  1 settings made for x
  1 settings made for y
  1 settings made for z
Setting up cg style minimization ...
  Unit style    : metal
  Current step  : 10007
Per MPI rank memory allocation (min/avg/max) = 5.441 | 5.816 | 6.074 Mbytes
Step PotEng KinEng TotEng v_fx v_fy v_fz 
   10007   -1152448.5            0   -1152448.5 -0.042495059    0.0155605 -0.065892105 
   10198   -1152448.5            0   -1152448.5 4.0981201e-07 -1.0048962e-06 1.5542856e-06 
Loop time of 2.20563 on 104 procs for 191 steps with 288751 atoms

99.9% CPU use with 104 MPI tasks x 1 OpenMP threads

Minimization stats:
  Stopping criterion = energy tolerance
  Energy initial, next-to-last, final = 
     -1152448.54107574  -1152448.54232448  -1152448.54232448
  Force two-norm initial, final = 0.15385622 6.6841403e-05
  Force max component initial, final = 0.085442688 2.2260872e-06
  Final line search alpha, max atom move = 1.0000000 2.2260872e-06
  Iterations, force evaluations = 191 382

MPI task timing breakdown:
Section |  min time  |  avg time  |  max time  |%varavg| %total
---------------------------------------------------------------
Pair    | 0.57539    | 1.6032     | 2.0772     |  34.2 | 72.69
Neigh   | 0          | 0          | 0          |   0.0 |  0.00
Comm    | 0.03279    | 0.36287    | 1.0877     |  50.2 | 16.45
Output  | 0          | 0          | 0          |   0.0 |  0.00
Modify  | 2.2577e-05 | 0.0031552  | 0.00673    |   2.6 |  0.14
Other   |            | 0.2364     |            |       | 10.72

Nlocal:        2776.45 ave        3947 max           0 min
Histogram: 8 4 4 0 4 12 8 0 28 36
Nghost:        3879.07 ave        5423 max         232 min
Histogram: 8 0 8 0 16 0 8 8 16 40
Neighs:        79213.5 ave      115009 max           0 min
Histogram: 8 4 4 0 10 6 8 8 24 32

Total # of neighbors = 8238205
Ave neighs/atom = 28.530481
Neighbor list builds = 0
Dangerous builds = 0
The dot product: -1.95984093691241e-09
Setting atom values ...
  1 settings made for x
  1 settings made for y
  1 settings made for z
Setting up cg style minimization ...
  Unit style    : metal
  Current step  : 10198
Per MPI rank memory allocation (min/avg/max) = 5.441 | 5.816 | 6.074 Mbytes
Step PotEng KinEng TotEng v_fx v_fy v_fz 
   10198   -1152448.5            0   -1152448.5 -0.042735934  0.014446698 -0.065199695 
   10441   -1152448.5            0   -1152448.5 8.1686452e-06 -9.4353915e-06 1.9646402e-05 
Loop time of 2.83633 on 104 procs for 243 steps with 288751 atoms

99.9% CPU use with 104 MPI tasks x 1 OpenMP threads

Minimization stats:
  Stopping criterion = energy tolerance
  Energy initial, next-to-last, final = 
     -1152448.53422775  -1152448.53554404  -1152448.53554404
  Force two-norm initial, final = 0.15280188 0.00021057694
  Force max component initial, final = 0.084799429 1.9646402e-05
  Final line search alpha, max atom move = 1.0000000 1.9646402e-05
  Iterations, force evaluations = 243 486

MPI task timing breakdown:
Section |  min time  |  avg time  |  max time  |%varavg| %total
---------------------------------------------------------------
Pair    | 0.72765    | 2.0415     | 2.67       |  38.7 | 71.98
Neigh   | 0          | 0          | 0          |   0.0 |  0.00
Comm    | 0.04659    | 0.46574    | 1.391      |  56.4 | 16.42
Output  | 0          | 0          | 0          |   0.0 |  0.00
Modify  | 2.8125e-05 | 0.0040133  | 0.0085826  |   3.0 |  0.14
Other   |            | 0.3251     |            |       | 11.46

Nlocal:        2776.45 ave        3947 max           0 min
Histogram: 8 4 4 0 4 12 8 0 28 36
Nghost:        3879.03 ave        5423 max         232 min
Histogram: 8 0 8 0 16 0 8 8 16 40
Neighs:        79213.5 ave      115010 max           0 min
Histogram: 8 4 4 0 10 6 8 8 24 32

Total # of neighbors = 8238205
Ave neighs/atom = 28.530481
Neighbor list builds = 0
Dangerous builds = 0
The dot product: 5.57492227130537e-09
Setting atom values ...
  1 settings made for x
  1 settings made for y
  1 settings made for z
Setting up cg style minimization ...
  Unit style    : metal
  Current step  : 10441
Per MPI rank memory allocation (min/avg/max) = 5.441 | 5.816 | 6.074 Mbytes
Step PotEng KinEng TotEng v_fx v_fy v_fz 
   10441   -1152448.5            0   -1152448.5  -0.04226427  0.013261162 -0.063378812 
   10627   -1152448.5            0   -1152448.5 -8.7692449e-08 5.3600946e-08 -1.5954187e-07 
Loop time of 2.14982 on 104 procs for 186 steps with 288751 atoms

99.9% CPU use with 104 MPI tasks x 1 OpenMP threads

Minimization stats:
  Stopping criterion = energy tolerance
  Energy initial, next-to-last, final = 
     -1152448.52598545  -1152448.52723092  -1152448.52723092
  Force two-norm initial, final = 0.15056015 9.4154464e-05
  Force max component initial, final = 0.084027465 3.2360071e-06
  Final line search alpha, max atom move = 1.0000000 3.2360071e-06
  Iterations, force evaluations = 186 372

MPI task timing breakdown:
Section |  min time  |  avg time  |  max time  |%varavg| %total
---------------------------------------------------------------
Pair    | 0.55962    | 1.5602     | 2.0239     |  33.7 | 72.58
Neigh   | 0          | 0          | 0          |   0.0 |  0.00
Comm    | 0.031157   | 0.35452    | 1.0635     |  49.4 | 16.49
Output  | 0          | 0          | 0          |   0.0 |  0.00
Modify  | 2.1952e-05 | 0.0030697  | 0.0065549  |   2.6 |  0.14
Other   |            | 0.232      |            |       | 10.79

Nlocal:        2776.45 ave        3948 max           0 min
Histogram: 8 4 4 0 4 12 8 0 28 36
Nghost:        3879.12 ave        5423 max         232 min
Histogram: 8 0 8 0 16 0 8 8 16 40
Neighs:        79213.5 ave      115034 max           0 min
Histogram: 8 4 4 0 10 6 8 8 24 32

Total # of neighbors = 8238208
Ave neighs/atom = 28.530492
Neighbor list builds = 0
Dangerous builds = 0
The dot product: 1.62352638229298e-10
Setting atom values ...
  1 settings made for x
  1 settings made for y
  1 settings made for z
Setting up cg style minimization ...
  Unit style    : metal
  Current step  : 10627
Per MPI rank memory allocation (min/avg/max) = 5.441 | 5.816 | 6.074 Mbytes
Step PotEng KinEng TotEng v_fx v_fy v_fz 
   10627   -1152448.5            0   -1152448.5 -0.042276926  0.011961848  -0.06213806 
   10820   -1152448.5            0   -1152448.5 1.9218832e-06 -2.1631876e-06 4.5647125e-06 
Loop time of 2.25162 on 104 procs for 193 steps with 288751 atoms

99.9% CPU use with 104 MPI tasks x 1 OpenMP threads

Minimization stats:
  Stopping criterion = energy tolerance
  Energy initial, next-to-last, final = 
     -1152448.51610747  -1152448.51732765  -1152448.51732765
  Force two-norm initial, final = 0.14860695 6.3322567e-05
  Force max component initial, final = 0.083446929 4.5647125e-06
  Final line search alpha, max atom move = 1.0000000 4.5647125e-06
  Iterations, force evaluations = 193 386

MPI task timing breakdown:
Section |  min time  |  avg time  |  max time  |%varavg| %total
---------------------------------------------------------------
Pair    | 0.58207    | 1.6224     | 2.1165     |  34.4 | 72.05
Neigh   | 0          | 0          | 0          |   0.0 |  0.00
Comm    | 0.037625   | 0.36997    | 1.1171     |  50.2 | 16.43
Output  | 0          | 0          | 0          |   0.0 |  0.00
Modify  | 2.2779e-05 | 0.0031928  | 0.0068491  |   2.7 |  0.14
Other   |            | 0.2561     |            |       | 11.37

Nlocal:        2776.45 ave        3948 max           0 min
Histogram: 8 4 4 0 4 12 8 0 28 36
Nghost:        3879.12 ave        5423 max         232 min
Histogram: 8 0 8 0 16 0 8 8 16 40
Neighs:        79213.5 ave      115030 max           0 min
Histogram: 8 4 4 0 10 6 8 8 24 32

Total # of neighbors = 8238205
Ave neighs/atom = 28.530481
Neighbor list builds = 0
Dangerous builds = 0
The dot product: -3.7245290060368e-09
Setting atom values ...
  1 settings made for x
  1 settings made for y
  1 settings made for z
Setting up cg style minimization ...
  Unit style    : metal
  Current step  : 10820
Per MPI rank memory allocation (min/avg/max) = 5.441 | 5.816 | 6.074 Mbytes
Step PotEng KinEng TotEng v_fx v_fy v_fz 
   10820   -1152448.5            0   -1152448.5 -0.042080961  0.010425358 -0.060426939 
   10989   -1152448.5            0   -1152448.5 1.5413186e-06 -9.7497514e-07 2.8500721e-06 
Loop time of 1.9573 on 104 procs for 169 steps with 288751 atoms

99.9% CPU use with 104 MPI tasks x 1 OpenMP threads

Minimization stats:
  Stopping criterion = energy tolerance
  Energy initial, next-to-last, final = 
     -1152448.50462288  -1152448.50582402  -1152448.50582402
  Force two-norm initial, final = 0.14650063 0.00016226382
  Force max component initial, final = 0.082892021 4.3967173e-06
  Final line search alpha, max atom move = 1.0000000 4.3967173e-06
  Iterations, force evaluations = 169 338

MPI task timing breakdown:
Section |  min time  |  avg time  |  max time  |%varavg| %total
---------------------------------------------------------------
Pair    | 0.50834    | 1.4172     | 1.8442     |  32.1 | 72.41
Neigh   | 0          | 0          | 0          |   0.0 |  0.00
Comm    | 0.03227    | 0.32012    | 0.96248    |  47.1 | 16.36
Output  | 0          | 0          | 0          |   0.0 |  0.00
Modify  | 2.0256e-05 | 0.0027894  | 0.005971   |   2.5 |  0.14
Other   |            | 0.2172     |            |       | 11.10

Nlocal:        2776.45 ave        3948 max           0 min
Histogram: 8 4 4 0 4 12 8 0 28 36
Nghost:        3879.12 ave        5423 max         232 min
Histogram: 8 0 8 0 16 0 8 8 16 40
Neighs:        79213.5 ave      115016 max           0 min
Histogram: 8 4 4 0 10 6 8 8 24 32

Total # of neighbors = 8238205
Ave neighs/atom = 28.530481
Neighbor list builds = 0
Dangerous builds = 0
The dot product: -2.87985686223591e-09
Setting atom values ...
  1 settings made for x
  1 settings made for y
  1 settings made for z
Setting up cg style minimization ...
  Unit style    : metal
  Current step  : 10989
Per MPI rank memory allocation (min/avg/max) = 5.441 | 5.816 | 6.074 Mbytes
Step PotEng KinEng TotEng v_fx v_fy v_fz 
   10989   -1152448.5            0   -1152448.5 -0.041851955  0.008626699 -0.058387938 
   11000   -1152448.5            0   -1152448.5 -5.9645596e-05 -9.937673e-05 3.6493553e-05 
   11251   -1152448.5            0   -1152448.5 4.1000491e-06 -1.870377e-06 6.8190274e-06 
Loop time of 3.07054 on 104 procs for 262 steps with 288751 atoms

99.9% CPU use with 104 MPI tasks x 1 OpenMP threads

Minimization stats:
  Stopping criterion = energy tolerance
  Energy initial, next-to-last, final = 
     -1152448.49154237  -1152448.49277774  -1152448.49277774
  Force two-norm initial, final = 0.14460115 0.00022355849
  Force max component initial, final = 0.082367133 9.1908115e-06
  Final line search alpha, max atom move = 1.0000000 9.1908115e-06
  Iterations, force evaluations = 262 524

MPI task timing breakdown:
Section |  min time  |  avg time  |  max time  |%varavg| %total
---------------------------------------------------------------
Pair    | 0.79069    | 2.2062     | 2.8789     |  40.0 | 71.85
Neigh   | 0          | 0          | 0          |   0.0 |  0.00
Comm    | 0.046324   | 0.50675    | 1.5045     |  58.2 | 16.50
Output  | 0.0001572  | 0.00015891 | 0.00022068 |   0.0 |  0.01
Modify  | 3.0711e-05 | 0.0043223  | 0.0092843  |   3.1 |  0.14
Other   |            | 0.3531     |            |       | 11.50

Nlocal:        2776.45 ave        3948 max           0 min
Histogram: 8 4 4 0 4 12 8 0 28 36
Nghost:        3879.16 ave        5424 max         232 min
Histogram: 8 0 8 0 16 0 8 8 16 40
Neighs:        79213.5 ave      115015 max           0 min
Histogram: 8 4 4 0 10 6 8 8 24 32

Total # of neighbors = 8238201
Ave neighs/atom = 28.530467
Neighbor list builds = 0
Dangerous builds = 0
The dot product: 6.66795833665017e-09
Setting atom values ...
  1 settings made for x
  1 settings made for y
  1 settings made for z
Setting up cg style minimization ...
  Unit style    : metal
  Current step  : 11251
Per MPI rank memory allocation (min/avg/max) = 5.441 | 5.816 | 6.074 Mbytes
Step PotEng KinEng TotEng v_fx v_fy v_fz 
   11251   -1152448.5            0   -1152448.5  -0.04099812 0.0065635636 -0.055127375 
   11418   -1152448.5            0   -1152448.5 4.2393268e-06 -2.8674181e-06 8.0352839e-06 
Loop time of 1.94105 on 104 procs for 167 steps with 288751 atoms

99.9% CPU use with 104 MPI tasks x 1 OpenMP threads

Minimization stats:
  Stopping criterion = energy tolerance
  Energy initial, next-to-last, final = 
     -1152448.47703174  -1152448.47823895  -1152448.47823895
  Force two-norm initial, final = 0.14248896 0.0002065757
  Force max component initial, final = 0.081736299 8.0352839e-06
  Final line search alpha, max atom move = 1.0000000 8.0352839e-06
  Iterations, force evaluations = 167 334

MPI task timing breakdown:
Section |  min time  |  avg time  |  max time  |%varavg| %total
---------------------------------------------------------------
Pair    | 0.50413    | 1.4002     | 1.818      |  32.0 | 72.14
Neigh   | 0          | 0          | 0          |   0.0 |  0.00
Comm    | 0.031333   | 0.31758    | 0.94945    |  46.6 | 16.36
Output  | 0          | 0          | 0          |   0.0 |  0.00
Modify  | 2.0718e-05 | 0.0027603  | 0.0059031  |   2.5 |  0.14
Other   |            | 0.2205     |            |       | 11.36

Nlocal:        2776.45 ave        3949 max           0 min
Histogram: 8 4 4 0 4 12 8 0 28 36
Nghost:        3879.15 ave        5424 max         232 min
Histogram: 8 0 8 0 16 0 8 8 16 40
Neighs:        79213.5 ave      115027 max           0 min
Histogram: 8 4 4 0 10 6 8 8 24 32

Total # of neighbors = 8238208
Ave neighs/atom = 28.530492
Neighbor list builds = 0
Dangerous builds = 0
The dot product: 7.59486376118302e-09
Setting atom values ...
  1 settings made for x
  1 settings made for y
  1 settings made for z
Setting up cg style minimization ...
  Unit style    : metal
  Current step  : 11418
Per MPI rank memory allocation (min/avg/max) = 5.441 | 5.816 | 6.074 Mbytes
Step PotEng KinEng TotEng v_fx v_fy v_fz 
   11418   -1152448.5            0   -1152448.5 -0.041202934 0.0042158204 -0.052875898 
   11626   -1152448.5            0   -1152448.5 -8.9155516e-07 7.2531757e-07 -1.8170831e-06 
Loop time of 2.43412 on 104 procs for 208 steps with 288751 atoms

99.9% CPU use with 104 MPI tasks x 1 OpenMP threads

Minimization stats:
  Stopping criterion = energy tolerance
  Energy initial, next-to-last, final = 
     -1152448.46098602  -1152448.46224248  -1152448.46224248
  Force two-norm initial, final = 0.14177092 3.9642820e-05
  Force max component initial, final = 0.081235177 2.2433695e-06
  Final line search alpha, max atom move = 1.0000000 2.2433695e-06
  Iterations, force evaluations = 208 416

MPI task timing breakdown:
Section |  min time  |  avg time  |  max time  |%varavg| %total
---------------------------------------------------------------
Pair    | 0.62657    | 1.749      | 2.2889     |  35.8 | 71.85
Neigh   | 0          | 0          | 0          |   0.0 |  0.00
Comm    | 0.036021   | 0.39834    | 1.1918     |  52.0 | 16.36
Output  | 0          | 0          | 0          |   0.0 |  0.00
Modify  | 2.4685e-05 | 0.0034316  | 0.0073329  |   2.8 |  0.14
Other   |            | 0.2833     |            |       | 11.64

Nlocal:        2776.45 ave        3949 max           0 min
Histogram: 8 4 4 0 4 12 8 0 28 36
Nghost:        3879.12 ave        5423 max         232 min
Histogram: 8 0 8 0 16 0 8 8 16 40
Neighs:        79213.6 ave      115030 max           0 min
Histogram: 8 4 4 0 10 6 8 8 24 32

Total # of neighbors = 8238210
Ave neighs/atom = 28.530499
Neighbor list builds = 0
Dangerous builds = 0
The dot product: -5.20598788462171e-09
Setting atom values ...
  1 settings made for x
  1 settings made for y
  1 settings made for z
Setting up cg style minimization ...
  Unit style    : metal
  Current step  : 11626
Per MPI rank memory allocation (min/avg/max) = 5.441 | 5.816 | 6.074 Mbytes
Step PotEng KinEng TotEng v_fx v_fy v_fz 
   11626   -1152448.4            0   -1152448.4  -0.04100761 0.0019086167 -0.050089564 
   11848   -1152448.4            0   -1152448.4 2.2633963e-06 9.8729124e-07 1.6143846e-06 
Loop time of 2.57132 on 104 procs for 222 steps with 288751 atoms

99.9% CPU use with 104 MPI tasks x 1 OpenMP threads

Minimization stats:
  Stopping criterion = energy tolerance
  Energy initial, next-to-last, final = 
     -1152448.44356735  -1152448.44491825  -1152448.44491825
  Force two-norm initial, final = 0.14129405 0.00019842416
  Force max component initial, final = 0.08067887 6.1820142e-06
  Final line search alpha, max atom move = 1.0000000 6.1820142e-06
  Iterations, force evaluations = 222 444

MPI task timing breakdown:
Section |  min time  |  avg time  |  max time  |%varavg| %total
---------------------------------------------------------------
Pair    | 0.6675     | 1.862      | 2.4146     |  36.9 | 72.41
Neigh   | 0          | 0          | 0          |   0.0 |  0.00
Comm    | 0.037871   | 0.42174    | 1.2686     |  54.1 | 16.40
Output  | 0          | 0          | 0          |   0.0 |  0.00
Modify  | 2.5961e-05 | 0.0036655  | 0.0079002  |   2.9 |  0.14
Other   |            | 0.2839     |            |       | 11.04

Nlocal:        2776.45 ave        3949 max           0 min
Histogram: 8 4 4 0 4 12 8 0 28 36
Nghost:        3879.12 ave        5423 max         232 min
Histogram: 8 0 8 0 16 0 8 8 16 40
Neighs:        79213.5 ave      115032 max           0 min
Histogram: 8 4 4 0 10 6 8 8 24 32

Total # of neighbors = 8238209
Ave neighs/atom = 28.530495
Neighbor list builds = 0
Dangerous builds = 0
The dot product: -2.04633551674874e-11
Setting up cg style minimization ...
  Unit style    : metal
  Current step  : 11848
Per MPI rank memory allocation (min/avg/max) = 5.441 | 5.816 | 6.074 Mbytes
Step PotEng KinEng TotEng v_fx v_fy v_fz 
   11848   -1152448.4            0   -1152448.4   0.56814542   -0.5101347  -0.48456732 
   12000   -1152448.6            0   -1152448.6 7.697262e-05 -8.0214237e-05 0.00081913002 
   12109   -1152448.6            0   -1152448.6 5.2235496e-06 -7.4735482e-06 7.5340092e-05 
Loop time of 3.09996 on 104 procs for 261 steps with 288751 atoms

99.9% CPU use with 104 MPI tasks x 1 OpenMP threads

Minimization stats:
  Stopping criterion = energy tolerance
  Energy initial, next-to-last, final = 
     -1152448.44491825   -1152448.5552464   -1152448.5552464
  Force two-norm initial, final = 0.90434073 0.00028670325
  Force max component initial, final = 0.56814542 7.5340092e-05
  Final line search alpha, max atom move = 1.0000000 7.5340092e-05
  Iterations, force evaluations = 261 522

MPI task timing breakdown:
Section |  min time  |  avg time  |  max time  |%varavg| %total
---------------------------------------------------------------
Pair    | 0.79706    | 2.2017     | 2.8847     |  40.0 | 71.02
Neigh   | 3.2359e-05 | 0.0088555  | 0.012898   |   3.9 |  0.29
Comm    | 0.054452   | 0.50782    | 1.4971     |  57.4 | 16.38
Output  | 0.00025255 | 0.00025529 | 0.00040897 |   0.0 |  0.01
Modify  | 2.8613e-05 | 0.002806   | 0.0072272  |   3.3 |  0.09
Other   |            | 0.3785     |            |       | 12.21

Nlocal:        2776.45 ave        3948 max           0 min
Histogram: 8 4 4 0 4 12 8 0 28 36
Nghost:        3879.11 ave        5424 max         232 min
Histogram: 8 0 8 0 16 0 8 8 16 40
Neighs:        79213.5 ave      115013 max           0 min
Histogram: 8 4 4 0 10 6 8 8 24 32

Total # of neighbors = 8238206
Ave neighs/atom = 28.530485
Neighbor list builds = 3
Dangerous builds = 1
