LAMMPS (29 Oct 2020)
OMP_NUM_THREADS environment is not set. Defaulting to 1 thread. (../comm.cpp:94)
  using 1 OpenMP thread(s) per MPI task
OMP_NUM_THREADS environment is not set. Defaulting to 1 thread. (../comm.cpp:94)
  using 1 OpenMP thread(s) per MPI task
Reading data file ...
  orthogonal box = (-122.39241 -121.13707 -37.090501) to (122.39241 121.13707 37.090501)
  13 by 4 by 2 MPI processor grid
  reading atoms ...
  288751 atoms
  read_data CPU = 0.489 seconds
199981 atoms in group inner
88770 atoms in group outer
1 atoms in group carbon
Neighbor list info ...
  update every 1 steps, delay 0 steps, check yes
  max neighbors/atom: 2000, page size: 100000
  master list distance cutoff = 5.6
  ghost atom cutoff = 5.6
  binsize = 2.8, bins = 88 87 27
  1 neighbor lists, perpetual/occasional/extra = 1 0 0
  (1) pair eam/alloy, perpetual
      attributes: half, newton on
      pair build: half/bin/atomonly/newton
      stencil: half/bin/3d/newton
      bin: standard
Setting up cg style minimization ...
  Unit style    : metal
  Current step  : 0
Per MPI rank memory allocation (min/avg/max) = 5.441 | 5.816 | 6.074 Mbytes
Step v_fx v_fy v_fz PotEng KinEng TotEng 
       0   -1.4546072   -1.0888017   -2.4596011   -1152447.8            0   -1152447.8 
     175 3.3892743e-07 -1.3003268e-06 -2.3045867e-05   -1152449.5            0   -1152449.5 
Loop time of 2.08279 on 104 procs for 175 steps with 288751 atoms

99.8% CPU use with 104 MPI tasks x 1 OpenMP threads

Minimization stats:
  Stopping criterion = energy tolerance
  Energy initial, next-to-last, final = 
     -1152447.79174018  -1152449.45035272  -1152449.45035272
  Force two-norm initial, final = 10.089679 5.8529535e-05
  Force max component initial, final = 4.5102156 2.3045867e-05
  Final line search alpha, max atom move = 1.0000000 2.3045867e-05
  Iterations, force evaluations = 175 349

MPI task timing breakdown:
Section |  min time  |  avg time  |  max time  |%varavg| %total
---------------------------------------------------------------
Pair    | 0.55125    | 1.4819     | 1.9157     |  32.3 | 71.15
Neigh   | 3.4508e-05 | 0.009447   | 0.013541   |   4.1 |  0.45
Comm    | 0.038282   | 0.34697    | 1.0194     |  47.1 | 16.66
Output  | 0          | 0          | 0          |   0.0 |  0.00
Modify  | 2.1483e-05 | 0.0019095  | 0.004918   |   2.7 |  0.09
Other   |            | 0.2425     |            |       | 11.65

Nlocal:        2776.45 ave        3960 max           0 min
Histogram: 8 4 4 0 4 12 8 2 28 34
Nghost:        3879.01 ave        5425 max         232 min
Histogram: 8 0 8 0 16 0 8 8 16 40
Neighs:        79213.5 ave      115442 max           0 min
Histogram: 8 4 4 0 10 6 8 8 24 32

Total # of neighbors = 8238207
Ave neighs/atom = 28.530488
Neighbor list builds = 3
Dangerous builds = 1
Setting atom values ...
  1 settings made for x
  1 settings made for y
  1 settings made for z
Setting up cg style minimization ...
  Unit style    : metal
  Current step  : 175
Per MPI rank memory allocation (min/avg/max) = 5.441 | 5.816 | 6.074 Mbytes
Step PotEng KinEng TotEng v_fx v_fy v_fz 
     175   -1152449.4            0   -1152449.4 -0.0077723897 0.0064446367 0.0011970936 
     347   -1152449.5            0   -1152449.5 -4.1956483e-07 3.8265126e-06 1.1171013e-05 
Loop time of 2.0393 on 104 procs for 172 steps with 288751 atoms

99.9% CPU use with 104 MPI tasks x 1 OpenMP threads

Minimization stats:
  Stopping criterion = energy tolerance
  Energy initial, next-to-last, final = 
     -1152449.44945344  -1152449.45006289  -1152449.45006289
  Force two-norm initial, final = 0.11541368 8.4428200e-05
  Force max component initial, final = 0.051743921 1.1411675e-05
  Final line search alpha, max atom move = 1.0000000 1.1411675e-05
  Iterations, force evaluations = 172 344

MPI task timing breakdown:
Section |  min time  |  avg time  |  max time  |%varavg| %total
---------------------------------------------------------------
Pair    | 0.52401    | 1.46       | 1.8901     |  32.7 | 71.59
Neigh   | 0          | 0          | 0          |   0.0 |  0.00
Comm    | 0.036888   | 0.33543    | 0.99591    |  47.3 | 16.45
Output  | 0          | 0          | 0          |   0.0 |  0.00
Modify  | 2.312e-05  | 0.0028546  | 0.0061173  |   2.5 |  0.14
Other   |            | 0.241      |            |       | 11.82

Nlocal:        2776.45 ave        3958 max           0 min
Histogram: 8 4 4 0 4 12 8 2 28 34
Nghost:        3878.99 ave        5426 max         232 min
Histogram: 8 0 8 0 16 0 8 8 16 40
Neighs:        79213.4 ave      115354 max           0 min
Histogram: 8 4 4 0 10 6 8 8 24 32

Total # of neighbors = 8238198
Ave neighs/atom = 28.530457
Neighbor list builds = 0
Dangerous builds = 0
Setting atom values ...
  1 settings made for x
  1 settings made for y
  1 settings made for z
Setting up cg style minimization ...
  Unit style    : metal
  Current step  : 347
Per MPI rank memory allocation (min/avg/max) = 5.441 | 5.816 | 6.074 Mbytes
Step PotEng KinEng TotEng v_fx v_fy v_fz 
     347   -1152449.4            0   -1152449.4  -0.01869816  0.018062412 0.0026426921 
     494   -1152449.4            0   -1152449.4 -4.263742e-06 -6.9075297e-06 -4.2394613e-05 
Loop time of 1.73673 on 104 procs for 147 steps with 288751 atoms

99.9% CPU use with 104 MPI tasks x 1 OpenMP threads

Minimization stats:
  Stopping criterion = energy tolerance
  Energy initial, next-to-last, final = 
     -1152449.44670631  -1152449.44838198  -1152449.44838198
  Force two-norm initial, final = 0.19210178 0.00013948823
  Force max component initial, final = 0.080132904 4.2394613e-05
  Final line search alpha, max atom move = 1.0000000 4.2394613e-05
  Iterations, force evaluations = 147 294

MPI task timing breakdown:
Section |  min time  |  avg time  |  max time  |%varavg| %total
---------------------------------------------------------------
Pair    | 0.44794    | 1.2364     | 1.6088     |  30.0 | 71.19
Neigh   | 0          | 0          | 0          |   0.0 |  0.00
Comm    | 0.031244   | 0.2818     | 0.83944    |  44.0 | 16.23
Output  | 0          | 0          | 0          |   0.0 |  0.00
Modify  | 1.8118e-05 | 0.0024362  | 0.0052118  |   2.3 |  0.14
Other   |            | 0.2161     |            |       | 12.44

Nlocal:        2776.45 ave        3958 max           0 min
Histogram: 8 4 4 0 4 12 8 2 28 34
Nghost:        3878.99 ave        5426 max         232 min
Histogram: 8 0 8 0 16 0 8 8 16 40
Neighs:        79213.5 ave      115354 max           0 min
Histogram: 8 4 4 0 10 6 8 8 24 32

Total # of neighbors = 8238199
Ave neighs/atom = 28.530461
Neighbor list builds = 0
Dangerous builds = 0
The dot product: 6.24150225965277e-08
Setting atom values ...
  1 settings made for x
  1 settings made for y
  1 settings made for z
Setting up cg style minimization ...
  Unit style    : metal
  Current step  : 494
Per MPI rank memory allocation (min/avg/max) = 5.441 | 5.816 | 6.074 Mbytes
Step PotEng KinEng TotEng v_fx v_fy v_fz 
     494   -1152449.4            0   -1152449.4 -0.023607359  0.026737258 0.0025323554 
     605   -1152449.4            0   -1152449.4 -3.3969531e-06 -1.0239643e-05 -6.8073208e-05 
Loop time of 1.32723 on 104 procs for 111 steps with 288751 atoms

99.9% CPU use with 104 MPI tasks x 1 OpenMP threads

Minimization stats:
  Stopping criterion = energy tolerance
  Energy initial, next-to-last, final = 
     -1152449.44354945  -1152449.44522652  -1152449.44522652
  Force two-norm initial, final = 0.19229433 0.00021342263
  Force max component initial, final = 0.076238744 6.8073208e-05
  Final line search alpha, max atom move = 1.0000000 6.8073208e-05
  Iterations, force evaluations = 111 222

MPI task timing breakdown:
Section |  min time  |  avg time  |  max time  |%varavg| %total
---------------------------------------------------------------
Pair    | 0.33519    | 0.94357    | 1.2245     |  26.3 | 71.09
Neigh   | 0          | 0          | 0          |   0.0 |  0.00
Comm    | 0.020007   | 0.2194     | 0.64789    |  37.6 | 16.53
Output  | 0          | 0          | 0          |   0.0 |  0.00
Modify  | 1.3846e-05 | 0.0018457  | 0.0039165  |   2.0 |  0.14
Other   |            | 0.1624     |            |       | 12.24

Nlocal:        2776.45 ave        3957 max           0 min
Histogram: 8 4 4 0 4 12 8 2 28 34
Nghost:        3879.01 ave        5425 max         232 min
Histogram: 8 0 8 0 16 0 8 8 16 40
Neighs:        79213.5 ave      115314 max           0 min
Histogram: 8 4 4 0 10 6 8 8 24 32

Total # of neighbors = 8238201
Ave neighs/atom = 28.530467
Neighbor list builds = 0
Dangerous builds = 0
The dot product: 1.14063539090724e-07
Setting atom values ...
  1 settings made for x
  1 settings made for y
  1 settings made for z
Setting up cg style minimization ...
  Unit style    : metal
  Current step  : 605
Per MPI rank memory allocation (min/avg/max) = 5.441 | 5.816 | 6.074 Mbytes
Step PotEng KinEng TotEng v_fx v_fy v_fz 
     605   -1152449.4            0   -1152449.4 -0.025610547  0.033887566 0.0037599921 
     712   -1152449.4            0   -1152449.4 -2.8901265e-06 2.2487312e-07 -2.1704552e-05 
Loop time of 1.25211 on 104 procs for 107 steps with 288751 atoms

99.9% CPU use with 104 MPI tasks x 1 OpenMP threads

Minimization stats:
  Stopping criterion = energy tolerance
  Energy initial, next-to-last, final = 
     -1152449.43890886  -1152449.44057788  -1152449.44057788
  Force two-norm initial, final = 0.19187044 0.00022524204
  Force max component initial, final = 0.073334714 4.9766961e-05
  Final line search alpha, max atom move = 1.0000000 4.9766961e-05
  Iterations, force evaluations = 107 214

MPI task timing breakdown:
Section |  min time  |  avg time  |  max time  |%varavg| %total
---------------------------------------------------------------
Pair    | 0.32366    | 0.89889    | 1.1705     |  25.6 | 71.79
Neigh   | 0          | 0          | 0          |   0.0 |  0.00
Comm    | 0.02192    | 0.20481    | 0.60997    |  37.5 | 16.36
Output  | 0          | 0          | 0          |   0.0 |  0.00
Modify  | 1.3928e-05 | 0.0017718  | 0.0037925  |   2.0 |  0.14
Other   |            | 0.1466     |            |       | 11.71

Nlocal:        2776.45 ave        3957 max           0 min
Histogram: 8 4 4 0 4 12 8 2 28 34
Nghost:        3879.01 ave        5425 max         232 min
Histogram: 8 0 8 0 16 0 8 8 16 40
Neighs:        79213.5 ave      115314 max           0 min
Histogram: 8 4 4 0 10 6 8 8 24 32

Total # of neighbors = 8238201
Ave neighs/atom = 28.530467
Neighbor list builds = 0
Dangerous builds = 0
The dot product: 5.39502381299924e-08
Setting atom values ...
  1 settings made for x
  1 settings made for y
  1 settings made for z
Setting up cg style minimization ...
  Unit style    : metal
  Current step  : 712
Per MPI rank memory allocation (min/avg/max) = 5.441 | 5.816 | 6.074 Mbytes
Step PotEng KinEng TotEng v_fx v_fy v_fz 
     712   -1152449.4            0   -1152449.4 -0.025941069  0.039450522 0.0060384773 
     848   -1152449.4            0   -1152449.4 -4.9242029e-07 9.8622112e-07 1.9888935e-06 
Loop time of 1.58667 on 104 procs for 136 steps with 288751 atoms

99.9% CPU use with 104 MPI tasks x 1 OpenMP threads

Minimization stats:
  Stopping criterion = energy tolerance
  Energy initial, next-to-last, final = 
     -1152449.43275168  -1152449.43440547  -1152449.43440547
  Force two-norm initial, final = 0.19098146 5.9127369e-05
  Force max component initial, final = 0.07371327 5.1793556e-06
  Final line search alpha, max atom move = 1.0000000 5.1793556e-06
  Iterations, force evaluations = 136 272

MPI task timing breakdown:
Section |  min time  |  avg time  |  max time  |%varavg| %total
---------------------------------------------------------------
Pair    | 0.40942    | 1.1465     | 1.4898     |  29.0 | 72.26
Neigh   | 0          | 0          | 0          |   0.0 |  0.00
Comm    | 0.023124   | 0.25958    | 0.77542    |  42.7 | 16.36
Output  | 0          | 0          | 0          |   0.0 |  0.00
Modify  | 1.679e-05  | 0.0022554  | 0.0048206  |   2.2 |  0.14
Other   |            | 0.1783     |            |       | 11.24

Nlocal:        2776.45 ave        3957 max           0 min
Histogram: 8 4 4 0 4 12 8 2 28 34
Nghost:        3879.01 ave        5426 max         232 min
Histogram: 8 0 8 0 16 0 8 8 16 40
Neighs:        79213.5 ave      115314 max           0 min
Histogram: 8 4 4 0 10 6 8 8 24 32

Total # of neighbors = 8238200
Ave neighs/atom = 28.530464
Neighbor list builds = 0
Dangerous builds = 0
The dot product: 1.83056735367299e-09
Setting atom values ...
  1 settings made for x
  1 settings made for y
  1 settings made for z
Setting up cg style minimization ...
  Unit style    : metal
  Current step  : 848
Per MPI rank memory allocation (min/avg/max) = 5.441 | 5.816 | 6.074 Mbytes
Step PotEng KinEng TotEng v_fx v_fy v_fz 
     848   -1152449.4            0   -1152449.4 -0.025542869  0.043950327 0.0090350405 
     965   -1152449.4            0   -1152449.4 3.0747689e-06 -7.2226228e-06 -2.0824006e-05 
Loop time of 1.38654 on 104 procs for 117 steps with 288751 atoms

99.9% CPU use with 104 MPI tasks x 1 OpenMP threads

Minimization stats:
  Stopping criterion = energy tolerance
  Energy initial, next-to-last, final = 
     -1152449.42504303  -1152449.42667863  -1152449.42667863
  Force two-norm initial, final = 0.1898809 0.00017098757
  Force max component initial, final = 0.07343654 2.0824006e-05
  Final line search alpha, max atom move = 1.0000000 2.0824006e-05
  Iterations, force evaluations = 117 234

MPI task timing breakdown:
Section |  min time  |  avg time  |  max time  |%varavg| %total
---------------------------------------------------------------
Pair    | 0.35275    | 0.98448    | 1.2841     |  26.9 | 71.00
Neigh   | 0          | 0          | 0          |   0.0 |  0.00
Comm    | 0.023528   | 0.22593    | 0.67191    |  38.7 | 16.29
Output  | 0          | 0          | 0          |   0.0 |  0.00
Modify  | 1.4373e-05 | 0.0019446  | 0.0041406  |   2.1 |  0.14
Other   |            | 0.1742     |            |       | 12.56

Nlocal:        2776.45 ave        3955 max           0 min
Histogram: 8 4 4 0 4 12 8 0 30 34
Nghost:        3879.01 ave        5427 max         232 min
Histogram: 8 0 8 0 16 0 8 8 16 40
Neighs:        79213.5 ave      115229 max           0 min
Histogram: 8 4 4 0 10 6 8 8 24 32

Total # of neighbors = 8238202
Ave neighs/atom = 28.530471
Neighbor list builds = 0
Dangerous builds = 0
The dot product: -9.10737574570676e-09
Setting atom values ...
  1 settings made for x
  1 settings made for y
  1 settings made for z
Setting up cg style minimization ...
  Unit style    : metal
  Current step  : 965
Per MPI rank memory allocation (min/avg/max) = 5.441 | 5.816 | 6.074 Mbytes
Step PotEng KinEng TotEng v_fx v_fy v_fz 
     965   -1152449.4            0   -1152449.4 -0.024909721  0.047949946   0.01253605 
    1000   -1152449.4            0   -1152449.4 8.7876406e-06 -4.927762e-05 -0.00042704248 
    1107   -1152449.4            0   -1152449.4 -1.3506138e-06 4.2682713e-06 2.246779e-05 
Loop time of 1.66222 on 104 procs for 142 steps with 288751 atoms

99.9% CPU use with 104 MPI tasks x 1 OpenMP threads

Minimization stats:
  Stopping criterion = energy tolerance
  Energy initial, next-to-last, final = 
     -1152449.41575739  -1152449.41737438  -1152449.41737438
  Force two-norm initial, final = 0.1887177 6.3437656e-05
  Force max component initial, final = 0.072515347 2.2467790e-05
  Final line search alpha, max atom move = 1.0000000 2.2467790e-05
  Iterations, force evaluations = 142 284

MPI task timing breakdown:
Section |  min time  |  avg time  |  max time  |%varavg| %total
---------------------------------------------------------------
Pair    | 0.4296     | 1.1984     | 1.5511     |  29.5 | 72.10
Neigh   | 0          | 0          | 0          |   0.0 |  0.00
Comm    | 0.028232   | 0.27204    | 0.81832    |  43.5 | 16.37
Output  | 0.0002529  | 0.00026089 | 0.00035733 |   0.0 |  0.02
Modify  | 1.7567e-05 | 0.002356   | 0.0050607  |   2.3 |  0.14
Other   |            | 0.1891     |            |       | 11.38

Nlocal:        2776.45 ave        3953 max           0 min
Histogram: 8 4 4 0 4 12 8 0 30 34
Nghost:        3878.99 ave        5427 max         232 min
Histogram: 8 0 8 0 16 0 8 8 16 40
Neighs:        79213.5 ave      115180 max           0 min
Histogram: 8 4 4 0 10 6 8 8 24 32

Total # of neighbors = 8238201
Ave neighs/atom = 28.530467
Neighbor list builds = 0
Dangerous builds = 0
The dot product: -8.03976869295968e-10
Setting atom values ...
  1 settings made for x
  1 settings made for y
  1 settings made for z
Setting up cg style minimization ...
  Unit style    : metal
  Current step  : 1107
Per MPI rank memory allocation (min/avg/max) = 5.441 | 5.816 | 6.074 Mbytes
Step PotEng KinEng TotEng v_fx v_fy v_fz 
    1107   -1152449.4            0   -1152449.4 -0.024306049  0.052066077  0.016656253 
    1234   -1152449.4            0   -1152449.4 -4.057326e-06 6.6869937e-06 -2.894135e-05 
Loop time of 1.47285 on 104 procs for 127 steps with 288751 atoms

99.9% CPU use with 104 MPI tasks x 1 OpenMP threads

Minimization stats:
  Stopping criterion = energy tolerance
  Energy initial, next-to-last, final = 
     -1152449.40488057  -1152449.40648153  -1152449.40648153
  Force two-norm initial, final = 0.18775466 0.00012066994
  Force max component initial, final = 0.071125587 2.8941350e-05
  Final line search alpha, max atom move = 1.0000000 2.8941350e-05
  Iterations, force evaluations = 127 254

MPI task timing breakdown:
Section |  min time  |  avg time  |  max time  |%varavg| %total
---------------------------------------------------------------
Pair    | 0.38211    | 1.0663     | 1.3887     |  27.9 | 72.39
Neigh   | 0          | 0          | 0          |   0.0 |  0.00
Comm    | 0.022471   | 0.24057    | 0.71871    |  41.2 | 16.33
Output  | 0          | 0          | 0          |   0.0 |  0.00
Modify  | 1.6669e-05 | 0.0021051  | 0.0044794  |   2.2 |  0.14
Other   |            | 0.1639     |            |       | 11.13

Nlocal:        2776.45 ave        3952 max           0 min
Histogram: 8 4 4 0 4 12 8 0 30 34
Nghost:        3878.99 ave        5425 max         232 min
Histogram: 8 0 8 0 16 0 8 8 16 40
Neighs:        79213.5 ave      115150 max           0 min
Histogram: 8 4 4 0 10 6 8 8 24 32

Total # of neighbors = 8238200
Ave neighs/atom = 28.530464
Neighbor list builds = 0
Dangerous builds = 0
The dot product: 6.42992343035134e-08
Setting atom values ...
  1 settings made for x
  1 settings made for y
  1 settings made for z
Setting up cg style minimization ...
  Unit style    : metal
  Current step  : 1234
Per MPI rank memory allocation (min/avg/max) = 5.441 | 5.816 | 6.074 Mbytes
Step PotEng KinEng TotEng v_fx v_fy v_fz 
    1234   -1152449.4            0   -1152449.4 -0.023827503  0.056922186  0.021477052 
    1367   -1152449.4            0   -1152449.4 -3.656798e-06 7.3299371e-06 -2.0336688e-05 
Loop time of 1.56342 on 104 procs for 133 steps with 288751 atoms

99.9% CPU use with 104 MPI tasks x 1 OpenMP threads

Minimization stats:
  Stopping criterion = energy tolerance
  Energy initial, next-to-last, final = 
     -1152449.39241276  -1152449.39400693  -1152449.39400693
  Force two-norm initial, final = 0.18716185 8.8320714e-05
  Force max component initial, final = 0.069086636 2.0336688e-05
  Final line search alpha, max atom move = 1.0000000 2.0336688e-05
  Iterations, force evaluations = 133 266

MPI task timing breakdown:
Section |  min time  |  avg time  |  max time  |%varavg| %total
---------------------------------------------------------------
Pair    | 0.40057    | 1.1251     | 1.4537     |  28.6 | 71.96
Neigh   | 0          | 0          | 0          |   0.0 |  0.00
Comm    | 0.024951   | 0.25661    | 0.77878    |  42.1 | 16.41
Output  | 0          | 0          | 0          |   0.0 |  0.00
Modify  | 1.7188e-05 | 0.0021997  | 0.0046853  |   2.2 |  0.14
Other   |            | 0.1795     |            |       | 11.48

Nlocal:        2776.45 ave        3952 max           0 min
Histogram: 8 4 4 0 4 12 8 1 29 34
Nghost:        3878.99 ave        5424 max         232 min
Histogram: 8 0 8 0 16 0 8 8 16 40
Neighs:        79213.4 ave      115150 max           0 min
Histogram: 8 4 4 0 10 6 8 8 24 32

Total # of neighbors = 8238198
Ave neighs/atom = 28.530457
Neighbor list builds = 0
Dangerous builds = 0
The dot product: 5.214842383023e-08
Setting atom values ...
  1 settings made for x
  1 settings made for y
  1 settings made for z
Setting up cg style minimization ...
  Unit style    : metal
  Current step  : 1367
Per MPI rank memory allocation (min/avg/max) = 5.441 | 5.816 | 6.074 Mbytes
Step PotEng KinEng TotEng v_fx v_fy v_fz 
    1367   -1152449.4            0   -1152449.4 -0.023458096  0.063318744  0.027463699 
    1497   -1152449.4            0   -1152449.4 -1.4910456e-06 5.1846872e-06 1.8572289e-05 
Loop time of 1.52533 on 104 procs for 130 steps with 288751 atoms

99.9% CPU use with 104 MPI tasks x 1 OpenMP threads

Minimization stats:
  Stopping criterion = energy tolerance
  Energy initial, next-to-last, final = 
     -1152449.37837968  -1152449.37998899  -1152449.37998899
  Force two-norm initial, final = 0.18737873 0.00010110869
  Force max component initial, final = 0.066304957 2.0088968e-05
  Final line search alpha, max atom move = 1.0000000 2.0088968e-05
  Iterations, force evaluations = 130 260

MPI task timing breakdown:
Section |  min time  |  avg time  |  max time  |%varavg| %total
---------------------------------------------------------------
Pair    | 0.39161    | 1.096      | 1.4276     |  28.4 | 71.85
Neigh   | 0          | 0          | 0          |   0.0 |  0.00
Comm    | 0.022712   | 0.2496     | 0.7453     |  41.5 | 16.36
Output  | 0          | 0          | 0          |   0.0 |  0.00
Modify  | 1.6197e-05 | 0.0021576  | 0.0045991  |   2.2 |  0.14
Other   |            | 0.1776     |            |       | 11.64

Nlocal:        2776.45 ave        3952 max           0 min
Histogram: 8 4 4 0 4 12 8 2 28 34
Nghost:        3878.99 ave        5424 max         232 min
Histogram: 8 0 8 0 16 0 8 8 16 40
Neighs:        79213.4 ave      115161 max           0 min
Histogram: 8 4 4 0 10 6 8 8 24 32

Total # of neighbors = 8238198
Ave neighs/atom = 28.530457
Neighbor list builds = 0
Dangerous builds = 0
The dot product: 7.15913881044736e-08
Setting atom values ...
  1 settings made for x
  1 settings made for y
  1 settings made for z
Setting up cg style minimization ...
  Unit style    : metal
  Current step  : 1497
Per MPI rank memory allocation (min/avg/max) = 5.441 | 5.816 | 6.074 Mbytes
Step PotEng KinEng TotEng v_fx v_fy v_fz 
    1497   -1152449.4            0   -1152449.4 -0.023611194  0.074672169  0.038031286 
    1644   -1152449.4            0   -1152449.4 5.9833925e-08 -1.5697788e-06 -1.3714908e-05 
Loop time of 1.74927 on 104 procs for 147 steps with 288751 atoms

99.9% CPU use with 104 MPI tasks x 1 OpenMP threads

Minimization stats:
  Stopping criterion = energy tolerance
  Energy initial, next-to-last, final = 
      -1152449.3628674  -1152449.36461352  -1152449.36461352
  Force two-norm initial, final = 0.19054256 8.5532607e-05
  Force max component initial, final = 0.074672169 1.3714908e-05
  Final line search alpha, max atom move = 1.0000000 1.3714908e-05
  Iterations, force evaluations = 147 294

MPI task timing breakdown:
Section |  min time  |  avg time  |  max time  |%varavg| %total
---------------------------------------------------------------
Pair    | 0.44225    | 1.2433     | 1.6142     |  30.2 | 71.07
Neigh   | 0          | 0          | 0          |   0.0 |  0.00
Comm    | 0.030157   | 0.28569    | 0.84807    |  43.9 | 16.33
Output  | 0          | 0          | 0          |   0.0 |  0.00
Modify  | 1.8105e-05 | 0.0024442  | 0.0054044  |   2.3 |  0.14
Other   |            | 0.2178     |            |       | 12.45

Nlocal:        2776.45 ave        3951 max           0 min
Histogram: 8 4 4 0 4 12 8 2 28 34
Nghost:        3878.99 ave        5426 max         232 min
Histogram: 8 0 8 0 16 0 8 8 16 40
Neighs:        79213.4 ave      115143 max           0 min
Histogram: 8 4 4 0 10 6 8 8 24 32

Total # of neighbors = 8238197
Ave neighs/atom = 28.530454
Neighbor list builds = 0
Dangerous builds = 0
The dot product: -9.50772655647967e-08
Setting atom values ...
  1 settings made for x
  1 settings made for y
  1 settings made for z
Setting up cg style minimization ...
  Unit style    : metal
  Current step  : 1644
Per MPI rank memory allocation (min/avg/max) = 5.441 | 5.816 | 6.074 Mbytes
Step PotEng KinEng TotEng v_fx v_fy v_fz 
    1644   -1152449.3            0   -1152449.3 -0.023564742   0.10245016  0.062600901 
    1779   -1152449.4            0   -1152449.4 8.381222e-06 -2.8516067e-05 1.308774e-05 
Loop time of 1.57145 on 104 procs for 135 steps with 288751 atoms

99.9% CPU use with 104 MPI tasks x 1 OpenMP threads

Minimization stats:
  Stopping criterion = energy tolerance
  Energy initial, next-to-last, final = 
     -1152449.34635649  -1152449.35088165  -1152449.35088165
  Force two-norm initial, final = 0.2059135 0.00023556893
  Force max component initial, final = 0.10245016 5.2202773e-05
  Final line search alpha, max atom move = 1.0000000 5.2202773e-05
  Iterations, force evaluations = 135 270

MPI task timing breakdown:
Section |  min time  |  avg time  |  max time  |%varavg| %total
---------------------------------------------------------------
Pair    | 0.40483    | 1.132      | 1.4746     |  28.8 | 72.04
Neigh   | 0          | 0          | 0          |   0.0 |  0.00
Comm    | 0.025266   | 0.25693    | 0.77181    |  42.3 | 16.35
Output  | 0          | 0          | 0          |   0.0 |  0.00
Modify  | 1.6413e-05 | 0.0022322  | 0.004764   |   2.2 |  0.14
Other   |            | 0.1803     |            |       | 11.47

Nlocal:        2776.45 ave        3952 max           0 min
Histogram: 8 4 4 0 4 12 8 2 28 34
Nghost:        3879.01 ave        5427 max         232 min
Histogram: 8 0 8 0 16 0 8 8 16 40
Neighs:        79213.4 ave      115161 max           0 min
Histogram: 8 4 4 0 10 6 8 8 24 32

Total # of neighbors = 8238192
Ave neighs/atom = 28.530436
Neighbor list builds = 0
Dangerous builds = 0
The dot product: -1.08494935404227e-06
Setting atom values ...
  1 settings made for x
  1 settings made for y
  1 settings made for z
Setting up cg style minimization ...
  Unit style    : metal
  Current step  : 1779
Per MPI rank memory allocation (min/avg/max) = 5.441 | 5.816 | 6.074 Mbytes
Step PotEng KinEng TotEng v_fx v_fy v_fz 
    1779   -1152449.3            0   -1152449.3  0.023687092   0.21791378   0.13885531 
    2000   -1152449.3            0   -1152449.3 7.7923016e-06 1.6813392e-05 3.7692008e-05 
    2171   -1152449.3            0   -1152449.3 1.4170391e-08 3.7133024e-08 6.9497844e-08 
Loop time of 4.60692 on 104 procs for 392 steps with 288751 atoms

99.9% CPU use with 104 MPI tasks x 1 OpenMP threads

Minimization stats:
  Stopping criterion = energy tolerance
  Energy initial, next-to-last, final = 
     -1152449.33553918  -1152449.34591232  -1152449.34591232
  Force two-norm initial, final = 0.29926579 3.3252710e-07
  Force max component initial, final = 0.21791378 9.3842189e-08
  Final line search alpha, max atom move = 1.0000000 9.3842189e-08
  Iterations, force evaluations = 392 784

MPI task timing breakdown:
Section |  min time  |  avg time  |  max time  |%varavg| %total
---------------------------------------------------------------
Pair    | 1.1806     | 3.3023     | 4.3051     |  49.1 | 71.68
Neigh   | 1.0155e-05 | 0.0029347  | 0.0042636  |   2.2 |  0.06
Comm    | 0.069714   | 0.75466    | 2.2535     |  71.7 | 16.38
Output  | 0.00027761 | 0.0002873  | 0.00044883 |   0.0 |  0.01
Modify  | 5.1741e-05 | 0.006481   | 0.013896   |   3.8 |  0.14
Other   |            | 0.5403     |            |       | 11.73

Nlocal:        2776.45 ave        3957 max           0 min
Histogram: 8 4 4 0 4 12 8 2 28 34
Nghost:        3879.01 ave        5426 max         232 min
Histogram: 8 0 8 0 16 0 8 8 16 40
Neighs:        79213.4 ave      115358 max           0 min
Histogram: 8 4 4 0 10 6 8 8 24 32

Total # of neighbors = 8238196
Ave neighs/atom = 28.530450
Neighbor list builds = 1
Dangerous builds = 0
The dot product: 5.05806190452529e-09
Setting atom values ...
  1 settings made for x
  1 settings made for y
  1 settings made for z
Setting up cg style minimization ...
  Unit style    : metal
  Current step  : 2171
Per MPI rank memory allocation (min/avg/max) = 5.441 | 5.816 | 6.074 Mbytes
Step PotEng KinEng TotEng v_fx v_fy v_fz 
    2171   -1152449.3            0   -1152449.3  0.070503868    0.1756387  0.080180445 
    2445   -1152449.3            0   -1152449.3 -2.0247942e-06 -6.3842944e-06 -1.4578502e-06 
Loop time of 3.19971 on 104 procs for 274 steps with 288751 atoms

99.9% CPU use with 104 MPI tasks x 1 OpenMP threads

Minimization stats:
  Stopping criterion = energy tolerance
  Energy initial, next-to-last, final = 
     -1152449.33327265  -1152449.34468687  -1152449.34468687
  Force two-norm initial, final = 0.24764727 5.6697230e-05
  Force max component initial, final = 0.1756387 6.3842944e-06
  Final line search alpha, max atom move = 1.0000000 6.3842944e-06
  Iterations, force evaluations = 274 548

MPI task timing breakdown:
Section |  min time  |  avg time  |  max time  |%varavg| %total
---------------------------------------------------------------
Pair    | 0.82833    | 2.2979     | 2.9974     |  40.9 | 71.82
Neigh   | 1.0463e-05 | 0.0029336  | 0.0042631  |   2.2 |  0.09
Comm    | 0.053345   | 0.52196    | 1.5484     |  59.9 | 16.31
Output  | 0          | 0          | 0          |   0.0 |  0.00
Modify  | 3.3537e-05 | 0.0045363  | 0.0096552  |   3.2 |  0.14
Other   |            | 0.3724     |            |       | 11.64

Nlocal:        2776.45 ave        3959 max           0 min
Histogram: 8 4 4 0 4 12 8 2 28 34
Nghost:        3879.05 ave        5424 max         232 min
Histogram: 8 0 8 0 16 0 8 8 16 40
Neighs:        79213.4 ave      115403 max           0 min
Histogram: 8 4 4 0 10 6 8 8 24 32

Total # of neighbors = 8238189
Ave neighs/atom = 28.530426
Neighbor list builds = 1
Dangerous builds = 0
The dot product: -5.7965580005412e-07
Setting atom values ...
  1 settings made for x
  1 settings made for y
  1 settings made for z
Setting up cg style minimization ...
  Unit style    : metal
  Current step  : 2445
Per MPI rank memory allocation (min/avg/max) = 5.441 | 5.816 | 6.074 Mbytes
Step PotEng KinEng TotEng v_fx v_fy v_fz 
    2445   -1152449.3            0   -1152449.3 -0.050006597 -0.030048745 -0.047967345 
    2566   -1152449.3            0   -1152449.3 2.566121e-05 -6.9528622e-06 4.224279e-05 
Loop time of 1.41334 on 104 procs for 121 steps with 288751 atoms

99.9% CPU use with 104 MPI tasks x 1 OpenMP threads

Minimization stats:
  Stopping criterion = energy tolerance
  Energy initial, next-to-last, final = 
     -1152449.34688297  -1152449.34819188  -1152449.34819188
  Force two-norm initial, final = 0.14641987 0.00017884177
  Force max component initial, final = 0.050006597 4.2242790e-05
  Final line search alpha, max atom move = 1.0000000 4.2242790e-05
  Iterations, force evaluations = 121 242

MPI task timing breakdown:
Section |  min time  |  avg time  |  max time  |%varavg| %total
---------------------------------------------------------------
Pair    | 0.36486    | 1.0221     | 1.325      |  27.2 | 72.32
Neigh   | 0          | 0          | 0          |   0.0 |  0.00
Comm    | 0.021959   | 0.23278    | 0.7028     |  40.2 | 16.47
Output  | 0          | 0          | 0          |   0.0 |  0.00
Modify  | 1.4735e-05 | 0.0020069  | 0.004312   |   2.1 |  0.14
Other   |            | 0.1565     |            |       | 11.07

Nlocal:        2776.45 ave        3957 max           0 min
Histogram: 8 4 4 0 4 12 8 2 28 34
Nghost:        3879.03 ave        5425 max         232 min
Histogram: 8 0 8 0 16 0 8 8 16 40
Neighs:        79213.4 ave      115332 max           0 min
Histogram: 8 4 4 0 10 6 8 8 24 32

Total # of neighbors = 8238192
Ave neighs/atom = 28.530436
Neighbor list builds = 0
Dangerous builds = 0
The dot product: -3.42524968498311e-07
Setting atom values ...
  1 settings made for x
  1 settings made for y
  1 settings made for z
Setting up cg style minimization ...
  Unit style    : metal
  Current step  : 2566
Per MPI rank memory allocation (min/avg/max) = 5.441 | 5.816 | 6.074 Mbytes
Step PotEng KinEng TotEng v_fx v_fy v_fz 
    2566   -1152449.3            0   -1152449.3 -0.0066522732 0.0096236964 -0.017493167 
    2776   -1152449.4            0   -1152449.4 -2.9941258e-06 -4.302389e-06 -1.2377344e-06 
Loop time of 2.43328 on 104 procs for 210 steps with 288751 atoms

99.9% CPU use with 104 MPI tasks x 1 OpenMP threads

Minimization stats:
  Stopping criterion = energy tolerance
  Energy initial, next-to-last, final = 
     -1152449.34955291  -1152449.35045897  -1152449.35045897
  Force two-norm initial, final = 0.1249221 4.9331033e-05
  Force max component initial, final = 0.047674815 7.8334890e-06
  Final line search alpha, max atom move = 1.0000000 7.8334890e-06
  Iterations, force evaluations = 210 420

MPI task timing breakdown:
Section |  min time  |  avg time  |  max time  |%varavg| %total
---------------------------------------------------------------
Pair    | 0.62764    | 1.7573     | 2.2926     |  35.9 | 72.22
Neigh   | 0          | 0          | 0          |   0.0 |  0.00
Comm    | 0.037982   | 0.39696    | 1.1945     |  52.8 | 16.31
Output  | 0          | 0          | 0          |   0.0 |  0.00
Modify  | 2.6009e-05 | 0.0034685  | 0.0074006  |   2.8 |  0.14
Other   |            | 0.2755     |            |       | 11.32

Nlocal:        2776.45 ave        3957 max           0 min
Histogram: 8 4 4 0 4 12 8 2 28 34
Nghost:        3879.07 ave        5425 max         232 min
Histogram: 8 0 8 0 16 0 8 8 16 40
Neighs:        79213.4 ave      115343 max           0 min
Histogram: 8 4 4 0 10 6 8 8 24 32

Total # of neighbors = 8238193
Ave neighs/atom = 28.530440
Neighbor list builds = 0
Dangerous builds = 0
The dot product: -4.80979322538794e-09
Setting atom values ...
  1 settings made for x
  1 settings made for y
  1 settings made for z
Setting up cg style minimization ...
  Unit style    : metal
  Current step  : 2776
Per MPI rank memory allocation (min/avg/max) = 5.441 | 5.816 | 6.074 Mbytes
Step PotEng KinEng TotEng v_fx v_fy v_fz 
    2776   -1152449.4            0   -1152449.4 -0.010239372 0.0063088102 -0.020392885 
    2955   -1152449.4            0   -1152449.4 -3.2434076e-05 -9.3023615e-06 -4.1954371e-05 
Loop time of 2.08349 on 104 procs for 179 steps with 288751 atoms

99.9% CPU use with 104 MPI tasks x 1 OpenMP threads

Minimization stats:
  Stopping criterion = energy tolerance
  Energy initial, next-to-last, final = 
     -1152449.35060947  -1152449.35151155  -1152449.35151155
  Force two-norm initial, final = 0.12558864 0.00014645868
  Force max component initial, final = 0.047077398 4.1954371e-05
  Final line search alpha, max atom move = 1.0000000 4.1954371e-05
  Iterations, force evaluations = 179 358

MPI task timing breakdown:
Section |  min time  |  avg time  |  max time  |%varavg| %total
---------------------------------------------------------------
Pair    | 0.53849    | 1.5131     | 1.9591     |  33.2 | 72.62
Neigh   | 0          | 0          | 0          |   0.0 |  0.00
Comm    | 0.03211    | 0.34289    | 1.0412     |  49.0 | 16.46
Output  | 0          | 0          | 0          |   0.0 |  0.00
Modify  | 2.3555e-05 | 0.0029546  | 0.006289   |   2.6 |  0.14
Other   |            | 0.2245     |            |       | 10.78

Nlocal:        2776.45 ave        3957 max           0 min
Histogram: 8 4 4 0 4 12 8 2 28 34
Nghost:        3879.03 ave        5424 max         232 min
Histogram: 8 0 8 0 16 0 8 8 16 40
Neighs:        79213.4 ave      115332 max           0 min
Histogram: 8 4 4 0 10 6 8 8 24 32

Total # of neighbors = 8238189
Ave neighs/atom = 28.530426
Neighbor list builds = 0
Dangerous builds = 0
The dot product: 2.24015106752282e-08
Setting atom values ...
  1 settings made for x
  1 settings made for y
  1 settings made for z
Setting up cg style minimization ...
  Unit style    : metal
  Current step  : 2955
Per MPI rank memory allocation (min/avg/max) = 5.441 | 5.816 | 6.074 Mbytes
Step PotEng KinEng TotEng v_fx v_fy v_fz 
    2955   -1152449.4            0   -1152449.4 -0.0095115473 0.0065545896  -0.01954493 
    3000   -1152449.4            0   -1152449.4 -0.00037585282 -0.00015293062 -0.00045252616 
    3163   -1152449.4            0   -1152449.4 -3.1898698e-06 3.1090775e-06 -7.2618881e-06 
Loop time of 2.43084 on 104 procs for 208 steps with 288751 atoms

99.9% CPU use with 104 MPI tasks x 1 OpenMP threads

Minimization stats:
  Stopping criterion = energy tolerance
  Energy initial, next-to-last, final = 
     -1152449.35035378  -1152449.35124931  -1152449.35124931
  Force two-norm initial, final = 0.12518132 6.0621067e-05
  Force max component initial, final = 0.046484377 9.1668271e-06
  Final line search alpha, max atom move = 1.0000000 9.1668271e-06
  Iterations, force evaluations = 208 416

MPI task timing breakdown:
Section |  min time  |  avg time  |  max time  |%varavg| %total
---------------------------------------------------------------
Pair    | 0.62509    | 1.7464     | 2.2806     |  35.8 | 71.85
Neigh   | 0          | 0          | 0          |   0.0 |  0.00
Comm    | 0.036853   | 0.39767    | 1.1924     |  52.4 | 16.36
Output  | 0.0001519  | 0.00016291 | 0.00027368 |   0.0 |  0.01
Modify  | 2.6122e-05 | 0.0034332  | 0.0073745  |   2.8 |  0.14
Other   |            | 0.2831     |            |       | 11.65

Nlocal:        2776.45 ave        3958 max           0 min
Histogram: 8 4 4 0 4 12 8 2 28 34
Nghost:        3879.03 ave        5424 max         232 min
Histogram: 8 0 8 0 16 0 8 8 16 40
Neighs:        79213.4 ave      115369 max           0 min
Histogram: 8 4 4 0 10 6 8 8 24 32

Total # of neighbors = 8238191
Ave neighs/atom = 28.530433
Neighbor list builds = 0
Dangerous builds = 0
The dot product: 4.60481298113035e-09
Setting atom values ...
  1 settings made for x
  1 settings made for y
  1 settings made for z
Setting up cg style minimization ...
  Unit style    : metal
  Current step  : 3163
Per MPI rank memory allocation (min/avg/max) = 5.441 | 5.816 | 6.074 Mbytes
Step PotEng KinEng TotEng v_fx v_fy v_fz 
    3163   -1152449.3            0   -1152449.3  -0.00856947  0.006457674 -0.018094269 
    3417   -1152449.3            0   -1152449.3 -1.360638e-07 3.638492e-08 -2.3571687e-07 
Loop time of 2.97291 on 104 procs for 254 steps with 288751 atoms

99.9% CPU use with 104 MPI tasks x 1 OpenMP threads

Minimization stats:
  Stopping criterion = energy tolerance
  Energy initial, next-to-last, final = 
     -1152449.34875505  -1152449.34963841  -1152449.34963841
  Force two-norm initial, final = 0.1242592 6.8449447e-06
  Force max component initial, final = 0.045829283 9.5319399e-07
  Final line search alpha, max atom move = 1.0000000 9.5319399e-07
  Iterations, force evaluations = 254 508

MPI task timing breakdown:
Section |  min time  |  avg time  |  max time  |%varavg| %total
---------------------------------------------------------------
Pair    | 0.76515    | 2.1437     | 2.7826     |  39.5 | 72.11
Neigh   | 0          | 0          | 0          |   0.0 |  0.00
Comm    | 0.047956   | 0.49011    | 1.4814     |  58.0 | 16.49
Output  | 0          | 0          | 0          |   0.0 |  0.00
Modify  | 3.1266e-05 | 0.0041871  | 0.0089141  |   3.0 |  0.14
Other   |            | 0.3349     |            |       | 11.27

Nlocal:        2776.45 ave        3958 max           0 min
Histogram: 8 4 4 0 4 12 8 2 28 34
Nghost:        3879.01 ave        5424 max         232 min
Histogram: 8 0 8 0 16 0 8 8 16 40
Neighs:        79213.4 ave      115370 max           0 min
Histogram: 8 4 4 0 10 6 8 8 24 32

Total # of neighbors = 8238191
Ave neighs/atom = 28.530433
Neighbor list builds = 0
Dangerous builds = 0
The dot product: 1.21574078445206e-10
Setting atom values ...
  1 settings made for x
  1 settings made for y
  1 settings made for z
Setting up cg style minimization ...
  Unit style    : metal
  Current step  : 3417
Per MPI rank memory allocation (min/avg/max) = 5.441 | 5.816 | 6.074 Mbytes
Step PotEng KinEng TotEng v_fx v_fy v_fz 
    3417   -1152449.3            0   -1152449.3 -0.0076081989 0.0060936595 -0.016391832 
    3617   -1152449.3            0   -1152449.3 8.9984987e-06 1.4884312e-05 2.0888381e-06 
Loop time of 2.33249 on 104 procs for 200 steps with 288751 atoms

99.9% CPU use with 104 MPI tasks x 1 OpenMP threads

Minimization stats:
  Stopping criterion = energy tolerance
  Energy initial, next-to-last, final = 
     -1152449.34580152  -1152449.34667089  -1152449.34667089
  Force two-norm initial, final = 0.12325631 7.8037957e-05
  Force max component initial, final = 0.045142503 1.7422766e-05
  Final line search alpha, max atom move = 1.0000000 1.7422766e-05
  Iterations, force evaluations = 200 400

MPI task timing breakdown:
Section |  min time  |  avg time  |  max time  |%varavg| %total
---------------------------------------------------------------
Pair    | 0.60016    | 1.6836     | 2.1983     |  35.3 | 72.18
Neigh   | 0          | 0          | 0          |   0.0 |  0.00
Comm    | 0.035011   | 0.38243    | 1.1399     |  51.6 | 16.40
Output  | 0          | 0          | 0          |   0.0 |  0.00
Modify  | 2.4761e-05 | 0.0033061  | 0.0070505  |   2.7 |  0.14
Other   |            | 0.2631     |            |       | 11.28

Nlocal:        2776.45 ave        3958 max           0 min
Histogram: 8 4 4 0 4 12 8 2 28 34
Nghost:        3879.01 ave        5424 max         232 min
Histogram: 8 0 8 0 16 0 8 8 16 40
Neighs:        79213.4 ave      115370 max           0 min
Histogram: 8 4 4 0 10 6 8 8 24 32

Total # of neighbors = 8238190
Ave neighs/atom = 28.530429
Neighbor list builds = 0
Dangerous builds = 0
The dot product: 3.81140370670663e-09
Setting atom values ...
  1 settings made for x
  1 settings made for y
  1 settings made for z
Setting up cg style minimization ...
  Unit style    : metal
  Current step  : 3617
Per MPI rank memory allocation (min/avg/max) = 5.441 | 5.816 | 6.074 Mbytes
Step PotEng KinEng TotEng v_fx v_fy v_fz 
    3617   -1152449.3            0   -1152449.3 -0.0067745288 0.0054649821 -0.014662029 
    3798   -1152449.3            0   -1152449.3 -2.3344162e-05 -1.2710853e-05 -2.5731855e-05 
Loop time of 2.10621 on 104 procs for 181 steps with 288751 atoms

99.9% CPU use with 104 MPI tasks x 1 OpenMP threads

Minimization stats:
  Stopping criterion = energy tolerance
  Energy initial, next-to-last, final = 
     -1152449.34148478  -1152449.34234127  -1152449.34234127
  Force two-norm initial, final = 0.12243522 0.00013763884
  Force max component initial, final = 0.044416498 3.7353981e-05
  Final line search alpha, max atom move = 1.0000000 3.7353981e-05
  Iterations, force evaluations = 181 362

MPI task timing breakdown:
Section |  min time  |  avg time  |  max time  |%varavg| %total
---------------------------------------------------------------
Pair    | 0.54258    | 1.5206     | 1.9846     |  33.3 | 72.20
Neigh   | 0          | 0          | 0          |   0.0 |  0.00
Comm    | 0.031598   | 0.34567    | 1.0394     |  48.9 | 16.41
Output  | 0          | 0          | 0          |   0.0 |  0.00
Modify  | 2.2173e-05 | 0.0029907  | 0.0063904  |   2.6 |  0.14
Other   |            | 0.2369     |            |       | 11.25

Nlocal:        2776.45 ave        3958 max           0 min
Histogram: 8 4 4 0 4 12 8 2 28 34
Nghost:        3879.01 ave        5424 max         232 min
Histogram: 8 0 8 0 16 0 8 8 16 40
Neighs:        79213.4 ave      115370 max           0 min
Histogram: 8 4 4 0 10 6 8 8 24 32

Total # of neighbors = 8238191
Ave neighs/atom = 28.530433
Neighbor list builds = 0
Dangerous builds = 0
The dot product: 5.89402352577055e-09
Setting atom values ...
  1 settings made for x
  1 settings made for y
  1 settings made for z
Setting up cg style minimization ...
  Unit style    : metal
  Current step  : 3798
Per MPI rank memory allocation (min/avg/max) = 5.441 | 5.816 | 6.074 Mbytes
Step PotEng KinEng TotEng v_fx v_fy v_fz 
    3798   -1152449.3            0   -1152449.3 -0.0061978981   0.00449238 -0.013041936 
    4000   -1152449.3            0   -1152449.3 3.1281079e-06 -2.7944438e-06 6.9979549e-06 
    4037   -1152449.3            0   -1152449.3 -2.567005e-06 -1.3564684e-06 -2.864969e-06 
Loop time of 2.80695 on 104 procs for 239 steps with 288751 atoms

99.9% CPU use with 104 MPI tasks x 1 OpenMP threads

Minimization stats:
  Stopping criterion = energy tolerance
  Energy initial, next-to-last, final = 
     -1152449.33579022   -1152449.3366392   -1152449.3366392
  Force two-norm initial, final = 0.1219645 1.3651180e-05
  Force max component initial, final = 0.044185782 2.8649690e-06
  Final line search alpha, max atom move = 1.0000000 2.8649690e-06
  Iterations, force evaluations = 239 478

MPI task timing breakdown:
Section |  min time  |  avg time  |  max time  |%varavg| %total
---------------------------------------------------------------
Pair    | 0.71476    | 2.0042     | 2.6155     |  38.4 | 71.40
Neigh   | 0          | 0          | 0          |   0.0 |  0.00
Comm    | 0.043653   | 0.45826    | 1.3621     |  55.6 | 16.33
Output  | 0.00025753 | 0.00026888 | 0.00042017 |   0.0 |  0.01
Modify  | 2.9234e-05 | 0.0039454  | 0.0084063  |   2.9 |  0.14
Other   |            | 0.3403     |            |       | 12.12

Nlocal:        2776.45 ave        3958 max           0 min
Histogram: 8 4 4 0 4 12 8 2 28 34
Nghost:        3879.03 ave        5424 max         232 min
Histogram: 8 0 8 0 16 0 8 8 16 40
Neighs:        79213.4 ave      115370 max           0 min
Histogram: 8 4 4 0 10 6 8 8 24 32

Total # of neighbors = 8238192
Ave neighs/atom = 28.530436
Neighbor list builds = 0
Dangerous builds = 0
The dot product: 6.31672685446857e-10
Setting atom values ...
  1 settings made for x
  1 settings made for y
  1 settings made for z
Setting up cg style minimization ...
  Unit style    : metal
  Current step  : 4037
Per MPI rank memory allocation (min/avg/max) = 5.441 | 5.816 | 6.074 Mbytes
Step PotEng KinEng TotEng v_fx v_fy v_fz 
    4037   -1152449.3            0   -1152449.3 -0.0058139955 0.0032464554 -0.011489439 
    4249   -1152449.3            0   -1152449.3 -7.5059803e-06 -2.682461e-06 -9.3998978e-06 
Loop time of 2.47713 on 104 procs for 212 steps with 288751 atoms

99.9% CPU use with 104 MPI tasks x 1 OpenMP threads

Minimization stats:
  Stopping criterion = energy tolerance
  Energy initial, next-to-last, final = 
     -1152449.32869925  -1152449.32954556  -1152449.32954556
  Force two-norm initial, final = 0.12186515 4.3903511e-05
  Force max component initial, final = 0.044027937 9.3998978e-06
  Final line search alpha, max atom move = 1.0000000 9.3998978e-06
  Iterations, force evaluations = 212 424

MPI task timing breakdown:
Section |  min time  |  avg time  |  max time  |%varavg| %total
---------------------------------------------------------------
Pair    | 0.63633    | 1.7885     | 2.3202     |  36.1 | 72.20
Neigh   | 0          | 0          | 0          |   0.0 |  0.00
Comm    | 0.047025   | 0.40812    | 1.215      |  53.2 | 16.48
Output  | 0          | 0          | 0          |   0.0 |  0.00
Modify  | 2.5416e-05 | 0.0035014  | 0.0075002  |   2.8 |  0.14
Other   |            | 0.277      |            |       | 11.18

Nlocal:        2776.45 ave        3959 max           0 min
Histogram: 8 4 4 0 4 12 8 2 28 34
Nghost:        3879.05 ave        5424 max         232 min
Histogram: 8 0 8 0 16 0 8 8 16 40
Neighs:        79213.4 ave      115404 max           0 min
Histogram: 8 4 4 0 10 6 8 8 24 32

Total # of neighbors = 8238190
Ave neighs/atom = 28.530429
Neighbor list builds = 0
Dangerous builds = 0
The dot product: 2.61349519515398e-09
Setting atom values ...
  1 settings made for x
  1 settings made for y
  1 settings made for z
Setting up cg style minimization ...
  Unit style    : metal
  Current step  : 4249
Per MPI rank memory allocation (min/avg/max) = 5.441 | 5.816 | 6.074 Mbytes
Step PotEng KinEng TotEng v_fx v_fy v_fz 
    4249   -1152449.3            0   -1152449.3 -0.0057494509 0.0017061702 -0.010186487 
    4431   -1152449.3            0   -1152449.3 -2.7359541e-06 2.1097243e-06 -5.8750939e-06 
Loop time of 2.12076 on 104 procs for 182 steps with 288751 atoms

99.9% CPU use with 104 MPI tasks x 1 OpenMP threads

Minimization stats:
  Stopping criterion = energy tolerance
  Energy initial, next-to-last, final = 
      -1152449.3201823  -1152449.32103217  -1152449.32103217
  Force two-norm initial, final = 0.12213412 0.00011499775
  Force max component initial, final = 0.043867779 9.9951346e-06
  Final line search alpha, max atom move = 1.0000000 9.9951346e-06
  Iterations, force evaluations = 182 364

MPI task timing breakdown:
Section |  min time  |  avg time  |  max time  |%varavg| %total
---------------------------------------------------------------
Pair    | 0.54693    | 1.528      | 1.9905     |  33.5 | 72.05
Neigh   | 0          | 0          | 0          |   0.0 |  0.00
Comm    | 0.036088   | 0.34736    | 1.0311     |  48.9 | 16.38
Output  | 0          | 0          | 0          |   0.0 |  0.00
Modify  | 2.2436e-05 | 0.0030119  | 0.0064355  |   2.6 |  0.14
Other   |            | 0.2424     |            |       | 11.43

Nlocal:        2776.45 ave        3959 max           0 min
Histogram: 8 4 4 0 4 12 8 2 28 34
Nghost:        3879.01 ave        5424 max         232 min
Histogram: 8 0 8 0 16 0 8 8 16 40
Neighs:        79213.3 ave      115403 max           0 min
Histogram: 8 4 4 0 10 6 8 8 24 32

Total # of neighbors = 8238188
Ave neighs/atom = 28.530422
Neighbor list builds = 0
Dangerous builds = 0
The dot product: 1.87015992315685e-09
Setting atom values ...
  1 settings made for x
  1 settings made for y
  1 settings made for z
Setting up cg style minimization ...
  Unit style    : metal
  Current step  : 4431
Per MPI rank memory allocation (min/avg/max) = 5.441 | 5.816 | 6.074 Mbytes
Step PotEng KinEng TotEng v_fx v_fy v_fz 
    4431   -1152449.3            0   -1152449.3 -0.0059489368 -9.1766906e-05 -0.0090808242 
    4590   -1152449.3            0   -1152449.3 -5.0786094e-05 -2.2099292e-05 -6.0623328e-05 
Loop time of 1.85593 on 104 procs for 159 steps with 288751 atoms

99.9% CPU use with 104 MPI tasks x 1 OpenMP threads

Minimization stats:
  Stopping criterion = energy tolerance
  Energy initial, next-to-last, final = 
     -1152449.31020813  -1152449.31106471  -1152449.31106471
  Force two-norm initial, final = 0.12266393 0.00027293236
  Force max component initial, final = 0.043697735 6.0623328e-05
  Final line search alpha, max atom move = 1.0000000 6.0623328e-05
  Iterations, force evaluations = 159 318

MPI task timing breakdown:
Section |  min time  |  avg time  |  max time  |%varavg| %total
---------------------------------------------------------------
Pair    | 0.4776     | 1.3464     | 1.7484     |  31.5 | 72.54
Neigh   | 0          | 0          | 0          |   0.0 |  0.00
Comm    | 0.026749   | 0.30731    | 0.92736    |  46.0 | 16.56
Output  | 0          | 0          | 0          |   0.0 |  0.00
Modify  | 2.0457e-05 | 0.0026285  | 0.0056131  |   2.4 |  0.14
Other   |            | 0.1996     |            |       | 10.76

Nlocal:        2776.45 ave        3959 max           0 min
Histogram: 8 4 4 0 4 12 8 2 28 34
Nghost:        3879.01 ave        5424 max         232 min
Histogram: 8 0 8 0 16 0 8 8 16 40
Neighs:        79213.4 ave      115405 max           0 min
Histogram: 8 4 4 0 10 6 8 8 24 32

Total # of neighbors = 8238189
Ave neighs/atom = 28.530426
Neighbor list builds = 0
Dangerous builds = 0
The dot product: 2.48824860413367e-08
Setting atom values ...
  1 settings made for x
  1 settings made for y
  1 settings made for z
Setting up cg style minimization ...
  Unit style    : metal
  Current step  : 4590
Per MPI rank memory allocation (min/avg/max) = 5.441 | 5.816 | 6.074 Mbytes
Step PotEng KinEng TotEng v_fx v_fy v_fz 
    4590   -1152449.3            0   -1152449.3 -0.0065119767 -0.0021191333 -0.0083521956 
    4798   -1152449.3            0   -1152449.3 -6.6295804e-07 -6.8681957e-07 -4.7660986e-07 
Loop time of 2.42857 on 104 procs for 208 steps with 288751 atoms

99.9% CPU use with 104 MPI tasks x 1 OpenMP threads

Minimization stats:
  Stopping criterion = energy tolerance
  Energy initial, next-to-last, final = 
       -1152449.298748  -1152449.29961123  -1152449.29961123
  Force two-norm initial, final = 0.12334487 5.1771177e-05
  Force max component initial, final = 0.043494852 1.4467345e-06
  Final line search alpha, max atom move = 1.0000000 1.4467345e-06
  Iterations, force evaluations = 208 416

MPI task timing breakdown:
Section |  min time  |  avg time  |  max time  |%varavg| %total
---------------------------------------------------------------
Pair    | 0.6271     | 1.7453     | 2.2735     |  35.7 | 71.86
Neigh   | 0          | 0          | 0          |   0.0 |  0.00
Comm    | 0.040465   | 0.39683    | 1.1811     |  52.3 | 16.34
Output  | 0          | 0          | 0          |   0.0 |  0.00
Modify  | 2.5457e-05 | 0.0034379  | 0.0073659  |   2.8 |  0.14
Other   |            | 0.2831     |            |       | 11.66

Nlocal:        2776.45 ave        3959 max           0 min
Histogram: 8 4 4 0 4 12 8 2 28 34
Nghost:        3879.07 ave        5424 max         232 min
Histogram: 8 0 8 0 16 0 8 8 16 40
Neighs:        79213.4 ave      115404 max           0 min
Histogram: 8 4 4 0 10 6 8 8 24 32

Total # of neighbors = 8238189
Ave neighs/atom = 28.530426
Neighbor list builds = 0
Dangerous builds = 0
The dot product: 4.04162492800447e-10
Setting atom values ...
  1 settings made for x
  1 settings made for y
  1 settings made for z
Setting up cg style minimization ...
  Unit style    : metal
  Current step  : 4798
Per MPI rank memory allocation (min/avg/max) = 5.441 | 5.816 | 6.074 Mbytes
Step PotEng KinEng TotEng v_fx v_fy v_fz 
    4798   -1152449.3            0   -1152449.3 -0.007380067 -0.0042322048 -0.0080294002 
    4994   -1152449.3            0   -1152449.3 1.7056024e-06 1.8683798e-06 1.1495524e-06 
Loop time of 2.28152 on 104 procs for 196 steps with 288751 atoms

99.9% CPU use with 104 MPI tasks x 1 OpenMP threads

Minimization stats:
  Stopping criterion = energy tolerance
  Energy initial, next-to-last, final = 
     -1152449.28578213  -1152449.28664737  -1152449.28664737
  Force two-norm initial, final = 0.12398534 8.3681059e-05
  Force max component initial, final = 0.043338357 1.3313041e-05
  Final line search alpha, max atom move = 1.0000000 1.3313041e-05
  Iterations, force evaluations = 196 392

MPI task timing breakdown:
Section |  min time  |  avg time  |  max time  |%varavg| %total
---------------------------------------------------------------
Pair    | 0.58915    | 1.6536     | 2.1467     |  34.8 | 72.48
Neigh   | 0          | 0          | 0          |   0.0 |  0.00
Comm    | 0.034985   | 0.37815    | 1.1422     |  50.8 | 16.57
Output  | 0          | 0          | 0          |   0.0 |  0.00
Modify  | 2.5101e-05 | 0.00324    | 0.0068866  |   2.7 |  0.14
Other   |            | 0.2465     |            |       | 10.81

Nlocal:        2776.45 ave        3959 max           0 min
Histogram: 8 4 4 0 4 12 8 2 28 34
Nghost:        3879.12 ave        5424 max         232 min
Histogram: 8 0 8 0 16 0 8 8 16 40
Neighs:        79213.3 ave      115408 max           0 min
Histogram: 8 4 4 0 10 6 8 8 24 32

Total # of neighbors = 8238187
Ave neighs/atom = 28.530419
Neighbor list builds = 0
Dangerous builds = 0
The dot product: -1.56159157612102e-09
Setting atom values ...
  1 settings made for x
  1 settings made for y
  1 settings made for z
Setting up cg style minimization ...
  Unit style    : metal
  Current step  : 4994
Per MPI rank memory allocation (min/avg/max) = 5.441 | 5.816 | 6.074 Mbytes
Step PotEng KinEng TotEng v_fx v_fy v_fz 
    4994   -1152449.3            0   -1152449.3 -0.0088535677 -0.0063152722 -0.0086777162 
    5000   -1152449.3            0   -1152449.3 0.00026774512 0.0024724986 -0.0015462118 
    5183   -1152449.3            0   -1152449.3 6.8648341e-06 4.9997213e-06 6.6468173e-06 
Loop time of 2.2157 on 104 procs for 189 steps with 288751 atoms

99.9% CPU use with 104 MPI tasks x 1 OpenMP threads

Minimization stats:
  Stopping criterion = energy tolerance
  Energy initial, next-to-last, final = 
     -1152449.27130605  -1152449.27216665  -1152449.27216665
  Force two-norm initial, final = 0.12455034 9.8998438e-05
  Force max component initial, final = 0.043131746 1.6861539e-05
  Final line search alpha, max atom move = 1.0000000 1.6861539e-05
  Iterations, force evaluations = 189 378

MPI task timing breakdown:
Section |  min time  |  avg time  |  max time  |%varavg| %total
---------------------------------------------------------------
Pair    | 0.56549    | 1.5887     | 2.0752     |  34.3 | 71.70
Neigh   | 0          | 0          | 0          |   0.0 |  0.00
Comm    | 0.033305   | 0.36256    | 1.0847     |  49.9 | 16.36
Output  | 0.00013723 | 0.00013961 | 0.00019929 |   0.0 |  0.01
Modify  | 2.2906e-05 | 0.0031227  | 0.0067167  |   2.6 |  0.14
Other   |            | 0.2612     |            |       | 11.79

Nlocal:        2776.45 ave        3960 max           0 min
Histogram: 8 4 4 0 4 12 8 2 28 34
Nghost:        3879.11 ave        5424 max         232 min
Histogram: 8 0 8 0 16 0 8 8 16 40
Neighs:        79213.3 ave      115438 max           0 min
Histogram: 8 4 4 0 10 6 8 8 24 32

Total # of neighbors = 8238186
Ave neighs/atom = 28.530415
Neighbor list builds = 0
Dangerous builds = 0
The dot product: -8.76624061130597e-09
Setting atom values ...
  1 settings made for x
  1 settings made for y
  1 settings made for z
Setting up cg style minimization ...
  Unit style    : metal
  Current step  : 5183
Per MPI rank memory allocation (min/avg/max) = 5.441 | 5.816 | 6.074 Mbytes
Step PotEng KinEng TotEng v_fx v_fy v_fz 
    5183   -1152449.3            0   -1152449.3 -0.011014848 -0.0081425229 -0.010617576 
    5387   -1152449.3            0   -1152449.3 -6.4115783e-06 8.5579804e-06 -1.6715956e-05 
Loop time of 2.36938 on 104 procs for 204 steps with 288751 atoms

99.9% CPU use with 104 MPI tasks x 1 OpenMP threads

Minimization stats:
  Stopping criterion = energy tolerance
  Energy initial, next-to-last, final = 
     -1152449.25534534  -1152449.25619307  -1152449.25619307
  Force two-norm initial, final = 0.12511464 6.7222424e-05
  Force max component initial, final = 0.044197448 1.6715956e-05
  Final line search alpha, max atom move = 1.0000000 1.6715956e-05
  Iterations, force evaluations = 204 408

MPI task timing breakdown:
Section |  min time  |  avg time  |  max time  |%varavg| %total
---------------------------------------------------------------
Pair    | 0.61238    | 1.7188     | 2.2373     |  35.5 | 72.54
Neigh   | 0          | 0          | 0          |   0.0 |  0.00
Comm    | 0.035278   | 0.39088    | 1.1632     |  52.1 | 16.50
Output  | 0          | 0          | 0          |   0.0 |  0.00
Modify  | 2.4474e-05 | 0.0033721  | 0.0071832  |   2.7 |  0.14
Other   |            | 0.2563     |            |       | 10.82

Nlocal:        2776.45 ave        3960 max           0 min
Histogram: 8 4 4 0 4 12 8 2 28 34
Nghost:        3879.11 ave        5424 max         232 min
Histogram: 8 0 8 0 16 0 8 8 16 40
Neighs:        79213.3 ave      115438 max           0 min
Histogram: 8 4 4 0 10 6 8 8 24 32

Total # of neighbors = 8238187
Ave neighs/atom = 28.530419
Neighbor list builds = 0
Dangerous builds = 0
The dot product: 1.27063333506749e-08
Setting atom values ...
  1 settings made for x
  1 settings made for y
  1 settings made for z
Setting up cg style minimization ...
  Unit style    : metal
  Current step  : 5387
Per MPI rank memory allocation (min/avg/max) = 5.441 | 5.816 | 6.074 Mbytes
Step PotEng KinEng TotEng v_fx v_fy v_fz 
    5387   -1152449.2            0   -1152449.2  -0.01428505 -0.0096177274 -0.014607011 
    5569   -1152449.2            0   -1152449.2 -2.3348152e-05 -7.2316357e-06 -3.0600205e-05 
Loop time of 2.14006 on 104 procs for 182 steps with 288751 atoms

99.9% CPU use with 104 MPI tasks x 1 OpenMP threads

Minimization stats:
  Stopping criterion = energy tolerance
  Energy initial, next-to-last, final = 
     -1152449.23798206  -1152449.23881822  -1152449.23881822
  Force two-norm initial, final = 0.1263322 0.00011287493
  Force max component initial, final = 0.047470954 3.0600205e-05
  Final line search alpha, max atom move = 1.0000000 3.0600205e-05
  Iterations, force evaluations = 182 364

MPI task timing breakdown:
Section |  min time  |  avg time  |  max time  |%varavg| %total
---------------------------------------------------------------
Pair    | 0.5581     | 1.5331     | 1.9936     |  33.4 | 71.64
Neigh   | 0          | 0          | 0          |   0.0 |  0.00
Comm    | 0.032443   | 0.3515     | 1.0321     |  48.6 | 16.42
Output  | 0          | 0          | 0          |   0.0 |  0.00
Modify  | 2.2769e-05 | 0.0030124  | 0.0063891  |   2.6 |  0.14
Other   |            | 0.2525     |            |       | 11.80

Nlocal:        2776.45 ave        3960 max           0 min
Histogram: 8 4 4 0 4 12 8 2 28 34
Nghost:        3879.11 ave        5424 max         232 min
Histogram: 8 0 8 0 16 0 8 8 16 40
Neighs:        79213.3 ave      115435 max           0 min
Histogram: 8 4 4 0 10 6 8 8 24 32

Total # of neighbors = 8238185
Ave neighs/atom = 28.530412
Neighbor list builds = 0
Dangerous builds = 0
The dot product: 8.20365991916053e-08
Setting atom values ...
  1 settings made for x
  1 settings made for y
  1 settings made for z
Setting up cg style minimization ...
  Unit style    : metal
  Current step  : 5569
Per MPI rank memory allocation (min/avg/max) = 5.441 | 5.816 | 6.074 Mbytes
Step PotEng KinEng TotEng v_fx v_fy v_fz 
    5569   -1152449.2            0   -1152449.2  -0.01934988 -0.010409592 -0.022069516 
    5833   -1152449.3            0   -1152449.3 7.3619292e-06 6.8129237e-06 6.1303606e-06 
Loop time of 3.06596 on 104 procs for 264 steps with 288751 atoms

99.9% CPU use with 104 MPI tasks x 1 OpenMP threads

Minimization stats:
  Stopping criterion = energy tolerance
  Energy initial, next-to-last, final = 
     -1152449.21944446  -1152449.25004149  -1152449.25004149
  Force two-norm initial, final = 0.13033414 0.00010071898
  Force max component initial, final = 0.050697962 2.3191762e-05
  Final line search alpha, max atom move = 1.0000000 2.3191762e-05
  Iterations, force evaluations = 264 527

MPI task timing breakdown:
Section |  min time  |  avg time  |  max time  |%varavg| %total
---------------------------------------------------------------
Pair    | 0.79486    | 2.2188     | 2.883      |  40.2 | 72.37
Neigh   | 1.0793e-05 | 0.0029343  | 0.0042586  |   2.2 |  0.10
Comm    | 0.04622    | 0.50266    | 1.5075     |  59.3 | 16.39
Output  | 0          | 0          | 0          |   0.0 |  0.00
Modify  | 3.214e-05  | 0.0043584  | 0.0093139  |   3.1 |  0.14
Other   |            | 0.3372     |            |       | 11.00

Nlocal:        2776.45 ave        3960 max           0 min
Histogram: 8 4 4 0 4 12 8 2 28 34
Nghost:        3879.09 ave        5424 max         232 min
Histogram: 8 0 8 0 16 0 8 8 16 40
Neighs:        79213.2 ave      115430 max           0 min
Histogram: 8 4 4 0 10 6 8 8 24 32

Total # of neighbors = 8238170
Ave neighs/atom = 28.530360
Neighbor list builds = 1
Dangerous builds = 0
The dot product: -6.05048461582667e-07
Setting atom values ...
  1 settings made for x
  1 settings made for y
  1 settings made for z
Setting up cg style minimization ...
  Unit style    : metal
  Current step  : 5833
Per MPI rank memory allocation (min/avg/max) = 5.441 | 5.816 | 6.074 Mbytes
Step PotEng KinEng TotEng v_fx v_fy v_fz 
    5833   -1152449.2            0   -1152449.2 -0.027981369 -0.033891498 -0.023810769 
    6000   -1152449.2            0   -1152449.2 -0.00011393512 1.317843e-05 -0.00026150277 
    6036   -1152449.2            0   -1152449.2 -1.2133877e-05 -7.0827505e-06 -1.8612759e-05 
Loop time of 2.36276 on 104 procs for 203 steps with 288751 atoms

99.9% CPU use with 104 MPI tasks x 1 OpenMP threads

Minimization stats:
  Stopping criterion = energy tolerance
  Energy initial, next-to-last, final = 
     -1152449.24563821  -1152449.24930876  -1152449.24930876
  Force two-norm initial, final = 0.1506784 0.00027298341
  Force max component initial, final = 0.055791052 4.1090841e-05
  Final line search alpha, max atom move = 1.0000000 4.1090841e-05
  Iterations, force evaluations = 203 406

MPI task timing breakdown:
Section |  min time  |  avg time  |  max time  |%varavg| %total
---------------------------------------------------------------
Pair    | 0.60844    | 1.6992     | 2.2166     |  35.3 | 71.91
Neigh   | 0          | 0          | 0          |   0.0 |  0.00
Comm    | 0.036866   | 0.38436    | 1.1418     |  51.6 | 16.27
Output  | 0.00025588 | 0.00026736 | 0.00041932 |   0.0 |  0.01
Modify  | 2.4926e-05 | 0.003357   | 0.007145   |   2.7 |  0.14
Other   |            | 0.2756     |            |       | 11.67

Nlocal:        2776.45 ave        3959 max           0 min
Histogram: 8 4 4 0 4 12 8 2 28 34
Nghost:        3879.01 ave        5424 max         232 min
Histogram: 8 0 8 0 16 0 8 8 16 40
Neighs:        79213.3 ave      115401 max           0 min
Histogram: 8 4 4 0 10 6 8 8 24 32

Total # of neighbors = 8238183
Ave neighs/atom = 28.530405
Neighbor list builds = 0
Dangerous builds = 0
The dot product: 1.09155201631993e-06
Setting atom values ...
  1 settings made for x
  1 settings made for y
  1 settings made for z
Setting up cg style minimization ...
  Unit style    : metal
  Current step  : 6036
Per MPI rank memory allocation (min/avg/max) = 5.441 | 5.816 | 6.074 Mbytes
Step PotEng KinEng TotEng v_fx v_fy v_fz 
    6036   -1152449.3            0   -1152449.3 -0.014983007 -0.038233962 0.0010064936 
    6169   -1152449.3            0   -1152449.3 -2.5580999e-05 -1.844826e-05 -4.5474003e-05 
Loop time of 1.54957 on 104 procs for 133 steps with 288751 atoms

99.9% CPU use with 104 MPI tasks x 1 OpenMP threads

Minimization stats:
  Stopping criterion = energy tolerance
  Energy initial, next-to-last, final = 
      -1152449.2502875   -1152449.2521926   -1152449.2521926
  Force two-norm initial, final = 0.15358299 0.00027389168
  Force max component initial, final = 0.055060897 5.4950684e-05
  Final line search alpha, max atom move = 1.0000000 5.4950684e-05
  Iterations, force evaluations = 133 266

MPI task timing breakdown:
Section |  min time  |  avg time  |  max time  |%varavg| %total
---------------------------------------------------------------
Pair    | 0.39887    | 1.1245     | 1.46       |  28.8 | 72.57
Neigh   | 0          | 0          | 0          |   0.0 |  0.00
Comm    | 0.02233    | 0.2559     | 0.76563    |  42.1 | 16.51
Output  | 0          | 0          | 0          |   0.0 |  0.00
Modify  | 1.6169e-05 | 0.0022025  | 0.0047383  |   2.2 |  0.14
Other   |            | 0.167      |            |       | 10.78

Nlocal:        2776.45 ave        3959 max           0 min
Histogram: 8 4 4 0 4 12 8 2 28 34
Nghost:        3879.12 ave        5424 max         232 min
Histogram: 8 0 8 0 16 0 8 8 16 40
Neighs:        79213.3 ave      115391 max           0 min
Histogram: 8 4 4 0 10 6 8 8 24 32

Total # of neighbors = 8238186
Ave neighs/atom = 28.530415
Neighbor list builds = 0
Dangerous builds = 0
The dot product: 5.78775958258265e-07
Setting atom values ...
  1 settings made for x
  1 settings made for y
  1 settings made for z
Setting up cg style minimization ...
  Unit style    : metal
  Current step  : 6169
Per MPI rank memory allocation (min/avg/max) = 5.441 | 5.816 | 6.074 Mbytes
Step PotEng KinEng TotEng v_fx v_fy v_fz 
    6169   -1152449.3            0   -1152449.3 -0.014307051 -0.049376573  0.012713485 
    6268   -1152449.3            0   -1152449.3 -1.1674532e-05 -5.1084835e-06 -2.522672e-05 
Loop time of 1.15249 on 104 procs for 99 steps with 288751 atoms

99.9% CPU use with 104 MPI tasks x 1 OpenMP threads

Minimization stats:
  Stopping criterion = energy tolerance
  Energy initial, next-to-last, final = 
     -1152449.25427421  -1152449.25547436  -1152449.25547436
  Force two-norm initial, final = 0.15226334 0.00010345781
  Force max component initial, final = 0.055462221 2.5226720e-05
  Final line search alpha, max atom move = 1.0000000 2.5226720e-05
  Iterations, force evaluations = 99 198

MPI task timing breakdown:
Section |  min time  |  avg time  |  max time  |%varavg| %total
---------------------------------------------------------------
Pair    | 0.29703    | 0.83182    | 1.086      |  24.7 | 72.18
Neigh   | 0          | 0          | 0          |   0.0 |  0.00
Comm    | 0.017433   | 0.18865    | 0.56727    |  36.2 | 16.37
Output  | 0          | 0          | 0          |   0.0 |  0.00
Modify  | 1.223e-05  | 0.0016425  | 0.0034938  |   1.9 |  0.14
Other   |            | 0.1304     |            |       | 11.31

Nlocal:        2776.45 ave        3958 max           0 min
Histogram: 8 4 4 0 4 12 8 2 28 34
Nghost:        3879.14 ave        5424 max         232 min
Histogram: 8 0 8 0 16 0 8 8 16 40
Neighs:        79213.3 ave      115368 max           0 min
Histogram: 8 4 4 0 10 6 8 8 24 32

Total # of neighbors = 8238182
Ave neighs/atom = 28.530402
Neighbor list builds = 0
Dangerous builds = 0
The dot product: 1.46629179953173e-07
Setting atom values ...
  1 settings made for x
  1 settings made for y
  1 settings made for z
Setting up cg style minimization ...
  Unit style    : metal
  Current step  : 6268
Per MPI rank memory allocation (min/avg/max) = 5.441 | 5.816 | 6.074 Mbytes
Step PotEng KinEng TotEng v_fx v_fy v_fz 
    6268   -1152449.3            0   -1152449.3  -0.01364977 -0.057481941  0.020558624 
    6541   -1152449.3            0   -1152449.3 7.2634658e-07 1.3845621e-06 5.5617518e-07 
Loop time of 3.19036 on 104 procs for 273 steps with 288751 atoms

99.9% CPU use with 104 MPI tasks x 1 OpenMP threads

Minimization stats:
  Stopping criterion = energy tolerance
  Energy initial, next-to-last, final = 
     -1152449.25693388  -1152449.29756683  -1152449.29756683
  Force two-norm initial, final = 0.15748635 2.5188323e-05
  Force max component initial, final = 0.057481941 2.9563059e-06
  Final line search alpha, max atom move = 1.0000000 2.9563059e-06
  Iterations, force evaluations = 273 545

MPI task timing breakdown:
Section |  min time  |  avg time  |  max time  |%varavg| %total
---------------------------------------------------------------
Pair    | 0.81998    | 2.3016     | 2.9854     |  41.0 | 72.14
Neigh   | 1.0319e-05 | 0.0029465  | 0.0042985  |   2.2 |  0.09
Comm    | 0.045935   | 0.5245     | 1.5713     |  60.4 | 16.44
Output  | 0          | 0          | 0          |   0.0 |  0.00
Modify  | 3.2873e-05 | 0.0044944  | 0.0096496  |   3.2 |  0.14
Other   |            | 0.3568     |            |       | 11.18

Nlocal:        2776.45 ave        3959 max           0 min
Histogram: 8 4 4 0 4 12 8 2 28 34
Nghost:        3879.14 ave        5424 max         232 min
Histogram: 8 0 8 0 16 0 8 8 16 40
Neighs:        79213.4 ave      115401 max           0 min
Histogram: 8 4 4 0 10 6 8 8 24 32

Total # of neighbors = 8238197
Ave neighs/atom = 28.530454
Neighbor list builds = 1
Dangerous builds = 0
The dot product: -2.17251445798758e-07
Setting atom values ...
  1 settings made for x
  1 settings made for y
  1 settings made for z
Setting up cg style minimization ...
  Unit style    : metal
  Current step  : 6541
Per MPI rank memory allocation (min/avg/max) = 5.441 | 5.816 | 6.074 Mbytes
Step PotEng KinEng TotEng v_fx v_fy v_fz 
    6541   -1152449.3            0   -1152449.3  0.028771574  0.058975291  0.058773769 
    6766   -1152449.3            0   -1152449.3 2.0989114e-08 6.9646397e-06 -3.8785407e-06 
Loop time of 2.61503 on 104 procs for 225 steps with 288751 atoms

99.9% CPU use with 104 MPI tasks x 1 OpenMP threads

Minimization stats:
  Stopping criterion = energy tolerance
  Energy initial, next-to-last, final = 
     -1152449.30888136  -1152449.31116285  -1152449.31116285
  Force two-norm initial, final = 0.16258677 4.7530410e-05
  Force max component initial, final = 0.058975291 1.1430580e-05
  Final line search alpha, max atom move = 1.0000000 1.1430580e-05
  Iterations, force evaluations = 225 450

MPI task timing breakdown:
Section |  min time  |  avg time  |  max time  |%varavg| %total
---------------------------------------------------------------
Pair    | 0.6759     | 1.8882     | 2.4572     |  37.2 | 72.20
Neigh   | 0          | 0          | 0          |   0.0 |  0.00
Comm    | 0.0451     | 0.42795    | 1.2769     |  54.8 | 16.36
Output  | 0          | 0          | 0          |   0.0 |  0.00
Modify  | 2.817e-05  | 0.0037186  | 0.0079597  |   2.9 |  0.14
Other   |            | 0.2952     |            |       | 11.29

Nlocal:        2776.45 ave        3956 max           0 min
Histogram: 8 4 4 0 4 12 8 0 30 34
Nghost:        3879.07 ave        5424 max         232 min
Histogram: 8 0 8 0 16 0 8 8 16 40
Neighs:        79213.4 ave      115306 max           0 min
Histogram: 8 4 4 0 10 6 8 8 24 32

Total # of neighbors = 8238197
Ave neighs/atom = 28.530454
Neighbor list builds = 0
Dangerous builds = 0
The dot product: 1.25016995423336e-07
Setting atom values ...
  1 settings made for x
  1 settings made for y
  1 settings made for z
Setting up cg style minimization ...
  Unit style    : metal
  Current step  : 6766
Per MPI rank memory allocation (min/avg/max) = 5.441 | 5.816 | 6.074 Mbytes
Step PotEng KinEng TotEng v_fx v_fy v_fz 
    6766   -1152449.3            0   -1152449.3 -0.0060531952 -0.071109412  0.027044945 
    6913   -1152449.3            0   -1152449.3 -7.3777485e-06 1.0637985e-05 -2.964621e-05 
Loop time of 1.71398 on 104 procs for 147 steps with 288751 atoms

99.9% CPU use with 104 MPI tasks x 1 OpenMP threads

Minimization stats:
  Stopping criterion = energy tolerance
  Energy initial, next-to-last, final = 
     -1152449.32050869  -1152449.32175287  -1152449.32175287
  Force two-norm initial, final = 0.16161754 0.00021299883
  Force max component initial, final = 0.071109412 2.9646210e-05
  Final line search alpha, max atom move = 1.0000000 2.9646210e-05
  Iterations, force evaluations = 147 294

MPI task timing breakdown:
Section |  min time  |  avg time  |  max time  |%varavg| %total
---------------------------------------------------------------
Pair    | 0.44117    | 1.2386     | 1.6101     |  30.0 | 72.27
Neigh   | 0          | 0          | 0          |   0.0 |  0.00
Comm    | 0.024989   | 0.28286    | 0.85487    |  44.1 | 16.50
Output  | 0          | 0          | 0          |   0.0 |  0.00
Modify  | 1.8203e-05 | 0.002431   | 0.005162   |   2.3 |  0.14
Other   |            | 0.19       |            |       | 11.09

Nlocal:        2776.45 ave        3959 max           0 min
Histogram: 8 4 4 0 4 12 8 4 26 34
Nghost:        3879.09 ave        5424 max         232 min
Histogram: 8 0 8 0 16 0 8 8 16 40
Neighs:        79213.4 ave      115400 max           0 min
Histogram: 8 4 4 0 10 6 8 8 24 32

Total # of neighbors = 8238195
Ave neighs/atom = 28.530447
Neighbor list builds = 0
Dangerous builds = 0
The dot product: -9.50622461259087e-08
Setting atom values ...
  1 settings made for x
  1 settings made for y
  1 settings made for z
Setting up cg style minimization ...
  Unit style    : metal
  Current step  : 6913
Per MPI rank memory allocation (min/avg/max) = 5.441 | 5.816 | 6.074 Mbytes
Step PotEng KinEng TotEng v_fx v_fy v_fz 
    6913   -1152449.3            0   -1152449.3 -0.00050704397 -0.053798133  0.031371779 
    7000   -1152449.3            0   -1152449.3 -2.4755503e-05 5.5652314e-05 -0.00011036175 
    7069   -1152449.3            0   -1152449.3 2.1559759e-05 2.9138096e-05 4.8605607e-05 
Loop time of 1.84261 on 104 procs for 156 steps with 288751 atoms

99.9% CPU use with 104 MPI tasks x 1 OpenMP threads

Minimization stats:
  Stopping criterion = energy tolerance
  Energy initial, next-to-last, final = 
     -1152449.32952843  -1152449.33071302  -1152449.33071302
  Force two-norm initial, final = 0.1565004 0.00028741236
  Force max component initial, final = 0.054026548 4.8605607e-05
  Final line search alpha, max atom move = 1.0000000 4.8605607e-05
  Iterations, force evaluations = 156 312

MPI task timing breakdown:
Section |  min time  |  avg time  |  max time  |%varavg| %total
---------------------------------------------------------------
Pair    | 0.46805    | 1.3136     | 1.7164     |  31.2 | 71.29
Neigh   | 0          | 0          | 0          |   0.0 |  0.00
Comm    | 0.027762   | 0.30193    | 0.88562    |  44.7 | 16.39
Output  | 0.00014879 | 0.00015737 | 0.00028507 |   0.0 |  0.01
Modify  | 1.8897e-05 | 0.0025797  | 0.0055096  |   2.4 |  0.14
Other   |            | 0.2243     |            |       | 12.17

Nlocal:        2776.45 ave        3959 max           0 min
Histogram: 8 4 4 0 4 12 8 4 26 34
Nghost:        3879.12 ave        5424 max         232 min
Histogram: 8 0 8 0 16 0 8 8 16 40
Neighs:        79213.4 ave      115400 max           0 min
Histogram: 8 4 4 0 10 6 8 8 24 32

Total # of neighbors = 8238197
Ave neighs/atom = 28.530454
Neighbor list builds = 0
Dangerous builds = 0
The dot product: 1.02835147873881e-08
Setting atom values ...
  1 settings made for x
  1 settings made for y
  1 settings made for z
Setting up cg style minimization ...
  Unit style    : metal
  Current step  : 7069
Per MPI rank memory allocation (min/avg/max) = 5.441 | 5.816 | 6.074 Mbytes
Step PotEng KinEng TotEng v_fx v_fy v_fz 
    7069   -1152449.3            0   -1152449.3 -0.0012455809 -0.058215366  0.030955193 
    7294   -1152449.3            0   -1152449.3 -2.8609934e-06 -2.490776e-06 -7.2661466e-06 
Loop time of 2.61221 on 104 procs for 225 steps with 288751 atoms

99.9% CPU use with 104 MPI tasks x 1 OpenMP threads

Minimization stats:
  Stopping criterion = energy tolerance
  Energy initial, next-to-last, final = 
     -1152449.33685549   -1152449.3380718   -1152449.3380718
  Force two-norm initial, final = 0.15887345 2.9081843e-05
  Force max component initial, final = 0.058215366 7.2661466e-06
  Final line search alpha, max atom move = 1.0000000 7.2661466e-06
  Iterations, force evaluations = 225 450

MPI task timing breakdown:
Section |  min time  |  avg time  |  max time  |%varavg| %total
---------------------------------------------------------------
Pair    | 0.67556    | 1.8978     | 2.4603     |  37.3 | 72.65
Neigh   | 0          | 0          | 0          |   0.0 |  0.00
Comm    | 0.039088   | 0.42972    | 1.2787     |  55.0 | 16.45
Output  | 0          | 0          | 0          |   0.0 |  0.00
Modify  | 2.7592e-05 | 0.0037216  | 0.0079868  |   2.9 |  0.14
Other   |            | 0.281      |            |       | 10.76

Nlocal:        2776.45 ave        3959 max           0 min
Histogram: 8 4 4 0 4 12 8 4 26 34
Nghost:        3879.12 ave        5428 max         232 min
Histogram: 8 0 8 0 16 0 8 8 16 40
Neighs:        79213.4 ave      115400 max           0 min
Histogram: 8 4 4 0 10 6 8 8 24 32

Total # of neighbors = 8238197
Ave neighs/atom = 28.530454
Neighbor list builds = 0
Dangerous builds = 0
The dot product: -4.3941362361473e-09
Setting atom values ...
  1 settings made for x
  1 settings made for y
  1 settings made for z
Setting up cg style minimization ...
  Unit style    : metal
  Current step  : 7294
Per MPI rank memory allocation (min/avg/max) = 5.441 | 5.816 | 6.074 Mbytes
Step PotEng KinEng TotEng v_fx v_fy v_fz 
    7294   -1152449.3            0   -1152449.3 -0.0013071729   -0.0587894  0.030099402 
    7549   -1152449.3            0   -1152449.3 -4.9275276e-07 -6.0471735e-07 -1.1466523e-06 
[...]
Histogram: 8 0 8 0 16 0 8 8 16 40
Neighs:        79213.5 ave      115284 max           0 min
Histogram: 8 4 4 0 10 6 8 8 24 32

Total # of neighbors = 8238200
Ave neighs/atom = 28.530464
Neighbor list builds = 0
Dangerous builds = 0
The dot product: -2.50758485697102e-08
Setting atom values ...
  1 settings made for x
  1 settings made for y
  1 settings made for z
Setting up cg style minimization ...
  Unit style    : metal
  Current step  : 26923
Per MPI rank memory allocation (min/avg/max) = 5.441 | 5.816 | 6.074 Mbytes
Step PotEng KinEng TotEng v_fx v_fy v_fz 
   26923   -1152449.4            0   -1152449.4 -0.029760693 0.0082424857 -0.042297325 
   27000   -1152449.4            0   -1152449.4 -7.8690923e-06 0.00013343798 -1.0996918e-05 
   27100   -1152449.4            0   -1152449.4 1.6690204e-05 3.6018695e-05 2.3778823e-05 
Loop time of 2.0781 on 104 procs for 177 steps with 288751 atoms

99.9% CPU use with 104 MPI tasks x 1 OpenMP threads

Minimization stats:
  Stopping criterion = energy tolerance
  Energy initial, next-to-last, final = 
     -1152449.43343006  -1152449.43488002  -1152449.43488002
  Force two-norm initial, final = 0.17372473 0.00017820091
  Force max component initial, final = 0.074378823 3.6511244e-05
  Final line search alpha, max atom move = 1.0000000 3.6511244e-05
  Iterations, force evaluations = 177 354

MPI task timing breakdown:
Section |  min time  |  avg time  |  max time  |%varavg| %total
---------------------------------------------------------------
Pair    | 0.52865    | 1.4856     | 1.9557     |  33.1 | 71.49
Neigh   | 0          | 0          | 0          |   0.0 |  0.00
Comm    | 0.031198   | 0.33885    | 1.0088     |  48.0 | 16.31
Output  | 0.00016086 | 0.0001641  | 0.00031698 |   0.0 |  0.01
Modify  | 2.3212e-05 | 0.0029324  | 0.0063187  |   2.6 |  0.14
Other   |            | 0.2505     |            |       | 12.06

Nlocal:        2776.45 ave        3958 max           0 min
Histogram: 8 4 4 0 4 12 8 4 26 34
Nghost:        3879.09 ave        5424 max         232 min
Histogram: 8 0 8 0 16 0 8 8 16 40
Neighs:        79213.5 ave      115287 max           0 min
Histogram: 8 4 4 0 10 6 8 8 24 32

Total # of neighbors = 8238200
Ave neighs/atom = 28.530464
Neighbor list builds = 0
Dangerous builds = 0
The dot product: -1.36104907130556e-07
Setting atom values ...
  1 settings made for x
  1 settings made for y
  1 settings made for z
Setting up cg style minimization ...
  Unit style    : metal
  Current step  : 27100
Per MPI rank memory allocation (min/avg/max) = 5.441 | 5.816 | 6.074 Mbytes
Step PotEng KinEng TotEng v_fx v_fy v_fz 
   27100   -1152449.4            0   -1152449.4 -0.028411479  0.012032288 -0.040469509 
   27294   -1152449.4            0   -1152449.4 -8.0804751e-06 2.3768608e-06 -1.1511985e-05 
Loop time of 2.27643 on 104 procs for 194 steps with 288751 atoms

99.9% CPU use with 104 MPI tasks x 1 OpenMP threads

Minimization stats:
  Stopping criterion = energy tolerance
  Energy initial, next-to-last, final = 
     -1152449.42793819  -1152449.42934006  -1152449.42934006
  Force two-norm initial, final = 0.17101185 0.00010396789
  Force max component initial, final = 0.073571425 1.1511985e-05
  Final line search alpha, max atom move = 1.0000000 1.1511985e-05
  Iterations, force evaluations = 194 388

MPI task timing breakdown:
Section |  min time  |  avg time  |  max time  |%varavg| %total
---------------------------------------------------------------
Pair    | 0.5805     | 1.6313     | 2.1355     |  34.7 | 71.66
Neigh   | 0          | 0          | 0          |   0.0 |  0.00
Comm    | 0.037665   | 0.3724     | 1.1192     |  50.4 | 16.36
Output  | 0          | 0          | 0          |   0.0 |  0.00
Modify  | 2.2173e-05 | 0.0032129  | 0.0068602  |   2.7 |  0.14
Other   |            | 0.2696     |            |       | 11.84

Nlocal:        2776.45 ave        3958 max           0 min
Histogram: 8 4 4 0 4 12 8 4 26 34
Nghost:        3879.09 ave        5425 max         232 min
Histogram: 8 0 8 0 16 0 8 8 16 40
Neighs:        79213.5 ave      115288 max           0 min
Histogram: 8 4 4 0 10 6 8 8 24 32

Total # of neighbors = 8238205
Ave neighs/atom = 28.530481
Neighbor list builds = 0
Dangerous builds = 0
The dot product: 4.45010963299726e-08
Setting atom values ...
  1 settings made for x
  1 settings made for y
  1 settings made for z
Setting up cg style minimization ...
  Unit style    : metal
  Current step  : 27294
Per MPI rank memory allocation (min/avg/max) = 5.441 | 5.816 | 6.074 Mbytes
Step PotEng KinEng TotEng v_fx v_fy v_fz 
   27294   -1152449.4            0   -1152449.4 -0.026852467  0.016680103 -0.038323115 
   27477   -1152449.4            0   -1152449.4 1.3973142e-05 1.7248604e-05 2.0003044e-05 
Loop time of 2.13289 on 104 procs for 183 steps with 288751 atoms

99.9% CPU use with 104 MPI tasks x 1 OpenMP threads

Minimization stats:
  Stopping criterion = energy tolerance
  Energy initial, next-to-last, final = 
     -1152449.42084413  -1152449.42219193  -1152449.42219193
  Force two-norm initial, final = 0.1683319 0.00014002966
  Force max component initial, final = 0.072758883 3.1166314e-05
  Final line search alpha, max atom move = 1.0000000 3.1166314e-05
  Iterations, force evaluations = 183 366

MPI task timing breakdown:
Section |  min time  |  avg time  |  max time  |%varavg| %total
---------------------------------------------------------------
Pair    | 0.54648    | 1.5352     | 2.0124     |  33.6 | 71.98
Neigh   | 0          | 0          | 0          |   0.0 |  0.00
Comm    | 0.032825   | 0.34826    | 1.0401     |  48.8 | 16.33
Output  | 0          | 0          | 0          |   0.0 |  0.00
Modify  | 2.0909e-05 | 0.0030285  | 0.0065304  |   2.6 |  0.14
Other   |            | 0.2464     |            |       | 11.55

Nlocal:        2776.45 ave        3958 max           0 min
Histogram: 8 4 4 0 4 12 8 4 26 34
Nghost:        3879.16 ave        5426 max         232 min
Histogram: 8 0 8 0 16 0 8 8 16 40
Neighs:        79213.5 ave      115304 max           0 min
Histogram: 8 4 4 0 10 6 8 8 24 32

Total # of neighbors = 8238206
Ave neighs/atom = 28.530485
Neighbor list builds = 0
Dangerous builds = 0
The dot product: -7.50217322904008e-08
Setting atom values ...
  1 settings made for x
  1 settings made for y
  1 settings made for z
Setting up cg style minimization ...
  Unit style    : metal
  Current step  : 27477
Per MPI rank memory allocation (min/avg/max) = 5.441 | 5.816 | 6.074 Mbytes
Step PotEng KinEng TotEng v_fx v_fy v_fz 
   27477   -1152449.4            0   -1152449.4 -0.024844864  0.022697712  -0.03551873 
   27727   -1152449.4            0   -1152449.4 -1.5173073e-06 -7.8453289e-07 -2.1743179e-06 
Loop time of 2.913 on 104 procs for 250 steps with 288751 atoms

99.9% CPU use with 104 MPI tasks x 1 OpenMP threads

Minimization stats:
  Stopping criterion = energy tolerance
  Energy initial, next-to-last, final = 
     -1152449.41221705  -1152449.41350926  -1152449.41350926
  Force two-norm initial, final = 0.16592907 8.3436794e-06
  Force max component initial, final = 0.071920668 2.1743179e-06
  Final line search alpha, max atom move = 1.0000000 2.1743179e-06
  Iterations, force evaluations = 250 500

MPI task timing breakdown:
Section |  min time  |  avg time  |  max time  |%varavg| %total
---------------------------------------------------------------
Pair    | 0.74601    | 2.0999     | 2.7488     |  39.4 | 72.09
Neigh   | 0          | 0          | 0          |   0.0 |  0.00
Comm    | 0.045244   | 0.47504    | 1.4265     |  57.4 | 16.31
Output  | 0          | 0          | 0          |   0.0 |  0.00
Modify  | 2.8646e-05 | 0.0041373  | 0.00886    |   3.0 |  0.14
Other   |            | 0.3339     |            |       | 11.46

Nlocal:        2776.45 ave        3958 max           0 min
Histogram: 8 4 4 0 4 12 8 4 26 34
Nghost:        3879.14 ave        5427 max         232 min
Histogram: 8 0 8 0 16 0 8 8 16 40
Neighs:        79213.5 ave      115297 max           0 min
Histogram: 8 4 4 0 10 6 8 8 24 32

Total # of neighbors = 8238207
Ave neighs/atom = 28.530488
Neighbor list builds = 0
Dangerous builds = 0
The dot product: 6.75607517402895e-09
Setting atom values ...
  1 settings made for x
  1 settings made for y
  1 settings made for z
Setting up cg style minimization ...
  Unit style    : metal
  Current step  : 27727
Per MPI rank memory allocation (min/avg/max) = 5.441 | 5.816 | 6.074 Mbytes
Step PotEng KinEng TotEng v_fx v_fy v_fz 
   27727   -1152449.4            0   -1152449.4 -0.021844945  0.031779939 -0.031279271 
   27894   -1152449.4            0   -1152449.4 3.1685839e-05 3.1531485e-05 4.5517995e-05 
Loop time of 1.96265 on 104 procs for 167 steps with 288751 atoms

99.9% CPU use with 104 MPI tasks x 1 OpenMP threads

Minimization stats:
  Stopping criterion = energy tolerance
  Energy initial, next-to-last, final = 
      -1152449.4022327  -1152449.40349293  -1152449.40349293
  Force two-norm initial, final = 0.16487796 0.00019663571
  Force max component initial, final = 0.071621862 4.8537321e-05
  Final line search alpha, max atom move = 1.0000000 4.8537321e-05
  Iterations, force evaluations = 167 334

MPI task timing breakdown:
Section |  min time  |  avg time  |  max time  |%varavg| %total
---------------------------------------------------------------
Pair    | 0.51063    | 1.4061     | 1.8348     |  32.0 | 71.64
Neigh   | 0          | 0          | 0          |   0.0 |  0.00
Comm    | 0.030246   | 0.32059    | 0.9678     |  46.7 | 16.33
Output  | 0          | 0          | 0          |   0.0 |  0.00
Modify  | 1.8924e-05 | 0.0027641  | 0.0059321  |   2.5 |  0.14
Other   |            | 0.2332     |            |       | 11.88

Nlocal:        2776.45 ave        3958 max           0 min
Histogram: 8 4 4 0 4 12 8 4 26 34
Nghost:        3879.14 ave        5427 max         232 min
Histogram: 8 0 8 0 16 0 8 8 16 40
Neighs:        79213.5 ave      115297 max           0 min
Histogram: 8 4 4 0 10 6 8 8 24 32

Total # of neighbors = 8238204
Ave neighs/atom = 28.530478
Neighbor list builds = 0
Dangerous builds = 0
The dot product: -3.21047919977271e-08
Setting atom values ...
  1 settings made for x
  1 settings made for y
  1 settings made for z
Setting up cg style minimization ...
  Unit style    : metal
  Current step  : 27894
Per MPI rank memory allocation (min/avg/max) = 5.441 | 5.816 | 6.074 Mbytes
Step PotEng KinEng TotEng v_fx v_fy v_fz 
   27894   -1152449.4            0   -1152449.4 -0.018203759  0.042858733 -0.026152041 
   28000   -1152449.4            0   -1152449.4 1.8928252e-06 -5.1711002e-06 2.7191791e-06 
   28013   -1152449.4            0   -1152449.4 2.5220874e-06 -9.1849223e-07 3.6240594e-06 
Loop time of 1.39451 on 104 procs for 119 steps with 288751 atoms

99.9% CPU use with 104 MPI tasks x 1 OpenMP threads

Minimization stats:
  Stopping criterion = energy tolerance
  Energy initial, next-to-last, final = 
     -1152449.39132009  -1152449.39281223  -1152449.39281223
  Force two-norm initial, final = 0.16743637 3.2767798e-05
  Force max component initial, final = 0.071378025 3.6240594e-06
  Final line search alpha, max atom move = 1.0000000 3.6240594e-06
  Iterations, force evaluations = 119 238

MPI task timing breakdown:
Section |  min time  |  avg time  |  max time  |%varavg| %total
---------------------------------------------------------------
Pair    | 0.35639    | 1.0025     | 1.316      |  27.3 | 71.89
Neigh   | 0          | 0          | 0          |   0.0 |  0.00
Comm    | 0.021971   | 0.22783    | 0.68097    |  39.5 | 16.34
Output  | 0.00015611 | 0.0001632  | 0.00033597 |   0.0 |  0.01
Modify  | 1.4093e-05 | 0.0019689  | 0.004224   |   2.1 |  0.14
Other   |            | 0.162      |            |       | 11.62

Nlocal:        2776.45 ave        3958 max           0 min
Histogram: 8 4 4 0 4 12 8 4 26 34
Nghost:        3879.14 ave        5426 max         232 min
Histogram: 8 0 8 0 16 0 8 8 16 40
Neighs:        79213.5 ave      115297 max           0 min
Histogram: 8 4 4 0 10 6 8 8 24 32

Total # of neighbors = 8238204
Ave neighs/atom = 28.530478
Neighbor list builds = 0
Dangerous builds = 0
The dot product: -1.31987825899078e-08
Setting atom values ...
  1 settings made for x
  1 settings made for y
  1 settings made for z
Setting up cg style minimization ...
  Unit style    : metal
  Current step  : 28013
Per MPI rank memory allocation (min/avg/max) = 5.441 | 5.816 | 6.074 Mbytes
Step PotEng KinEng TotEng v_fx v_fy v_fz 
   28013   -1152449.4            0   -1152449.4 -0.015157268  0.053135573 -0.022096626 
   28254   -1152449.4            0   -1152449.4 1.7201347e-06 -7.8994365e-07 2.4778735e-06 
Loop time of 2.82184 on 104 procs for 241 steps with 288751 atoms

99.9% CPU use with 104 MPI tasks x 1 OpenMP threads

Minimization stats:
  Stopping criterion = energy tolerance
  Energy initial, next-to-last, final = 
     -1152449.38080665   -1152449.3827946   -1152449.3827946
  Force two-norm initial, final = 0.17128742 1.2760936e-05
  Force max component initial, final = 0.070038475 3.3171257e-06
  Final line search alpha, max atom move = 1.0000000 3.3171257e-06
  Iterations, force evaluations = 241 482

MPI task timing breakdown:
Section |  min time  |  avg time  |  max time  |%varavg| %total
---------------------------------------------------------------
Pair    | 0.72158    | 2.0195     | 2.6597     |  38.6 | 71.57
Neigh   | 0          | 0          | 0          |   0.0 |  0.00
Comm    | 0.042191   | 0.46024    | 1.3783     |  55.9 | 16.31
Output  | 0          | 0          | 0          |   0.0 |  0.00
Modify  | 2.7265e-05 | 0.0039891  | 0.008543   |   3.0 |  0.14
Other   |            | 0.3381     |            |       | 11.98

Nlocal:        2776.45 ave        3958 max           0 min
Histogram: 8 4 4 0 4 12 8 4 26 34
Nghost:        3879.14 ave        5426 max         232 min
Histogram: 8 0 8 0 16 0 8 8 16 40
Neighs:        79213.5 ave      115297 max           0 min
Histogram: 8 4 4 0 10 6 8 8 24 32

Total # of neighbors = 8238206
Ave neighs/atom = 28.530485
Neighbor list builds = 0
Dangerous builds = 0
The dot product: -1.32931723357212e-08
Setting atom values ...
  1 settings made for x
  1 settings made for y
  1 settings made for z
Setting up cg style minimization ...
  Unit style    : metal
  Current step  : 28254
Per MPI rank memory allocation (min/avg/max) = 5.441 | 5.816 | 6.074 Mbytes
Step PotEng KinEng TotEng v_fx v_fy v_fz 
   28254   -1152449.4            0   -1152449.4 -0.014773275  0.052431789 -0.022063773 
   28340   -1152449.4            0   -1152449.4 -1.601503e-05 -2.5738312e-05 -2.2621676e-05 
Loop time of 1.00654 on 104 procs for 86 steps with 288751 atoms

99.9% CPU use with 104 MPI tasks x 1 OpenMP threads

Minimization stats:
  Stopping criterion = energy tolerance
  Energy initial, next-to-last, final = 
     -1152449.37165132  -1152449.37328586  -1152449.37328586
  Force two-norm initial, final = 0.16718211 0.00013614163
  Force max component initial, final = 0.070090202 2.5738312e-05
  Final line search alpha, max atom move = 1.0000000 2.5738312e-05
  Iterations, force evaluations = 86 172

MPI task timing breakdown:
Section |  min time  |  avg time  |  max time  |%varavg| %total
---------------------------------------------------------------
Pair    | 0.2587     | 0.72578    | 0.94968    |  23.2 | 72.11
Neigh   | 0          | 0          | 0          |   0.0 |  0.00
Comm    | 0.015601   | 0.1646     | 0.49907    |  33.8 | 16.35
Output  | 0          | 0          | 0          |   0.0 |  0.00
Modify  | 1.0283e-05 | 0.0014288  | 0.0030716  |   1.8 |  0.14
Other   |            | 0.1147     |            |       | 11.40

Nlocal:        2776.45 ave        3958 max           0 min
Histogram: 8 4 4 0 4 12 8 4 26 34
Nghost:        3879.14 ave        5427 max         232 min
Histogram: 8 0 8 0 16 0 8 8 16 40
Neighs:        79213.5 ave      115297 max           0 min
Histogram: 8 4 4 0 10 6 8 8 24 32

Total # of neighbors = 8238205
Ave neighs/atom = 28.530481
Neighbor list builds = 0
Dangerous builds = 0
The dot product: -3.01196124523139e-07
Setting atom values ...
  1 settings made for x
  1 settings made for y
  1 settings made for z
Setting up cg style minimization ...
  Unit style    : metal
  Current step  : 28340
Per MPI rank memory allocation (min/avg/max) = 5.441 | 5.816 | 6.074 Mbytes
Step PotEng KinEng TotEng v_fx v_fy v_fz 
   28340   -1152449.4            0   -1152449.4 -0.014739652  0.049252357 -0.022313054 
   28425   -1152449.4            0   -1152449.4 2.1650093e-06 2.5698394e-05 2.5315553e-06 
Loop time of 0.995726 on 104 procs for 85 steps with 288751 atoms

99.9% CPU use with 104 MPI tasks x 1 OpenMP threads

Minimization stats:
  Stopping criterion = energy tolerance
  Energy initial, next-to-last, final = 
      -1152449.3622291   -1152449.3636672   -1152449.3636672
  Force two-norm initial, final = 0.16286082 0.00017047149
  Force max component initial, final = 0.069758463 2.5698394e-05
  Final line search alpha, max atom move = 1.0000000 2.5698394e-05
  Iterations, force evaluations = 85 170

MPI task timing breakdown:
Section |  min time  |  avg time  |  max time  |%varavg| %total
---------------------------------------------------------------
Pair    | 0.25476    | 0.71548    | 0.93957    |  23.0 | 71.86
Neigh   | 0          | 0          | 0          |   0.0 |  0.00
Comm    | 0.01465    | 0.16244    | 0.48419    |  33.4 | 16.31
Output  | 0          | 0          | 0          |   0.0 |  0.00
Modify  | 9.911e-06  | 0.0014132  | 0.0030281  |   1.8 |  0.14
Other   |            | 0.1164     |            |       | 11.69

Nlocal:        2776.45 ave        3958 max           0 min
Histogram: 8 4 4 0 4 12 8 4 26 34
Nghost:        3879.14 ave        5427 max         232 min
Histogram: 8 0 8 0 16 0 8 8 16 40
Neighs:        79213.5 ave      115297 max           0 min
Histogram: 8 4 4 0 10 6 8 8 24 32

Total # of neighbors = 8238206
Ave neighs/atom = 28.530485
Neighbor list builds = 0
Dangerous builds = 0
The dot product: 2.27316616808202e-07
Setting atom values ...
  1 settings made for x
  1 settings made for y
  1 settings made for z
Setting up cg style minimization ...
  Unit style    : metal
  Current step  : 28425
Per MPI rank memory allocation (min/avg/max) = 5.441 | 5.816 | 6.074 Mbytes
Step PotEng KinEng TotEng v_fx v_fy v_fz 
   28425   -1152449.4            0   -1152449.4 -0.014170384   0.04809407 -0.021724063 
   28554   -1152449.4            0   -1152449.4 2.7464175e-05 3.5978156e-05 3.8518624e-05 
Loop time of 1.50328 on 104 procs for 129 steps with 288751 atoms

99.9% CPU use with 104 MPI tasks x 1 OpenMP threads

Minimization stats:
  Stopping criterion = energy tolerance
  Energy initial, next-to-last, final = 
     -1152449.35227574  -1152449.35365071  -1152449.35365071
  Force two-norm initial, final = 0.16004991 0.00019715686
  Force max component initial, final = 0.069198472 5.8699303e-05
  Final line search alpha, max atom move = 1.0000000 5.8699303e-05
  Iterations, force evaluations = 129 258

MPI task timing breakdown:
Section |  min time  |  avg time  |  max time  |%varavg| %total
---------------------------------------------------------------
Pair    | 0.38702    | 1.0855     | 1.4189     |  28.3 | 72.21
Neigh   | 0          | 0          | 0          |   0.0 |  0.00
Comm    | 0.023021   | 0.24644    | 0.74548    |  41.2 | 16.39
Output  | 0          | 0          | 0          |   0.0 |  0.00
Modify  | 1.4881e-05 | 0.0021374  | 0.0045846  |   2.2 |  0.14
Other   |            | 0.1693     |            |       | 11.26

Nlocal:        2776.45 ave        3958 max           0 min
Histogram: 8 4 4 0 4 12 8 4 26 34
Nghost:        3879.14 ave        5427 max         232 min
Histogram: 8 0 8 0 16 0 8 8 16 40
Neighs:        79213.5 ave      115297 max           0 min
Histogram: 8 4 4 0 10 6 8 8 24 32

Total # of neighbors = 8238203
Ave neighs/atom = 28.530474
Neighbor list builds = 0
Dangerous builds = 0
The dot product: 2.44876617558646e-07
