LAMMPS (29 Oct 2020)
OMP_NUM_THREADS environment is not set. Defaulting to 1 thread. (../comm.cpp:94)
  using 1 OpenMP thread(s) per MPI task
Reading data file ...
  orthogonal box = (-122.39241 -121.13707 -37.090501) to (122.39241 121.13707 37.090501)
  13 by 4 by 1 MPI processor grid
  reading atoms ...
  288751 atoms
  read_data CPU = 0.451 seconds
199981 atoms in group inner
88770 atoms in group outer
1 atoms in group carbon
Neighbor list info ...
  update every 1 steps, delay 0 steps, check yes
  max neighbors/atom: 2000, page size: 100000
  master list distance cutoff = 5.6
  ghost atom cutoff = 5.6
  binsize = 2.8, bins = 88 87 27
  1 neighbor lists, perpetual/occasional/extra = 1 0 0
  (1) pair eam/alloy, perpetual
      attributes: half, newton on
      pair build: half/bin/atomonly/newton
      stencil: half/bin/3d/newton
      bin: standard
Setting up cg style minimization ...
  Unit style    : metal
  Current step  : 0
Per MPI rank memory allocation (min/avg/max) = 5.465 | 6.344 | 6.728 Mbytes
Step v_fx v_fy v_fz PotEng KinEng TotEng 
       0   0.38824989    -0.479145  -0.60055585   -1152447.8            0   -1152447.8 
     152 3.637197e-05 -9.7560554e-07 -1.7818207e-05   -1152449.5            0   -1152449.5 
Loop time of 3.35445 on 52 procs for 152 steps with 288751 atoms

99.9% CPU use with 52 MPI tasks x 1 OpenMP threads

Minimization stats:
  Stopping criterion = energy tolerance
  Energy initial, next-to-last, final = 
     -1152447.84490653  -1152449.45035282  -1152449.45035282
  Force two-norm initial, final = 9.8174702 0.0001740094
  Force max component initial, final = 5.3084670 3.6371970e-05
  Final line search alpha, max atom move = 1.0000000 3.6371970e-05
  Iterations, force evaluations = 152 303

MPI task timing breakdown:
Section |  min time  |  avg time  |  max time  |%varavg| %total
---------------------------------------------------------------
Pair    | 0.89467    | 2.4421     | 3.188      |  42.6 | 72.80
Neigh   | 4.4593e-05 | 0.0131     | 0.019401   |   4.8 |  0.39
Comm    | 0.045289   | 0.53998    | 1.702      |  65.8 | 16.10
Output  | 0          | 0          | 0          |   0.0 |  0.00
Modify  | 4.8104e-05 | 0.0033531  | 0.0085479  |   3.6 |  0.10
Other   |            | 0.3559     |            |       | 10.61

Nlocal:        5552.90 ave        7910 max           0 min
Histogram: 4 2 2 0 2 6 4 0 15 17
Nghost:        6213.58 ave        8769 max         412 min
Histogram: 4 0 4 0 8 0 4 5 7 20
Neighs:       158427.0 ave      230544 max           0 min
Histogram: 4 2 2 0 5 3 4 4 12 16

Total # of neighbors = 8238222
Ave neighs/atom = 28.530540
Neighbor list builds = 2
Dangerous builds = 0
-0.01 2.01 34.86 -0.0115772530111749 2.01217730248713 34.8569969809279
Total wall time: 0:00:04
