LAMMPS (29 Oct 2020)
OMP_NUM_THREADS environment is not set. Defaulting to 1 thread. (../comm.cpp:94)
  using 1 OpenMP thread(s) per MPI task
OMP_NUM_THREADS environment is not set. Defaulting to 1 thread. (../comm.cpp:94)
  using 1 OpenMP thread(s) per MPI task
Reading data file ...
  orthogonal box = (-122.39241 -121.13707 -37.090501) to (122.39241 121.13707 37.090501)
  13 by 4 by 2 MPI processor grid
  reading atoms ...
  288751 atoms
  read_data CPU = 0.371 seconds
199981 atoms in group inner
88770 atoms in group outer
1 atoms in group carbon
Neighbor list info ...
  update every 1 steps, delay 0 steps, check yes
  max neighbors/atom: 2000, page size: 100000
  master list distance cutoff = 5.6
  ghost atom cutoff = 5.6
  binsize = 2.8, bins = 88 87 27
  1 neighbor lists, perpetual/occasional/extra = 1 0 0
  (1) pair eam/alloy, perpetual
      attributes: half, newton on
      pair build: half/bin/atomonly/newton
      stencil: half/bin/3d/newton
      bin: standard
Setting up cg style minimization ...
  Unit style    : metal
  Current step  : 0
Per MPI rank memory allocation (min/avg/max) = 5.441 | 5.816 | 6.074 Mbytes
Step v_fx v_fy v_fz PotEng KinEng TotEng 
       0    0.1156952   -29.566347    49.654402   -1152433.6            0   -1152433.6 
     207 2.2733962e-06 2.8990668e-06 3.4999651e-06   -1152449.5            0   -1152449.5 
Loop time of 2.41559 on 104 procs for 207 steps with 288751 atoms

99.8% CPU use with 104 MPI tasks x 1 OpenMP threads

Minimization stats:
  Stopping criterion = energy tolerance
  Energy initial, next-to-last, final = 
     -1152433.55785867  -1152449.45035272  -1152449.45035272
  Force two-norm initial, final = 86.724449 2.6315530e-05
  Force max component initial, final = 56.866845 6.5007032e-06
  Final line search alpha, max atom move = 1.0000000 6.5007032e-06
  Iterations, force evaluations = 207 406

MPI task timing breakdown:
Section |  min time  |  avg time  |  max time  |%varavg| %total
---------------------------------------------------------------
Pair    | 0.64611    | 1.7119     | 2.2386     |  34.6 | 70.87
Neigh   | 5.1296e-05 | 0.014716   | 0.021292   |   5.0 |  0.61
Comm    | 0.04124    | 0.39133    | 1.1491     |  51.0 | 16.20
Output  | 0          | 0          | 0          |   0.0 |  0.00
Modify  | 2.3657e-05 | 0.0021894  | 0.0056234  |   2.9 |  0.09
Other   |            | 0.2955     |            |       | 12.23

Nlocal:        2776.45 ave        3959 max           0 min
Histogram: 8 4 4 0 4 12 8 2 28 34
Nghost:        3879.03 ave        5425 max         232 min
Histogram: 8 0 8 0 16 0 8 8 16 40
Neighs:        79213.5 ave      115415 max           0 min
Histogram: 8 4 4 0 10 6 8 8 24 32

Total # of neighbors = 8238207
Ave neighs/atom = 28.530488
Neighbor list builds = 5
Dangerous builds = 0
Setting atom values ...
  1 settings made for x
  1 settings made for y
  1 settings made for z
Setting up cg style minimization ...
  Unit style    : metal
  Current step  : 207
Per MPI rank memory allocation (min/avg/max) = 5.441 | 5.816 | 6.074 Mbytes
Step PotEng KinEng TotEng v_fx v_fy v_fz 
     207   -1152449.4            0   -1152449.4  0.010218888 -0.0083238085 -0.023201688 
     369   -1152449.5            0   -1152449.5 -6.4028341e-07 1.8854894e-05 1.7137068e-05 
Loop time of 1.93529 on 104 procs for 162 steps with 288751 atoms

99.8% CPU use with 104 MPI tasks x 1 OpenMP threads

Minimization stats:
  Stopping criterion = energy tolerance
  Energy initial, next-to-last, final = 
     -1152449.44967153  -1152449.45009688  -1152449.45009688
  Force two-norm initial, final = 0.094760696 0.00016081592
  Force max component initial, final = 0.045879708 2.2995439e-05
  Final line search alpha, max atom move = 1.0000000 2.2995439e-05
  Iterations, force evaluations = 162 324

MPI task timing breakdown:
Section |  min time  |  avg time  |  max time  |%varavg| %total
---------------------------------------------------------------
Pair    | 0.5113     | 1.379      | 1.7777     |  31.0 | 71.26
Neigh   | 0          | 0          | 0          |   0.0 |  0.00
Comm    | 0.032203   | 0.31925    | 0.93695    |  45.6 | 16.50
Output  | 0          | 0          | 0          |   0.0 |  0.00
Modify  | 2.0951e-05 | 0.002681   | 0.0057586  |   2.4 |  0.14
Other   |            | 0.2343     |            |       | 12.11

Nlocal:        2776.45 ave        3960 max           0 min
Histogram: 8 4 4 0 4 12 8 2 28 34
Nghost:        3879.03 ave        5424 max         232 min
Histogram: 8 0 8 0 16 0 8 8 16 40
Neighs:        79213.4 ave      115447 max           0 min
Histogram: 8 4 4 0 10 6 8 8 24 32

Total # of neighbors = 8238197
Ave neighs/atom = 28.530454
Neighbor list builds = 0
Dangerous builds = 0
Setting atom values ...
  1 settings made for x
  1 settings made for y
  1 settings made for z
Setting up cg style minimization ...
  Unit style    : metal
  Current step  : 369
Per MPI rank memory allocation (min/avg/max) = 5.441 | 5.816 | 6.074 Mbytes
Step PotEng KinEng TotEng v_fx v_fy v_fz 
     369   -1152449.4            0   -1152449.4  0.014010782 -0.014700115 -0.040879685 
     560   -1152449.4            0   -1152449.4 -4.6111379e-06 1.5972653e-05 2.3890494e-05 
Loop time of 2.23199 on 104 procs for 191 steps with 288751 atoms

99.9% CPU use with 104 MPI tasks x 1 OpenMP threads

Minimization stats:
  Stopping criterion = energy tolerance
  Energy initial, next-to-last, final = 
     -1152449.44696749  -1152449.44832325  -1152449.44832325
  Force two-norm initial, final = 0.16771574 9.8645031e-05
  Force max component initial, final = 0.088642007 2.3890494e-05
  Final line search alpha, max atom move = 1.0000000 2.3890494e-05
  Iterations, force evaluations = 191 382

MPI task timing breakdown:
Section |  min time  |  avg time  |  max time  |%varavg| %total
---------------------------------------------------------------
Pair    | 0.58336    | 1.6062     | 2.0923     |  34.0 | 71.96
Neigh   | 0          | 0          | 0          |   0.0 |  0.00
Comm    | 0.038083   | 0.36437    | 1.0947     |  50.4 | 16.32
Output  | 0          | 0          | 0          |   0.0 |  0.00
Modify  | 2.3334e-05 | 0.0031522  | 0.0067582  |   2.7 |  0.14
Other   |            | 0.2583     |            |       | 11.57

Nlocal:        2776.45 ave        3960 max           0 min
Histogram: 8 4 4 0 4 12 8 2 28 34
Nghost:        3879.03 ave        5424 max         232 min
Histogram: 8 0 8 0 16 0 8 8 16 40
Neighs:        79213.4 ave      115449 max           0 min
Histogram: 8 4 4 0 10 6 8 8 24 32

Total # of neighbors = 8238196
Ave neighs/atom = 28.530450
Neighbor list builds = 0
Dangerous builds = 0
The dot product: -3.63901660312387e-08
Setting atom values ...
  1 settings made for x
  1 settings made for y
  1 settings made for z
Setting up cg style minimization ...
  Unit style    : metal
  Current step  : 560
Per MPI rank memory allocation (min/avg/max) = 5.441 | 5.816 | 6.074 Mbytes
Step PotEng KinEng TotEng v_fx v_fy v_fz 
     560   -1152449.4            0   -1152449.4  0.010918115 -0.015772508 -0.041101953 
     772   -1152449.4            0   -1152449.4 -8.0051751e-07 2.2274249e-06 4.1259858e-06 
Loop time of 2.45575 on 104 procs for 212 steps with 288751 atoms

99.9% CPU use with 104 MPI tasks x 1 OpenMP threads

Minimization stats:
  Stopping criterion = energy tolerance
  Energy initial, next-to-last, final = 
     -1152449.44350432  -1152449.44484024  -1152449.44484024
  Force two-norm initial, final = 0.16529293 4.7743821e-05
  Force max component initial, final = 0.092680751 4.1259858e-06
  Final line search alpha, max atom move = 1.0000000 4.1259858e-06
  Iterations, force evaluations = 212 424

MPI task timing breakdown:
Section |  min time  |  avg time  |  max time  |%varavg| %total
---------------------------------------------------------------
Pair    | 0.64567    | 1.7878     | 2.3163     |  36.1 | 72.80
Neigh   | 0          | 0          | 0          |   0.0 |  0.00
Comm    | 0.035351   | 0.40583    | 1.2329     |  53.4 | 16.53
Output  | 0          | 0          | 0          |   0.0 |  0.00
Modify  | 2.5443e-05 | 0.0035052  | 0.0074934  |   2.8 |  0.14
Other   |            | 0.2587     |            |       | 10.53

Nlocal:        2776.45 ave        3960 max           0 min
Histogram: 8 4 4 0 4 12 8 2 28 34
Nghost:        3879.01 ave        5424 max         232 min
Histogram: 8 0 8 0 16 0 8 8 16 40
Neighs:        79213.4 ave      115449 max           0 min
Histogram: 8 4 4 0 10 6 8 8 24 32

Total # of neighbors = 8238194
Ave neighs/atom = 28.530443
Neighbor list builds = 0
Dangerous builds = 0
The dot product: -9.68598808040948e-09
Setting atom values ...
  1 settings made for x
  1 settings made for y
  1 settings made for z
Setting up cg style minimization ...
  Unit style    : metal
  Current step  : 772
Per MPI rank memory allocation (min/avg/max) = 5.441 | 5.816 | 6.074 Mbytes
Step PotEng KinEng TotEng v_fx v_fy v_fz 
     772   -1152449.4            0   -1152449.4  0.011010496 -0.013672597 -0.044622563 
     916   -1152449.4            0   -1152449.4 -3.342709e-06 2.9742181e-05 4.3689682e-05 
Loop time of 1.67089 on 104 procs for 144 steps with 288751 atoms

99.9% CPU use with 104 MPI tasks x 1 OpenMP threads

Minimization stats:
  Stopping criterion = energy tolerance
  Energy initial, next-to-last, final = 
     -1152449.43837206  -1152449.43969022  -1152449.43969022
  Force two-norm initial, final = 0.16398944 0.00019832196
  Force max component initial, final = 0.096422187 4.3689682e-05
  Final line search alpha, max atom move = 1.0000000 4.3689682e-05
  Iterations, force evaluations = 144 288

MPI task timing breakdown:
Section |  min time  |  avg time  |  max time  |%varavg| %total
---------------------------------------------------------------
Pair    | 0.43967    | 1.2074     | 1.5747     |  29.6 | 72.26
Neigh   | 0          | 0          | 0          |   0.0 |  0.00
Comm    | 0.025897   | 0.27149    | 0.8136     |  43.8 | 16.25
Output  | 0          | 0          | 0          |   0.0 |  0.00
Modify  | 1.7452e-05 | 0.0023765  | 0.0050817  |   2.3 |  0.14
Other   |            | 0.1896     |            |       | 11.35

Nlocal:        2776.45 ave        3959 max           0 min
Histogram: 8 4 4 0 4 12 8 2 28 34
Nghost:        3879.01 ave        5424 max         232 min
Histogram: 8 0 8 0 16 0 8 8 16 40
Neighs:        79213.4 ave      115427 max           0 min
Histogram: 8 4 4 0 10 6 8 8 24 32

Total # of neighbors = 8238195
Ave neighs/atom = 28.530447
Neighbor list builds = 0
Dangerous builds = 0
The dot product: -1.57884946742432e-07
Setting atom values ...
  1 settings made for x
  1 settings made for y
  1 settings made for z
Setting up cg style minimization ...
  Unit style    : metal
  Current step  : 916
Per MPI rank memory allocation (min/avg/max) = 5.441 | 5.816 | 6.074 Mbytes
Step PotEng KinEng TotEng v_fx v_fy v_fz 
     916   -1152449.4            0   -1152449.4  0.013263481 -0.0082318108 -0.052199869 
    1000   -1152449.4            0   -1152449.4 -5.5017537e-05 -9.5842429e-05 3.6440213e-05 
    1034   -1152449.4            0   -1152449.4 3.3432308e-06 1.2300109e-05 6.7576913e-06 
Loop time of 1.38449 on 104 procs for 118 steps with 288751 atoms

99.9% CPU use with 104 MPI tasks x 1 OpenMP threads

Minimization stats:
  Stopping criterion = energy tolerance
  Energy initial, next-to-last, final = 
     -1152449.43170121  -1152449.43304321  -1152449.43304321
  Force two-norm initial, final = 0.16426436 0.00018621964
  Force max component initial, final = 0.10023045 2.0141657e-05
  Final line search alpha, max atom move = 1.0000000 2.0141657e-05
  Iterations, force evaluations = 118 236

MPI task timing breakdown:
Section |  min time  |  avg time  |  max time  |%varavg| %total
---------------------------------------------------------------
Pair    | 0.36196    | 0.9968     | 1.2988     |  26.8 | 72.00
Neigh   | 0          | 0          | 0          |   0.0 |  0.00
Comm    | 0.024889   | 0.22575    | 0.67407    |  39.5 | 16.31
Output  | 0.00025755 | 0.00026855 | 0.00039081 |   0.0 |  0.02
Modify  | 1.4759e-05 | 0.001948   | 0.0042084  |   2.1 |  0.14
Other   |            | 0.1597     |            |       | 11.54

Nlocal:        2776.45 ave        3957 max           0 min
Histogram: 8 4 4 0 4 12 8 2 28 34
Nghost:        3879.01 ave        5424 max         232 min
Histogram: 8 0 8 0 16 0 8 8 16 40
Neighs:        79213.4 ave      115360 max           0 min
Histogram: 8 4 4 0 10 6 8 8 24 32

Total # of neighbors = 8238195
Ave neighs/atom = 28.530447
Neighbor list builds = 0
Dangerous builds = 0
The dot product: -2.14532495291025e-08
Setting atom values ...
  1 settings made for x
  1 settings made for y
  1 settings made for z
Setting up cg style minimization ...
  Unit style    : metal
  Current step  : 1034
Per MPI rank memory allocation (min/avg/max) = 5.441 | 5.816 | 6.074 Mbytes
Step PotEng KinEng TotEng v_fx v_fy v_fz 
    1034   -1152449.4            0   -1152449.4  0.015119369 0.0011421873 -0.059453638 
    1152   -1152449.4            0   -1152449.4 -1.4725512e-05 -3.6405055e-05 -3.5178481e-06 
Loop time of 1.37783 on 104 procs for 118 steps with 288751 atoms

99.9% CPU use with 104 MPI tasks x 1 OpenMP threads

Minimization stats:
  Stopping criterion = energy tolerance
  Energy initial, next-to-last, final = 
      -1152449.4237326  -1152449.42513866  -1152449.42513866
  Force two-norm initial, final = 0.16505488 0.00014589702
  Force max component initial, final = 0.10387019 3.6405055e-05
  Final line search alpha, max atom move = 1.0000000 3.6405055e-05
  Iterations, force evaluations = 118 236

MPI task timing breakdown:
Section |  min time  |  avg time  |  max time  |%varavg| %total
---------------------------------------------------------------
Pair    | 0.35997    | 0.98907    | 1.2975     |  26.8 | 71.78
Neigh   | 0          | 0          | 0          |   0.0 |  0.00
Comm    | 0.020502   | 0.22298    | 0.66801    |  39.5 | 16.18
Output  | 0          | 0          | 0          |   0.0 |  0.00
Modify  | 1.4397e-05 | 0.0019467  | 0.0041736  |   2.1 |  0.14
Other   |            | 0.1638     |            |       | 11.89

Nlocal:        2776.45 ave        3957 max           0 min
Histogram: 8 4 4 0 4 12 8 2 28 34
Nghost:        3879.01 ave        5424 max         232 min
Histogram: 8 0 8 0 16 0 8 8 16 40
Neighs:        79213.4 ave      115359 max           0 min
Histogram: 8 4 4 0 10 6 8 8 24 32

Total # of neighbors = 8238194
Ave neighs/atom = 28.530443
Neighbor list builds = 0
Dangerous builds = 0
The dot product: -1.2523074886513e-07
Setting atom values ...
  1 settings made for x
  1 settings made for y
  1 settings made for z
Setting up cg style minimization ...
  Unit style    : metal
  Current step  : 1152
Per MPI rank memory allocation (min/avg/max) = 5.441 | 5.816 | 6.074 Mbytes
Step PotEng KinEng TotEng v_fx v_fy v_fz 
    1152   -1152449.4            0   -1152449.4  0.013524631 0.0090578153 -0.061923395 
    1317   -1152449.4            0   -1152449.4 -6.4764292e-07 -9.2185542e-06 -1.8029841e-05 
Loop time of 1.89804 on 104 procs for 165 steps with 288751 atoms

99.9% CPU use with 104 MPI tasks x 1 OpenMP threads

Minimization stats:
  Stopping criterion = energy tolerance
  Energy initial, next-to-last, final = 
     -1152449.41460738  -1152449.41605068  -1152449.41605068
  Force two-norm initial, final = 0.16467795 0.00021066587
  Force max component initial, final = 0.10655319 2.7526600e-05
  Final line search alpha, max atom move = 1.0000000 2.7526600e-05
  Iterations, force evaluations = 165 330

MPI task timing breakdown:
Section |  min time  |  avg time  |  max time  |%varavg| %total
---------------------------------------------------------------
Pair    | 0.50156    | 1.3879     | 1.7976     |  31.7 | 73.12
Neigh   | 0          | 0          | 0          |   0.0 |  0.00
Comm    | 0.028562   | 0.30934    | 0.93466    |  47.5 | 16.30
Output  | 0          | 0          | 0          |   0.0 |  0.00
Modify  | 2.0058e-05 | 0.0027193  | 0.0057964  |   2.5 |  0.14
Other   |            | 0.1981     |            |       | 10.44

Nlocal:        2776.45 ave        3955 max           0 min
Histogram: 8 4 4 0 4 12 8 0 30 34
Nghost:        3879.01 ave        5424 max         232 min
Histogram: 8 0 8 0 16 0 8 8 16 40
Neighs:        79213.4 ave      115290 max           0 min
Histogram: 8 4 4 0 10 6 8 8 24 32

Total # of neighbors = 8238194
Ave neighs/atom = 28.530443
Neighbor list builds = 0
Dangerous builds = 0
The dot product: 1.16824059250906e-07
Setting atom values ...
  1 settings made for x
  1 settings made for y
  1 settings made for z
Setting up cg style minimization ...
  Unit style    : metal
  Current step  : 1317
Per MPI rank memory allocation (min/avg/max) = 5.441 | 5.816 | 6.074 Mbytes
Step PotEng KinEng TotEng v_fx v_fy v_fz 
    1317   -1152449.4            0   -1152449.4  0.009621778  0.013134847 -0.059600484 
    1480   -1152449.4            0   -1152449.4 6.0291367e-06 2.3358211e-05 2.234427e-05 
Loop time of 1.91971 on 104 procs for 163 steps with 288751 atoms

99.9% CPU use with 104 MPI tasks x 1 OpenMP threads

Minimization stats:
  Stopping criterion = energy tolerance
  Energy initial, next-to-last, final = 
     -1152449.40430754  -1152449.40573753  -1152449.40573753
  Force two-norm initial, final = 0.16311936 0.00024056803
  Force max component initial, final = 0.10805491 3.1499314e-05
  Final line search alpha, max atom move = 1.0000000 3.1499314e-05
  Iterations, force evaluations = 163 326

MPI task timing breakdown:
Section |  min time  |  avg time  |  max time  |%varavg| %total
---------------------------------------------------------------
Pair    | 0.49707    | 1.3683     | 1.7979     |  31.6 | 71.28
Neigh   | 0          | 0          | 0          |   0.0 |  0.00
Comm    | 0.029973   | 0.31049    | 0.91987    |  46.1 | 16.17
Output  | 0          | 0          | 0          |   0.0 |  0.00
Modify  | 1.9643e-05 | 0.0026905  | 0.0057815  |   2.5 |  0.14
Other   |            | 0.2382     |            |       | 12.41

Nlocal:        2776.45 ave        3955 max           0 min
Histogram: 8 4 4 0 4 12 8 0 30 34
Nghost:        3879.01 ave        5424 max         232 min
Histogram: 8 0 8 0 16 0 8 8 16 40
Neighs:        79213.4 ave      115290 max           0 min
Histogram: 8 4 4 0 10 6 8 8 24 32

Total # of neighbors = 8238196
Ave neighs/atom = 28.530450
Neighbor list builds = 0
Dangerous builds = 0
The dot product: -5.78596185714721e-08
Setting atom values ...
  1 settings made for x
  1 settings made for y
  1 settings made for z
Setting up cg style minimization ...
  Unit style    : metal
  Current step  : 1480
Per MPI rank memory allocation (min/avg/max) = 5.441 | 5.816 | 6.074 Mbytes
Step PotEng KinEng TotEng v_fx v_fy v_fz 
    1480   -1152449.4            0   -1152449.4 0.0052820808  0.013275546 -0.053845832 
    1689   -1152449.4            0   -1152449.4 -1.7500071e-07 -7.6588683e-07 -2.1881894e-06 
Loop time of 2.4211 on 104 procs for 209 steps with 288751 atoms

99.9% CPU use with 104 MPI tasks x 1 OpenMP threads

Minimization stats:
  Stopping criterion = energy tolerance
  Energy initial, next-to-last, final = 
      -1152449.3927522  -1152449.39413089  -1152449.39413089
  Force two-norm initial, final = 0.16083705 5.0315675e-05
  Force max component initial, final = 0.10856461 6.2184834e-06
  Final line search alpha, max atom move = 1.0000000 6.2184834e-06
  Iterations, force evaluations = 209 418

MPI task timing breakdown:
Section |  min time  |  avg time  |  max time  |%varavg| %total
---------------------------------------------------------------
Pair    | 0.63954    | 1.7644     | 2.2844     |  35.8 | 72.88
Neigh   | 0          | 0          | 0          |   0.0 |  0.00
Comm    | 0.036386   | 0.39804    | 1.2075     |  53.2 | 16.44
Output  | 0          | 0          | 0          |   0.0 |  0.00
Modify  | 2.5463e-05 | 0.0034533  | 0.0074698  |   2.8 |  0.14
Other   |            | 0.2552     |            |       | 10.54

Nlocal:        2776.45 ave        3955 max           0 min
Histogram: 8 4 4 0 4 12 8 0 30 34
Nghost:        3879.03 ave        5424 max         232 min
Histogram: 8 0 8 0 16 0 8 8 16 40
Neighs:        79213.4 ave      115290 max           0 min
Histogram: 8 4 4 0 10 6 8 8 24 32

Total # of neighbors = 8238197
Ave neighs/atom = 28.530454
Neighbor list builds = 0
Dangerous builds = 0
The dot product: 1.32529934719757e-08
Setting atom values ...
  1 settings made for x
  1 settings made for y
  1 settings made for z
Setting up cg style minimization ...
  Unit style    : metal
  Current step  : 1689
Per MPI rank memory allocation (min/avg/max) = 5.441 | 5.816 | 6.074 Mbytes
Step PotEng KinEng TotEng v_fx v_fy v_fz 
    1689   -1152449.4            0   -1152449.4  0.001661538  0.010536099 -0.046750296 
    1915   -1152449.4            0   -1152449.4 8.2557403e-07 3.0956928e-06 3.8019733e-07 
Loop time of 2.63093 on 104 procs for 226 steps with 288751 atoms

99.9% CPU use with 104 MPI tasks x 1 OpenMP threads

Minimization stats:
  Stopping criterion = energy tolerance
  Energy initial, next-to-last, final = 
     -1152449.37985717  -1152449.38117161  -1152449.38117161
  Force two-norm initial, final = 0.15869474 2.3888233e-05
  Force max component initial, final = 0.10855907 3.8073699e-06
  Final line search alpha, max atom move = 1.0000000 3.8073699e-06
  Iterations, force evaluations = 226 452

MPI task timing breakdown:
Section |  min time  |  avg time  |  max time  |%varavg| %total
---------------------------------------------------------------
Pair    | 0.69108    | 1.9008     | 2.4741     |  37.0 | 72.25
Neigh   | 0          | 0          | 0          |   0.0 |  0.00
Comm    | 0.040184   | 0.42817    | 1.2894     |  55.2 | 16.27
Output  | 0          | 0          | 0          |   0.0 |  0.00
Modify  | 2.8366e-05 | 0.0037259  | 0.0079933  |   2.9 |  0.14
Other   |            | 0.2982     |            |       | 11.34

Nlocal:        2776.45 ave        3955 max           0 min
Histogram: 8 4 4 0 4 12 8 0 30 34
Nghost:        3879.03 ave        5424 max         232 min
Histogram: 8 0 8 0 16 0 8 8 16 40
Neighs:        79213.4 ave      115289 max           0 min
Histogram: 8 4 4 0 10 6 8 8 24 32

Total # of neighbors = 8238193
Ave neighs/atom = 28.530440
Neighbor list builds = 0
Dangerous builds = 0
The dot product: 1.2814717317746e-08
Setting atom values ...
  1 settings made for x
  1 settings made for y
  1 settings made for z
Setting up cg style minimization ...
  Unit style    : metal
  Current step  : 1915
Per MPI rank memory allocation (min/avg/max) = 5.441 | 5.816 | 6.074 Mbytes
Step PotEng KinEng TotEng v_fx v_fy v_fz 
    1915   -1152449.4            0   -1152449.4 -0.0008946337 0.0064085735 -0.039625708 
    2000   -1152449.4            0   -1152449.4 2.2533897e-05 7.3052714e-05 8.5528558e-05 
    2163   -1152449.4            0   -1152449.4 -2.9325998e-07 -8.6048163e-07 -1.4642916e-06 
Loop time of 2.85686 on 104 procs for 248 steps with 288751 atoms

99.9% CPU use with 104 MPI tasks x 1 OpenMP threads

Minimization stats:
  Stopping criterion = energy tolerance
  Energy initial, next-to-last, final = 
     -1152449.36556362  -1152449.36682077  -1152449.36682077
  Force two-norm initial, final = 0.15716067 7.6757733e-06
  Force max component initial, final = 0.10843926 1.4642916e-06
  Final line search alpha, max atom move = 1.0000000 1.4642916e-06
  Iterations, force evaluations = 248 496

MPI task timing breakdown:
Section |  min time  |  avg time  |  max time  |%varavg| %total
---------------------------------------------------------------
Pair    | 0.75388    | 2.0873     | 2.7011     |  38.9 | 73.06
Neigh   | 0          | 0          | 0          |   0.0 |  0.00
Comm    | 0.044937   | 0.47363    | 1.4102     |  57.4 | 16.58
Output  | 0.00016201 | 0.00017511 | 0.00029267 |   0.0 |  0.01
Modify  | 2.9647e-05 | 0.0040859  | 0.008844   |   3.0 |  0.14
Other   |            | 0.2916     |            |       | 10.21

Nlocal:        2776.45 ave        3956 max           0 min
Histogram: 8 4 4 0 4 12 8 0 30 34
Nghost:        3879.03 ave        5424 max         232 min
Histogram: 8 0 8 0 16 0 8 8 16 40
Neighs:        79213.4 ave      115320 max           0 min
Histogram: 8 4 4 0 10 6 8 8 24 32

Total # of neighbors = 8238192
Ave neighs/atom = 28.530436
Neighbor list builds = 0
Dangerous builds = 0
The dot product: 5.13847271720442e-09
Setting atom values ...
  1 settings made for x
  1 settings made for y
  1 settings made for z
Setting up cg style minimization ...
  Unit style    : metal
  Current step  : 2163
Per MPI rank memory allocation (min/avg/max) = 5.441 | 5.816 | 6.074 Mbytes
Step PotEng KinEng TotEng v_fx v_fy v_fz 
    2163   -1152449.3            0   -1152449.3 -0.0025833668 0.0017194506 -0.033245628 
    2334   -1152449.4            0   -1152449.4 2.3489536e-06 2.0479097e-05 -2.3808274e-05 
Loop time of 1.97075 on 104 procs for 171 steps with 288751 atoms

99.9% CPU use with 104 MPI tasks x 1 OpenMP threads

Minimization stats:
  Stopping criterion = energy tolerance
  Energy initial, next-to-last, final = 
     -1152449.34984076  -1152449.35105238  -1152449.35105238
  Force two-norm initial, final = 0.15639883 0.00017060623
  Force max component initial, final = 0.10845948 4.4981329e-05
  Final line search alpha, max atom move = 1.0000000 4.4981329e-05
  Iterations, force evaluations = 171 342

MPI task timing breakdown:
Section |  min time  |  avg time  |  max time  |%varavg| %total
---------------------------------------------------------------
Pair    | 0.52129    | 1.4309     | 1.8637     |  32.2 | 72.60
Neigh   | 0          | 0          | 0          |   0.0 |  0.00
Comm    | 0.03013    | 0.31945    | 0.96822    |  48.2 | 16.21
Output  | 0          | 0          | 0          |   0.0 |  0.00
Modify  | 2.0364e-05 | 0.0028195  | 0.0060496  |   2.5 |  0.14
Other   |            | 0.2176     |            |       | 11.04

Nlocal:        2776.45 ave        3956 max           0 min
Histogram: 8 4 4 0 4 12 8 0 30 34
Nghost:        3879.03 ave        5427 max         232 min
Histogram: 8 0 8 0 16 0 8 8 16 40
Neighs:        79213.4 ave      115300 max           0 min
Histogram: 8 4 4 0 10 6 8 8 24 32

Total # of neighbors = 8238192
Ave neighs/atom = 28.530436
Neighbor list builds = 0
Dangerous builds = 0
The dot product: 1.71668838771237e-07
Setting atom values ...
  1 settings made for x
  1 settings made for y
  1 settings made for z
Setting up cg style minimization ...
  Unit style    : metal
  Current step  : 2334
Per MPI rank memory allocation (min/avg/max) = 5.441 | 5.816 | 6.074 Mbytes
Step PotEng KinEng TotEng v_fx v_fy v_fz 
    2334   -1152449.3            0   -1152449.3 -0.0036849988 -0.0030017751 -0.027834713 
    2502   -1152449.3            0   -1152449.3 7.9638434e-06 1.8762247e-05 3.7217956e-05 
Loop time of 1.95088 on 104 procs for 168 steps with 288751 atoms

99.9% CPU use with 104 MPI tasks x 1 OpenMP threads

Minimization stats:
  Stopping criterion = energy tolerance
  Energy initial, next-to-last, final = 
     -1152449.33266794  -1152449.33384904  -1152449.33384904
  Force two-norm initial, final = 0.15633196 0.00018779527
  Force max component initial, final = 0.10873162 3.7217956e-05
  Final line search alpha, max atom move = 1.0000000 3.7217956e-05
  Iterations, force evaluations = 168 336

MPI task timing breakdown:
Section |  min time  |  avg time  |  max time  |%varavg| %total
---------------------------------------------------------------
Pair    | 0.51259    | 1.4134     | 1.8447     |  32.0 | 72.45
Neigh   | 0          | 0          | 0          |   0.0 |  0.00
Comm    | 0.027941   | 0.3186     | 0.9596     |  47.3 | 16.33
Output  | 0          | 0          | 0          |   0.0 |  0.00
Modify  | 2.0198e-05 | 0.0027688  | 0.0059234  |   2.5 |  0.14
Other   |            | 0.2161     |            |       | 11.08

Nlocal:        2776.45 ave        3956 max           0 min
Histogram: 8 4 4 0 4 12 8 0 30 34
Nghost:        3879.01 ave        5425 max         232 min
Histogram: 8 0 8 0 16 0 8 8 16 40
Neighs:        79213.4 ave      115300 max           0 min
Histogram: 8 4 4 0 10 6 8 8 24 32

Total # of neighbors = 8238193
Ave neighs/atom = 28.530440
Neighbor list builds = 0
Dangerous builds = 0
The dot product: -1.17801280539258e-07
Setting atom values ...
  1 settings made for x
  1 settings made for y
  1 settings made for z
Setting up cg style minimization ...
  Unit style    : metal
  Current step  : 2502
Per MPI rank memory allocation (min/avg/max) = 5.441 | 5.816 | 6.074 Mbytes
Step PotEng KinEng TotEng v_fx v_fy v_fz 
    2502   -1152449.3            0   -1152449.3 -0.0044706458 -0.0076313535 -0.023348471 
    2649   -1152449.3            0   -1152449.3 1.5688139e-05 5.5885669e-05 3.5991122e-05 
Loop time of 1.72018 on 104 procs for 147 steps with 288751 atoms

99.9% CPU use with 104 MPI tasks x 1 OpenMP threads

Minimization stats:
  Stopping criterion = energy tolerance
  Energy initial, next-to-last, final = 
     -1152449.31403418  -1152449.31519894  -1152449.31519894
  Force two-norm initial, final = 0.1569082 0.00027533857
  Force max component initial, final = 0.10934123 6.2584474e-05
  Final line search alpha, max atom move = 1.0000000 6.2584474e-05
  Iterations, force evaluations = 147 294

MPI task timing breakdown:
Section |  min time  |  avg time  |  max time  |%varavg| %total
---------------------------------------------------------------
Pair    | 0.4488     | 1.235      | 1.6232     |  30.0 | 71.79
Neigh   | 0          | 0          | 0          |   0.0 |  0.00
Comm    | 0.026623   | 0.28028    | 0.83016    |  43.8 | 16.29
Output  | 0          | 0          | 0          |   0.0 |  0.00
Modify  | 1.776e-05  | 0.0024268  | 0.0052221  |   2.3 |  0.14
Other   |            | 0.2025     |            |       | 11.77

Nlocal:        2776.45 ave        3956 max           0 min
Histogram: 8 4 4 0 4 12 8 0 30 34
Nghost:        3879.01 ave        5424 max         232 min
Histogram: 8 0 8 0 16 0 8 8 16 40
Neighs:        79213.4 ave      115300 max           0 min
Histogram: 8 4 4 0 10 6 8 8 24 32

Total # of neighbors = 8238193
Ave neighs/atom = 28.530440
Neighbor list builds = 0
Dangerous builds = 0
The dot product: -9.38051467052526e-08
Setting atom values ...
  1 settings made for x
  1 settings made for y
  1 settings made for z
Setting up cg style minimization ...
  Unit style    : metal
  Current step  : 2649
Per MPI rank memory allocation (min/avg/max) = 5.441 | 5.816 | 6.074 Mbytes
Step PotEng KinEng TotEng v_fx v_fy v_fz 
    2649   -1152449.3            0   -1152449.3 -0.0051225255 -0.012111123 -0.019677107 
    2826   -1152449.3            0   -1152449.3 -4.9344695e-06 -7.2035698e-06 -2.5323221e-05 
Loop time of 2.04719 on 104 procs for 177 steps with 288751 atoms

99.9% CPU use with 104 MPI tasks x 1 OpenMP threads

Minimization stats:
  Stopping criterion = energy tolerance
  Energy initial, next-to-last, final = 
     -1152449.29393284  -1152449.29509525  -1152449.29509525
  Force two-norm initial, final = 0.15803362 0.00011705246
  Force max component initial, final = 0.11028225 2.5323221e-05
  Final line search alpha, max atom move = 1.0000000 2.5323221e-05
  Iterations, force evaluations = 177 354

MPI task timing breakdown:
Section |  min time  |  avg time  |  max time  |%varavg| %total
---------------------------------------------------------------
Pair    | 0.53901    | 1.4877     | 1.933      |  32.8 | 72.67
Neigh   | 0          | 0          | 0          |   0.0 |  0.00
Comm    | 0.031645   | 0.33538    | 1.0212     |  48.9 | 16.38
Output  | 0          | 0          | 0          |   0.0 |  0.00
Modify  | 2.1276e-05 | 0.0029202  | 0.0062489  |   2.6 |  0.14
Other   |            | 0.2212     |            |       | 10.80

Nlocal:        2776.45 ave        3955 max           0 min
Histogram: 8 4 4 0 4 12 8 0 30 34
Nghost:        3879.01 ave        5424 max         232 min
Histogram: 8 0 8 0 16 0 8 8 16 40
Neighs:        79213.4 ave      115265 max           0 min
Histogram: 8 4 4 0 10 6 8 8 24 32

Total # of neighbors = 8238193
Ave neighs/atom = 28.530440
Neighbor list builds = 0
Dangerous builds = 0
The dot product: 7.43466012092239e-08
Setting atom values ...
  1 settings made for x
  1 settings made for y
  1 settings made for z
Setting up cg style minimization ...
  Unit style    : metal
  Current step  : 2826
Per MPI rank memory allocation (min/avg/max) = 5.441 | 5.816 | 6.074 Mbytes
Step PotEng KinEng TotEng v_fx v_fy v_fz 
    2826   -1152449.3            0   -1152449.3 -0.0058206843  -0.01659585 -0.016835242 
    2999   -1152449.3            0   -1152449.3 -1.3001605e-06 -9.6952786e-07 -7.4638844e-06 
Loop time of 2.01045 on 104 procs for 173 steps with 288751 atoms

99.9% CPU use with 104 MPI tasks x 1 OpenMP threads

Minimization stats:
  Stopping criterion = energy tolerance
  Energy initial, next-to-last, final = 
     -1152449.27236231  -1152449.27353484  -1152449.27353484
  Force two-norm initial, final = 0.1597773 0.00013361449
  Force max component initial, final = 0.11157201 1.2552044e-05
  Final line search alpha, max atom move = 1.0000000 1.2552044e-05
  Iterations, force evaluations = 173 346

MPI task timing breakdown:
Section |  min time  |  avg time  |  max time  |%varavg| %total
---------------------------------------------------------------
Pair    | 0.52643    | 1.4483     | 1.9008     |  32.4 | 72.04
Neigh   | 0          | 0          | 0          |   0.0 |  0.00
Comm    | 0.032091   | 0.32723    | 0.97687    |  47.6 | 16.28
Output  | 0          | 0          | 0          |   0.0 |  0.00
Modify  | 2.0859e-05 | 0.0028597  | 0.0061331  |   2.5 |  0.14
Other   |            | 0.2321     |            |       | 11.54

Nlocal:        2776.45 ave        3955 max           0 min
Histogram: 8 4 4 0 4 12 8 0 30 34
Nghost:        3879.01 ave        5425 max         232 min
Histogram: 8 0 8 0 16 0 8 8 16 40
Neighs:        79213.4 ave      115265 max           0 min
Histogram: 8 4 4 0 10 6 8 8 24 32

Total # of neighbors = 8238191
Ave neighs/atom = 28.530433
Neighbor list builds = 0
Dangerous builds = 0
The dot product: 1.86912142730297e-08
Setting atom values ...
  1 settings made for x
  1 settings made for y
  1 settings made for z
Setting up cg style minimization ...
  Unit style    : metal
  Current step  : 2999
Per MPI rank memory allocation (min/avg/max) = 5.441 | 5.816 | 6.074 Mbytes
Step PotEng KinEng TotEng v_fx v_fy v_fz 
    2999   -1152449.2            0   -1152449.2 -0.0065452542    -0.020907 -0.014273559 
    3000   -1152449.3            0   -1152449.3 0.0010065721 0.0018997097 0.0039440785 
    3174   -1152449.3            0   -1152449.3 -6.4166434e-06 -2.3690583e-05 -9.7460644e-06 
Loop time of 2.02181 on 104 procs for 175 steps with 288751 atoms

99.9% CPU use with 104 MPI tasks x 1 OpenMP threads

Minimization stats:
  Stopping criterion = energy tolerance
  Energy initial, next-to-last, final = 
     -1152449.24932446  -1152449.25051941  -1152449.25051941
  Force two-norm initial, final = 0.16201999 0.00012355858
  Force max component initial, final = 0.11318188 2.3690583e-05
  Final line search alpha, max atom move = 1.0000000 2.3690583e-05
  Iterations, force evaluations = 175 350

MPI task timing breakdown:
Section |  min time  |  avg time  |  max time  |%varavg| %total
---------------------------------------------------------------
Pair    | 0.53478    | 1.4764     | 1.9115     |  32.7 | 73.02
Neigh   | 0          | 0          | 0          |   0.0 |  0.00
Comm    | 0.033993   | 0.33242    | 1.0064     |  48.6 | 16.44
Output  | 7.61e-05   | 8.6545e-05 | 0.00013866 |   0.0 |  0.00
Modify  | 2.119e-05  | 0.002889   | 0.0062385  |   2.5 |  0.14
Other   |            | 0.21       |            |       | 10.39

Nlocal:        2776.45 ave        3955 max           0 min
Histogram: 8 4 4 0 4 12 8 0 30 34
Nghost:        3879.01 ave        5425 max         232 min
Histogram: 8 0 8 0 16 0 8 8 16 40
Neighs:        79213.3 ave      115265 max           0 min
Histogram: 8 4 4 0 10 6 8 8 24 32

Total # of neighbors = 8238188
Ave neighs/atom = 28.530422
Neighbor list builds = 0
Dangerous builds = 0
The dot product: 9.18603624208027e-08
Setting atom values ...
  1 settings made for x
  1 settings made for y
  1 settings made for z
Setting up cg style minimization ...
  Unit style    : metal
  Current step  : 3174
Per MPI rank memory allocation (min/avg/max) = 5.441 | 5.816 | 6.074 Mbytes
Step PotEng KinEng TotEng v_fx v_fy v_fz 
    3174   -1152449.2            0   -1152449.2 -0.0073533995 -0.025008261 -0.012014858 
    3366   -1152449.2            0   -1152449.2 4.3847785e-06 7.1156304e-06 1.7629625e-05 
Loop time of 2.217 on 104 procs for 192 steps with 288751 atoms

99.9% CPU use with 104 MPI tasks x 1 OpenMP threads

Minimization stats:
  Stopping criterion = energy tolerance
  Energy initial, next-to-last, final = 
     -1152449.22482536  -1152449.22605467  -1152449.22605467
  Force two-norm initial, final = 0.16479042 6.5881385e-05
  Force max component initial, final = 0.11509949 1.7629625e-05
  Final line search alpha, max atom move = 1.0000000 1.7629625e-05
  Iterations, force evaluations = 192 384

MPI task timing breakdown:
Section |  min time  |  avg time  |  max time  |%varavg| %total
---------------------------------------------------------------
Pair    | 0.58562    | 1.6093     | 2.0981     |  34.2 | 72.59
Neigh   | 0          | 0          | 0          |   0.0 |  0.00
Comm    | 0.03458    | 0.36102    | 1.0903     |  51.1 | 16.28
Output  | 0          | 0          | 0          |   0.0 |  0.00
Modify  | 2.2984e-05 | 0.0031656  | 0.0067956  |   2.7 |  0.14
Other   |            | 0.2435     |            |       | 10.98

Nlocal:        2776.45 ave        3955 max           0 min
Histogram: 8 4 4 0 4 12 8 0 30 34
Nghost:        3879.05 ave        5425 max         232 min
Histogram: 8 0 8 0 16 0 8 8 16 40
Neighs:        79213.3 ave      115264 max           0 min
Histogram: 8 4 4 0 10 6 8 8 24 32

Total # of neighbors = 8238186
Ave neighs/atom = 28.530415
Neighbor list builds = 0
Dangerous builds = 0
The dot product: -5.65582063369753e-08
Setting atom values ...
  1 settings made for x
  1 settings made for y
  1 settings made for z
Setting up cg style minimization ...
  Unit style    : metal
  Current step  : 3366
Per MPI rank memory allocation (min/avg/max) = 5.441 | 5.816 | 6.074 Mbytes
Step PotEng KinEng TotEng v_fx v_fy v_fz 
    3366   -1152449.2            0   -1152449.2 -0.0082648436 -0.028902197 -0.0099241529 
    3536   -1152449.2            0   -1152449.2 1.1812141e-05 2.4909075e-05 3.6852771e-05 
Loop time of 1.96607 on 104 procs for 170 steps with 288751 atoms

99.9% CPU use with 104 MPI tasks x 1 OpenMP threads

Minimization stats:
  Stopping criterion = energy tolerance
  Energy initial, next-to-last, final = 
     -1152449.19887788  -1152449.20015393  -1152449.20015393
  Force two-norm initial, final = 0.16806234 0.00015279035
  Force max component initial, final = 0.11734772 3.6852771e-05
  Final line search alpha, max atom move = 1.0000000 3.6852771e-05
  Iterations, force evaluations = 170 340

MPI task timing breakdown:
Section |  min time  |  avg time  |  max time  |%varavg| %total
---------------------------------------------------------------
Pair    | 0.521      | 1.4347     | 1.8584     |  32.3 | 72.98
Neigh   | 0          | 0          | 0          |   0.0 |  0.00
Comm    | 0.028679   | 0.32328    | 0.97783    |  47.9 | 16.44
Output  | 0          | 0          | 0          |   0.0 |  0.00
Modify  | 2.016e-05  | 0.0028094  | 0.0060633  |   2.5 |  0.14
Other   |            | 0.2052     |            |       | 10.44

Nlocal:        2776.45 ave        3954 max           0 min
Histogram: 8 4 4 0 4 12 8 0 30 34
Nghost:        3879.09 ave        5425 max         232 min
Histogram: 8 0 8 0 16 0 8 8 16 40
Neighs:        79213.3 ave      115240 max           0 min
Histogram: 8 4 4 0 10 6 8 8 24 32

Total # of neighbors = 8238183
Ave neighs/atom = 28.530405
Neighbor list builds = 0
Dangerous builds = 0
The dot product: -1.78159127859616e-07
Setting atom values ...
  1 settings made for x
  1 settings made for y
  1 settings made for z
Setting up cg style minimization ...
  Unit style    : metal
  Current step  : 3536
Per MPI rank memory allocation (min/avg/max) = 5.441 | 5.816 | 6.074 Mbytes
Step PotEng KinEng TotEng v_fx v_fy v_fz 
    3536   -1152449.2            0   -1152449.2 -0.009667294 -0.034437237 -0.007399031 
    3733   -1152449.2            0   -1152449.2 2.4869109e-06 -2.7477113e-06 1.8712219e-05 
Loop time of 2.2846 on 104 procs for 197 steps with 288751 atoms

99.9% CPU use with 104 MPI tasks x 1 OpenMP threads

Minimization stats:
  Stopping criterion = energy tolerance
  Energy initial, next-to-last, final = 
     -1152449.17151347    -1152449.172863    -1152449.172863
  Force two-norm initial, final = 0.17209403 5.6123830e-05
  Force max component initial, final = 0.11988771 1.8712219e-05
  Final line search alpha, max atom move = 1.0000000 1.8712219e-05
  Iterations, force evaluations = 197 394

MPI task timing breakdown:
Section |  min time  |  avg time  |  max time  |%varavg| %total
---------------------------------------------------------------
Pair    | 0.60032    | 1.6563     | 2.1588     |  34.8 | 72.50
Neigh   | 0          | 0          | 0          |   0.0 |  0.00
Comm    | 0.035527   | 0.37447    | 1.125      |  51.4 | 16.39
Output  | 0          | 0          | 0          |   0.0 |  0.00
Modify  | 2.345e-05  | 0.0032458  | 0.0069318  |   2.7 |  0.14
Other   |            | 0.2505     |            |       | 10.97

Nlocal:        2776.45 ave        3954 max           0 min
Histogram: 8 4 4 0 4 12 8 0 30 34
Nghost:        3879.07 ave        5425 max         232 min
Histogram: 8 0 8 0 16 0 8 8 16 40
Neighs:        79213.3 ave      115240 max           0 min
Histogram: 8 4 4 0 10 6 8 8 24 32

Total # of neighbors = 8238184
Ave neighs/atom = 28.530409
Neighbor list builds = 0
Dangerous builds = 0
The dot product: 9.9411750667323e-09
Setting atom values ...
  1 settings made for x
  1 settings made for y
  1 settings made for z
Setting up cg style minimization ...
  Unit style    : metal
  Current step  : 3733
Per MPI rank memory allocation (min/avg/max) = 5.441 | 5.816 | 6.074 Mbytes
Step PotEng KinEng TotEng v_fx v_fy v_fz 
    3733   -1152449.1            0   -1152449.1 -0.011310839  -0.04212944 -0.00095371056 
    3879   -1152449.1            0   -1152449.1 1.2366112e-05 1.8280861e-05 4.4196188e-05 
Loop time of 1.6835 on 104 procs for 146 steps with 288751 atoms

99.9% CPU use with 104 MPI tasks x 1 OpenMP threads

Minimization stats:
  Stopping criterion = energy tolerance
  Energy initial, next-to-last, final = 
     -1152449.14278007  -1152449.14426439  -1152449.14426439
  Force two-norm initial, final = 0.1767715 0.00013943656
  Force max component initial, final = 0.12296529 4.4196188e-05
  Final line search alpha, max atom move = 1.0000000 4.4196188e-05
  Iterations, force evaluations = 146 292

MPI task timing breakdown:
Section |  min time  |  avg time  |  max time  |%varavg| %total
---------------------------------------------------------------
Pair    | 0.44467    | 1.2269     | 1.5936     |  29.8 | 72.88
Neigh   | 0          | 0          | 0          |   0.0 |  0.00
Comm    | 0.026557   | 0.27484    | 0.82334    |  44.3 | 16.33
Output  | 0          | 0          | 0          |   0.0 |  0.00
Modify  | 1.7589e-05 | 0.0024078  | 0.0051594  |   2.3 |  0.14
Other   |            | 0.1794     |            |       | 10.66

Nlocal:        2776.45 ave        3953 max           0 min
Histogram: 8 4 4 0 4 12 8 0 30 34
Nghost:        3879.03 ave        5425 max         232 min
Histogram: 8 0 8 0 16 0 8 8 16 40
Neighs:        79213.3 ave      115203 max           0 min
Histogram: 8 4 4 0 10 6 8 8 24 32

Total # of neighbors = 8238185
Ave neighs/atom = 28.530412
Neighbor list builds = 0
Dangerous builds = 0
The dot product: -1.62647132930105e-07
Setting atom values ...
  1 settings made for x
  1 settings made for y
  1 settings made for z
Setting up cg style minimization ...
  Unit style    : metal
  Current step  : 3879
Per MPI rank memory allocation (min/avg/max) = 5.441 | 5.816 | 6.074 Mbytes
Step PotEng KinEng TotEng v_fx v_fy v_fz 
    3879   -1152449.1            0   -1152449.1 -0.013528473 -0.054124842  0.014081325 
    4000   -1152449.1            0   -1152449.1 1.1203292e-07 -1.0076439e-05 1.8303063e-05 
    4023   -1152449.1            0   -1152449.1 -5.7882403e-06 -3.4989744e-06 -2.8380728e-05 
Loop time of 1.67024 on 104 procs for 144 steps with 288751 atoms

99.9% CPU use with 104 MPI tasks x 1 OpenMP threads

Minimization stats:
  Stopping criterion = energy tolerance
  Energy initial, next-to-last, final = 
     -1152449.11263164  -1152449.11439743  -1152449.11439743
  Force two-norm initial, final = 0.18417308 0.00010643993
  Force max component initial, final = 0.12705174 2.8380728e-05
  Final line search alpha, max atom move = 1.0000000 2.8380728e-05
  Iterations, force evaluations = 144 288

MPI task timing breakdown:
Section |  min time  |  avg time  |  max time  |%varavg| %total
---------------------------------------------------------------
Pair    | 0.44021    | 1.2074     | 1.5836     |  29.6 | 72.29
Neigh   | 0          | 0          | 0          |   0.0 |  0.00
Comm    | 0.025306   | 0.27159    | 0.81531    |  43.8 | 16.26
Output  | 0.00016068 | 0.0001667  | 0.00029005 |   0.0 |  0.01
Modify  | 1.761e-05  | 0.0023769  | 0.00512    |   2.3 |  0.14
Other   |            | 0.1887     |            |       | 11.30

Nlocal:        2776.45 ave        3953 max           0 min
Histogram: 8 4 4 0 4 12 8 0 30 34
Nghost:        3878.99 ave        5425 max         232 min
Histogram: 8 0 8 0 16 0 8 8 16 40
Neighs:        79213.3 ave      115211 max           0 min
Histogram: 8 4 4 0 10 6 8 8 24 32

Total # of neighbors = 8238184
Ave neighs/atom = 28.530409
Neighbor list builds = 0
Dangerous builds = 0
The dot product: -4.77863144584023e-08
Setting atom values ...
  1 settings made for x
  1 settings made for y
  1 settings made for z
Setting up cg style minimization ...
  Unit style    : metal
  Current step  : 4023
Per MPI rank memory allocation (min/avg/max) = 5.441 | 5.816 | 6.074 Mbytes
Step PotEng KinEng TotEng v_fx v_fy v_fz 
    4023   -1152449.1            0   -1152449.1 -0.017688127 -0.065985583  0.026643422 
    4167   -1152449.1            0   -1152449.1 4.0585886e-06 1.0561262e-05 3.4628258e-06 
Loop time of 1.66123 on 104 procs for 144 steps with 288751 atoms

99.9% CPU use with 104 MPI tasks x 1 OpenMP threads

Minimization stats:
  Stopping criterion = energy tolerance
  Energy initial, next-to-last, final = 
     -1152449.08116548  -1152449.08324054  -1152449.08324054
  Force two-norm initial, final = 0.19354754 5.0093867e-05
  Force max component initial, final = 0.13222053 1.0561262e-05
  Final line search alpha, max atom move = 1.0000000 1.0561262e-05
  Iterations, force evaluations = 144 288

MPI task timing breakdown:
Section |  min time  |  avg time  |  max time  |%varavg| %total
---------------------------------------------------------------
Pair    | 0.4408     | 1.2136     | 1.5719     |  29.6 | 73.05
Neigh   | 0          | 0          | 0          |   0.0 |  0.00
Comm    | 0.0251     | 0.2713     | 0.8162     |  44.2 | 16.33
Output  | 0          | 0          | 0          |   0.0 |  0.00
Modify  | 1.7476e-05 | 0.0023789  | 0.0051278  |   2.3 |  0.14
Other   |            | 0.174      |            |       | 10.47

Nlocal:        2776.45 ave        3952 max           0 min
Histogram: 8 4 4 0 4 12 8 0 30 34
Nghost:        3878.96 ave        5425 max         232 min
Histogram: 8 0 8 0 16 0 8 8 16 40
Neighs:        79213.3 ave      115184 max           0 min
Histogram: 8 4 4 0 10 6 8 8 24 32

Total # of neighbors = 8238183
Ave neighs/atom = 28.530405
Neighbor list builds = 0
Dangerous builds = 0
The dot product: -1.79212140415157e-07
Setting atom values ...
  1 settings made for x
  1 settings made for y
  1 settings made for z
Setting up cg style minimization ...
  Unit style    : metal
  Current step  : 4167
Per MPI rank memory allocation (min/avg/max) = 5.441 | 5.816 | 6.074 Mbytes
Step PotEng KinEng TotEng v_fx v_fy v_fz 
    4167     -1152449            0     -1152449 -0.022638199 -0.074150289  0.036581099 
    4408   -1152449.1            0   -1152449.1 -4.6507304e-08 7.1883773e-07 -2.1859148e-06 
Loop time of 2.81315 on 104 procs for 241 steps with 288751 atoms

99.9% CPU use with 104 MPI tasks x 1 OpenMP threads

Minimization stats:
  Stopping criterion = energy tolerance
  Energy initial, next-to-last, final = 
     -1152449.04846923  -1152449.05080029  -1152449.05080029
  Force two-norm initial, final = 0.20205435 1.5885955e-05
  Force max component initial, final = 0.13795236 3.1779583e-06
  Final line search alpha, max atom move = 1.0000000 3.1779583e-06
  Iterations, force evaluations = 241 482

MPI task timing breakdown:
Section |  min time  |  avg time  |  max time  |%varavg| %total
---------------------------------------------------------------
Pair    | 0.73615    | 2.0174     | 2.645      |  38.3 | 71.71
Neigh   | 0          | 0          | 0          |   0.0 |  0.00
Comm    | 0.044338   | 0.45918    | 1.3683     |  55.9 | 16.32
Output  | 0          | 0          | 0          |   0.0 |  0.00
Modify  | 2.9993e-05 | 0.0039673  | 0.0084749  |   3.0 |  0.14
Other   |            | 0.3326     |            |       | 11.82

Nlocal:        2776.45 ave        3948 max           0 min
Histogram: 8 4 4 0 4 12 8 0 26 38
Nghost:        3878.96 ave        5425 max         232 min
Histogram: 8 0 8 0 16 0 8 8 16 40
Neighs:        79213.3 ave      115071 max           0 min
Histogram: 8 4 4 0 10 6 8 8 24 32

Total # of neighbors = 8238181
Ave neighs/atom = 28.530398
Neighbor list builds = 0
Dangerous builds = 0
The dot product: -3.24971155876738e-08
Setting atom values ...
  1 settings made for x
  1 settings made for y
  1 settings made for z
Setting up cg style minimization ...
  Unit style    : metal
  Current step  : 4408
Per MPI rank memory allocation (min/avg/max) = 5.441 | 5.816 | 6.074 Mbytes
Step PotEng KinEng TotEng v_fx v_fy v_fz 
    4408     -1152449            0     -1152449 -0.026867082 -0.078342725  0.050638478 
    4530     -1152449            0     -1152449 -4.8056253e-06 -3.5443958e-05 8.089867e-05 
Loop time of 1.42133 on 104 procs for 122 steps with 288751 atoms

99.9% CPU use with 104 MPI tasks x 1 OpenMP threads

Minimization stats:
  Stopping criterion = energy tolerance
  Energy initial, next-to-last, final = 
     -1152449.01462732  -1152449.01720838  -1152449.01720838
  Force two-norm initial, final = 0.2102449 0.00034268247
  Force max component initial, final = 0.14386362 8.0898670e-05
  Final line search alpha, max atom move = 1.0000000 8.0898670e-05
  Iterations, force evaluations = 122 244

MPI task timing breakdown:
Section |  min time  |  avg time  |  max time  |%varavg| %total
---------------------------------------------------------------
Pair    | 0.37879    | 1.036      | 1.3362     |  27.2 | 72.89
Neigh   | 0          | 0          | 0          |   0.0 |  0.00
Comm    | 0.020404   | 0.2352     | 0.71137    |  40.3 | 16.55
Output  | 0          | 0          | 0          |   0.0 |  0.00
Modify  | 1.4748e-05 | 0.0020195  | 0.0042996  |   2.1 |  0.14
Other   |            | 0.1481     |            |       | 10.42

Nlocal:        2776.45 ave        3942 max           0 min
Histogram: 8 4 4 0 4 12 8 0 26 38
Nghost:        3878.89 ave        5425 max         232 min
Histogram: 8 0 8 0 16 0 8 8 16 40
Neighs:        79213.2 ave      114857 max           0 min
Histogram: 8 4 4 0 10 6 8 8 22 34

Total # of neighbors = 8238178
Ave neighs/atom = 28.530388
Neighbor list builds = 0
Dangerous builds = 0
The dot product: 1.72728955535547e-06
Setting atom values ...
  1 settings made for x
  1 settings made for y
  1 settings made for z
Setting up cg style minimization ...
  Unit style    : metal
  Current step  : 4530
Per MPI rank memory allocation (min/avg/max) = 5.441 | 5.816 | 6.074 Mbytes
Step PotEng KinEng TotEng v_fx v_fy v_fz 
    4530     -1152449            0     -1152449 -0.029920934 -0.077732313  0.068581081 
    4742     -1152449            0     -1152449 -3.9224162e-06 -7.1538703e-06 -5.3719985e-06 
Loop time of 2.44208 on 104 procs for 212 steps with 288751 atoms

99.9% CPU use with 104 MPI tasks x 1 OpenMP threads

Minimization stats:
  Stopping criterion = energy tolerance
  Energy initial, next-to-last, final = 
      -1152448.9799051  -1152448.98264565  -1152448.98264565
  Force two-norm initial, final = 0.21829196 6.5529365e-05
  Force max component initial, final = 0.14987383 1.5831991e-05
  Final line search alpha, max atom move = 1.0000000 1.5831991e-05
  Iterations, force evaluations = 212 424

MPI task timing breakdown:
Section |  min time  |  avg time  |  max time  |%varavg| %total
---------------------------------------------------------------
Pair    | 0.64889    | 1.7749     | 2.3043     |  35.8 | 72.68
Neigh   | 0          | 0          | 0          |   0.0 |  0.00
Comm    | 0.038217   | 0.3977     | 1.1951     |  53.4 | 16.29
Output  | 0          | 0          | 0          |   0.0 |  0.00
Modify  | 2.5372e-05 | 0.0034954  | 0.0075118  |   2.8 |  0.14
Other   |            | 0.266      |            |       | 10.89

Nlocal:        2776.45 ave        3934 max           0 min
Histogram: 8 4 4 0 4 12 8 0 26 38
Nghost:        3878.91 ave        5425 max         232 min
Histogram: 8 0 8 0 16 0 8 8 16 40
Neighs:        79213.2 ave      114602 max           0 min
Histogram: 8 4 4 0 8 8 8 8 20 36

Total # of neighbors = 8238178
Ave neighs/atom = 28.530388
Neighbor list builds = 0
Dangerous builds = 0
The dot product: 6.67732504291084e-08
Setting atom values ...
  1 settings made for x
  1 settings made for y
  1 settings made for z
Setting up cg style minimization ...
  Unit style    : metal
  Current step  : 4742
Per MPI rank memory allocation (min/avg/max) = 5.441 | 5.816 | 6.074 Mbytes
Step PotEng KinEng TotEng v_fx v_fy v_fz 
    4742   -1152448.9            0   -1152448.9 -0.031282291 -0.070908904  0.081142396 
    4971     -1152449            0     -1152449 8.5212529e-06 1.1602182e-05 3.728797e-05 
Loop time of 2.67349 on 104 procs for 229 steps with 288751 atoms

99.9% CPU use with 104 MPI tasks x 1 OpenMP threads

Minimization stats:
  Stopping criterion = energy tolerance
  Energy initial, next-to-last, final = 
     -1152448.94449148  -1152448.98009123  -1152448.98009123
  Force two-norm initial, final = 0.22389078 0.00028038106
  Force max component initial, final = 0.15553872 8.4849343e-05
  Final line search alpha, max atom move = 1.0000000 8.4849343e-05
  Iterations, force evaluations = 229 458

MPI task timing breakdown:
Section |  min time  |  avg time  |  max time  |%varavg| %total
---------------------------------------------------------------
Pair    | 0.70227    | 1.9346     | 2.5033     |  37.6 | 72.36
Neigh   | 1.0615e-05 | 0.0029575  | 0.0042596  |   2.2 |  0.11
Comm    | 0.040525   | 0.43934    | 1.3162     |  54.9 | 16.43
Output  | 0          | 0          | 0          |   0.0 |  0.00
Modify  | 2.6906e-05 | 0.0037747  | 0.0080865  |   2.9 |  0.14
Other   |            | 0.2928     |            |       | 10.95

Nlocal:        2776.45 ave        3931 max           0 min
Histogram: 8 4 4 0 4 12 8 0 26 38
Nghost:        3878.89 ave        5426 max         232 min
Histogram: 8 0 8 0 16 0 8 8 16 40
Neighs:        79213.2 ave      114496 max           0 min
Histogram: 8 4 4 0 8 8 8 8 20 36

Total # of neighbors = 8238175
Ave neighs/atom = 28.530377
Neighbor list builds = 1
Dangerous builds = 0
The dot product: 1.9990665181094e-06
Setting atom values ...
  1 settings made for x
  1 settings made for y
  1 settings made for z
Setting up cg style minimization ...
  Unit style    : metal
  Current step  : 4971
Per MPI rank memory allocation (min/avg/max) = 5.441 | 5.816 | 6.074 Mbytes
Step PotEng KinEng TotEng v_fx v_fy v_fz 
    4971     -1152449            0     -1152449 -0.032781188 -0.041804103   0.13714234 
    5000     -1152449            0     -1152449 -0.00017767257 -0.0004803212 -0.0015156515 
    5176     -1152449            0     -1152449 5.9197859e-06 9.4153247e-06 -8.1525928e-06 
Loop time of 2.3772 on 104 procs for 205 steps with 288751 atoms

99.9% CPU use with 104 MPI tasks x 1 OpenMP threads

Minimization stats:
  Stopping criterion = energy tolerance
  Energy initial, next-to-last, final = 
     -1152448.95772533  -1152448.96150376  -1152448.96150376
  Force two-norm initial, final = 0.25372653 0.00011575345
  Force max component initial, final = 0.16589854 1.9326005e-05
  Final line search alpha, max atom move = 1.0000000 1.9326005e-05
  Iterations, force evaluations = 205 410

MPI task timing breakdown:
Section |  min time  |  avg time  |  max time  |%varavg| %total
---------------------------------------------------------------
Pair    | 0.62814    | 1.7218     | 2.2489     |  35.4 | 72.43
Neigh   | 0          | 0          | 0          |   0.0 |  0.00
Comm    | 0.037578   | 0.38671    | 1.1648     |  52.6 | 16.27
Output  | 0.00021029 | 0.00022042 | 0.00030874 |   0.0 |  0.01
Modify  | 2.3997e-05 | 0.0033778  | 0.0072267  |   2.7 |  0.14
Other   |            | 0.2651     |            |       | 11.15

Nlocal:        2776.45 ave        3951 max           0 min
Histogram: 8 4 4 0 4 12 8 0 30 34
Nghost:        3879.05 ave        5425 max         232 min
Histogram: 8 0 8 0 16 0 8 8 16 40
Neighs:        79213.3 ave      115149 max           0 min
Histogram: 8 4 4 0 10 6 8 8 24 32

Total # of neighbors = 8238183
Ave neighs/atom = 28.530405
Neighbor list builds = 0
Dangerous builds = 0
The dot product: -3.25866250123168e-07
Setting atom values ...
  1 settings made for x
  1 settings made for y
  1 settings made for z
Setting up cg style minimization ...
  Unit style    : metal
  Current step  : 5176
Per MPI rank memory allocation (min/avg/max) = 5.441 | 5.816 | 6.074 Mbytes
Step PotEng KinEng TotEng v_fx v_fy v_fz 
    5176   -1152448.9            0   -1152448.9  -0.01802107 -0.016474404  0.067427629 
    5391   -1152448.9            0   -1152448.9 1.3093511e-06 2.4917787e-06 1.4339815e-06 
Loop time of 2.52346 on 104 procs for 215 steps with 288751 atoms

99.9% CPU use with 104 MPI tasks x 1 OpenMP threads

Minimization stats:
  Stopping criterion = energy tolerance
  Energy initial, next-to-last, final = 
     -1152448.93904792  -1152448.94140464  -1152448.94140464
  Force two-norm initial, final = 0.2234239 3.5359132e-05
  Force max component initial, final = 0.16891939 4.2134221e-06
  Final line search alpha, max atom move = 1.0000000 4.2134221e-06
  Iterations, force evaluations = 215 430

MPI task timing breakdown:
Section |  min time  |  avg time  |  max time  |%varavg| %total
---------------------------------------------------------------
Pair    | 0.65537    | 1.8129     | 2.3486     |  36.3 | 71.84
Neigh   | 0          | 0          | 0          |   0.0 |  0.00
Comm    | 0.041688   | 0.41282    | 1.2195     |  53.2 | 16.36
Output  | 0          | 0          | 0          |   0.0 |  0.00
Modify  | 2.6267e-05 | 0.0035463  | 0.0076539  |   2.8 |  0.14
Other   |            | 0.2942     |            |       | 11.66

Nlocal:        2776.45 ave        3945 max           0 min
Histogram: 8 4 4 0 4 12 8 0 28 36
Nghost:        3879.05 ave        5424 max         232 min
Histogram: 8 0 8 0 16 0 8 8 16 40
Neighs:        79213.3 ave      114990 max           0 min
Histogram: 8 4 4 0 10 6 8 8 24 32

Total # of neighbors = 8238185
Ave neighs/atom = 28.530412
Neighbor list builds = 0
Dangerous builds = 0
The dot product: 8.2803458285426e-09
Setting atom values ...
  1 settings made for x
  1 settings made for y
  1 settings made for z
Setting up cg style minimization ...
  Unit style    : metal
  Current step  : 5391
Per MPI rank memory allocation (min/avg/max) = 5.441 | 5.816 | 6.074 Mbytes
Step PotEng KinEng TotEng v_fx v_fy v_fz 
    5391   -1152448.9            0   -1152448.9  -0.01025736 -0.0068337657  0.041072495 
    5532   -1152448.9            0   -1152448.9 -4.8492882e-06 -9.1164753e-06 -4.4398099e-06 
Loop time of 1.63779 on 104 procs for 141 steps with 288751 atoms

99.9% CPU use with 104 MPI tasks x 1 OpenMP threads

Minimization stats:
  Stopping criterion = energy tolerance
  Energy initial, next-to-last, final = 
     -1152448.91896627  -1152448.92125841  -1152448.92125841
  Force two-norm initial, final = 0.22099674 0.00016770128
  Force max component initial, final = 0.17127876 9.1164753e-06
  Final line search alpha, max atom move = 1.0000000 9.1164753e-06
  Iterations, force evaluations = 141 282

MPI task timing breakdown:
Section |  min time  |  avg time  |  max time  |%varavg| %total
---------------------------------------------------------------
Pair    | 0.43184    | 1.1851     | 1.552      |  29.3 | 72.36
Neigh   | 0          | 0          | 0          |   0.0 |  0.00
Comm    | 0.024932   | 0.26731    | 0.80084    |  43.3 | 16.32
Output  | 0          | 0          | 0          |   0.0 |  0.00
Modify  | 1.7099e-05 | 0.0023245  | 0.0049748  |   2.3 |  0.14
Other   |            | 0.1831     |            |       | 11.18

Nlocal:        2776.45 ave        3945 max           0 min
Histogram: 8 4 4 0 4 12 8 0 28 36
Nghost:        3879.05 ave        5424 max         232 min
Histogram: 8 0 8 0 16 0 8 8 16 40
Neighs:        79213.3 ave      114990 max           0 min
Histogram: 8 4 4 0 10 6 8 8 24 32

Total # of neighbors = 8238184
Ave neighs/atom = 28.530409
Neighbor list builds = 0
Dangerous builds = 0
The dot product: -1.74131329160631e-08
Setting atom values ...
  1 settings made for x
  1 settings made for y
  1 settings made for z
Setting up cg style minimization ...
  Unit style    : metal
  Current step  : 5532
Per MPI rank memory allocation (min/avg/max) = 5.441 | 5.816 | 6.074 Mbytes
Step PotEng KinEng TotEng v_fx v_fy v_fz 
    5532   -1152448.9            0   -1152448.9 -0.0069906568 -0.0033487494  0.029878514 
    5681   -1152448.9            0   -1152448.9 -3.1744877e-06 -9.9838731e-06 -1.7525661e-05 
Loop time of 1.73071 on 104 procs for 149 steps with 288751 atoms

99.9% CPU use with 104 MPI tasks x 1 OpenMP threads

Minimization stats:
  Stopping criterion = energy tolerance
  Energy initial, next-to-last, final = 
     -1152448.89898726  -1152448.90095182  -1152448.90095182
  Force two-norm initial, final = 0.22063419 0.000207785
  Force max component initial, final = 0.17368109 6.9676312e-05
  Final line search alpha, max atom move = 1.0000000 6.9676312e-05
  Iterations, force evaluations = 149 298

MPI task timing breakdown:
Section |  min time  |  avg time  |  max time  |%varavg| %total
---------------------------------------------------------------
Pair    | 0.46507    | 1.2578     | 1.6242     |  29.9 | 72.68
Neigh   | 0          | 0          | 0          |   0.0 |  0.00
Comm    | 0.027931   | 0.28422    | 0.85693    |  44.6 | 16.42
Output  | 0          | 0          | 0          |   0.0 |  0.00
Modify  | 1.7264e-05 | 0.0024609  | 0.0052862  |   2.3 |  0.14
Other   |            | 0.1862     |            |       | 10.76

Nlocal:        2776.45 ave        3945 max           0 min
Histogram: 8 4 4 0 4 12 8 0 28 36
Nghost:        3879.07 ave        5424 max         232 min
Histogram: 8 0 8 0 16 0 8 8 16 40
Neighs:        79213.3 ave      114989 max           0 min
Histogram: 8 4 4 0 10 6 8 8 24 32

Total # of neighbors = 8238182
Ave neighs/atom = 28.530402
Neighbor list builds = 0
Dangerous builds = 0
The dot product: -7.51226447951434e-08
Setting atom values ...
  1 settings made for x
  1 settings made for y
  1 settings made for z
Setting up cg style minimization ...
  Unit style    : metal
  Current step  : 5681
Per MPI rank memory allocation (min/avg/max) = 5.441 | 5.816 | 6.074 Mbytes
Step PotEng KinEng TotEng v_fx v_fy v_fz 
    5681   -1152448.9            0   -1152448.9 -0.0048855545 -0.0023186963  0.019842412 
    5870   -1152448.9            0   -1152448.9 3.720875e-06 4.978829e-06 -3.8940037e-06 
Loop time of 2.18798 on 104 procs for 189 steps with 288751 atoms

99.9% CPU use with 104 MPI tasks x 1 OpenMP threads

Minimization stats:
  Stopping criterion = energy tolerance
  Energy initial, next-to-last, final = 
     -1152448.87753705    -1152448.879348    -1152448.879348
  Force two-norm initial, final = 0.21938294 8.9139137e-05
  Force max component initial, final = 0.17593205 2.0890306e-05
  Final line search alpha, max atom move = 1.0000000 2.0890306e-05
  Iterations, force evaluations = 189 378

MPI task timing breakdown:
Section |  min time  |  avg time  |  max time  |%varavg| %total
---------------------------------------------------------------
Pair    | 0.57533    | 1.5813     | 2.0741     |  33.9 | 72.27
Neigh   | 0          | 0          | 0          |   0.0 |  0.00
Comm    | 0.034056   | 0.35617    | 1.061      |  49.9 | 16.28
Output  | 0          | 0          | 0          |   0.0 |  0.00
Modify  | 2.2435e-05 | 0.003114   | 0.006659   |   2.6 |  0.14
Other   |            | 0.2474     |            |       | 11.31

Nlocal:        2776.45 ave        3942 max           0 min
Histogram: 8 4 4 0 4 12 8 0 28 36
Nghost:        3879.05 ave        5424 max         232 min
Histogram: 8 0 8 0 16 0 8 8 16 40
Neighs:        79213.3 ave      114887 max           0 min
Histogram: 8 4 4 0 10 6 8 8 22 34

Total # of neighbors = 8238180
Ave neighs/atom = 28.530395
Neighbor list builds = 0
Dangerous builds = 0
The dot product: -7.48868893058367e-09
Setting atom values ...
  1 settings made for x
  1 settings made for y
  1 settings made for z
Setting up cg style minimization ...
  Unit style    : metal
  Current step  : 5870
Per MPI rank memory allocation (min/avg/max) = 5.441 | 5.816 | 6.074 Mbytes
Step PotEng KinEng TotEng v_fx v_fy v_fz 
    5870   -1152448.9            0   -1152448.9 -0.0033901557 -0.0016827649  0.013221479 
    6000   -1152448.9            0   -1152448.9 -1.0261615e-07 1.1903902e-05 4.1223194e-05 
    6088   -1152448.9            0   -1152448.9 5.6611781e-07 1.7713971e-06 2.8815129e-06 
Loop time of 2.50594 on 104 procs for 218 steps with 288751 atoms

99.9% CPU use with 104 MPI tasks x 1 OpenMP threads

Minimization stats:
  Stopping criterion = energy tolerance
  Energy initial, next-to-last, final = 
     -1152448.85391075  -1152448.85583644  -1152448.85583644
  Force two-norm initial, final = 0.22340582 4.7388392e-05
  Force max component initial, final = 0.17823668 1.6742359e-05
  Final line search alpha, max atom move = 1.0000000 1.6742359e-05
  Iterations, force evaluations = 218 436

MPI task timing breakdown:
Section |  min time  |  avg time  |  max time  |%varavg| %total
---------------------------------------------------------------
Pair    | 0.66354    | 1.8371     | 2.3731     |  36.6 | 73.31
Neigh   | 0          | 0          | 0          |   0.0 |  0.00
Comm    | 0.03756    | 0.41189    | 1.2455     |  54.4 | 16.44
Output  | 0.00011524 | 0.00011837 | 0.0002391  |   0.0 |  0.00
Modify  | 2.5665e-05 | 0.0035919  | 0.0077238  |   2.8 |  0.14
Other   |            | 0.2532     |            |       | 10.11

Nlocal:        2776.45 ave        3940 max           0 min
Histogram: 8 4 4 0 4 12 8 0 28 36
Nghost:        3879.03 ave        5424 max         232 min
Histogram: 8 0 8 0 16 0 8 8 16 40
Neighs:        79213.3 ave      114810 max           0 min
Histogram: 8 4 4 0 10 6 8 8 22 34

Total # of neighbors = 8238179
Ave neighs/atom = 28.530391
Neighbor list builds = 0
Dangerous builds = 0
The dot product: 3.14118108151497e-09
Setting atom values ...
  1 settings made for x
  1 settings made for y
  1 settings made for z
Setting up cg style minimization ...
  Unit style    : metal
  Current step  : 6088
Per MPI rank memory allocation (min/avg/max) = 5.441 | 5.816 | 6.074 Mbytes
Step PotEng KinEng TotEng v_fx v_fy v_fz 
    6088   -1152448.8            0   -1152448.8 -0.0025768226 -0.0013616513 0.0097119318 
    6264   -1152448.8            0   -1152448.8 -1.8955039e-06 -1.7607578e-06 4.5742387e-06 
Loop time of 2.03002 on 104 procs for 176 steps with 288751 atoms

99.9% CPU use with 104 MPI tasks x 1 OpenMP threads

Minimization stats:
  Stopping criterion = energy tolerance
  Energy initial, next-to-last, final = 
     -1152448.82815945   -1152448.8301969   -1152448.8301969
  Force two-norm initial, final = 0.22808941 0.00019642272
  Force max component initial, final = 0.18053377 5.3009004e-05
  Final line search alpha, max atom move = 1.0000000 5.3009004e-05
  Iterations, force evaluations = 176 352

MPI task timing breakdown:
Section |  min time  |  avg time  |  max time  |%varavg| %total
---------------------------------------------------------------
Pair    | 0.53527    | 1.474      | 1.918      |  32.8 | 72.61
Neigh   | 0          | 0          | 0          |   0.0 |  0.00
Comm    | 0.03325    | 0.33133    | 1.0022     |  48.7 | 16.32
Output  | 0          | 0          | 0          |   0.0 |  0.00
Modify  | 2.0728e-05 | 0.0028998  | 0.0062205  |   2.5 |  0.14
Other   |            | 0.2218     |            |       | 10.93

Nlocal:        2776.45 ave        3937 max           0 min
Histogram: 8 4 4 0 4 12 8 0 28 36
Nghost:        3879.01 ave        5424 max         232 min
Histogram: 8 0 8 0 16 0 8 8 16 40
Neighs:        79213.2 ave      114702 max           0 min
Histogram: 8 4 4 0 9 7 8 8 22 34

Total # of neighbors = 8238176
Ave neighs/atom = 28.530381
Neighbor list builds = 0
Dangerous builds = 0
The dot product: -1.86569845321696e-09
Setting atom values ...
  1 settings made for x
  1 settings made for y
  1 settings made for z
Setting up cg style minimization ...
  Unit style    : metal
  Current step  : 6264
Per MPI rank memory allocation (min/avg/max) = 5.441 | 5.816 | 6.074 Mbytes
Step PotEng KinEng TotEng v_fx v_fy v_fz 
    6264   -1152448.8            0   -1152448.8 -0.0021561448 -0.001297283  0.007606573 
    6485   -1152448.8            0   -1152448.8 4.2602883e-08 -1.7173671e-07 -8.1683479e-07 
Loop time of 2.5444 on 104 procs for 221 steps with 288751 atoms

99.9% CPU use with 104 MPI tasks x 1 OpenMP threads

Minimization stats:
  Stopping criterion = energy tolerance
  Energy initial, next-to-last, final = 
     -1152448.80017045  -1152448.80230699  -1152448.80230699
  Force two-norm initial, final = 0.23267396 4.6848434e-05
  Force max component initial, final = 0.18284754 1.3336608e-05
  Final line search alpha, max atom move = 1.0000000 1.3336608e-05
  Iterations, force evaluations = 221 442

MPI task timing breakdown:
Section |  min time  |  avg time  |  max time  |%varavg| %total
---------------------------------------------------------------
Pair    | 0.67073    | 1.8635     | 2.4082     |  36.8 | 73.24
Neigh   | 0          | 0          | 0          |   0.0 |  0.00
Comm    | 0.038008   | 0.41808    | 1.2728     |  54.9 | 16.43
Output  | 0          | 0          | 0          |   0.0 |  0.00
Modify  | 2.598e-05  | 0.0036476  | 0.007839   |   2.9 |  0.14
Other   |            | 0.2591     |            |       | 10.18

Nlocal:        2776.45 ave        3931 max           0 min
Histogram: 8 4 4 0 4 12 8 0 26 38
Nghost:        3879.05 ave        5425 max         232 min
Histogram: 8 0 8 0 16 0 8 8 16 40
Neighs:        79213.2 ave      114519 max           0 min
Histogram: 8 4 4 0 8 8 8 8 20 36

Total # of neighbors = 8238176
Ave neighs/atom = 28.530381
Neighbor list builds = 0
Dangerous builds = 0
The dot product: 1.35596896970938e-10
Setting atom values ...
  1 settings made for x
  1 settings made for y
  1 settings made for z
Setting up cg style minimization ...
  Unit style    : metal
  Current step  : 6485
Per MPI rank memory allocation (min/avg/max) = 5.441 | 5.816 | 6.074 Mbytes
Step PotEng KinEng TotEng v_fx v_fy v_fz 
    6485   -1152448.8            0   -1152448.8 -0.0020785594 -0.0015288995   0.00643148 
    6660   -1152448.8            0   -1152448.8 -3.791675e-06 -1.4622313e-05 -2.825864e-05 
Loop time of 2.01603 on 104 procs for 175 steps with 288751 atoms

99.9% CPU use with 104 MPI tasks x 1 OpenMP threads

Minimization stats:
  Stopping criterion = energy tolerance
  Energy initial, next-to-last, final = 
     -1152448.76987105  -1152448.77208186  -1152448.77208186
  Force two-norm initial, final = 0.23656714 0.00021953766
  Force max component initial, final = 0.18507636 7.5971221e-05
  Final line search alpha, max atom move = 1.0000000 7.5971221e-05
  Iterations, force evaluations = 175 350

MPI task timing breakdown:
Section |  min time  |  avg time  |  max time  |%varavg| %total
---------------------------------------------------------------
Pair    | 0.53403    | 1.4666     | 1.9095     |  32.6 | 72.75
Neigh   | 0          | 0          | 0          |   0.0 |  0.00
Comm    | 0.030898   | 0.32909    | 0.98757    |  48.5 | 16.32
Output  | 0          | 0          | 0          |   0.0 |  0.00
Modify  | 2.0175e-05 | 0.0028851  | 0.0062167  |   2.5 |  0.14
Other   |            | 0.2175     |            |       | 10.79

Nlocal:        2776.45 ave        3931 max           0 min
Histogram: 8 4 4 0 4 12 8 0 26 38
Nghost:        3879.03 ave        5425 max         232 min
Histogram: 8 0 8 0 16 0 8 8 16 40
Neighs:        79213.2 ave      114523 max           0 min
Histogram: 8 4 4 0 8 8 8 8 20 36

Total # of neighbors = 8238169
Ave neighs/atom = 28.530357
Neighbor list builds = 0
Dangerous builds = 0
The dot product: 2.36369755156805e-09
Setting atom values ...
  1 settings made for x
  1 settings made for y
  1 settings made for z
Setting up cg style minimization ...
  Unit style    : metal
  Current step  : 6660
Per MPI rank memory allocation (min/avg/max) = 5.441 | 5.816 | 6.074 Mbytes
Step PotEng KinEng TotEng v_fx v_fy v_fz 
    6660   -1152448.7            0   -1152448.7 -0.0022036875 -0.0019511938 0.0057539824 
    6791   -1152448.7            0   -1152448.7 1.0302576e-06 9.731841e-06 2.720227e-05 
Loop time of 1.50617 on 104 procs for 131 steps with 288751 atoms

99.9% CPU use with 104 MPI tasks x 1 OpenMP threads

Minimization stats:
  Stopping criterion = energy tolerance
  Energy initial, next-to-last, final = 
     -1152448.73720481  -1152448.73946679  -1152448.73946679
  Force two-norm initial, final = 0.2397008 0.00026986959
  Force max component initial, final = 0.18734037 0.00010099504
  Final line search alpha, max atom move = 1.0000000 0.00010099504
  Iterations, force evaluations = 131 262

MPI task timing breakdown:
Section |  min time  |  avg time  |  max time  |%varavg| %total
---------------------------------------------------------------
Pair    | 0.40056    | 1.1028     | 1.4251     |  28.3 | 73.22
Neigh   | 0          | 0          | 0          |   0.0 |  0.00
Comm    | 0.022846   | 0.24594    | 0.74895    |  42.4 | 16.33
Output  | 0          | 0          | 0          |   0.0 |  0.00
Modify  | 1.5581e-05 | 0.0021632  | 0.0046465  |   2.2 |  0.14
Other   |            | 0.1553     |            |       | 10.31

Nlocal:        2776.45 ave        3930 max           0 min
Histogram: 8 4 4 0 4 12 8 0 26 38
Nghost:        3879.07 ave        5425 max         232 min
Histogram: 8 0 8 0 16 0 8 8 16 40
Neighs:        79213.1 ave      114482 max           0 min
Histogram: 8 4 4 0 8 8 8 8 20 36

Total # of neighbors = 8238166
Ave neighs/atom = 28.530346
Neighbor list builds = 0
Dangerous builds = 0
The dot product: -1.14342468237695e-08
Setting atom values ...
  1 settings made for x
  1 settings made for y
  1 settings made for z
Setting up cg style minimization ...
  Unit style    : metal
  Current step  : 6791
Per MPI rank memory allocation (min/avg/max) = 5.441 | 5.816 | 6.074 Mbytes
Step PotEng KinEng TotEng v_fx v_fy v_fz 
    6791   -1152448.7            0   -1152448.7 -0.002468367 -0.0024398577  0.005643241 
    6926   -1152448.7            0   -1152448.7 -6.4402392e-06 -5.8554006e-06 1.6461416e-05 
Loop time of 1.56525 on 104 procs for 135 steps with 288751 atoms

99.9% CPU use with 104 MPI tasks x 1 OpenMP threads

Minimization stats:
  Stopping criterion = energy tolerance
  Energy initial, next-to-last, final = 
     -1152448.70214199  -1152448.70443452  -1152448.70443452
  Force two-norm initial, final = 0.24215497 0.00029057859
  Force max component initial, final = 0.18967691 9.5299743e-05
  Final line search alpha, max atom move = 1.0000000 9.5299743e-05
  Iterations, force evaluations = 135 270

MPI task timing breakdown:
Section |  min time  |  avg time  |  max time  |%varavg| %total
---------------------------------------------------------------
Pair    | 0.41202    | 1.1336     | 1.4834     |  28.7 | 72.42
Neigh   | 0          | 0          | 0          |   0.0 |  0.00
Comm    | 0.023564   | 0.2558     | 0.76667    |  42.4 | 16.34
Output  | 0          | 0          | 0          |   0.0 |  0.00
Modify  | 1.5969e-05 | 0.0022297  | 0.0048203  |   2.2 |  0.14
Other   |            | 0.1736     |            |       | 11.09

Nlocal:        2776.45 ave        3930 max           0 min
Histogram: 8 4 4 0 4 12 8 0 26 38
Nghost:        3879.06 ave        5425 max         232 min
Histogram: 8 0 8 0 16 0 8 8 16 40
Neighs:        79213.1 ave      114482 max           0 min
Histogram: 8 4 4 0 8 8 8 8 20 36

Total # of neighbors = 8238166
Ave neighs/atom = 28.530346
Neighbor list builds = 0
Dangerous builds = 0
The dot product: -1.88229000360319e-08
Setting atom values ...
  1 settings made for x
  1 settings made for y
  1 settings made for z
Setting up cg style minimization ...
  Unit style    : metal
  Current step  : 6926
Per MPI rank memory allocation (min/avg/max) = 5.441 | 5.816 | 6.074 Mbytes
Step PotEng KinEng TotEng v_fx v_fy v_fz 
    6926   -1152448.7            0   -1152448.7 -0.0028847731 -0.0030602154 0.0059514763 
    7000   -1152448.7            0   -1152448.7 -3.9961038e-06 2.6127281e-05 0.00011213564 
    7116   -1152448.7            0   -1152448.7 4.0309373e-07 1.2962498e-06 2.1402392e-06 
Loop time of 2.19121 on 104 procs for 190 steps with 288751 atoms

99.9% CPU use with 104 MPI tasks x 1 OpenMP threads

Minimization stats:
  Stopping criterion = energy tolerance
  Energy initial, next-to-last, final = 
     -1152448.66467569  -1152448.66698142  -1152448.66698142
  Force two-norm initial, final = 0.24410272 0.0001507258
  Force max component initial, final = 0.19208285 5.3649067e-05
  Final line search alpha, max atom move = 1.0000000 5.3649067e-05
  Iterations, force evaluations = 190 380

MPI task timing breakdown:
Section |  min time  |  avg time  |  max time  |%varavg| %total
---------------------------------------------------------------
Pair    | 0.57813    | 1.6011     | 2.0655     |  34.1 | 73.07
Neigh   | 0          | 0          | 0          |   0.0 |  0.00
Comm    | 0.033384   | 0.36037    | 1.0783     |  50.7 | 16.45
Output  | 0.00011406 | 0.00011774 | 0.0002193  |   0.0 |  0.01
Modify  | 2.2532e-05 | 0.0031325  | 0.0067399  |   2.7 |  0.14
Other   |            | 0.2265     |            |       | 10.34

Nlocal:        2776.45 ave        3930 max           0 min
Histogram: 8 4 4 0 4 12 8 0 26 38
Nghost:        3879.00 ave        5425 max         232 min
Histogram: 8 0 8 0 16 0 8 8 16 40
Neighs:        79213.1 ave      114482 max           0 min
Histogram: 8 4 4 0 8 8 8 8 20 36

Total # of neighbors = 8238163
Ave neighs/atom = 28.530336
Neighbor list builds = 0
Dangerous builds = 0
The dot product: -7.81698412882296e-10
Setting atom values ...
  1 settings made for x
  1 settings made for y
  1 settings made for z
Setting up cg style minimization ...
  Unit style    : metal
  Current step  : 7116
Per MPI rank memory allocation (min/avg/max) = 5.441 | 5.816 | 6.074 Mbytes
Step PotEng KinEng TotEng v_fx v_fy v_fz 
    7116   -1152448.6            0   -1152448.6 -0.0034318101 -0.0037638836 0.0067298951 
    7306   -1152448.6            0   -1152448.6 -1.2897175e-06 -1.3409903e-06 2.7820356e-06 
[...]

Nlocal:        2776.45 ave        3943 max           0 min
Histogram: 8 4 4 0 4 12 8 0 28 36
Nghost:        3879.05 ave        5424 max         232 min
Histogram: 8 0 8 0 16 0 8 8 16 40
Neighs:        79213.3 ave      114917 max           0 min
Histogram: 8 4 4 0 10 6 8 8 22 34

Total # of neighbors = 8238180
Ave neighs/atom = 28.530395
Neighbor list builds = 0
Dangerous builds = 0
The dot product: -1.43884139764952e-07
Setting atom values ...
  1 settings made for x
  1 settings made for y
  1 settings made for z
Setting up cg style minimization ...
  Unit style    : metal
  Current step  : 5272
Per MPI rank memory allocation (min/avg/max) = 5.441 | 5.816 | 6.074 Mbytes
Step PotEng KinEng TotEng v_fx v_fy v_fz 
    5272   -1152448.9            0   -1152448.9 -0.0042148235 -0.0026312769     0.014678 
    5478   -1152448.9            0   -1152448.9 -2.7869356e-06 -8.9714308e-06 -1.5082089e-05 
Loop time of 2.38443 on 104 procs for 206 steps with 288751 atoms

99.9% CPU use with 104 MPI tasks x 1 OpenMP threads

Minimization stats:
  Stopping criterion = energy tolerance
  Energy initial, next-to-last, final = 
     -1152448.85637397  -1152448.85828911  -1152448.85828911
  Force two-norm initial, final = 0.22311901 7.1335104e-05
  Force max component initial, final = 0.17809871 2.1086821e-05
  Final line search alpha, max atom move = 1.0000000 2.1086821e-05
  Iterations, force evaluations = 206 412

MPI task timing breakdown:
Section |  min time  |  avg time  |  max time  |%varavg| %total
---------------------------------------------------------------
Pair    | 0.62487    | 1.7284     | 2.2556     |  35.5 | 72.49
Neigh   | 0          | 0          | 0          |   0.0 |  0.00
Comm    | 0.034986   | 0.39128    | 1.1827     |  52.7 | 16.41
Output  | 0          | 0          | 0          |   0.0 |  0.00
Modify  | 2.5654e-05 | 0.0033969  | 0.007249   |   2.8 |  0.14
Other   |            | 0.2613     |            |       | 10.96

Nlocal:        2776.45 ave        3940 max           0 min
Histogram: 8 4 4 0 4 12 8 0 28 36
Nghost:        3879.03 ave        5424 max         232 min
Histogram: 8 0 8 0 16 0 8 8 16 40
Neighs:        79213.3 ave      114810 max           0 min
Histogram: 8 4 4 0 10 6 8 8 22 34

Total # of neighbors = 8238179
Ave neighs/atom = 28.530391
Neighbor list builds = 0
Dangerous builds = 0
The dot product: -1.8533954711116e-08
Setting atom values ...
  1 settings made for x
  1 settings made for y
  1 settings made for z
Setting up cg style minimization ...
  Unit style    : metal
  Current step  : 5478
Per MPI rank memory allocation (min/avg/max) = 5.441 | 5.816 | 6.074 Mbytes
Step PotEng KinEng TotEng v_fx v_fy v_fz 
    5478   -1152448.8            0   -1152448.8 -0.0029018302 -0.0017092585  0.010357792 
    5612   -1152448.8            0   -1152448.8 -2.1887385e-06 -3.7290259e-06 -4.5715607e-07 
Loop time of 1.57999 on 104 procs for 134 steps with 288751 atoms

99.9% CPU use with 104 MPI tasks x 1 OpenMP threads

Minimization stats:
  Stopping criterion = energy tolerance
  Energy initial, next-to-last, final = 
     -1152448.83084337  -1152448.83286949  -1152448.83286949
  Force two-norm initial, final = 0.22764374 0.00022048371
  Force max component initial, final = 0.18030557 4.4567558e-05
  Final line search alpha, max atom move = 1.0000000 4.4567558e-05
  Iterations, force evaluations = 134 268

MPI task timing breakdown:
Section |  min time  |  avg time  |  max time  |%varavg| %total
---------------------------------------------------------------
Pair    | 0.40747    | 1.1277     | 1.4866     |  28.6 | 71.38
Neigh   | 0          | 0          | 0          |   0.0 |  0.00
Comm    | 0.022747   | 0.25992    | 0.76563    |  41.5 | 16.45
Output  | 0          | 0          | 0          |   0.0 |  0.00
Modify  | 1.7203e-05 | 0.0022179  | 0.004706   |   2.2 |  0.14
Other   |            | 0.1901     |            |       | 12.03

Nlocal:        2776.45 ave        3937 max           0 min
Histogram: 8 4 4 0 4 12 8 0 28 36
Nghost:        3879.01 ave        5424 max         232 min
Histogram: 8 0 8 0 16 0 8 8 16 40
Neighs:        79213.2 ave      114702 max           0 min
Histogram: 8 4 4 0 9 7 8 8 22 34

Total # of neighbors = 8238177
Ave neighs/atom = 28.530384
Neighbor list builds = 0
Dangerous builds = 0
The dot product: -3.19772608280686e-09
Setting atom values ...
  1 settings made for x
  1 settings made for y
  1 settings made for z
Setting up cg style minimization ...
  Unit style    : metal
  Current step  : 5612
Per MPI rank memory allocation (min/avg/max) = 5.441 | 5.816 | 6.074 Mbytes
Step PotEng KinEng TotEng v_fx v_fy v_fz 
    5612   -1152448.8            0   -1152448.8 -0.0022721675 -0.0014168636 0.0078506972 
    5820   -1152448.8            0   -1152448.8 1.9202108e-06 3.3731811e-06 7.1735511e-07 
Loop time of 2.39284 on 104 procs for 208 steps with 288751 atoms

99.9% CPU use with 104 MPI tasks x 1 OpenMP threads

Minimization stats:
  Stopping criterion = energy tolerance
  Energy initial, next-to-last, final = 
     -1152448.80308209  -1152448.80520995  -1152448.80520995
  Force two-norm initial, final = 0.23224199 7.2645752e-05
  Force max component initial, final = 0.18261013 3.0149494e-05
  Final line search alpha, max atom move = 1.0000000 3.0149494e-05
  Iterations, force evaluations = 208 416

MPI task timing breakdown:
Section |  min time  |  avg time  |  max time  |%varavg| %total
---------------------------------------------------------------
Pair    | 0.62989    | 1.7414     | 2.2661     |  35.7 | 72.78
Neigh   | 0          | 0          | 0          |   0.0 |  0.00
Comm    | 0.034819   | 0.3901     | 1.1799     |  53.1 | 16.30
Output  | 0          | 0          | 0          |   0.0 |  0.00
Modify  | 2.5752e-05 | 0.0034303  | 0.0072674  |   2.8 |  0.14
Other   |            | 0.2579     |            |       | 10.78

Nlocal:        2776.45 ave        3931 max           0 min
Histogram: 8 4 4 0 4 12 8 0 26 38
Nghost:        3879.01 ave        5424 max         232 min
Histogram: 8 0 8 0 16 0 8 8 16 40
Neighs:        79213.2 ave      114519 max           0 min
Histogram: 8 4 4 0 8 8 8 8 20 36

Total # of neighbors = 8238177
Ave neighs/atom = 28.530384
Neighbor list builds = 0
Dangerous builds = 0
The dot product: 3.18204665898281e-09
Setting atom values ...
  1 settings made for x
  1 settings made for y
  1 settings made for z
Setting up cg style minimization ...
  Unit style    : metal
  Current step  : 5820
Per MPI rank memory allocation (min/avg/max) = 5.441 | 5.816 | 6.074 Mbytes
Step PotEng KinEng TotEng v_fx v_fy v_fz 
    5820   -1152448.8            0   -1152448.8 -0.0021152599 -0.001538229 0.0066020819 
    5957   -1152448.8            0   -1152448.8 1.8294734e-07 4.1851317e-07 3.9375244e-07 
Loop time of 1.6045 on 104 procs for 137 steps with 288751 atoms

99.9% CPU use with 104 MPI tasks x 1 OpenMP threads

Minimization stats:
  Stopping criterion = energy tolerance
  Energy initial, next-to-last, final = 
     -1152448.77301759  -1152448.77522199  -1152448.77522199
  Force two-norm initial, final = 0.23624266 0.0002089763
  Force max component initial, final = 0.18488912 5.8083710e-05
  Final line search alpha, max atom move = 1.0000000 5.8083710e-05
  Iterations, force evaluations = 137 274

MPI task timing breakdown:
Section |  min time  |  avg time  |  max time  |%varavg| %total
---------------------------------------------------------------
Pair    | 0.41429    | 1.1485     | 1.5222     |  29.0 | 71.58
Neigh   | 0          | 0          | 0          |   0.0 |  0.00
Comm    | 0.023531   | 0.26203    | 0.78305    |  42.3 | 16.33
Output  | 0          | 0          | 0          |   0.0 |  0.00
Modify  | 1.715e-05  | 0.0022623  | 0.0048046  |   2.2 |  0.14
Other   |            | 0.1917     |            |       | 11.95

Nlocal:        2776.45 ave        3931 max           0 min
Histogram: 8 4 4 0 4 12 8 0 26 38
Nghost:        3879.03 ave        5425 max         232 min
Histogram: 8 0 8 0 16 0 8 8 16 40
Neighs:        79213.2 ave      114523 max           0 min
Histogram: 8 4 4 0 8 8 8 8 20 36

Total # of neighbors = 8238169
Ave neighs/atom = 28.530357
Neighbor list builds = 0
Dangerous builds = 0
The dot product: 1.9115455294385e-10
Setting atom values ...
  1 settings made for x
  1 settings made for y
  1 settings made for z
Setting up cg style minimization ...
  Unit style    : metal
  Current step  : 5957
Per MPI rank memory allocation (min/avg/max) = 5.441 | 5.816 | 6.074 Mbytes
Step PotEng KinEng TotEng v_fx v_fy v_fz 
    5957   -1152448.7            0   -1152448.7 -0.0021905282 -0.0019138914 0.0058030929 
    6000   -1152448.7            0   -1152448.7 -2.3970152e-05 -7.038431e-05 -0.0001040587 
    6146   -1152448.7            0   -1152448.7 7.3850661e-06 1.2010162e-05 -7.2878784e-07 
Loop time of 2.18185 on 104 procs for 189 steps with 288751 atoms

99.9% CPU use with 104 MPI tasks x 1 OpenMP threads

Minimization stats:
  Stopping criterion = energy tolerance
  Energy initial, next-to-last, final = 
     -1152448.74059031  -1152448.74284873  -1152448.74284873
  Force two-norm initial, final = 0.23942781 0.00014780927
  Force max component initial, final = 0.18712455 5.6295166e-05
  Final line search alpha, max atom move = 1.0000000 5.6295166e-05
  Iterations, force evaluations = 189 378

MPI task timing breakdown:
Section |  min time  |  avg time  |  max time  |%varavg| %total
---------------------------------------------------------------
Pair    | 0.57531    | 1.584      | 2.0656     |  34.0 | 72.60
Neigh   | 0          | 0          | 0          |   0.0 |  0.00
Comm    | 0.032017   | 0.35597    | 1.0739     |  50.4 | 16.32
Output  | 0.00018197 | 0.00019261 | 0.00031048 |   0.0 |  0.01
Modify  | 2.346e-05  | 0.0031261  | 0.0066074  |   2.6 |  0.14
Other   |            | 0.2385     |            |       | 10.93

Nlocal:        2776.45 ave        3930 max           0 min
Histogram: 8 4 4 0 4 12 8 0 26 38
Nghost:        3879.03 ave        5425 max         232 min
Histogram: 8 0 8 0 16 0 8 8 16 40
Neighs:        79213.1 ave      114482 max           0 min
Histogram: 8 4 4 0 8 8 8 8 20 36

Total # of neighbors = 8238166
Ave neighs/atom = 28.530346
Neighbor list builds = 0
Dangerous builds = 0
The dot product: 1.22470032556389e-08
Setting atom values ...
  1 settings made for x
  1 settings made for y
  1 settings made for z
Setting up cg style minimization ...
  Unit style    : metal
  Current step  : 6146
Per MPI rank memory allocation (min/avg/max) = 5.441 | 5.816 | 6.074 Mbytes
Step PotEng KinEng TotEng v_fx v_fy v_fz 
    6146   -1152448.7            0   -1152448.7 -0.0024513151 -0.0023817328 0.0057375432 
    6312   -1152448.7            0   -1152448.7 -2.1320029e-07 1.5308976e-06 6.4112949e-06 
Loop time of 1.91689 on 104 procs for 166 steps with 288751 atoms

99.9% CPU use with 104 MPI tasks x 1 OpenMP threads

Minimization stats:
  Stopping criterion = energy tolerance
  Energy initial, next-to-last, final = 
     -1152448.70576937  -1152448.70805959  -1152448.70805959
  Force two-norm initial, final = 0.24197071 0.00020507084
  Force max component initial, final = 0.18948331 6.8131483e-05
  Final line search alpha, max atom move = 1.0000000 6.8131483e-05
  Iterations, force evaluations = 166 332

MPI task timing breakdown:
Section |  min time  |  avg time  |  max time  |%varavg| %total
---------------------------------------------------------------
Pair    | 0.50516    | 1.3905     | 1.8161     |  31.8 | 72.54
Neigh   | 0          | 0          | 0          |   0.0 |  0.00
Comm    | 0.027815   | 0.31501    | 0.94554    |  46.9 | 16.43
Output  | 0          | 0          | 0          |   0.0 |  0.00
Modify  | 2.0817e-05 | 0.0027359  | 0.0058158  |   2.5 |  0.14
Other   |            | 0.2086     |            |       | 10.88

Nlocal:        2776.45 ave        3930 max           0 min
Histogram: 8 4 4 0 4 12 8 0 26 38
Nghost:        3879.11 ave        5425 max         232 min
Histogram: 8 0 8 0 16 0 8 8 16 40
Neighs:        79213.1 ave      114482 max           0 min
Histogram: 8 4 4 0 8 8 8 8 20 36

Total # of neighbors = 8238165
Ave neighs/atom = 28.530343
Neighbor list builds = 0
Dangerous builds = 0
The dot product: -3.85807733710889e-09
Setting atom values ...
  1 settings made for x
  1 settings made for y
  1 settings made for z
Setting up cg style minimization ...
  Unit style    : metal
  Current step  : 6312
Per MPI rank memory allocation (min/avg/max) = 5.441 | 5.816 | 6.074 Mbytes
Step PotEng KinEng TotEng v_fx v_fy v_fz 
    6312   -1152448.7            0   -1152448.7 -0.0028381402 -0.0029861686 0.0059308903 
    6486   -1152448.7            0   -1152448.7 -2.5039678e-06 -5.5045677e-06 -4.5779791e-06 
Loop time of 2.02795 on 104 procs for 174 steps with 288751 atoms

99.9% CPU use with 104 MPI tasks x 1 OpenMP threads

Minimization stats:
  Stopping criterion = energy tolerance
  Energy initial, next-to-last, final = 
     -1152448.66854286  -1152448.67084875  -1152448.67084875
  Force two-norm initial, final = 0.24405682 0.00026248069
  Force max component initial, final = 0.19200646 9.2077489e-05
  Final line search alpha, max atom move = 1.0000000 9.2077489e-05
  Iterations, force evaluations = 174 348

MPI task timing breakdown:
Section |  min time  |  avg time  |  max time  |%varavg| %total
---------------------------------------------------------------
Pair    | 0.53241    | 1.4615     | 1.9166     |  32.5 | 72.07
Neigh   | 0          | 0          | 0          |   0.0 |  0.00
Comm    | 0.029752   | 0.3312     | 0.98982    |  47.9 | 16.33
Output  | 0          | 0          | 0          |   0.0 |  0.00
Modify  | 2.2138e-05 | 0.0028742  | 0.0061191  |   2.5 |  0.14
Other   |            | 0.2323     |            |       | 11.46

Nlocal:        2776.45 ave        3930 max           0 min
Histogram: 8 4 4 0 4 12 8 0 26 38
Nghost:        3879.04 ave        5425 max         232 min
Histogram: 8 0 8 0 16 0 8 8 16 40
Neighs:        79213.1 ave      114482 max           0 min
Histogram: 8 4 4 0 8 8 8 8 20 36

Total # of neighbors = 8238163
Ave neighs/atom = 28.530336
Neighbor list builds = 0
Dangerous builds = 0
The dot product: -3.21783987310763e-10
Setting atom values ...
  1 settings made for x
  1 settings made for y
  1 settings made for z
Setting up cg style minimization ...
  Unit style    : metal
  Current step  : 6486
Per MPI rank memory allocation (min/avg/max) = 5.441 | 5.816 | 6.074 Mbytes
Step PotEng KinEng TotEng v_fx v_fy v_fz 
    6486   -1152448.6            0   -1152448.6 -0.0033631571   -0.0036963 0.0065614588 
    6620   -1152448.6            0   -1152448.6 -6.5904193e-06 -9.9640729e-06 3.5064804e-06 
Loop time of 1.5577 on 104 procs for 134 steps with 288751 atoms

99.9% CPU use with 104 MPI tasks x 1 OpenMP threads

Minimization stats:
  Stopping criterion = energy tolerance
  Energy initial, next-to-last, final = 
     -1152448.62892384     -1152448.63123     -1152448.63123
  Force two-norm initial, final = 0.24570178 0.00024889808
  Force max component initial, final = 0.19446172 9.1577593e-05
  Final line search alpha, max atom move = 1.0000000 9.1577593e-05
  Iterations, force evaluations = 134 268

MPI task timing breakdown:
Section |  min time  |  avg time  |  max time  |%varavg| %total
---------------------------------------------------------------
Pair    | 0.407      | 1.1231     | 1.4775     |  28.6 | 72.10
Neigh   | 0          | 0          | 0          |   0.0 |  0.00
Comm    | 0.022434   | 0.25478    | 0.76279    |  42.0 | 16.36
Output  | 0          | 0          | 0          |   0.0 |  0.00
Modify  | 1.7157e-05 | 0.0022137  | 0.0047231  |   2.2 |  0.14
Other   |            | 0.1776     |            |       | 11.40

Nlocal:        2776.45 ave        3930 max           0 min
Histogram: 8 4 4 0 4 12 8 0 26 38
Nghost:        3878.99 ave        5425 max         232 min
Histogram: 8 0 8 0 16 0 8 8 16 40
Neighs:        79213.1 ave      114482 max           0 min
Histogram: 8 4 4 0 8 8 8 8 20 36

Total # of neighbors = 8238163
Ave neighs/atom = 28.530336
Neighbor list builds = 0
Dangerous builds = 0
The dot product: -9.37710847216834e-09
Setting atom values ...
  1 settings made for x
  1 settings made for y
  1 settings made for z
Setting up cg style minimization ...
  Unit style    : metal
  Current step  : 6620
Per MPI rank memory allocation (min/avg/max) = 5.441 | 5.816 | 6.074 Mbytes
Step PotEng KinEng TotEng v_fx v_fy v_fz 
    6620   -1152448.6            0   -1152448.6 -0.0040262905 -0.0045637075  0.007459871 
    6835   -1152448.6            0   -1152448.6 1.0520479e-06  2.05169e-06 1.0220019e-06 
Loop time of 2.47228 on 104 procs for 215 steps with 288751 atoms

99.9% CPU use with 104 MPI tasks x 1 OpenMP threads

Minimization stats:
  Stopping criterion = energy tolerance
  Energy initial, next-to-last, final = 
     -1152448.58693589  -1152448.58923048  -1152448.58923048
  Force two-norm initial, final = 0.24715597 6.6447168e-05
  Force max component initial, final = 0.1969347 2.3659385e-05
  Final line search alpha, max atom move = 1.0000000 2.3659385e-05
  Iterations, force evaluations = 215 430

MPI task timing breakdown:
Section |  min time  |  avg time  |  max time  |%varavg| %total
---------------------------------------------------------------
Pair    | 0.65197    | 1.8033     | 2.3421     |  36.3 | 72.94
Neigh   | 0          | 0          | 0          |   0.0 |  0.00
Comm    | 0.036921   | 0.40482    | 1.231      |  54.3 | 16.37
Output  | 0          | 0          | 0          |   0.0 |  0.00
Modify  | 2.6609e-05 | 0.0035429  | 0.0075312  |   2.8 |  0.14
Other   |            | 0.2606     |            |       | 10.54

Nlocal:        2776.45 ave        3930 max           0 min
Histogram: 8 4 4 0 4 12 8 0 26 38
Nghost:        3878.97 ave        5425 max         232 min
Histogram: 8 0 8 0 16 0 8 8 16 40
Neighs:        79213.1 ave      114483 max           0 min
Histogram: 8 4 4 0 8 8 8 8 20 36

Total # of neighbors = 8238160
Ave neighs/atom = 28.530325
Neighbor list builds = 0
Dangerous builds = 0
The dot product: 2.64940756716951e-11
Setting up cg style minimization ...
  Unit style    : metal
  Current step  : 6835
Per MPI rank memory allocation (min/avg/max) = 5.441 | 5.816 | 6.074 Mbytes
Step PotEng KinEng TotEng v_fx v_fy v_fz 
    6835   -1152448.6            0   -1152448.6   -1.8319313    1.0974499   -0.3173585 
    7000   -1152449.5            0   -1152449.5 3.5508075e-05 -2.089979e-05 -0.0004606123 
    7087   -1152449.5            0   -1152449.5 2.7692518e-05 5.6396392e-05 -6.0574417e-06 
Loop time of 2.93605 on 104 procs for 252 steps with 288751 atoms

99.9% CPU use with 104 MPI tasks x 1 OpenMP threads

Minimization stats:
  Stopping criterion = energy tolerance
  Energy initial, next-to-last, final = 
     -1152448.58923048  -1152449.45035266  -1152449.45035266
  Force two-norm initial, final = 2.1589546 0.00024498367
  Force max component initial, final = 1.8319313 5.6396392e-05
  Final line search alpha, max atom move = 1.0000000 5.6396392e-05
  Iterations, force evaluations = 252 498

MPI task timing breakdown:
Section |  min time  |  avg time  |  max time  |%varavg| %total
---------------------------------------------------------------
Pair    | 0.77077    | 2.0898     | 2.7483     |  38.7 | 71.18
Neigh   | 3.9809e-05 | 0.011849   | 0.017109   |   4.5 |  0.40
Comm    | 0.046029   | 0.47744    | 1.4201     |  57.0 | 16.26
Output  | 0.00017373 | 0.00017839 | 0.0003555  |   0.0 |  0.01
Modify  | 3.0632e-05 | 0.0026769  | 0.0068405  |   3.2 |  0.09
Other   |            | 0.3541     |            |       | 12.06

Nlocal:        2776.45 ave        3932 max           0 min
Histogram: 8 4 4 0 4 12 8 0 26 38
Nghost:        3878.96 ave        5425 max         232 min
Histogram: 8 0 8 0 16 0 8 8 16 40
Neighs:        79213.1 ave      114557 max           0 min
Histogram: 8 4 4 0 8 8 8 8 20 36

Total # of neighbors = 8238167
Ave neighs/atom = 28.530350
Neighbor list builds = 4
Dangerous builds = 0
