LAMMPS (29 Oct 2020)
OMP_NUM_THREADS environment is not set. Defaulting to 1 thread. (../comm.cpp:94)
  using 1 OpenMP thread(s) per MPI task
OMP_NUM_THREADS environment is not set. Defaulting to 1 thread. (../comm.cpp:94)
  using 1 OpenMP thread(s) per MPI task
Reading data file ...
  orthogonal box = (-122.39241 -121.13707 -37.090501) to (122.39241 121.13707 37.090501)
  13 by 4 by 1 MPI processor grid
  reading atoms ...
  288751 atoms
  read_data CPU = 0.457 seconds
199981 atoms in group inner
88770 atoms in group outer
1 atoms in group carbon
Neighbor list info ...
  update every 1 steps, delay 0 steps, check yes
  max neighbors/atom: 2000, page size: 100000
  master list distance cutoff = 5.6
  ghost atom cutoff = 5.6
  binsize = 2.8, bins = 88 87 27
  1 neighbor lists, perpetual/occasional/extra = 1 0 0
  (1) pair eam/alloy, perpetual
      attributes: half, newton on
      pair build: half/bin/atomonly/newton
      stencil: half/bin/3d/newton
      bin: standard
Setting up cg style minimization ...
  Unit style    : metal
  Current step  : 0
Per MPI rank memory allocation (min/avg/max) = 5.465 | 6.344 | 6.728 Mbytes
Step v_fx v_fy v_fz PotEng KinEng TotEng 
       0   -25.816239  -0.40745034    13.097731   -1152441.8            0   -1152441.8 
     250 -2.3704682e-05 -3.0094215e-06 2.3247188e-05     -1152449            0     -1152449 
Loop time of 5.61217 on 52 procs for 250 steps with 288751 atoms

99.9% CPU use with 52 MPI tasks x 1 OpenMP threads

Minimization stats:
  Stopping criterion = linesearch alpha is zero
  Energy initial, next-to-last, final = 
     -1152441.82201423  -1152448.97218898  -1152448.97218898
  Force two-norm initial, final = 47.220271 9.7784241e-05
  Force max component initial, final = 32.844188 2.3704682e-05
  Final line search alpha, max atom move = 0.5 1.1852341e-05
  Iterations, force evaluations = 250 497

MPI task timing breakdown:
Section |  min time  |  avg time  |  max time  |%varavg| %total
---------------------------------------------------------------
Pair    | 1.4691     | 3.9816     | 5.2071     |  54.0 | 70.95
Neigh   | 0.00017823 | 0.048436   | 0.070867   |   9.4 |  0.86
Comm    | 0.084706   | 0.89583    | 2.7912     |  83.3 | 15.96
Output  | 0          | 0          | 0          |   0.0 |  0.00
Modify  | 8.5174e-05 | 0.0054363  | 0.013757   |   4.5 |  0.10
Other   |            | 0.6808     |            |       | 12.13

Nlocal:        5552.90 ave        7901 max           0 min
Histogram: 4 2 2 0 2 6 4 0 15 17
Nghost:        6213.65 ave        8768 max         412 min
Histogram: 4 0 4 0 8 0 4 5 7 20
Neighs:       158427.0 ave      230216 max           0 min
Histogram: 4 2 2 0 5 3 4 4 12 16

Total # of neighbors = 8238213
Ave neighs/atom = 28.530509
Neighbor list builds = 8
Dangerous builds = 0
Setting atom values ...
  1 settings made for x
  1 settings made for y
  1 settings made for z
Setting up cg style minimization ...
  Unit style    : metal
  Current step  : 250
Per MPI rank memory allocation (min/avg/max) = 5.465 | 6.344 | 6.728 Mbytes
Step PotEng KinEng TotEng v_fx v_fy v_fz 
     250     -1152449            0     -1152449 -0.0016664055 0.0028129725 0.0050287228 
     434     -1152449            0     -1152449 -1.8962937e-05 -6.0505377e-06 2.4665275e-05 
Loop time of 4.18625 on 52 procs for 184 steps with 288751 atoms

99.9% CPU use with 52 MPI tasks x 1 OpenMP threads

Minimization stats:
  Stopping criterion = linesearch alpha is zero
  Energy initial, next-to-last, final = 
     -1152448.97154953  -1152448.97202167  -1152448.97202167
  Force two-norm initial, final = 0.087726517 9.5258095e-05
  Force max component initial, final = 0.041881705 2.4665275e-05
  Final line search alpha, max atom move = 0.5 1.2332637e-05
  Iterations, force evaluations = 184 369

MPI task timing breakdown:
Section |  min time  |  avg time  |  max time  |%varavg| %total
---------------------------------------------------------------
Pair    | 1.0558     | 2.9537     | 3.9485     |  47.5 | 70.56
Neigh   | 0          | 0          | 0          |   0.0 |  0.00
Comm    | 0.057641   | 0.67127    | 2.0594     |  71.1 | 16.04
Output  | 0          | 0          | 0          |   0.0 |  0.00
Modify  | 8.3414e-05 | 0.0061793  | 0.013032   |   3.7 |  0.15
Other   |            | 0.5551     |            |       | 13.26

Nlocal:        5552.90 ave        7900 max           0 min
Histogram: 4 2 2 0 2 6 4 0 14 18
Nghost:        6213.69 ave        8768 max         412 min
Histogram: 4 0 4 0 8 0 4 5 7 20
Neighs:       158427.0 ave      230189 max           0 min
Histogram: 4 2 2 0 5 3 4 4 12 16

Total # of neighbors = 8238206
Ave neighs/atom = 28.530485
Neighbor list builds = 0
Dangerous builds = 0
Setting atom values ...
  1 settings made for x
  1 settings made for y
  1 settings made for z
Setting up cg style minimization ...
  Unit style    : metal
  Current step  : 434
Per MPI rank memory allocation (min/avg/max) = 5.465 | 6.344 | 6.728 Mbytes
Step PotEng KinEng TotEng v_fx v_fy v_fz 
     434     -1152449            0     -1152449 0.0057586155  0.019708985 0.0019624946 
     583     -1152449            0     -1152449 -8.2414352e-05 -1.33796e-05 7.7798439e-05 
Loop time of 3.31569 on 52 procs for 149 steps with 288751 atoms

99.9% CPU use with 52 MPI tasks x 1 OpenMP threads

Minimization stats:
  Stopping criterion = energy tolerance
  Energy initial, next-to-last, final = 
     -1152448.96937482  -1152448.97109476  -1152448.97109476
  Force two-norm initial, final = 0.15683821 0.00038983545
  Force max component initial, final = 0.089783063 8.8530244e-05
  Final line search alpha, max atom move = 1.0000000 8.8530244e-05
  Iterations, force evaluations = 149 298

MPI task timing breakdown:
Section |  min time  |  avg time  |  max time  |%varavg| %total
---------------------------------------------------------------
Pair    | 0.83867    | 2.3727     | 3.1178     |  42.7 | 71.56
Neigh   | 0          | 0          | 0          |   0.0 |  0.00
Comm    | 0.046461   | 0.52993    | 1.6599     |  65.0 | 15.98
Output  | 0          | 0          | 0          |   0.0 |  0.00
Modify  | 6.694e-05  | 0.0049732  | 0.010536   |   3.3 |  0.15
Other   |            | 0.4081     |            |       | 12.31

Nlocal:        5552.90 ave        7900 max           0 min
Histogram: 4 2 2 0 2 6 4 0 14 18
Nghost:        6213.69 ave        8768 max         412 min
Histogram: 4 0 4 0 8 0 4 5 7 20
Neighs:       158427.0 ave      230191 max           0 min
Histogram: 4 2 2 0 5 3 4 4 12 16

Total # of neighbors = 8238203
Ave neighs/atom = 28.530474
Neighbor list builds = 0
Dangerous builds = 0
The dot product: 9.87181358155608e-07
Setting atom values ...
  1 settings made for x
  1 settings made for y
  1 settings made for z
Setting up cg style minimization ...
  Unit style    : metal
  Current step  : 583
Per MPI rank memory allocation (min/avg/max) = 5.465 | 6.344 | 6.728 Mbytes
Step PotEng KinEng TotEng v_fx v_fy v_fz 
     583     -1152449            0     -1152449  0.015828641  0.033544854 -0.004174827 
     770     -1152449            0     -1152449 4.4320805e-05 9.7947586e-07 -2.4232552e-05 
Loop time of 4.19557 on 52 procs for 187 steps with 288751 atoms

99.9% CPU use with 52 MPI tasks x 1 OpenMP threads

Minimization stats:
  Stopping criterion = linesearch alpha is zero
  Energy initial, next-to-last, final = 
     -1152448.96765371  -1152448.96947493  -1152448.96947493
  Force two-norm initial, final = 0.16316949 0.00020451768
  Force max component initial, final = 0.096671247 6.2927473e-05
  Final line search alpha, max atom move = 0.25 1.5731868e-05
  Iterations, force evaluations = 187 377

MPI task timing breakdown:
Section |  min time  |  avg time  |  max time  |%varavg| %total
---------------------------------------------------------------
Pair    | 1.0738     | 3.0152     | 3.9662     |  48.0 | 71.87
Neigh   | 0          | 0          | 0          |   0.0 |  0.00
Comm    | 0.056176   | 0.67236    | 2.1118     |  73.5 | 16.03
Output  | 0          | 0          | 0          |   0.0 |  0.00
Modify  | 6.7945e-05 | 0.0063135  | 0.013355   |   3.7 |  0.15
Other   |            | 0.5017     |            |       | 11.96

Nlocal:        5552.90 ave        7901 max           0 min
Histogram: 4 2 2 0 2 6 4 0 15 17
Nghost:        6213.65 ave        8768 max         412 min
Histogram: 4 0 4 0 8 0 4 5 7 20
Neighs:       158427.0 ave      230234 max           0 min
Histogram: 4 2 2 0 5 3 4 4 12 16

Total # of neighbors = 8238202
Ave neighs/atom = 28.530471
Neighbor list builds = 0
Dangerous builds = 0
The dot product: -5.04529437409041e-07
Setting atom values ...
  1 settings made for x
  1 settings made for y
  1 settings made for z
Setting up cg style minimization ...
  Unit style    : metal
  Current step  : 770
Per MPI rank memory allocation (min/avg/max) = 5.465 | 6.344 | 6.728 Mbytes
Step PotEng KinEng TotEng v_fx v_fy v_fz 
     770     -1152449            0     -1152449  0.028893568  0.038021566 -0.0087315518 
     923     -1152449            0     -1152449 -8.7341984e-05 -4.9020275e-06 2.8429499e-05 
Loop time of 3.38834 on 52 procs for 153 steps with 288751 atoms

99.9% CPU use with 52 MPI tasks x 1 OpenMP threads

Minimization stats:
  Stopping criterion = energy tolerance
  Energy initial, next-to-last, final = 
     -1152448.96521322  -1152448.96758146  -1152448.96758146
  Force two-norm initial, final = 0.17289204 0.00024813716
  Force max component initial, final = 0.095781175 8.7341984e-05
  Final line search alpha, max atom move = 1.0000000 8.7341984e-05
  Iterations, force evaluations = 153 306

MPI task timing breakdown:
Section |  min time  |  avg time  |  max time  |%varavg| %total
---------------------------------------------------------------
Pair    | 0.86248    | 2.4337     | 3.1967     |  43.2 | 71.82
Neigh   | 0          | 0          | 0          |   0.0 |  0.00
Comm    | 0.044488   | 0.54336    | 1.7129     |  66.2 | 16.04
Output  | 0          | 0          | 0          |   0.0 |  0.00
Modify  | 6.2449e-05 | 0.0050987  | 0.010837   |   3.3 |  0.15
Other   |            | 0.4062     |            |       | 11.99

Nlocal:        5552.90 ave        7901 max           0 min
Histogram: 4 2 2 0 2 6 4 0 15 17
Nghost:        6213.73 ave        8768 max         412 min
Histogram: 4 0 4 0 8 0 4 5 7 20
Neighs:       158427.0 ave      230220 max           0 min
Histogram: 4 2 2 0 5 3 4 4 12 16

Total # of neighbors = 8238206
Ave neighs/atom = 28.530485
Neighbor list builds = 0
Dangerous builds = 0
The dot product: 2.14481797758358e-06
Setting atom values ...
  1 settings made for x
  1 settings made for y
  1 settings made for z
Setting up cg style minimization ...
  Unit style    : metal
  Current step  : 923
Per MPI rank memory allocation (min/avg/max) = 5.465 | 6.344 | 6.728 Mbytes
Step PotEng KinEng TotEng v_fx v_fy v_fz 
     923     -1152449            0     -1152449   0.03458591  0.034106093 -0.00097543152 
    1000     -1152449            0     -1152449 0.00013001573 1.2814215e-05 -1.4643788e-06 
    1085     -1152449            0     -1152449 4.067613e-06 7.7012691e-07 -5.2860935e-08 
Loop time of 3.64826 on 52 procs for 162 steps with 288751 atoms

99.9% CPU use with 52 MPI tasks x 1 OpenMP threads

Minimization stats:
  Stopping criterion = linesearch alpha is zero
  Energy initial, next-to-last, final = 
     -1152448.96331199  -1152448.96592374  -1152448.96592374
  Force two-norm initial, final = 0.19159839 5.8720032e-05
  Force max component initial, final = 0.082630503 1.4512274e-05
  Final line search alpha, max atom move = 0.5 7.2561368e-06
  Iterations, force evaluations = 162 325

MPI task timing breakdown:
Section |  min time  |  avg time  |  max time  |%varavg| %total
---------------------------------------------------------------
Pair    | 0.92452    | 2.5954     | 3.4322     |  44.6 | 71.14
Neigh   | 0          | 0          | 0          |   0.0 |  0.00
Comm    | 0.049973   | 0.58427    | 1.8247     |  67.4 | 16.01
Output  | 0.000237   | 0.0002409  | 0.00038337 |   0.0 |  0.01
Modify  | 6.0562e-05 | 0.0054614  | 0.011501   |   3.4 |  0.15
Other   |            | 0.4629     |            |       | 12.69

Nlocal:        5552.90 ave        7902 max           0 min
Histogram: 4 2 2 0 2 6 4 0 15 17
Nghost:        6213.73 ave        8768 max         412 min
Histogram: 4 0 4 0 8 0 4 5 7 20
Neighs:       158427.0 ave      230248 max           0 min
Histogram: 4 2 2 0 5 3 4 4 12 16

Total # of neighbors = 8238212
Ave neighs/atom = 28.530506
Neighbor list builds = 0
Dangerous builds = 0
The dot product: -6.13198096296247e-08
Setting atom values ...
  1 settings made for x
  1 settings made for y
  1 settings made for z
Setting up cg style minimization ...
  Unit style    : metal
  Current step  : 1085
Per MPI rank memory allocation (min/avg/max) = 5.465 | 6.344 | 6.728 Mbytes
Step PotEng KinEng TotEng v_fx v_fy v_fz 
    1085     -1152449            0     -1152449  0.047359748  0.032180652 0.0060201309 
    1228     -1152449            0     -1152449 -8.2241829e-05 -4.6894773e-06 -1.1875569e-05 
Loop time of 3.16439 on 52 procs for 143 steps with 288751 atoms

99.9% CPU use with 52 MPI tasks x 1 OpenMP threads

Minimization stats:
  Stopping criterion = energy tolerance
  Energy initial, next-to-last, final = 
     -1152448.96135135  -1152448.96445986  -1152448.96445986
  Force two-norm initial, final = 0.2049935 0.00041820917
  Force max component initial, final = 0.098986329 0.00010335049
  Final line search alpha, max atom move = 1.0000000 0.00010335049
  Iterations, force evaluations = 143 286

MPI task timing breakdown:
Section |  min time  |  avg time  |  max time  |%varavg| %total
---------------------------------------------------------------
Pair    | 0.80494    | 2.2733     | 2.989      |  41.8 | 71.84
Neigh   | 0          | 0          | 0          |   0.0 |  0.00
Comm    | 0.042886   | 0.506      | 1.5912     |  64.0 | 15.99
Output  | 0          | 0          | 0          |   0.0 |  0.00
Modify  | 6.6506e-05 | 0.0047612  | 0.010094   |   3.2 |  0.15
Other   |            | 0.3803     |            |       | 12.02

Nlocal:        5552.90 ave        7903 max           0 min
Histogram: 4 2 2 0 2 6 4 0 15 17
Nghost:        6213.73 ave        8768 max         412 min
Histogram: 4 0 4 0 8 0 4 5 7 20
Neighs:       158427.0 ave      230303 max           0 min
Histogram: 4 2 2 0 5 3 4 4 12 16

Total # of neighbors = 8238215
Ave neighs/atom = 28.530516
Neighbor list builds = 0
Dangerous builds = 0
The dot product: 1.01912419815621e-06
Setting atom values ...
  1 settings made for x
  1 settings made for y
  1 settings made for z
Setting up cg style minimization ...
  Unit style    : metal
  Current step  : 1228
Per MPI rank memory allocation (min/avg/max) = 5.465 | 6.344 | 6.728 Mbytes
Step PotEng KinEng TotEng v_fx v_fy v_fz 
    1228     -1152449            0     -1152449  0.052689691  0.030252274  0.012593624 
    1370     -1152449            0     -1152449 1.1090825e-05 -1.8913332e-07 2.8045175e-06 
Loop time of 3.19393 on 52 procs for 142 steps with 288751 atoms

99.9% CPU use with 52 MPI tasks x 1 OpenMP threads

Minimization stats:
  Stopping criterion = linesearch alpha is zero
  Energy initial, next-to-last, final = 
     -1152448.96033453  -1152448.96295154  -1152448.96295154
  Force two-norm initial, final = 0.21442833 0.00014930694
  Force max component initial, final = 0.10951158 2.2033404e-05
  Final line search alpha, max atom move = 0.5 1.1016702e-05
  Iterations, force evaluations = 142 285

MPI task timing breakdown:
Section |  min time  |  avg time  |  max time  |%varavg| %total
---------------------------------------------------------------
Pair    | 0.81113    | 2.2788     | 3.0104     |  41.8 | 71.35
Neigh   | 0          | 0          | 0          |   0.0 |  0.00
Comm    | 0.042807   | 0.51023    | 1.5874     |  63.5 | 15.98
Output  | 0          | 0          | 0          |   0.0 |  0.00
Modify  | 6.371e-05  | 0.0047839  | 0.010188   |   3.2 |  0.15
Other   |            | 0.4001     |            |       | 12.53

Nlocal:        5552.90 ave        7903 max           0 min
Histogram: 4 2 2 0 2 6 4 0 15 17
Nghost:        6213.69 ave        8769 max         412 min
Histogram: 4 0 4 0 8 0 4 5 7 20
Neighs:       158427.0 ave      230298 max           0 min
Histogram: 4 2 2 0 5 3 4 4 12 16

Total # of neighbors = 8238214
Ave neighs/atom = 28.530512
Neighbor list builds = 0
Dangerous builds = 0
The dot product: 7.47557319724268e-09
Setting atom values ...
  1 settings made for x
  1 settings made for y
  1 settings made for z
Setting up cg style minimization ...
  Unit style    : metal
  Current step  : 1370
Per MPI rank memory allocation (min/avg/max) = 5.465 | 6.344 | 6.728 Mbytes
Step PotEng KinEng TotEng v_fx v_fy v_fz 
    1370     -1152449            0     -1152449    0.0621155   0.03257861  0.014303355 
    1560     -1152449            0     -1152449 -2.7444066e-05 -1.7289089e-06 -6.7318256e-06 
Loop time of 4.26874 on 52 procs for 190 steps with 288751 atoms

99.9% CPU use with 52 MPI tasks x 1 OpenMP threads

Minimization stats:
  Stopping criterion = linesearch alpha is zero
  Energy initial, next-to-last, final = 
     -1152448.95831934  -1152448.96078952  -1152448.96078952
  Force two-norm initial, final = 0.21718932 0.00014952668
  Force max component initial, final = 0.11003185 3.7231323e-05
  Final line search alpha, max atom move = 0.5 1.8615662e-05
  Iterations, force evaluations = 190 383

MPI task timing breakdown:
Section |  min time  |  avg time  |  max time  |%varavg| %total
---------------------------------------------------------------
Pair    | 1.0898     | 3.0499     | 4.0335     |  48.2 | 71.45
Neigh   | 0          | 0          | 0          |   0.0 |  0.00
Comm    | 0.05773    | 0.67875    | 2.1245     |  73.8 | 15.90
Output  | 0          | 0          | 0          |   0.0 |  0.00
Modify  | 7.6513e-05 | 0.0064171  | 0.013516   |   3.7 |  0.15
Other   |            | 0.5336     |            |       | 12.50

Nlocal:        5552.90 ave        7905 max           0 min
Histogram: 4 2 2 0 2 6 4 0 15 17
Nghost:        6213.69 ave        8769 max         412 min
Histogram: 4 0 4 0 8 0 4 5 7 20
Neighs:       158427.0 ave      230355 max           0 min
Histogram: 4 2 2 0 5 3 4 4 12 16

Total # of neighbors = 8238212
Ave neighs/atom = 28.530506
Neighbor list builds = 0
Dangerous builds = 0
The dot product: -1.4529920781519e-07
Setting atom values ...
  1 settings made for x
  1 settings made for y
  1 settings made for z
Setting up cg style minimization ...
  Unit style    : metal
  Current step  : 1560
Per MPI rank memory allocation (min/avg/max) = 5.465 | 6.344 | 6.728 Mbytes
Step PotEng KinEng TotEng v_fx v_fy v_fz 
    1560     -1152449            0     -1152449  0.069417216  0.034997747  0.013291398 
    1724     -1152449            0     -1152449 2.6539381e-05 2.4737605e-06 5.5739996e-06 
Loop time of 3.66945 on 52 procs for 164 steps with 288751 atoms

99.9% CPU use with 52 MPI tasks x 1 OpenMP threads

Minimization stats:
  Stopping criterion = linesearch alpha is zero
  Energy initial, next-to-last, final = 
     -1152448.95556493  -1152448.95816535  -1152448.95816535
  Force two-norm initial, final = 0.21711971 0.00013204152
  Force max component initial, final = 0.10758816 4.1590548e-05
  Final line search alpha, max atom move = 0.5 2.0795274e-05
  Iterations, force evaluations = 164 329

MPI task timing breakdown:
Section |  min time  |  avg time  |  max time  |%varavg| %total
---------------------------------------------------------------
Pair    | 0.93866    | 2.6334     | 3.4682     |  44.8 | 71.77
Neigh   | 0          | 0          | 0          |   0.0 |  0.00
Comm    | 0.048979   | 0.58778    | 1.8527     |  68.5 | 16.02
Output  | 0          | 0          | 0          |   0.0 |  0.00
Modify  | 6.7376e-05 | 0.0055032  | 0.011614   |   3.5 |  0.15
Other   |            | 0.4428     |            |       | 12.07

Nlocal:        5552.90 ave        7906 max           0 min
Histogram: 4 2 2 0 2 6 4 0 15 17
Nghost:        6213.69 ave        8769 max         412 min
Histogram: 4 0 4 0 8 0 4 5 7 20
Neighs:       158427.0 ave      230386 max           0 min
Histogram: 4 2 2 0 5 3 4 4 12 16

Total # of neighbors = 8238208
Ave neighs/atom = 28.530492
Neighbor list builds = 0
Dangerous builds = 0
The dot product: 1.19005791079883e-07
Setting atom values ...
  1 settings made for x
  1 settings made for y
  1 settings made for z
Setting up cg style minimization ...
  Unit style    : metal
  Current step  : 1724
Per MPI rank memory allocation (min/avg/max) = 5.465 | 6.344 | 6.728 Mbytes
Step PotEng KinEng TotEng v_fx v_fy v_fz 
    1724     -1152449            0     -1152449  0.072399735  0.036783269  0.011628661 
    1948     -1152449            0     -1152449 1.0767219e-07 -4.171054e-07 4.4592151e-08 
Loop time of 5.06963 on 52 procs for 224 steps with 288751 atoms

99.8% CPU use with 52 MPI tasks x 1 OpenMP threads

Minimization stats:
  Stopping criterion = linesearch alpha is zero
  Energy initial, next-to-last, final = 
     -1152448.95265271  -1152448.95496507  -1152448.95496507
  Force two-norm initial, final = 0.21636076 5.3381674e-05
  Force max component initial, final = 0.10565504 6.8830119e-06
  Final line search alpha, max atom move = 0.5 3.4415059e-06
  Iterations, force evaluations = 224 449

MPI task timing breakdown:
Section |  min time  |  avg time  |  max time  |%varavg| %total
---------------------------------------------------------------
Pair    | 1.2802     | 3.5849     | 4.7514     |  52.3 | 70.71
Neigh   | 0          | 0          | 0          |   0.0 |  0.00
Comm    | 0.078073   | 0.8053     | 2.4939     |  79.2 | 15.88
Output  | 0          | 0          | 0          |   0.0 |  0.00
Modify  | 8.6139e-05 | 0.0075365  | 0.015908   |   4.1 |  0.15
Other   |            | 0.6719     |            |       | 13.25

Nlocal:        5552.90 ave        7906 max           0 min
Histogram: 4 2 2 0 2 6 4 0 15 17
Nghost:        6213.73 ave        8769 max         412 min
Histogram: 4 0 4 0 8 0 4 5 7 20
Neighs:       158427.0 ave      230395 max           0 min
Histogram: 4 2 2 0 5 3 4 4 12 16

Total # of neighbors = 8238204
Ave neighs/atom = 28.530478
Neighbor list builds = 0
Dangerous builds = 0
The dot product: -4.6128589722109e-10
Setting atom values ...
  1 settings made for x
  1 settings made for y
  1 settings made for z
Setting up cg style minimization ...
  Unit style    : metal
  Current step  : 1948
Per MPI rank memory allocation (min/avg/max) = 5.465 | 6.344 | 6.728 Mbytes
Step PotEng KinEng TotEng v_fx v_fy v_fz 
    1948   -1152448.9            0   -1152448.9  0.077418483   0.03879717 0.0094567125 
    2000     -1152449            0     -1152449 9.8968594e-06 3.6528286e-06 1.3026215e-06 
    2118     -1152449            0     -1152449 7.9979962e-06 7.1768037e-07 1.2129165e-06 
Loop time of 3.86644 on 52 procs for 170 steps with 288751 atoms

99.9% CPU use with 52 MPI tasks x 1 OpenMP threads

Minimization stats:
  Stopping criterion = linesearch alpha is zero
  Energy initial, next-to-last, final = 
     -1152448.94873145  -1152448.95097165  -1152448.95097165
  Force two-norm initial, final = 0.21541783 0.00018010406
  Force max component initial, final = 0.10256436 2.7757174e-05
  Final line search alpha, max atom move = 0.25 6.9392934e-06
  Iterations, force evaluations = 170 343

MPI task timing breakdown:
Section |  min time  |  avg time  |  max time  |%varavg| %total
---------------------------------------------------------------
Pair    | 0.97727    | 2.7401     | 3.6585     |  45.9 | 70.87
Neigh   | 0          | 0          | 0          |   0.0 |  0.00
Comm    | 0.051393   | 0.61836    | 1.9091     |  69.1 | 15.99
Output  | 0.00013508 | 0.00013883 | 0.00028372 |   0.0 |  0.00
Modify  | 7.1021e-05 | 0.0057423  | 0.012097   |   3.5 |  0.15
Other   |            | 0.5021     |            |       | 12.99

Nlocal:        5552.90 ave        7907 max           0 min
Histogram: 4 2 2 0 2 6 4 0 15 17
Nghost:        6213.65 ave        8769 max         412 min
Histogram: 4 0 4 0 8 0 4 5 7 20
Neighs:       158427.0 ave      230440 max           0 min
Histogram: 4 2 2 0 5 3 4 4 12 16

Total # of neighbors = 8238200
Ave neighs/atom = 28.530464
Neighbor list builds = 0
Dangerous builds = 0
The dot product: 6.33644841820501e-08
Setting atom values ...
  1 settings made for x
  1 settings made for y
  1 settings made for z
Setting up cg style minimization ...
  Unit style    : metal
  Current step  : 2118
Per MPI rank memory allocation (min/avg/max) = 5.465 | 6.344 | 6.728 Mbytes
Step PotEng KinEng TotEng v_fx v_fy v_fz 
    2118   -1152448.9            0   -1152448.9   0.08162757  0.040050537 0.0066340466 
    2275   -1152448.9            0   -1152448.9 2.614064e-05 3.0894353e-06 2.950276e-06 
Loop time of 3.47187 on 52 procs for 157 steps with 288751 atoms

99.9% CPU use with 52 MPI tasks x 1 OpenMP threads

Minimization stats:
  Stopping criterion = energy tolerance
  Energy initial, next-to-last, final = 
     -1152448.94402509  -1152448.94623435  -1152448.94623435
  Force two-norm initial, final = 0.21381282 0.00022756946
  Force max component initial, final = 0.098658084 6.0384143e-05
  Final line search alpha, max atom move = 1.0000000 6.0384143e-05
  Iterations, force evaluations = 157 314

MPI task timing breakdown:
Section |  min time  |  avg time  |  max time  |%varavg| %total
---------------------------------------------------------------
Pair    | 0.87666    | 2.4982     | 3.2831     |  44.0 | 71.96
Neigh   | 0          | 0          | 0          |   0.0 |  0.00
Comm    | 0.045454   | 0.55641    | 1.7556     |  67.2 | 16.03
Output  | 0          | 0          | 0          |   0.0 |  0.00
Modify  | 6.3655e-05 | 0.0052169  | 0.011064   |   3.4 |  0.15
Other   |            | 0.412      |            |       | 11.87

Nlocal:        5552.90 ave        7907 max           0 min
Histogram: 4 2 2 0 2 6 4 0 15 17
Nghost:        6213.65 ave        8769 max         412 min
Histogram: 4 0 4 0 8 0 4 5 7 20
Neighs:       158427.0 ave      230466 max           0 min
Histogram: 4 2 2 0 5 3 4 4 12 16

Total # of neighbors = 8238209
Ave neighs/atom = 28.530495
Neighbor list builds = 0
Dangerous builds = 0
The dot product: 2.25917925897529e-07
Setting atom values ...
  1 settings made for x
  1 settings made for y
  1 settings made for z
Setting up cg style minimization ...
  Unit style    : metal
  Current step  : 2275
Per MPI rank memory allocation (min/avg/max) = 5.465 | 6.344 | 6.728 Mbytes
Step PotEng KinEng TotEng v_fx v_fy v_fz 
    2275   -1152448.9            0   -1152448.9  0.084377012  0.040786268  0.003470262 
    2420   -1152448.9            0   -1152448.9 7.6385568e-05 9.4901415e-06 5.8060433e-06 
Loop time of 3.24559 on 52 procs for 145 steps with 288751 atoms

99.9% CPU use with 52 MPI tasks x 1 OpenMP threads

Minimization stats:
  Stopping criterion = energy tolerance
  Energy initial, next-to-last, final = 
     -1152448.93862628  -1152448.94071897  -1152448.94071897
  Force two-norm initial, final = 0.21167142 0.00029710761
  Force max component initial, final = 0.094286084 0.00011269027
  Final line search alpha, max atom move = 1.0000000 0.00011269027
  Iterations, force evaluations = 145 290

MPI task timing breakdown:
Section |  min time  |  avg time  |  max time  |%varavg| %total
---------------------------------------------------------------
Pair    | 0.82697    | 2.3166     | 3.0662     |  42.1 | 71.38
Neigh   | 0          | 0          | 0          |   0.0 |  0.00
Comm    | 0.042973   | 0.51904    | 1.6194     |  64.1 | 15.99
Output  | 0          | 0          | 0          |   0.0 |  0.00
Modify  | 5.5391e-05 | 0.0048543  | 0.010239   |   3.2 |  0.15
Other   |            | 0.4051     |            |       | 12.48

Nlocal:        5552.90 ave        7908 max           0 min
Histogram: 4 2 2 0 2 6 4 0 15 17
Nghost:        6213.69 ave        8769 max         412 min
Histogram: 4 0 4 0 8 0 4 5 7 20
Neighs:       158427.0 ave      230498 max           0 min
Histogram: 4 2 2 0 5 3 4 4 12 16

Total # of neighbors = 8238204
Ave neighs/atom = 28.530478
Neighbor list builds = 0
Dangerous builds = 0
The dot product: 5.87366755194553e-07
Setting atom values ...
  1 settings made for x
  1 settings made for y
  1 settings made for z
Setting up cg style minimization ...
  Unit style    : metal
  Current step  : 2420
Per MPI rank memory allocation (min/avg/max) = 5.465 | 6.344 | 6.728 Mbytes
Step PotEng KinEng TotEng v_fx v_fy v_fz 
    2420   -1152448.9            0   -1152448.9  0.084474316  0.041841509 0.0004329614 
    2584   -1152448.9            0   -1152448.9 -7.2844366e-06 -3.3952257e-07 -3.9963003e-07 
Loop time of 3.62981 on 52 procs for 164 steps with 288751 atoms

99.9% CPU use with 52 MPI tasks x 1 OpenMP threads

Minimization stats:
  Stopping criterion = energy tolerance
  Energy initial, next-to-last, final = 
     -1152448.93236347   -1152448.9343699   -1152448.9343699
  Force two-norm initial, final = 0.20935692 0.00014884179
  Force max component initial, final = 0.09044749 9.2572073e-06
  Final line search alpha, max atom move = 1.0000000 9.2572073e-06
  Iterations, force evaluations = 164 328

MPI task timing breakdown:
Section |  min time  |  avg time  |  max time  |%varavg| %total
---------------------------------------------------------------
Pair    | 0.93829    | 2.6109     | 3.4289     |  44.4 | 71.93
Neigh   | 0          | 0          | 0          |   0.0 |  0.00
Comm    | 0.048705   | 0.57875    | 1.8291     |  68.5 | 15.94
Output  | 0          | 0          | 0          |   0.0 |  0.00
Modify  | 7.5087e-05 | 0.0054855  | 0.011534   |   3.4 |  0.15
Other   |            | 0.4347     |            |       | 11.98

Nlocal:        5552.90 ave        7908 max           0 min
Histogram: 4 2 2 0 2 6 4 0 15 17
Nghost:        6213.69 ave        8769 max         412 min
Histogram: 4 0 4 0 8 0 4 5 7 20
Neighs:       158427.0 ave      230499 max           0 min
Histogram: 4 2 2 0 5 3 4 4 12 16

Total # of neighbors = 8238201
Ave neighs/atom = 28.530467
Neighbor list builds = 0
Dangerous builds = 0
The dot product: -4.70377136005304e-08
Setting atom values ...
  1 settings made for x
  1 settings made for y
  1 settings made for z
Setting up cg style minimization ...
  Unit style    : metal
  Current step  : 2584
Per MPI rank memory allocation (min/avg/max) = 5.465 | 6.344 | 6.728 Mbytes
Step PotEng KinEng TotEng v_fx v_fy v_fz 
    2584   -1152448.9            0   -1152448.9  0.083579388  0.038338353 -0.0016896902 
    2736   -1152448.9            0   -1152448.9 -6.3939981e-05 -1.031126e-05 -1.1009899e-06 
Loop time of 3.38807 on 52 procs for 152 steps with 288751 atoms

99.9% CPU use with 52 MPI tasks x 1 OpenMP threads

Minimization stats:
  Stopping criterion = energy tolerance
  Energy initial, next-to-last, final = 
     -1152448.92517023  -1152448.92707623  -1152448.92707623
  Force two-norm initial, final = 0.2059765 0.00021293602
  Force max component initial, final = 0.086895788 6.3939981e-05
  Final line search alpha, max atom move = 1.0000000 6.3939981e-05
  Iterations, force evaluations = 152 304

MPI task timing breakdown:
Section |  min time  |  avg time  |  max time  |%varavg| %total
---------------------------------------------------------------
Pair    | 0.86791    | 2.427      | 3.1966     |  43.0 | 71.63
Neigh   | 0          | 0          | 0          |   0.0 |  0.00
Comm    | 0.044387   | 0.54257    | 1.6991     |  65.6 | 16.01
Output  | 0          | 0          | 0          |   0.0 |  0.00
Modify  | 5.9294e-05 | 0.0051047  | 0.01078    |   3.3 |  0.15
Other   |            | 0.4134     |            |       | 12.20

Nlocal:        5552.90 ave        7909 max           0 min
Histogram: 4 2 2 0 2 6 4 0 15 17
Nghost:        6213.69 ave        8769 max         412 min
Histogram: 4 0 4 0 8 0 4 5 7 20
Neighs:       158427.0 ave      230537 max           0 min
Histogram: 4 2 2 0 5 3 4 4 12 16

Total # of neighbors = 8238200
Ave neighs/atom = 28.530464
Neighbor list builds = 0
Dangerous builds = 0
The dot product: -3.91002019170504e-07
Setting atom values ...
  1 settings made for x
  1 settings made for y
  1 settings made for z
Setting up cg style minimization ...
  Unit style    : metal
  Current step  : 2736
Per MPI rank memory allocation (min/avg/max) = 5.465 | 6.344 | 6.728 Mbytes
Step PotEng KinEng TotEng v_fx v_fy v_fz 
    2736   -1152448.9            0   -1152448.9  0.082820177  0.028232052 -0.0023091565 
    2928   -1152448.9            0   -1152448.9 -5.6046873e-06 -1.5571641e-07 -8.3758816e-08 
Loop time of 4.29959 on 52 procs for 192 steps with 288751 atoms

99.9% CPU use with 52 MPI tasks x 1 OpenMP threads

Minimization stats:
  Stopping criterion = energy tolerance
  Energy initial, next-to-last, final = 
     -1152448.91671326  -1152448.91858484  -1152448.91858484
  Force two-norm initial, final = 0.20248626 7.1234745e-05
  Force max component initial, final = 0.084175588 2.2046353e-05
  Final line search alpha, max atom move = 1.0000000 2.2046353e-05
  Iterations, force evaluations = 192 384

MPI task timing breakdown:
Section |  min time  |  avg time  |  max time  |%varavg| %total
---------------------------------------------------------------
Pair    | 1.0939     | 3.0576     | 4.0647     |  48.3 | 71.11
Neigh   | 0          | 0          | 0          |   0.0 |  0.00
Comm    | 0.05648    | 0.68638    | 2.1375     |  73.2 | 15.96
Output  | 0          | 0          | 0          |   0.0 |  0.00
Modify  | 7.9913e-05 | 0.0064394  | 0.013728   |   3.8 |  0.15
Other   |            | 0.5492     |            |       | 12.77

Nlocal:        5552.90 ave        7909 max           0 min
Histogram: 4 2 2 0 2 6 4 0 15 17
Nghost:        6213.69 ave        8769 max         412 min
Histogram: 4 0 4 0 8 0 4 5 7 20
Neighs:       158427.0 ave      230538 max           0 min
Histogram: 4 2 2 0 5 3 4 4 12 16

Total # of neighbors = 8238198
Ave neighs/atom = 28.530457
Neighbor list builds = 0
Dangerous builds = 0
The dot product: -2.76929548566938e-08
Setting atom values ...
  1 settings made for x
  1 settings made for y
  1 settings made for z
Setting up cg style minimization ...
  Unit style    : metal
  Current step  : 2928
Per MPI rank memory allocation (min/avg/max) = 5.465 | 6.344 | 6.728 Mbytes
Step PotEng KinEng TotEng v_fx v_fy v_fz 
    2928   -1152448.9            0   -1152448.9  0.082457398  0.021484816 -0.0027561362 
    3000   -1152448.9            0   -1152448.9 -0.00049223676 -8.921957e-05 1.0950824e-05 
    3077   -1152448.9            0   -1152448.9 6.1987371e-05 1.2335488e-05 -1.5340935e-06 
Loop time of 3.35613 on 52 procs for 149 steps with 288751 atoms

99.9% CPU use with 52 MPI tasks x 1 OpenMP threads

Minimization stats:
  Stopping criterion = energy tolerance
  Energy initial, next-to-last, final = 
     -1152448.90688516  -1152448.90875031  -1152448.90875031
  Force two-norm initial, final = 0.20077309 0.00025230944
  Force max component initial, final = 0.082823883 6.1987371e-05
  Final line search alpha, max atom move = 1.0000000 6.1987371e-05
  Iterations, force evaluations = 149 298

MPI task timing breakdown:
Section |  min time  |  avg time  |  max time  |%varavg| %total
---------------------------------------------------------------
Pair    | 0.85287    | 2.3908     | 3.1585     |  42.7 | 71.24
Neigh   | 0          | 0          | 0          |   0.0 |  0.00
Comm    | 0.047141   | 0.53701    | 1.6761     |  64.7 | 16.00
Output  | 0.00023056 | 0.00023538 | 0.0003998  |   0.0 |  0.01
Modify  | 5.8403e-05 | 0.0050013  | 0.010578   |   3.3 |  0.15
Other   |            | 0.4231     |            |       | 12.61

Nlocal:        5552.90 ave        7909 max           0 min
Histogram: 4 2 2 0 2 6 4 0 15 17
Nghost:        6213.69 ave        8769 max         412 min
Histogram: 4 0 4 0 8 0 4 5 7 20
Neighs:       158427.0 ave      230543 max           0 min
Histogram: 4 2 2 0 5 3 4 4 12 16

Total # of neighbors = 8238198
Ave neighs/atom = 28.530457
Neighbor list builds = 0
Dangerous builds = 0
The dot product: 2.70036205340003e-07
Setting atom values ...
  1 settings made for x
  1 settings made for y
  1 settings made for z
Setting up cg style minimization ...
  Unit style    : metal
  Current step  : 3077
Per MPI rank memory allocation (min/avg/max) = 5.465 | 6.344 | 6.728 Mbytes
Step PotEng KinEng TotEng v_fx v_fy v_fz 
    3077   -1152448.9            0   -1152448.9  0.082145729  0.017765891 -0.0032944827 
    3238   -1152448.9            0   -1152448.9 -9.9035303e-06 -3.2158437e-06 5.4911383e-07 
Loop time of 3.6294 on 52 procs for 161 steps with 288751 atoms

99.9% CPU use with 52 MPI tasks x 1 OpenMP threads

Minimization stats:
  Stopping criterion = linesearch alpha is zero
  Energy initial, next-to-last, final = 
     -1152448.89569379  -1152448.89756152  -1152448.89756152
  Force two-norm initial, final = 0.1997655 0.00019458364
  Force max component initial, final = 0.083762516 6.9502399e-05
  Final line search alpha, max atom move = 0.25 1.7375600e-05
  Iterations, force evaluations = 161 325

MPI task timing breakdown:
Section |  min time  |  avg time  |  max time  |%varavg| %total
---------------------------------------------------------------
Pair    | 0.92653    | 2.591      | 3.4273     |  44.4 | 71.39
Neigh   | 0          | 0          | 0          |   0.0 |  0.00
Comm    | 0.04972    | 0.57736    | 1.8064     |  67.7 | 15.91
Output  | 0          | 0          | 0          |   0.0 |  0.00
Modify  | 6.6876e-05 | 0.0054426  | 0.011575   |   3.4 |  0.15
Other   |            | 0.4556     |            |       | 12.55

Nlocal:        5552.90 ave        7910 max           0 min
Histogram: 4 2 2 0 2 6 4 0 15 17
Nghost:        6213.67 ave        8769 max         412 min
Histogram: 4 0 4 0 8 0 4 5 7 20
Neighs:       158427.0 ave      230580 max           0 min
Histogram: 4 2 2 0 5 3 4 4 12 16

Total # of neighbors = 8238200
Ave neighs/atom = 28.530464
Neighbor list builds = 0
Dangerous builds = 0
The dot product: -3.28419059697261e-08
Setting atom values ...
  1 settings made for x
  1 settings made for y
  1 settings made for z
Setting up cg style minimization ...
  Unit style    : metal
  Current step  : 3238
Per MPI rank memory allocation (min/avg/max) = 5.465 | 6.344 | 6.728 Mbytes
Step PotEng KinEng TotEng v_fx v_fy v_fz 
    3238   -1152448.9            0   -1152448.9  0.080977266   0.01503577 -0.0036584137 
    3408   -1152448.9            0   -1152448.9 2.6069541e-05 7.5311072e-06 -1.5561469e-06 
Loop time of 3.81229 on 52 procs for 170 steps with 288751 atoms

99.9% CPU use with 52 MPI tasks x 1 OpenMP threads

Minimization stats:
  Stopping criterion = energy tolerance
  Energy initial, next-to-last, final = 
     -1152448.88317191  -1152448.88509012  -1152448.88509012
  Force two-norm initial, final = 0.19881374 0.00020672447
  Force max component initial, final = 0.085325799 5.3571138e-05
  Final line search alpha, max atom move = 1.0000000 5.3571138e-05
  Iterations, force evaluations = 170 340

MPI task timing breakdown:
Section |  min time  |  avg time  |  max time  |%varavg| %total
---------------------------------------------------------------
Pair    | 0.97044    | 2.7211     | 3.6043     |  45.6 | 71.38
Neigh   | 0          | 0          | 0          |   0.0 |  0.00
Comm    | 0.051984   | 0.60918    | 1.9049     |  69.4 | 15.98
Output  | 0          | 0          | 0          |   0.0 |  0.00
Modify  | 6.5875e-05 | 0.0056908  | 0.011976   |   3.5 |  0.15
Other   |            | 0.4764     |            |       | 12.50

Nlocal:        5552.90 ave        7910 max           0 min
Histogram: 4 2 2 0 2 6 4 0 15 17
Nghost:        6213.60 ave        8769 max         412 min
Histogram: 4 0 4 0 8 0 4 5 7 20
Neighs:       158427.0 ave      230583 max           0 min
Histogram: 4 2 2 0 5 3 4 4 12 16

Total # of neighbors = 8238197
Ave neighs/atom = 28.530454
Neighbor list builds = 0
Dangerous builds = 0
The dot product: -1.59155644951031e-09
Setting atom values ...
  1 settings made for x
  1 settings made for y
  1 settings made for z
Setting up cg style minimization ...
  Unit style    : metal
  Current step  : 3408
Per MPI rank memory allocation (min/avg/max) = 5.465 | 6.344 | 6.728 Mbytes
Step PotEng KinEng TotEng v_fx v_fy v_fz 
    3408   -1152448.9            0   -1152448.9  0.075942351   0.01337383 -0.0033276593 
    3561   -1152448.9            0   -1152448.9 -9.9458758e-06 -2.7581909e-06 5.760553e-07 
Loop time of 3.39959 on 52 procs for 153 steps with 288751 atoms

99.9% CPU use with 52 MPI tasks x 1 OpenMP threads

Minimization stats:
  Stopping criterion = energy tolerance
  Energy initial, next-to-last, final = 
     -1152448.86955837  -1152448.87211318  -1152448.87211318
  Force two-norm initial, final = 0.19728662 0.00010053079
  Force max component initial, final = 0.08591161 1.3781126e-05
  Final line search alpha, max atom move = 1.0000000 1.3781126e-05
  Iterations, force evaluations = 153 306

MPI task timing breakdown:
Section |  min time  |  avg time  |  max time  |%varavg| %total
---------------------------------------------------------------
Pair    | 0.87096    | 2.4433     | 3.2148     |  43.2 | 71.87
Neigh   | 0          | 0          | 0          |   0.0 |  0.00
Comm    | 0.045012   | 0.54278    | 1.7076     |  66.3 | 15.97
Output  | 0          | 0          | 0          |   0.0 |  0.00
Modify  | 6.033e-05  | 0.0051282  | 0.010928   |   3.3 |  0.15
Other   |            | 0.4084     |            |       | 12.01

Nlocal:        5552.90 ave        7911 max           0 min
Histogram: 4 2 2 0 2 6 4 0 15 17
Nghost:        6213.67 ave        8770 max         412 min
Histogram: 4 0 4 0 8 0 4 5 7 20
Neighs:       158427.0 ave      230623 max           0 min
Histogram: 4 2 2 0 5 3 4 4 12 16

Total # of neighbors = 8238194
Ave neighs/atom = 28.530443
Neighbor list builds = 0
Dangerous builds = 0
The dot product: 1.75905191790597e-07
Setting atom values ...
  1 settings made for x
  1 settings made for y
  1 settings made for z
Setting up cg style minimization ...
  Unit style    : metal
  Current step  : 3561
Per MPI rank memory allocation (min/avg/max) = 5.465 | 6.344 | 6.728 Mbytes
Step PotEng KinEng TotEng v_fx v_fy v_fz 
    3561   -1152448.9            0   -1152448.9  0.049973562  0.013572723 -0.00063056511 
    3750   -1152448.9            0   -1152448.9 3.8660381e-05 6.5492146e-06 5.3378662e-08 
Loop time of 4.24209 on 52 procs for 189 steps with 288751 atoms

99.9% CPU use with 52 MPI tasks x 1 OpenMP threads

Minimization stats:
  Stopping criterion = energy tolerance
  Energy initial, next-to-last, final = 
     -1152448.85638822  -1152448.85869055  -1152448.85869055
  Force two-norm initial, final = 0.19283731 0.00014849724
  Force max component initial, final = 0.085566599 4.6589147e-05
  Final line search alpha, max atom move = 1.0000000 4.6589147e-05
  Iterations, force evaluations = 189 378

MPI task timing breakdown:
Section |  min time  |  avg time  |  max time  |%varavg| %total
---------------------------------------------------------------
Pair    | 1.0728     | 3.0135     | 4.0086     |  48.1 | 71.04
Neigh   | 0          | 0          | 0          |   0.0 |  0.00
Comm    | 0.056221   | 0.67817    | 2.1027     |  72.6 | 15.99
Output  | 0          | 0          | 0          |   0.0 |  0.00
Modify  | 8.183e-05  | 0.0063205  | 0.01333    |   3.7 |  0.15
Other   |            | 0.5441     |            |       | 12.83

Nlocal:        5552.90 ave        7912 max           0 min
Histogram: 4 2 2 0 2 6 4 0 15 17
Nghost:        6213.62 ave        8769 max         412 min
Histogram: 4 0 4 0 8 0 4 5 7 20
Neighs:       158427.0 ave      230659 max           0 min
Histogram: 4 2 2 0 5 3 4 4 12 16

Total # of neighbors = 8238193
Ave neighs/atom = 28.530440
Neighbor list builds = 0
Dangerous builds = 0
The dot product: -5.47912178265009e-07
Setting atom values ...
  1 settings made for x
  1 settings made for y
  1 settings made for z
Setting up cg style minimization ...
  Unit style    : metal
  Current step  : 3750
Per MPI rank memory allocation (min/avg/max) = 5.465 | 6.344 | 6.728 Mbytes
Step PotEng KinEng TotEng v_fx v_fy v_fz 
    3750   -1152448.8            0   -1152448.8  0.055795576  0.011944382  0.001641305 
    3959   -1152448.8            0   -1152448.8 5.5579101e-06 -9.3201567e-07 4.4627513e-07 
Loop time of 4.65771 on 52 procs for 209 steps with 288751 atoms

99.9% CPU use with 52 MPI tasks x 1 OpenMP threads

Minimization stats:
  Stopping criterion = linesearch alpha is zero
  Energy initial, next-to-last, final = 
     -1152448.84177723  -1152448.84384683  -1152448.84384683
  Force two-norm initial, final = 0.19720955 8.4781606e-05
  Force max component initial, final = 0.089932652 1.3357093e-05
  Final line search alpha, max atom move = 0.5 6.6785467e-06
  Iterations, force evaluations = 209 419

MPI task timing breakdown:
Section |  min time  |  avg time  |  max time  |%varavg| %total
---------------------------------------------------------------
Pair    | 1.1927     | 3.3345     | 4.3826     |  50.3 | 71.59
Neigh   | 0          | 0          | 0          |   0.0 |  0.00
Comm    | 0.062612   | 0.7396     | 2.3335     |  77.5 | 15.88
Output  | 0          | 0          | 0          |   0.0 |  0.00
Modify  | 7.6734e-05 | 0.0070075  | 0.014749   |   3.9 |  0.15
Other   |            | 0.5766     |            |       | 12.38

Nlocal:        5552.90 ave        7913 max           0 min
Histogram: 4 2 2 0 2 6 4 1 14 17
Nghost:        6213.73 ave        8770 max         412 min
Histogram: 4 0 4 0 8 0 4 5 7 20
Neighs:       158427.0 ave      230697 max           0 min
Histogram: 4 2 2 0 5 3 4 4 12 16

Total # of neighbors = 8238192
Ave neighs/atom = 28.530436
Neighbor list builds = 0
Dangerous builds = 0
The dot product: -5.61492928791272e-08
Setting atom values ...
  1 settings made for x
  1 settings made for y
  1 settings made for z
Setting up cg style minimization ...
  Unit style    : metal
  Current step  : 3959
Per MPI rank memory allocation (min/avg/max) = 5.465 | 6.344 | 6.728 Mbytes
Step PotEng KinEng TotEng v_fx v_fy v_fz 
    3959   -1152448.8            0   -1152448.8  0.061026811 0.0093586223 0.0038083378 
    4000   -1152448.8            0   -1152448.8 -0.00084947838 -0.00016746904 -4.8256211e-05 
    4130   -1152448.8            0   -1152448.8 5.1846181e-05 1.2398964e-05 2.6668422e-06 
Loop time of 3.87654 on 52 procs for 171 steps with 288751 atoms

99.9% CPU use with 52 MPI tasks x 1 OpenMP threads

Minimization stats:
  Stopping criterion = linesearch alpha is zero
  Energy initial, next-to-last, final = 
      -1152448.8255818  -1152448.82773752  -1152448.82773752
  Force two-norm initial, final = 0.20061916 0.00021453426
  Force max component initial, final = 0.094288641 5.1846181e-05
  Final line search alpha, max atom move = 0.25 1.2961545e-05
  Iterations, force evaluations = 171 345

MPI task timing breakdown:
Section |  min time  |  avg time  |  max time  |%varavg| %total
---------------------------------------------------------------
Pair    | 0.98147    | 2.7596     | 3.6645     |  46.1 | 71.19
Neigh   | 0          | 0          | 0          |   0.0 |  0.00
Comm    | 0.056428   | 0.62005    | 1.933      |  69.9 | 15.99
Output  | 0.00013701 | 0.0001412  | 0.0003015  |   0.0 |  0.00
Modify  | 6.3335e-05 | 0.0057637  | 0.012132   |   3.5 |  0.15
Other   |            | 0.491      |            |       | 12.67

Nlocal:        5552.90 ave        7914 max           0 min
Histogram: 4 2 2 0 2 6 4 1 14 17
Nghost:        6213.73 ave        8770 max         412 min
Histogram: 4 0 4 0 8 0 4 5 7 20
Neighs:       158427.0 ave      230715 max           0 min
Histogram: 4 2 2 0 5 3 4 4 12 16

Total # of neighbors = 8238191
Ave neighs/atom = 28.530433
Neighbor list builds = 0
Dangerous builds = 0
The dot product: -5.0787472450904e-07
Setting atom values ...
  1 settings made for x
  1 settings made for y
  1 settings made for z
Setting up cg style minimization ...
  Unit style    : metal
  Current step  : 4130
Per MPI rank memory allocation (min/avg/max) = 5.465 | 6.344 | 6.728 Mbytes
Step PotEng KinEng TotEng v_fx v_fy v_fz 
    4130   -1152448.8            0   -1152448.8  0.063842728 0.0079449576 0.0055483936 
    4289   -1152448.8            0   -1152448.8 5.8850719e-05 9.5220122e-06 4.8466095e-06 
Loop time of 3.5874 on 52 procs for 159 steps with 288751 atoms

99.9% CPU use with 52 MPI tasks x 1 OpenMP threads

Minimization stats:
  Stopping criterion = linesearch alpha is zero
  Energy initial, next-to-last, final = 
     -1152448.80819414  -1152448.81021314  -1152448.81021314
  Force two-norm initial, final = 0.20314361 0.00023293578
  Force max component initial, final = 0.098065394 7.6669253e-05
  Final line search alpha, max atom move = 0.125 9.5836566e-06
  Iterations, force evaluations = 159 323

MPI task timing breakdown:
Section |  min time  |  avg time  |  max time  |%varavg| %total
---------------------------------------------------------------
Pair    | 0.92155    | 2.5727     | 3.3931     |  44.2 | 71.72
Neigh   | 0          | 0          | 0          |   0.0 |  0.00
Comm    | 0.04757    | 0.57134    | 1.8024     |  67.9 | 15.93
Output  | 0          | 0          | 0          |   0.0 |  0.00
Modify  | 6.8952e-05 | 0.005411   | 0.011429   |   3.4 |  0.15
Other   |            | 0.4379     |            |       | 12.21

Nlocal:        5552.90 ave        7917 max           0 min
Histogram: 4 2 2 0 2 6 4 1 14 17
Nghost:        6213.73 ave        8770 max         412 min
Histogram: 4 0 4 0 8 0 4 5 7 20
Neighs:       158427.0 ave      230792 max           0 min
Histogram: 4 2 2 0 5 3 4 4 12 16

Total # of neighbors = 8238192
Ave neighs/atom = 28.530436
Neighbor list builds = 0
Dangerous builds = 0
The dot product: -3.0438764623236e-07
Setting atom values ...
  1 settings made for x
  1 settings made for y
  1 settings made for z
Setting up cg style minimization ...
  Unit style    : metal
  Current step  : 4289
Per MPI rank memory allocation (min/avg/max) = 5.465 | 6.344 | 6.728 Mbytes
Step PotEng KinEng TotEng v_fx v_fy v_fz 
    4289   -1152448.8            0   -1152448.8   0.07213377 0.0084641004 0.0071023632 
    4452   -1152448.8            0   -1152448.8 5.2122115e-05 1.2966318e-05 4.3267297e-06 
Loop time of 3.70676 on 52 procs for 163 steps with 288751 atoms

99.9% CPU use with 52 MPI tasks x 1 OpenMP threads

Minimization stats:
  Stopping criterion = linesearch alpha is zero
  Energy initial, next-to-last, final = 
     -1152448.78928187  -1152448.79125529  -1152448.79125529
  Force two-norm initial, final = 0.20668954 0.00016452457
  Force max component initial, final = 0.10003352 5.2122115e-05
  Final line search alpha, max atom move = 0.25 1.3030529e-05
  Iterations, force evaluations = 163 329

MPI task timing breakdown:
Section |  min time  |  avg time  |  max time  |%varavg| %total
---------------------------------------------------------------
Pair    | 0.93661    | 2.6342     | 3.4851     |  45.0 | 71.07
Neigh   | 0          | 0          | 0          |   0.0 |  0.00
Comm    | 0.048827   | 0.59509    | 1.8523     |  67.7 | 16.05
Output  | 0          | 0          | 0          |   0.0 |  0.00
Modify  | 6.0761e-05 | 0.0055153  | 0.011629   |   3.5 |  0.15
Other   |            | 0.4719     |            |       | 12.73

Nlocal:        5552.90 ave        7917 max           0 min
Histogram: 4 2 2 0 2 6 4 1 14 17
Nghost:        6213.63 ave        8769 max         412 min
Histogram: 4 0 4 0 8 0 4 5 7 20
Neighs:       158427.0 ave      230791 max           0 min
Histogram: 4 2 2 0 5 3 4 4 12 16

Total # of neighbors = 8238191
Ave neighs/atom = 28.530433
Neighbor list builds = 0
Dangerous builds = 0
The dot product: -9.71964961445848e-08
Setting atom values ...
  1 settings made for x
  1 settings made for y
  1 settings made for z
Setting up cg style minimization ...
  Unit style    : metal
  Current step  : 4452
Per MPI rank memory allocation (min/avg/max) = 5.465 | 6.344 | 6.728 Mbytes
Step PotEng KinEng TotEng v_fx v_fy v_fz 
    4452   -1152448.8            0   -1152448.8  0.078861287 0.0086178552 0.0080971885 
    4647   -1152448.8            0   -1152448.8 -1.1429125e-06 -6.6075174e-07 -5.6273579e-08 
Loop time of 4.39075 on 52 procs for 195 steps with 288751 atoms

99.9% CPU use with 52 MPI tasks x 1 OpenMP threads

Minimization stats:
  Stopping criterion = linesearch alpha is zero
  Energy initial, next-to-last, final = 
     -1152448.76890009  -1152448.77078727  -1152448.77078727
  Force two-norm initial, final = 0.20913032 5.7847093e-05
  Force max component initial, final = 0.10057391 1.4516028e-05
  Final line search alpha, max atom move = 0.5 7.2580139e-06
  Iterations, force evaluations = 195 391

MPI task timing breakdown:
Section |  min time  |  avg time  |  max time  |%varavg| %total
---------------------------------------------------------------
Pair    | 1.1097     | 3.1152     | 4.1511     |  48.9 | 70.95
Neigh   | 0          | 0          | 0          |   0.0 |  0.00
Comm    | 0.057191   | 0.7021     | 2.178      |  73.8 | 15.99
Output  | 0          | 0          | 0          |   0.0 |  0.00
Modify  | 8.452e-05  | 0.006526   | 0.013825   |   3.8 |  0.15
Other   |            | 0.5669     |            |       | 12.91

Nlocal:        5552.90 ave        7917 max           0 min
Histogram: 4 2 2 0 2 6 4 1 14 17
Nghost:        6213.58 ave        8768 max         412 min
Histogram: 4 0 4 0 8 0 4 5 7 20
Neighs:       158427.0 ave      230782 max           0 min
Histogram: 4 2 2 0 5 3 4 4 12 16

Total # of neighbors = 8238188
Ave neighs/atom = 28.530422
Neighbor list builds = 0
Dangerous builds = 0
The dot product: -1.10061523529793e-09
Setting atom values ...
  1 settings made for x
  1 settings made for y
  1 settings made for z
Setting up cg style minimization ...
  Unit style    : metal
  Current step  : 4647
Per MPI rank memory allocation (min/avg/max) = 5.465 | 6.344 | 6.728 Mbytes
Step PotEng KinEng TotEng v_fx v_fy v_fz 
    4647   -1152448.7            0   -1152448.7  0.085336265 0.0082859119 0.0085727129 
    4827   -1152448.7            0   -1152448.7 -1.6762218e-05 -3.3749318e-06 -1.4910492e-06 
Loop time of 4.01272 on 52 procs for 180 steps with 288751 atoms

99.9% CPU use with 52 MPI tasks x 1 OpenMP threads

Minimization stats:
  Stopping criterion = linesearch alpha is zero
  Energy initial, next-to-last, final = 
      -1152448.7469311  -1152448.74879111  -1152448.74879111
  Force two-norm initial, final = 0.21088751 6.4615915e-05
  Force max component initial, final = 0.099801374 1.8565092e-05
  Final line search alpha, max atom move = 0.5 9.2825458e-06
  Iterations, force evaluations = 180 361

MPI task timing breakdown:
Section |  min time  |  avg time  |  max time  |%varavg| %total
---------------------------------------------------------------
Pair    | 1.0299     | 2.887      | 3.7932     |  46.9 | 71.95
Neigh   | 0          | 0          | 0          |   0.0 |  0.00
Comm    | 0.055461   | 0.64236    | 2.0301     |  72.1 | 16.01
Output  | 0          | 0          | 0          |   0.0 |  0.00
Modify  | 6.5279e-05 | 0.006058   | 0.012787   |   3.6 |  0.15
Other   |            | 0.4773     |            |       | 11.90

Nlocal:        5552.90 ave        7917 max           0 min
Histogram: 4 2 2 0 2 6 4 1 14 17
Nghost:        6213.62 ave        8768 max         412 min
Histogram: 4 0 4 0 8 0 4 5 7 20
Neighs:       158427.0 ave      230775 max           0 min
Histogram: 4 2 2 0 5 3 4 4 12 16

Total # of neighbors = 8238188
Ave neighs/atom = 28.530422
Neighbor list builds = 0
Dangerous builds = 0
The dot product: -6.44553481843444e-08
Setting atom values ...
  1 settings made for x
  1 settings made for y
  1 settings made for z
Setting up cg style minimization ...
  Unit style    : metal
  Current step  : 4827
Per MPI rank memory allocation (min/avg/max) = 5.465 | 6.344 | 6.728 Mbytes
Step PotEng KinEng TotEng v_fx v_fy v_fz 
    4827   -1152448.7            0   -1152448.7  0.089273396 0.0082787616 0.0083344099 
    4979   -1152448.7            0   -1152448.7 3.9554688e-05 5.7517939e-06 3.4705415e-06 
Loop time of 3.41293 on 52 procs for 152 steps with 288751 atoms

99.9% CPU use with 52 MPI tasks x 1 OpenMP threads

Minimization stats:
  Stopping criterion = energy tolerance
  Energy initial, next-to-last, final = 
     -1152448.72343871  -1152448.72527585  -1152448.72527585
  Force two-norm initial, final = 0.21132616 0.00018400325
  Force max component initial, final = 0.098168709 7.7847670e-05
  Final line search alpha, max atom move = 1.0000000 7.7847670e-05
  Iterations, force evaluations = 152 306

MPI task timing breakdown:
Section |  min time  |  avg time  |  max time  |%varavg| %total
---------------------------------------------------------------
Pair    | 0.87314    | 2.4443     | 3.218      |  43.1 | 71.62
Neigh   | 0          | 0          | 0          |   0.0 |  0.00
Comm    | 0.044954   | 0.54386    | 1.7072     |  66.2 | 15.94
Output  | 0          | 0          | 0          |   0.0 |  0.00
Modify  | 6.0275e-05 | 0.0051184  | 0.010877   |   3.3 |  0.15
Other   |            | 0.4197     |            |       | 12.30

Nlocal:        5552.90 ave        7917 max           0 min
Histogram: 4 2 2 0 2 6 4 1 14 17
Nghost:        6213.54 ave        8768 max         412 min
Histogram: 4 0 4 0 8 0 4 5 7 20
Neighs:       158427.0 ave      230777 max           0 min
Histogram: 4 2 2 0 5 3 4 4 12 16

Total # of neighbors = 8238186
Ave neighs/atom = 28.530415
Neighbor list builds = 0
Dangerous builds = 0
The dot product: 2.10491166371158e-07
Setting atom values ...
  1 settings made for x
  1 settings made for y
  1 settings made for z
Setting up cg style minimization ...
  Unit style    : metal
  Current step  : 4979
Per MPI rank memory allocation (min/avg/max) = 5.465 | 6.344 | 6.728 Mbytes
Step PotEng KinEng TotEng v_fx v_fy v_fz 
    4979   -1152448.7            0   -1152448.7  0.091381037 0.0089826038 0.0075869712 
    5000   -1152448.7            0   -1152448.7 -0.00037424271 -0.00010023931 -2.453926e-05 
    5135   -1152448.7            0   -1152448.7 4.6815148e-05 7.6129164e-06 3.5768639e-06 
Loop time of 3.51119 on 52 procs for 156 steps with 288751 atoms

99.9% CPU use with 52 MPI tasks x 1 OpenMP threads

Minimization stats:
  Stopping criterion = energy tolerance
  Energy initial, next-to-last, final = 
     -1152448.69844899  -1152448.70025766  -1152448.70025766
  Force two-norm initial, final = 0.21087605 0.00016484979
  Force max component initial, final = 0.096109075 7.3505883e-05
  Final line search alpha, max atom move = 1.0000000 7.3505883e-05
  Iterations, force evaluations = 156 312

MPI task timing breakdown:
Section |  min time  |  avg time  |  max time  |%varavg| %total
---------------------------------------------------------------
Pair    | 0.88914    | 2.4948     | 3.3114     |  43.7 | 71.05
Neigh   | 0          | 0          | 0          |   0.0 |  0.00
Comm    | 0.046423   | 0.56028    | 1.743      |  66.3 | 15.96
Output  | 0.00013119 | 0.00013515 | 0.00029176 |   0.0 |  0.00
Modify  | 6.7348e-05 | 0.0052149  | 0.010997   |   3.4 |  0.15
Other   |            | 0.4507     |            |       | 12.84

Nlocal:        5552.90 ave        7917 max           0 min
Histogram: 4 2 2 0 2 6 4 1 14 17
Nghost:        6213.50 ave        8768 max         412 min
Histogram: 4 0 4 0 8 0 4 5 7 20
Neighs:       158427.0 ave      230768 max           0 min
Histogram: 4 2 2 0 5 3 4 4 12 16

Total # of neighbors = 8238188
Ave neighs/atom = 28.530422
Neighbor list builds = 0
Dangerous builds = 0
The dot product: 2.89465629739352e-07
Setting atom values ...
  1 settings made for x
  1 settings made for y
  1 settings made for z
Setting up cg style minimization ...
  Unit style    : metal
  Current step  : 5135
Per MPI rank memory allocation (min/avg/max) = 5.465 | 6.344 | 6.728 Mbytes
Step PotEng KinEng TotEng v_fx v_fy v_fz 
    5135   -1152448.7            0   -1152448.7  0.092042437  0.010575858 0.0064828825 
    5318   -1152448.7            0   -1152448.7 -2.1015999e-05 -3.007897e-06 -1.4212286e-06 
Loop time of 4.05698 on 52 procs for 183 steps with 288751 atoms

99.9% CPU use with 52 MPI tasks x 1 OpenMP threads

Minimization stats:
  Stopping criterion = linesearch alpha is zero
  Energy initial, next-to-last, final = 
     -1152448.67198622  -1152448.67375888  -1152448.67375888
  Force two-norm initial, final = 0.20971051 5.8999448e-05
  Force max component initial, final = 0.093554037 2.3138281e-05
  Final line search alpha, max atom move = 0.5 1.1569140e-05
  Iterations, force evaluations = 183 367

MPI task timing breakdown:
Section |  min time  |  avg time  |  max time  |%varavg| %total
---------------------------------------------------------------
Pair    | 1.0245     | 2.9166     | 3.8329     |  47.5 | 71.89
Neigh   | 0          | 0          | 0          |   0.0 |  0.00
Comm    | 0.058154   | 0.64749    | 2.0465     |  72.8 | 15.96
Output  | 0          | 0          | 0          |   0.0 |  0.00
Modify  | 7.0672e-05 | 0.006088   | 0.012865   |   3.6 |  0.15
Other   |            | 0.4868     |            |       | 12.00

Nlocal:        5552.90 ave        7917 max           0 min
Histogram: 4 2 2 0 2 6 4 1 14 17
Nghost:        6213.52 ave        8768 max         412 min
Histogram: 4 0 4 0 8 0 4 5 7 20
Neighs:       158427.0 ave      230768 max           0 min
Histogram: 4 2 2 0 5 3 4 4 12 16

Total # of neighbors = 8238186
Ave neighs/atom = 28.530415
Neighbor list builds = 0
Dangerous builds = 0
The dot product: -1.43973978136512e-07
Setting atom values ...
  1 settings made for x
  1 settings made for y
  1 settings made for z
Setting up cg style minimization ...
  Unit style    : metal
  Current step  : 5318
Per MPI rank memory allocation (min/avg/max) = 5.465 | 6.344 | 6.728 Mbytes
Step PotEng KinEng TotEng v_fx v_fy v_fz 
    5318   -1152448.6            0   -1152448.6  0.091429187  0.013228889 0.0051209404 
    5491   -1152448.6            0   -1152448.6 -9.8725525e-06 -2.2294365e-06 -4.7568187e-07 
Loop time of 3.93697 on 52 procs for 173 steps with 288751 atoms

99.9% CPU use with 52 MPI tasks x 1 OpenMP threads

Minimization stats:
  Stopping criterion = linesearch alpha is zero
  Energy initial, next-to-last, final = 
     -1152448.64407772  -1152448.64580788  -1152448.64580788
  Force two-norm initial, final = 0.20802712 9.3676436e-05
  Force max component initial, final = 0.091429187 2.5997394e-05
  Final line search alpha, max atom move = 0.5 1.2998697e-05
  Iterations, force evaluations = 173 347

MPI task timing breakdown:
Section |  min time  |  avg time  |  max time  |%varavg| %total
---------------------------------------------------------------
Pair    | 0.99105    | 2.7793     | 3.7167     |  46.2 | 70.59
Neigh   | 0          | 0          | 0          |   0.0 |  0.00
Comm    | 0.051562   | 0.63021    | 1.9388     |  69.2 | 16.01
Output  | 0          | 0          | 0          |   0.0 |  0.00
Modify  | 7.506e-05  | 0.0058246  | 0.012343   |   3.6 |  0.15
Other   |            | 0.5216     |            |       | 13.25

Nlocal:        5552.90 ave        7917 max           0 min
Histogram: 4 2 2 0 2 6 4 1 14 17
Nghost:        6213.52 ave        8768 max         412 min
Histogram: 4 0 4 0 8 0 4 5 7 20
Neighs:       158427.0 ave      230749 max           0 min
Histogram: 4 2 2 0 5 3 4 4 12 16

Total # of neighbors = 8238188
Ave neighs/atom = 28.530422
Neighbor list builds = 0
Dangerous builds = 0
The dot product: -7.12206694592842e-08
Setting atom values ...
  1 settings made for x
  1 settings made for y
  1 settings made for z
Setting up cg style minimization ...
  Unit style    : metal
  Current step  : 5491
Per MPI rank memory allocation (min/avg/max) = 5.465 | 6.344 | 6.728 Mbytes
Step PotEng KinEng TotEng v_fx v_fy v_fz 
    5491   -1152448.6            0   -1152448.6  0.089736757  0.017249873 0.0035605639 
    5644   -1152448.6            0   -1152448.6 -1.5889034e-06 2.9244183e-06 -3.6763833e-07 
Loop time of 3.44573 on 52 procs for 153 steps with 288751 atoms

99.9% CPU use with 52 MPI tasks x 1 OpenMP threads

Minimization stats:
  Stopping criterion = linesearch alpha is zero
  Energy initial, next-to-last, final = 
     -1152448.61475534   -1152448.6164414   -1152448.6164414
  Force two-norm initial, final = 0.20617953 0.00018737755
  Force max component initial, final = 0.089736757 4.3648152e-05
  Final line search alpha, max atom move = 0.25 1.0912038e-05
  Iterations, force evaluations = 153 309

MPI task timing breakdown:
Section |  min time  |  avg time  |  max time  |%varavg| %total
---------------------------------------------------------------
Pair    | 0.87956    | 2.4609     | 3.2599     |  43.3 | 71.42
Neigh   | 0          | 0          | 0          |   0.0 |  0.00
Comm    | 0.046727   | 0.54873    | 1.7188     |  66.1 | 15.93
Output  | 0          | 0          | 0          |   0.0 |  0.00
Modify  | 6.2717e-05 | 0.0051907  | 0.010958   |   3.3 |  0.15
Other   |            | 0.4309     |            |       | 12.51

Nlocal:        5552.90 ave        7917 max           0 min
Histogram: 4 2 2 0 2 6 4 1 14 17
Nghost:        6213.52 ave        8768 max         412 min
Histogram: 4 0 4 0 8 0 4 5 7 20
Neighs:       158427.0 ave      230755 max           0 min
Histogram: 4 2 2 0 5 3 4 4 12 16

Total # of neighbors = 8238188
Ave neighs/atom = 28.530422
Neighbor list builds = 0
Dangerous builds = 0
The dot product: -1.39111883183862e-08
Setting atom values ...
  1 settings made for x
  1 settings made for y
  1 settings made for z
Setting up cg style minimization ...
  Unit style    : metal
  Current step  : 5644
Per MPI rank memory allocation (min/avg/max) = 5.465 | 6.344 | 6.728 Mbytes
Step PotEng KinEng TotEng v_fx v_fy v_fz 
    5644   -1152448.6            0   -1152448.6  0.086973709  0.022380253 0.0018700175 
    5812   -1152448.6            0   -1152448.6 -1.3003547e-05 -7.3455572e-09 -5.9178558e-07 
Loop time of 3.74784 on 52 procs for 168 steps with 288751 atoms

99.9% CPU use with 52 MPI tasks x 1 OpenMP threads

Minimization stats:
  Stopping criterion = linesearch alpha is zero
  Energy initial, next-to-last, final = 
      -1152448.5840677  -1152448.58571159  -1152448.58571159
  Force two-norm initial, final = 0.20424915 0.00011024692
  Force max component initial, final = 0.086973709 2.2238737e-05
  Final line search alpha, max atom move = 0.5 1.1119369e-05
  Iterations, force evaluations = 168 337

MPI task timing breakdown:
Section |  min time  |  avg time  |  max time  |%varavg| %total
---------------------------------------------------------------
Pair    | 0.96139    | 2.6968     | 3.5446     |  45.4 | 71.96
Neigh   | 0          | 0          | 0          |   0.0 |  0.00
Comm    | 0.049554   | 0.60107    | 1.8963     |  69.8 | 16.04
Output  | 0          | 0          | 0          |   0.0 |  0.00
Modify  | 6.2177e-05 | 0.0056495  | 0.011922   |   3.5 |  0.15
Other   |            | 0.4443     |            |       | 11.85

Nlocal:        5552.90 ave        7917 max           0 min
Histogram: 4 2 2 0 2 6 4 1 14 17
Nghost:        6213.56 ave        8768 max         412 min
Histogram: 4 0 4 0 8 0 4 5 7 20
Neighs:       158427.0 ave      230757 max           0 min
Histogram: 4 2 2 0 5 3 4 4 12 16

Total # of neighbors = 8238187
Ave neighs/atom = 28.530419
Neighbor list builds = 0
Dangerous builds = 0
The dot product: -1.05000304210967e-07
Setting atom values ...
  1 settings made for x
  1 settings made for y
  1 settings made for z
Setting up cg style minimization ...
  Unit style    : metal
  Current step  : 5812
Per MPI rank memory allocation (min/avg/max) = 5.465 | 6.344 | 6.728 Mbytes
Step PotEng KinEng TotEng v_fx v_fy v_fz 
    5812   -1152448.6            0   -1152448.6   0.08312204  0.029198773 -7.2925046e-06 
    5958   -1152448.6            0   -1152448.6 -4.9787806e-05 -3.3743126e-06 -1.3373039e-06 
Loop time of 3.28201 on 52 procs for 146 steps with 288751 atoms

99.9% CPU use with 52 MPI tasks x 1 OpenMP threads

Minimization stats:
  Stopping criterion = energy tolerance
  Energy initial, next-to-last, final = 
     -1152448.55213322  -1152448.55375255  -1152448.55375255
  Force two-norm initial, final = 0.20222545 0.00022431806
  Force max component initial, final = 0.087952769 5.0338299e-05
  Final line search alpha, max atom move = 1.0000000 5.0338299e-05
  Iterations, force evaluations = 146 292

MPI task timing breakdown:
Section |  min time  |  avg time  |  max time  |%varavg| %total
---------------------------------------------------------------
Pair    | 0.83326    | 2.3274     | 3.088      |  42.1 | 70.92
Neigh   | 0          | 0          | 0          |   0.0 |  0.00
Comm    | 0.044134   | 0.52251    | 1.6267     |  63.8 | 15.92
Output  | 0          | 0          | 0          |   0.0 |  0.00
Modify  | 6.1391e-05 | 0.004902   | 0.010409   |   3.3 |  0.15
Other   |            | 0.4272     |            |       | 13.01

Nlocal:        5552.90 ave        7917 max           0 min
Histogram: 4 2 2 0 2 6 4 1 14 17
Nghost:        6213.56 ave        8768 max         412 min
Histogram: 4 0 4 0 8 0 4 5 7 20
Neighs:       158427.0 ave      230763 max           0 min
Histogram: 4 2 2 0 5 3 4 4 12 16

Total # of neighbors = 8238193
Ave neighs/atom = 28.530440
Neighbor list builds = 0
Dangerous builds = 0
The dot product: -4.63140936561728e-07
Setting atom values ...
  1 settings made for x
  1 settings made for y
  1 settings made for z
Setting up cg style minimization ...
  Unit style    : metal
  Current step  : 5958
Per MPI rank memory allocation (min/avg/max) = 5.465 | 6.344 | 6.728 Mbytes
Step PotEng KinEng TotEng v_fx v_fy v_fz 
    5958   -1152448.5            0   -1152448.5  0.078995099  0.053312405 -0.0039488465 
    6000   -1152448.6            0   -1152448.6  0.007334423 0.00033005502 0.00011377058 
    6225   -1152448.6            0   -1152448.6 -2.1564439e-05 -4.288666e-06 1.0554598e-08 
Loop time of 6.0037 on 52 procs for 267 steps with 288751 atoms

99.9% CPU use with 52 MPI tasks x 1 OpenMP threads

Minimization stats:
  Stopping criterion = linesearch alpha is zero
  Energy initial, next-to-last, final = 
      -1152448.5193346  -1152448.61344964  -1152448.61344964
  Force two-norm initial, final = 0.20528595 0.0001476297
  Force max component initial, final = 0.089618417 4.7148161e-05
  Final line search alpha, max atom move = 0.5 2.3574080e-05
  Iterations, force evaluations = 267 536

MPI task timing breakdown:
Section |  min time  |  avg time  |  max time  |%varavg| %total
---------------------------------------------------------------
Pair    | 1.5385     | 4.2824     | 5.661      |  57.0 | 71.33
Neigh   | 3.8088e-05 | 0.011651   | 0.017234   |   4.6 |  0.19
Comm    | 0.081488   | 0.95848    | 2.9973     |  87.1 | 15.96
Output  | 0.00013393 | 0.00013881 | 0.0003174  |   0.0 |  0.00
Modify  | 8.4829e-05 | 0.0089699  | 0.018968   |   4.4 |  0.15
Other   |            | 0.742      |            |       | 12.36

Nlocal:        5552.90 ave        7915 max           0 min
Histogram: 4 2 2 0 2 6 4 1 14 17
Nghost:        6213.54 ave        8768 max         412 min
Histogram: 4 0 4 0 8 0 4 5 7 20
Neighs:       158427.0 ave      230714 max           0 min
Histogram: 4 2 2 0 5 3 4 4 12 16

Total # of neighbors = 8238205
Ave neighs/atom = 28.530481
Neighbor list builds = 2
Dangerous builds = 0
The dot product: -2.2322125673734e-06
Setting atom values ...
  1 settings made for x
  1 settings made for y
  1 settings made for z
Setting up cg style minimization ...
  Unit style    : metal
  Current step  : 6225
Per MPI rank memory allocation (min/avg/max) = 5.465 | 6.344 | 6.728 Mbytes
Step PotEng KinEng TotEng v_fx v_fy v_fz 
    6225   -1152448.6            0   -1152448.6    0.0855094   0.13435979 -0.082055682 
    6515     -1152449            0     -1152449 -2.9761906e-06 1.3804046e-05 -7.9660193e-06 
Loop time of 6.4812 on 52 procs for 290 steps with 288751 atoms

99.9% CPU use with 52 MPI tasks x 1 OpenMP threads

Minimization stats:
  Stopping criterion = linesearch alpha is zero
  Energy initial, next-to-last, final = 
     -1152448.60700482   -1152449.0002468   -1152449.0002468
  Force two-norm initial, final = 0.22909134 0.0001260811
  Force max component initial, final = 0.13435979 1.9089810e-05
  Final line search alpha, max atom move = 0.5 9.5449049e-06
  Iterations, force evaluations = 290 582

MPI task timing breakdown:
Section |  min time  |  avg time  |  max time  |%varavg| %total
---------------------------------------------------------------
Pair    | 1.6733     | 4.6385     | 6.0701     |  59.0 | 71.57
Neigh   | 0.00011583 | 0.034835   | 0.052137   |   7.9 |  0.54
Comm    | 0.088574   | 1.0359     | 3.2611     |  91.1 | 15.98
Output  | 0          | 0          | 0          |   0.0 |  0.00
Modify  | 0.00010976 | 0.0096512  | 0.020473   |   4.6 |  0.15
Other   |            | 0.7623     |            |       | 11.76

Nlocal:        5552.90 ave        7900 max           0 min
Histogram: 4 2 2 0 2 6 4 0 14 18
Nghost:        6213.73 ave        8769 max         412 min
Histogram: 4 0 4 0 8 0 4 5 7 20
Neighs:       158427.0 ave      230231 max           0 min
Histogram: 4 2 2 0 5 3 4 4 12 16

Total # of neighbors = 8238209
Ave neighs/atom = 28.530495
Neighbor list builds = 6
Dangerous builds = 0
The dot product: 4.78036984843083e-06
Setting atom values ...
  1 settings made for x
  1 settings made for y
  1 settings made for z
Setting up cg style minimization ...
  Unit style    : metal
  Current step  : 6515
Per MPI rank memory allocation (min/avg/max) = 5.465 | 6.344 | 6.728 Mbytes
Step PotEng KinEng TotEng v_fx v_fy v_fz 
    6515     -1152449            0     -1152449  -0.58126306  -0.11162923   0.80610251 
    6790   -1152449.2            0   -1152449.2 -1.826658e-05 2.2650558e-05 -1.5130396e-05 
Loop time of 6.14582 on 52 procs for 275 steps with 288751 atoms

99.9% CPU use with 52 MPI tasks x 1 OpenMP threads

Minimization stats:
  Stopping criterion = energy tolerance
  Energy initial, next-to-last, final = 
     -1152449.02385537  -1152449.18190878  -1152449.18190878
  Force two-norm initial, final = 1.0117955 9.5648402e-05
  Force max component initial, final = 0.80610251 2.2650558e-05
  Final line search alpha, max atom move = 1.0000000 2.2650558e-05
  Iterations, force evaluations = 275 550

MPI task timing breakdown:
Section |  min time  |  avg time  |  max time  |%varavg| %total
---------------------------------------------------------------
Pair    | 1.5806     | 4.392      | 5.7844     |  57.6 | 71.46
Neigh   | 3.8303e-05 | 0.011656   | 0.016975   |   4.6 |  0.19
Comm    | 0.084014   | 0.98012    | 3.0683     |  88.2 | 15.95
Output  | 0          | 0          | 0          |   0.0 |  0.00
Modify  | 0.00010661 | 0.0092169  | 0.019539   |   4.5 |  0.15
Other   |            | 0.7528     |            |       | 12.25

Nlocal:        5552.90 ave        7871 max           0 min
Histogram: 4 2 2 0 2 6 4 0 14 18
Nghost:        6213.73 ave        8770 max         412 min
Histogram: 4 0 4 0 8 0 4 5 7 20
Neighs:       158427.0 ave      229266 max           0 min
Histogram: 4 2 2 0 4 4 4 4 10 18

Total # of neighbors = 8238205
Ave neighs/atom = 28.530481
Neighbor list builds = 2
Dangerous builds = 0
The dot product: 6.20193103874421e-07
Setting atom values ...
  1 settings made for x
  1 settings made for y
  1 settings made for z
Setting up cg style minimization ...
  Unit style    : metal
  Current step  : 6790
Per MPI rank memory allocation (min/avg/max) = 5.465 | 6.344 | 6.728 Mbytes
Step PotEng KinEng TotEng v_fx v_fy v_fz 
    6790   -1152449.2            0   -1152449.2    0.3591456  0.089009004  -0.24550079 
    7000   -1152449.2            0   -1152449.2 -2.1197117e-05 2.9558961e-05 -2.1997825e-05 
    7023   -1152449.2            0   -1152449.2 -6.8756034e-06 1.7670644e-05 -1.5607015e-05 
Loop time of 5.17763 on 52 procs for 233 steps with 288751 atoms

99.9% CPU use with 52 MPI tasks x 1 OpenMP threads

Minimization stats:
  Stopping criterion = linesearch alpha is zero
  Energy initial, next-to-last, final = 
     -1152449.20588197  -1152449.23148993  -1152449.23148993
  Force two-norm initial, final = 0.47491178 0.00012120314
  Force max component initial, final = 0.3591456 3.1249607e-05
  Final line search alpha, max atom move = 0.5 1.5624803e-05
  Iterations, force evaluations = 233 467

MPI task timing breakdown:
Section |  min time  |  avg time  |  max time  |%varavg| %total
---------------------------------------------------------------
Pair    | 1.33       | 3.7155     | 4.8779     |  53.1 | 71.76
Neigh   | 1.8498e-05 | 0.0058206  | 0.0083729  |   3.2 |  0.11
Comm    | 0.076961   | 0.82714    | 2.5968     |  81.5 | 15.98
Output  | 0.00013429 | 0.00013891 | 0.00031078 |   0.0 |  0.00
Modify  | 8.6886e-05 | 0.007802   | 0.016369   |   4.1 |  0.15
Other   |            | 0.6213     |            |       | 12.00

Nlocal:        5552.90 ave        7864 max           0 min
Histogram: 4 2 2 0 2 6 4 0 13 19
Nghost:        6213.69 ave        8771 max         412 min
Histogram: 4 0 4 0 8 0 4 5 7 20
Neighs:       158427.0 ave      229041 max           0 min
Histogram: 4 2 2 0 4 4 4 4 10 18

Total # of neighbors = 8238196
Ave neighs/atom = 28.530450
Neighbor list builds = 1
Dangerous builds = 0
The dot product: 4.74741452134477e-07
Setting atom values ...
  1 settings made for x
  1 settings made for y
  1 settings made for z
Setting up cg style minimization ...
  Unit style    : metal
  Current step  : 7023
Per MPI rank memory allocation (min/avg/max) = 5.465 | 6.344 | 6.728 Mbytes
Step PotEng KinEng TotEng v_fx v_fy v_fz 
    7023   -1152449.3            0   -1152449.3 -0.081633754 -0.0021492547  0.052670578 
    7243   -1152449.3            0   -1152449.3 -3.1118439e-06 -5.7692495e-06 8.619587e-06 
Loop time of 4.91695 on 52 procs for 220 steps with 288751 atoms

99.9% CPU use with 52 MPI tasks x 1 OpenMP threads

Minimization stats:
  Stopping criterion = energy tolerance
  Energy initial, next-to-last, final = 
      -1152449.2529554  -1152449.25736736  -1152449.25736736
  Force two-norm initial, final = 0.18604347 8.1095817e-05
  Force max component initial, final = 0.088039695 1.5758873e-05
  Final line search alpha, max atom move = 1.0000000 1.5758873e-05
  Iterations, force evaluations = 220 440

MPI task timing breakdown:
Section |  min time  |  avg time  |  max time  |%varavg| %total
---------------------------------------------------------------
Pair    | 1.2546     | 3.5182     | 4.6224     |  51.7 | 71.55
Neigh   | 0          | 0          | 0          |   0.0 |  0.00
Comm    | 0.066024   | 0.78609    | 2.4537     |  79.3 | 15.99
Output  | 0          | 0          | 0          |   0.0 |  0.00
Modify  | 9.1657e-05 | 0.0073749  | 0.015555   |   4.0 |  0.15
Other   |            | 0.6053     |            |       | 12.31

Nlocal:        5552.90 ave        7866 max           0 min
Histogram: 4 2 2 0 2 6 4 0 13 19
Nghost:        6213.69 ave        8771 max         412 min
Histogram: 4 0 4 0 8 0 4 5 7 20
Neighs:       158427.0 ave      229108 max           0 min
Histogram: 4 2 2 0 4 4 4 4 10 18

Total # of neighbors = 8238205
Ave neighs/atom = 28.530481
Neighbor list builds = 0
Dangerous builds = 0
The dot product: 3.02358549925378e-07
Setting atom values ...
  1 settings made for x
  1 settings made for y
  1 settings made for z
Setting up cg style minimization ...
  Unit style    : metal
  Current step  : 7243
Per MPI rank memory allocation (min/avg/max) = 5.465 | 6.344 | 6.728 Mbytes
Step PotEng KinEng TotEng v_fx v_fy v_fz 
    7243   -1152449.3            0   -1152449.3  0.063954681 0.0071836734 -0.042868874 
    7438   -1152449.3            0   -1152449.3 1.2365339e-05 1.2183538e-06 -8.0964042e-06 
Loop time of 4.36476 on 52 procs for 195 steps with 288751 atoms

99.9% CPU use with 52 MPI tasks x 1 OpenMP threads

Minimization stats:
  Stopping criterion = linesearch alpha is zero
[...]
Nghost:        6214.06 ave        8769 max         412 min
Histogram: 4 0 4 0 8 0 4 5 7 20
Neighs:       158427.0 ave      228482 max           0 min
Histogram: 4 2 2 0 4 4 4 4 9 19

Total # of neighbors = 8238195
Ave neighs/atom = 28.530447
Neighbor list builds = 0
Dangerous builds = 0
The dot product: 1.28365443065204e-08
Setting atom values ...
  1 settings made for x
  1 settings made for y
  1 settings made for z
Setting up cg style minimization ...
  Unit style    : metal
  Current step  : 26620
Per MPI rank memory allocation (min/avg/max) = 5.465 | 6.344 | 6.728 Mbytes
Step PotEng KinEng TotEng v_fx v_fy v_fz 
   26620   -1152449.4            0   -1152449.4 -2.0966664e-05 -0.030204616  0.031559398 
   26828   -1152449.4            0   -1152449.4 1.9694824e-05 -3.8261753e-06 -8.9888153e-06 
Loop time of 4.56597 on 52 procs for 208 steps with 288751 atoms

99.9% CPU use with 52 MPI tasks x 1 OpenMP threads

Minimization stats:
  Stopping criterion = linesearch alpha is zero
  Energy initial, next-to-last, final = 
     -1152449.41258335   -1152449.4140952   -1152449.4140952
  Force two-norm initial, final = 0.1777794 6.8331959e-05
  Force max component initial, final = 0.081541706 1.9694824e-05
  Final line search alpha, max atom move = 0.5 9.8474120e-06
  Iterations, force evaluations = 208 417

MPI task timing breakdown:
Section |  min time  |  avg time  |  max time  |%varavg| %total
---------------------------------------------------------------
Pair    | 1.1715     | 3.3115     | 4.3175     |  50.4 | 72.53
Neigh   | 0          | 0          | 0          |   0.0 |  0.00
Comm    | 0.062128   | 0.73526    | 2.3282     |  77.5 | 16.10
Output  | 0          | 0          | 0          |   0.0 |  0.00
Modify  | 8.1516e-05 | 0.0069844  | 0.014691   |   3.9 |  0.15
Other   |            | 0.5122     |            |       | 11.22

Nlocal:        5552.90 ave        7860 max           0 min
Histogram: 4 2 2 0 2 6 4 0 12 20
Nghost:        6214.06 ave        8769 max         412 min
Histogram: 4 0 4 0 8 0 4 5 7 20
Neighs:       158427.0 ave      228482 max           0 min
Histogram: 4 2 2 0 4 4 4 4 9 19

Total # of neighbors = 8238199
Ave neighs/atom = 28.530461
Neighbor list builds = 0
Dangerous builds = 0
The dot product: 1.05292405495528e-09
Setting atom values ...
  1 settings made for x
  1 settings made for y
  1 settings made for z
Setting up cg style minimization ...
  Unit style    : metal
  Current step  : 26828
Per MPI rank memory allocation (min/avg/max) = 5.465 | 6.344 | 6.728 Mbytes
Step PotEng KinEng TotEng v_fx v_fy v_fz 
   26828   -1152449.4            0   -1152449.4 -0.009081543  -0.03060271  0.037982597 
   27000   -1152449.4            0   -1152449.4 -9.5970818e-06 1.1841119e-05 -6.0501842e-06 
   27059   -1152449.4            0   -1152449.4 -1.9535933e-06 1.3392625e-06 -1.1177348e-07 
Loop time of 5.0663 on 52 procs for 231 steps with 288751 atoms

99.9% CPU use with 52 MPI tasks x 1 OpenMP threads

Minimization stats:
  Stopping criterion = linesearch alpha is zero
  Energy initial, next-to-last, final = 
     -1152449.41344457  -1152449.41498209  -1152449.41498209
  Force two-norm initial, final = 0.17944239 2.3732700e-05
  Force max component initial, final = 0.080902855 2.5556985e-06
  Final line search alpha, max atom move = 0.5 1.2778492e-06
  Iterations, force evaluations = 231 463

MPI task timing breakdown:
Section |  min time  |  avg time  |  max time  |%varavg| %total
---------------------------------------------------------------
Pair    | 1.3033     | 3.675      | 4.778      |  53.0 | 72.54
Neigh   | 0          | 0          | 0          |   0.0 |  0.00
Comm    | 0.069481   | 0.81654    | 2.5764     |  81.4 | 16.12
Output  | 0.00014823 | 0.00015312 | 0.00034371 |   0.0 |  0.00
Modify  | 8.744e-05  | 0.0077593  | 0.0164     |   4.1 |  0.15
Other   |            | 0.5669     |            |       | 11.19

Nlocal:        5552.90 ave        7858 max           0 min
Histogram: 4 2 2 0 2 6 4 0 12 20
Nghost:        6214.10 ave        8769 max         412 min
Histogram: 4 0 4 0 8 0 4 5 7 20
Neighs:       158427.0 ave      228411 max           0 min
Histogram: 4 2 2 0 4 4 4 4 9 19

Total # of neighbors = 8238196
Ave neighs/atom = 28.530450
Neighbor list builds = 0
Dangerous builds = 0
The dot product: 5.23754647200054e-10
Setting atom values ...
  1 settings made for x
  1 settings made for y
  1 settings made for z
Setting up cg style minimization ...
  Unit style    : metal
  Current step  : 27059
Per MPI rank memory allocation (min/avg/max) = 5.465 | 6.345 | 6.729 Mbytes
Step PotEng KinEng TotEng v_fx v_fy v_fz 
   27059   -1152449.4            0   -1152449.4 -0.015004183 -0.031923611  0.043336729 
   27233   -1152449.4            0   -1152449.4 -1.1858358e-05 2.0010779e-05 -1.3116582e-05 
Loop time of 3.8403 on 52 procs for 174 steps with 288751 atoms

99.9% CPU use with 52 MPI tasks x 1 OpenMP threads

Minimization stats:
  Stopping criterion = linesearch alpha is zero
  Energy initial, next-to-last, final = 
     -1152449.41254863   -1152449.4141113   -1152449.4141113
  Force two-norm initial, final = 0.18131435 0.00020466174
  Force max component initial, final = 0.080069 2.1916078e-05
  Final line search alpha, max atom move = 0.25 5.4790194e-06
  Iterations, force evaluations = 174 351

MPI task timing breakdown:
Section |  min time  |  avg time  |  max time  |%varavg| %total
---------------------------------------------------------------
Pair    | 0.98916    | 2.7906     | 3.6335     |  46.1 | 72.67
Neigh   | 0          | 0          | 0          |   0.0 |  0.00
Comm    | 0.052198   | 0.61778    | 1.9626     |  71.0 | 16.09
Output  | 0          | 0          | 0          |   0.0 |  0.00
Modify  | 6.966e-05  | 0.0058922  | 0.012419   |   3.6 |  0.15
Other   |            | 0.426      |            |       | 11.09

Nlocal:        5552.90 ave        7858 max           0 min
Histogram: 4 2 2 0 2 6 4 1 11 20
Nghost:        6214.10 ave        8769 max         412 min
Histogram: 4 0 4 0 8 0 4 5 7 20
Neighs:       158427.0 ave      228412 max           0 min
Histogram: 4 2 2 0 4 4 4 4 9 19

Total # of neighbors = 8238199
Ave neighs/atom = 28.530461
Neighbor list builds = 0
Dangerous builds = 0
The dot product: -3.86064613243412e-08
Setting atom values ...
  1 settings made for x
  1 settings made for y
  1 settings made for z
Setting up cg style minimization ...
  Unit style    : metal
  Current step  : 27233
Per MPI rank memory allocation (min/avg/max) = 5.465 | 6.345 | 6.729 Mbytes
Step PotEng KinEng TotEng v_fx v_fy v_fz 
   27233   -1152449.4            0   -1152449.4 -0.013763796 -0.032572656  0.043303173 
   27418   -1152449.4            0   -1152449.4 1.3335656e-05 5.7410164e-06 -1.486452e-05 
Loop time of 4.04272 on 52 procs for 185 steps with 288751 atoms

99.9% CPU use with 52 MPI tasks x 1 OpenMP threads

Minimization stats:
  Stopping criterion = energy tolerance
  Energy initial, next-to-last, final = 
     -1152449.41003035  -1152449.41157085  -1152449.41157085
  Force two-norm initial, final = 0.180067 0.00013121858
  Force max component initial, final = 0.079096717 2.1786758e-05
  Final line search alpha, max atom move = 1.0000000 2.1786758e-05
  Iterations, force evaluations = 185 370

MPI task timing breakdown:
Section |  min time  |  avg time  |  max time  |%varavg| %total
---------------------------------------------------------------
Pair    | 1.0422     | 2.9388     | 3.8221     |  47.4 | 72.69
Neigh   | 0          | 0          | 0          |   0.0 |  0.00
Comm    | 0.055071   | 0.65522    | 2.0666     |  72.8 | 16.21
Output  | 0          | 0          | 0          |   0.0 |  0.00
Modify  | 7.6978e-05 | 0.0062064  | 0.013048   |   3.6 |  0.15
Other   |            | 0.4425     |            |       | 10.95

Nlocal:        5552.90 ave        7858 max           0 min
Histogram: 4 2 2 0 2 6 4 1 11 20
Nghost:        6214.10 ave        8769 max         412 min
Histogram: 4 0 4 0 8 0 4 5 7 20
Neighs:       158427.0 ave      228414 max           0 min
Histogram: 4 2 2 0 4 4 4 4 9 19

Total # of neighbors = 8238202
Ave neighs/atom = 28.530471
Neighbor list builds = 0
Dangerous builds = 0
The dot product: -8.28213542387731e-08
Setting atom values ...
  1 settings made for x
  1 settings made for y
  1 settings made for z
Setting up cg style minimization ...
  Unit style    : metal
  Current step  : 27418
Per MPI rank memory allocation (min/avg/max) = 5.465 | 6.345 | 6.729 Mbytes
Step PotEng KinEng TotEng v_fx v_fy v_fz 
   27418   -1152449.4            0   -1152449.4 -0.010687913 -0.033320353  0.042150483 
   27641   -1152449.4            0   -1152449.4 -2.5379417e-07 -5.1727997e-06 5.6088753e-06 
Loop time of 4.89816 on 52 procs for 223 steps with 288751 atoms

99.8% CPU use with 52 MPI tasks x 1 OpenMP threads

Minimization stats:
  Stopping criterion = linesearch alpha is zero
  Energy initial, next-to-last, final = 
     -1152449.40584928   -1152449.4073498   -1152449.4073498
  Force two-norm initial, final = 0.17784261 3.1032943e-05
  Force max component initial, final = 0.078123101 5.6088753e-06
  Final line search alpha, max atom move = 0.5 2.8044377e-06
  Iterations, force evaluations = 223 447

MPI task timing breakdown:
Section |  min time  |  avg time  |  max time  |%varavg| %total
---------------------------------------------------------------
Pair    | 1.2569     | 3.5524     | 4.6158     |  52.1 | 72.53
Neigh   | 0          | 0          | 0          |   0.0 |  0.00
Comm    | 0.066485   | 0.78668    | 2.5016     |  80.4 | 16.06
Output  | 0          | 0          | 0          |   0.0 |  0.00
Modify  | 9.037e-05  | 0.0075045  | 0.01585    |   4.0 |  0.15
Other   |            | 0.5516     |            |       | 11.26

Nlocal:        5552.90 ave        7858 max           0 min
Histogram: 4 2 2 0 2 6 4 1 11 20
Nghost:        6214.21 ave        8769 max         412 min
Histogram: 4 0 4 0 8 0 4 5 7 20
Neighs:       158427.0 ave      228409 max           0 min
Histogram: 4 2 2 0 4 4 4 4 9 19

Total # of neighbors = 8238202
Ave neighs/atom = 28.530471
Neighbor list builds = 0
Dangerous builds = 0
The dot product: 2.41857050497537e-08
Setting atom values ...
  1 settings made for x
  1 settings made for y
  1 settings made for z
Setting up cg style minimization ...
  Unit style    : metal
  Current step  : 27641
Per MPI rank memory allocation (min/avg/max) = 5.465 | 6.345 | 6.729 Mbytes
Step PotEng KinEng TotEng v_fx v_fy v_fz 
   27641   -1152449.4            0   -1152449.4 -0.0067340486 -0.034388324  0.040736052 
   27816   -1152449.4            0   -1152449.4 3.7675407e-05 -1.0238028e-05 -1.4340429e-05 
Loop time of 3.84944 on 52 procs for 175 steps with 288751 atoms

99.9% CPU use with 52 MPI tasks x 1 OpenMP threads

Minimization stats:
  Stopping criterion = energy tolerance
  Energy initial, next-to-last, final = 
     -1152449.40000504  -1152449.40145681  -1152449.40145681
  Force two-norm initial, final = 0.17532988 0.00019685512
  Force max component initial, final = 0.077133282 3.7675407e-05
  Final line search alpha, max atom move = 1.0000000 3.7675407e-05
  Iterations, force evaluations = 175 350

MPI task timing breakdown:
Section |  min time  |  avg time  |  max time  |%varavg| %total
---------------------------------------------------------------
Pair    | 0.9888     | 2.7865     | 3.6186     |  46.1 | 72.39
Neigh   | 0          | 0          | 0          |   0.0 |  0.00
Comm    | 0.05269    | 0.6208     | 1.9668     |  70.8 | 16.13
Output  | 0          | 0          | 0          |   0.0 |  0.00
Modify  | 6.6973e-05 | 0.0058862  | 0.012395   |   3.5 |  0.15
Other   |            | 0.4362     |            |       | 11.33

Nlocal:        5552.90 ave        7858 max           0 min
Histogram: 4 2 2 0 2 6 4 1 11 20
Nghost:        6214.23 ave        8768 max         412 min
Histogram: 4 0 4 0 8 0 4 5 7 20
Neighs:       158427.0 ave      228393 max           0 min
Histogram: 4 2 2 0 4 4 4 4 9 19

Total # of neighbors = 8238201
Ave neighs/atom = 28.530467
Neighbor list builds = 0
Dangerous builds = 0
The dot product: -7.92721861096297e-08
Setting atom values ...
  1 settings made for x
  1 settings made for y
  1 settings made for z
Setting up cg style minimization ...
  Unit style    : metal
  Current step  : 27816
Per MPI rank memory allocation (min/avg/max) = 5.465 | 6.345 | 6.729 Mbytes
Step PotEng KinEng TotEng v_fx v_fy v_fz 
   27816   -1152449.4            0   -1152449.4 -0.0018552161 -0.035764373  0.039016761 
   28000   -1152449.4            0   -1152449.4 -1.1161186e-05 5.6080713e-06 1.5403063e-06 
   28016   -1152449.4            0   -1152449.4 -2.7200308e-05 2.2209684e-06 1.5843793e-05 
Loop time of 4.37831 on 52 procs for 200 steps with 288751 atoms

99.9% CPU use with 52 MPI tasks x 1 OpenMP threads

Minimization stats:
  Stopping criterion = energy tolerance
  Energy initial, next-to-last, final = 
     -1152449.39253502  -1152449.39393263  -1152449.39393263
  Force two-norm initial, final = 0.17288524 9.4593935e-05
  Force max component initial, final = 0.076552936 2.7200308e-05
  Final line search alpha, max atom move = 1.0000000 2.7200308e-05
  Iterations, force evaluations = 200 400

MPI task timing breakdown:
Section |  min time  |  avg time  |  max time  |%varavg| %total
---------------------------------------------------------------
Pair    | 1.1259     | 3.1802     | 4.1311     |  49.3 | 72.63
Neigh   | 0          | 0          | 0          |   0.0 |  0.00
Comm    | 0.06225    | 0.7048     | 2.2264     |  75.8 | 16.10
Output  | 0.0002223  | 0.00022812 | 0.00045215 |   0.0 |  0.01
Modify  | 7.6197e-05 | 0.006712   | 0.014129   |   3.8 |  0.15
Other   |            | 0.4864     |            |       | 11.11

Nlocal:        5552.90 ave        7857 max           0 min
Histogram: 4 2 2 0 2 6 4 1 11 20
Nghost:        6214.23 ave        8768 max         412 min
Histogram: 4 0 4 0 8 0 4 5 7 20
Neighs:       158427.0 ave      228369 max           0 min
Histogram: 4 2 2 0 4 4 4 4 9 19

Total # of neighbors = 8238201
Ave neighs/atom = 28.530467
Neighbor list builds = 0
Dangerous builds = 0
The dot product: 6.25563920473782e-08
Setting atom values ...
  1 settings made for x
  1 settings made for y
  1 settings made for z
Setting up cg style minimization ...
  Unit style    : metal
  Current step  : 28016
Per MPI rank memory allocation (min/avg/max) = 5.465 | 6.345 | 6.729 Mbytes
Step PotEng KinEng TotEng v_fx v_fy v_fz 
   28016   -1152449.4            0   -1152449.4 0.0046278484 -0.037704059  0.036809863 
   28221   -1152449.4            0   -1152449.4 -2.4011138e-06 2.1248086e-06 -6.4023067e-07 
Loop time of 4.48793 on 52 procs for 205 steps with 288751 atoms

99.9% CPU use with 52 MPI tasks x 1 OpenMP threads

Minimization stats:
  Stopping criterion = linesearch alpha is zero
  Energy initial, next-to-last, final = 
     -1152449.38351807  -1152449.38485953  -1152449.38485953
  Force two-norm initial, final = 0.17080473 7.2704038e-05
  Force max component initial, final = 0.077000605 6.7237370e-06
  Final line search alpha, max atom move = 0.5 3.3618685e-06
  Iterations, force evaluations = 205 411

MPI task timing breakdown:
Section |  min time  |  avg time  |  max time  |%varavg| %total
---------------------------------------------------------------
Pair    | 1.1583     | 3.2671     | 4.2458     |  50.0 | 72.80
Neigh   | 0          | 0          | 0          |   0.0 |  0.00
Comm    | 0.0611     | 0.72726    | 2.3082     |  76.8 | 16.20
Output  | 0          | 0          | 0          |   0.0 |  0.00
Modify  | 8.0472e-05 | 0.0068943  | 0.014524   |   3.8 |  0.15
Other   |            | 0.4867     |            |       | 10.84

Nlocal:        5552.90 ave        7857 max           0 min
Histogram: 4 2 2 0 2 6 4 1 11 20
Nghost:        6214.27 ave        8768 max         412 min
Histogram: 4 0 4 0 8 0 4 5 7 20
Neighs:       158427.0 ave      228369 max           0 min
Histogram: 4 2 2 0 4 4 4 4 9 19

Total # of neighbors = 8238199
Ave neighs/atom = 28.530461
Neighbor list builds = 0
Dangerous builds = 0
The dot product: -5.88844290942563e-09
Setting atom values ...
  1 settings made for x
  1 settings made for y
  1 settings made for z
Setting up cg style minimization ...
  Unit style    : metal
  Current step  : 28221
Per MPI rank memory allocation (min/avg/max) = 5.465 | 6.345 | 6.729 Mbytes
Step PotEng KinEng TotEng v_fx v_fy v_fz 
   28221   -1152449.4            0   -1152449.4  0.014477142 -0.040680909  0.033445508 
   28353   -1152449.4            0   -1152449.4 8.3036279e-05 9.4762861e-06 -6.576739e-05 
Loop time of 2.96443 on 52 procs for 132 steps with 288751 atoms

99.9% CPU use with 52 MPI tasks x 1 OpenMP threads

Minimization stats:
  Stopping criterion = linesearch alpha is zero
  Energy initial, next-to-last, final = 
     -1152449.37315492  -1152449.37448131  -1152449.37448131
  Force two-norm initial, final = 0.17044934 0.00036303226
  Force max component initial, final = 0.077280538 8.3036279e-05
  Final line search alpha, max atom move = 0.0625 5.1897674e-06
  Iterations, force evaluations = 132 271

MPI task timing breakdown:
Section |  min time  |  avg time  |  max time  |%varavg| %total
---------------------------------------------------------------
Pair    | 0.76378    | 2.1561     | 2.8067     |  40.5 | 72.73
Neigh   | 0          | 0          | 0          |   0.0 |  0.00
Comm    | 0.040035   | 0.47847    | 1.5141     |  62.4 | 16.14
Output  | 0          | 0          | 0          |   0.0 |  0.00
Modify  | 5.6311e-05 | 0.0045509  | 0.009559   |   3.1 |  0.15
Other   |            | 0.3253     |            |       | 10.97

Nlocal:        5552.90 ave        7857 max           0 min
Histogram: 4 2 2 0 2 6 4 1 11 20
Nghost:        6214.27 ave        8768 max         412 min
Histogram: 4 0 4 0 8 0 4 5 7 20
Neighs:       158427.0 ave      228389 max           0 min
Histogram: 4 2 2 0 4 4 4 4 9 19

Total # of neighbors = 8238197
Ave neighs/atom = 28.530454
Neighbor list builds = 0
Dangerous builds = 0
The dot product: 1.2588046505315e-08
Setting atom values ...
  1 settings made for x
  1 settings made for y
  1 settings made for z
Setting up cg style minimization ...
  Unit style    : metal
  Current step  : 28353
Per MPI rank memory allocation (min/avg/max) = 5.465 | 6.345 | 6.729 Mbytes
Step PotEng KinEng TotEng v_fx v_fy v_fz 
   28353   -1152449.4            0   -1152449.4  0.026106786 -0.044201596  0.029514456 
   28420   -1152449.4            0   -1152449.4 2.1131763e-05 3.5779709e-05 -5.223155e-05 
Loop time of 1.47253 on 52 procs for 67 steps with 288751 atoms

99.9% CPU use with 52 MPI tasks x 1 OpenMP threads

Minimization stats:
  Stopping criterion = energy tolerance
  Energy initial, next-to-last, final = 
     -1152449.36195389  -1152449.36359919  -1152449.36359919
  Force two-norm initial, final = 0.17372573 0.00031904756
  Force max component initial, final = 0.077099203 8.3274494e-05
  Final line search alpha, max atom move = 1.0000000 8.3274494e-05
  Iterations, force evaluations = 67 134

MPI task timing breakdown:
Section |  min time  |  avg time  |  max time  |%varavg| %total
---------------------------------------------------------------
Pair    | 0.37862    | 1.0711     | 1.3884     |  28.6 | 72.74
Neigh   | 0          | 0          | 0          |   0.0 |  0.00
Comm    | 0.019794   | 0.23847    | 0.7604     |  44.0 | 16.19
Output  | 0          | 0          | 0          |   0.0 |  0.00
Modify  | 2.5001e-05 | 0.0022553  | 0.0047911  |   2.2 |  0.15
Other   |            | 0.1607     |            |       | 10.91

Nlocal:        5552.90 ave        7856 max           0 min
Histogram: 4 2 2 0 2 6 4 1 11 20
Nghost:        6214.23 ave        8768 max         412 min
Histogram: 4 0 4 0 8 0 4 5 7 20
Neighs:       158427.0 ave      228355 max           0 min
Histogram: 4 2 2 0 4 4 4 4 9 19

Total # of neighbors = 8238198
Ave neighs/atom = 28.530457
Neighbor list builds = 0
Dangerous builds = 0
The dot product: -1.33851083209367e-07
