LAMMPS (29 Oct 2020)
OMP_NUM_THREADS environment is not set. Defaulting to 1 thread. (../comm.cpp:94)
  using 1 OpenMP thread(s) per MPI task
OMP_NUM_THREADS environment is not set. Defaulting to 1 thread. (../comm.cpp:94)
  using 1 OpenMP thread(s) per MPI task
Reading data file ...
  orthogonal box = (-122.39241 -121.13707 -37.090501) to (122.39241 121.13707 37.090501)
  13 by 4 by 2 MPI processor grid
  reading atoms ...
  288751 atoms
  read_data CPU = 0.406 seconds
199981 atoms in group inner
88770 atoms in group outer
1 atoms in group carbon
Neighbor list info ...
  update every 1 steps, delay 0 steps, check yes
  max neighbors/atom: 2000, page size: 100000
  master list distance cutoff = 5.6
  ghost atom cutoff = 5.6
  binsize = 2.8, bins = 88 87 27
  1 neighbor lists, perpetual/occasional/extra = 1 0 0
  (1) pair eam/alloy, perpetual
      attributes: half, newton on
      pair build: half/bin/atomonly/newton
      stencil: half/bin/3d/newton
      bin: standard
Setting up cg style minimization ...
  Unit style    : metal
  Current step  : 0
Per MPI rank memory allocation (min/avg/max) = 5.441 | 5.816 | 6.074 Mbytes
Step v_fx v_fy v_fz PotEng KinEng TotEng 
       0    1.7729574   -0.7869076    -2.606755   -1152447.8            0   -1152447.8 
     195 -2.9489754e-06 8.3833642e-08 -4.1752563e-06   -1152449.5            0   -1152449.5 
Loop time of 2.26409 on 104 procs for 195 steps with 288751 atoms

99.8% CPU use with 104 MPI tasks x 1 OpenMP threads

Minimization stats:
  Stopping criterion = energy tolerance
  Energy initial, next-to-last, final = 
     -1152447.77521639  -1152449.45035286  -1152449.45035286
  Force two-norm initial, final = 10.244991 2.0513214e-05
  Force max component initial, final = 6.2486165 4.1752563e-06
  Final line search alpha, max atom move = 1.0000000 4.1752563e-06
  Iterations, force evaluations = 195 389

MPI task timing breakdown:
Section |  min time  |  avg time  |  max time  |%varavg| %total
---------------------------------------------------------------
Pair    | 0.60567    | 1.6348     | 2.1171     |  34.1 | 72.21
Neigh   | 3.1075e-05 | 0.008805   | 0.012864   |   3.9 |  0.39
Comm    | 0.038906   | 0.36597    | 1.1064     |  51.0 | 16.16
Output  | 0          | 0          | 0          |   0.0 |  0.00
Modify  | 2.1329e-05 | 0.0021016  | 0.0053512  |   2.9 |  0.09
Other   |            | 0.2524     |            |       | 11.15

Nlocal:        2776.45 ave        3960 max           0 min
Histogram: 8 4 4 0 4 12 8 2 28 34
Nghost:        3879.03 ave        5424 max         232 min
Histogram: 8 0 8 0 16 0 8 8 16 40
Neighs:        79213.5 ave      115444 max           0 min
Histogram: 8 4 4 0 10 6 8 8 24 32

Total # of neighbors = 8238206
Ave neighs/atom = 28.530485
Neighbor list builds = 3
Dangerous builds = 0
Setting atom values ...
  1 settings made for x
  1 settings made for y
  1 settings made for z
Setting up cg style minimization ...
  Unit style    : metal
  Current step  : 195
Per MPI rank memory allocation (min/avg/max) = 5.441 | 5.816 | 6.074 Mbytes
Step PotEng KinEng TotEng v_fx v_fy v_fz 
     195   -1152449.4            0   -1152449.4  0.012426904 -0.016209643 -0.020769182 
     335   -1152449.5            0   -1152449.5 -9.7351308e-06 -1.0058075e-05 -5.6385789e-05 
Loop time of 1.64081 on 104 procs for 140 steps with 288751 atoms

99.9% CPU use with 104 MPI tasks x 1 OpenMP threads

Minimization stats:
  Stopping criterion = energy tolerance
  Energy initial, next-to-last, final = 
     -1152449.44947029  -1152449.45002041  -1152449.45002041
  Force two-norm initial, final = 0.10821203 0.00015270416
  Force max component initial, final = 0.047628085 5.6385789e-05
  Final line search alpha, max atom move = 1.0000000 5.6385789e-05
  Iterations, force evaluations = 140 280

MPI task timing breakdown:
Section |  min time  |  avg time  |  max time  |%varavg| %total
---------------------------------------------------------------
Pair    | 0.42554    | 1.181      | 1.544      |  29.4 | 71.98
Neigh   | 0          | 0          | 0          |   0.0 |  0.00
Comm    | 0.023543   | 0.26611    | 0.80659    |  43.4 | 16.22
Output  | 0          | 0          | 0          |   0.0 |  0.00
Modify  | 1.6659e-05 | 0.0023144  | 0.0049376  |   2.3 |  0.14
Other   |            | 0.1914     |            |       | 11.66

Nlocal:        2776.45 ave        3960 max           0 min
Histogram: 8 4 4 0 4 12 8 2 28 34
Nghost:        3879.03 ave        5424 max         232 min
Histogram: 8 0 8 0 16 0 8 8 16 40
Neighs:        79213.4 ave      115435 max           0 min
Histogram: 8 4 4 0 10 6 8 8 24 32

Total # of neighbors = 8238197
Ave neighs/atom = 28.530454
Neighbor list builds = 0
Dangerous builds = 0
Setting atom values ...
  1 settings made for x
  1 settings made for y
  1 settings made for z
Setting up cg style minimization ...
  Unit style    : metal
  Current step  : 335
Per MPI rank memory allocation (min/avg/max) = 5.441 | 5.816 | 6.074 Mbytes
Step PotEng KinEng TotEng v_fx v_fy v_fz 
     335   -1152449.4            0   -1152449.4  0.021647921 -0.023280762 -0.033977166 
     552   -1152449.4            0   -1152449.4 6.3491785e-07 9.9105122e-07 7.2720003e-06 
Loop time of 2.51024 on 104 procs for 217 steps with 288751 atoms

99.9% CPU use with 104 MPI tasks x 1 OpenMP threads

Minimization stats:
  Stopping criterion = energy tolerance
  Energy initial, next-to-last, final = 
     -1152449.44665737  -1152449.44808485  -1152449.44808485
  Force two-norm initial, final = 0.17477124 2.7042397e-05
  Force max component initial, final = 0.079511065 7.2720003e-06
  Final line search alpha, max atom move = 1.0000000 7.2720003e-06
  Iterations, force evaluations = 217 434

MPI task timing breakdown:
Section |  min time  |  avg time  |  max time  |%varavg| %total
---------------------------------------------------------------
Pair    | 0.65878    | 1.8186     | 2.3669     |  36.5 | 72.45
Neigh   | 0          | 0          | 0          |   0.0 |  0.00
Comm    | 0.040011   | 0.40921    | 1.2323     |  53.8 | 16.30
Output  | 0          | 0          | 0          |   0.0 |  0.00
Modify  | 2.6776e-05 | 0.0035774  | 0.0076317  |   2.8 |  0.14
Other   |            | 0.2789     |            |       | 11.11

Nlocal:        2776.45 ave        3960 max           0 min
Histogram: 8 4 4 0 4 12 8 2 28 34
Nghost:        3879.03 ave        5424 max         232 min
Histogram: 8 0 8 0 16 0 8 8 16 40
Neighs:        79213.5 ave      115434 max           0 min
Histogram: 8 4 4 0 10 6 8 8 24 32

Total # of neighbors = 8238199
Ave neighs/atom = 28.530461
Neighbor list builds = 0
Dangerous builds = 0
The dot product: -1.78988515088322e-08
Setting atom values ...
  1 settings made for x
  1 settings made for y
  1 settings made for z
Setting up cg style minimization ...
  Unit style    : metal
  Current step  : 552
Per MPI rank memory allocation (min/avg/max) = 5.441 | 5.816 | 6.074 Mbytes
Step PotEng KinEng TotEng v_fx v_fy v_fz 
     552   -1152449.4            0   -1152449.4  0.021013238 -0.019089906 -0.031965947 
     677   -1152449.4            0   -1152449.4 7.0493777e-06 -2.9152979e-06 2.2261964e-05 
Loop time of 1.45257 on 104 procs for 125 steps with 288751 atoms

99.9% CPU use with 104 MPI tasks x 1 OpenMP threads

Minimization stats:
  Stopping criterion = energy tolerance
  Energy initial, next-to-last, final = 
     -1152449.44327915  -1152449.44465979  -1152449.44465979
  Force two-norm initial, final = 0.17153587 0.00010725281
  Force max component initial, final = 0.079129356 2.2542931e-05
  Final line search alpha, max atom move = 1.0000000 2.2542931e-05
  Iterations, force evaluations = 125 250

MPI task timing breakdown:
Section |  min time  |  avg time  |  max time  |%varavg| %total
---------------------------------------------------------------
Pair    | 0.38033    | 1.0568     | 1.3664     |  27.6 | 72.75
Neigh   | 0          | 0          | 0          |   0.0 |  0.00
Comm    | 0.023323   | 0.23853    | 0.72784    |  40.9 | 16.42
Output  | 0          | 0          | 0          |   0.0 |  0.00
Modify  | 1.5674e-05 | 0.0020657  | 0.004405   |   2.2 |  0.14
Other   |            | 0.1552     |            |       | 10.68

Nlocal:        2776.45 ave        3958 max           0 min
Histogram: 8 4 4 0 4 12 8 2 28 34
Nghost:        3879.03 ave        5424 max         232 min
Histogram: 8 0 8 0 16 0 8 8 16 40
Neighs:        79213.5 ave      115369 max           0 min
Histogram: 8 4 4 0 10 6 8 8 24 32

Total # of neighbors = 8238199
Ave neighs/atom = 28.530461
Neighbor list builds = 0
Dangerous builds = 0
The dot product: -7.90628231197031e-08
Setting atom values ...
  1 settings made for x
  1 settings made for y
  1 settings made for z
Setting up cg style minimization ...
  Unit style    : metal
  Current step  : 677
Per MPI rank memory allocation (min/avg/max) = 5.441 | 5.816 | 6.074 Mbytes
Step PotEng KinEng TotEng v_fx v_fy v_fz 
     677   -1152449.4            0   -1152449.4  0.019614938 -0.015636589 -0.026340703 
     802   -1152449.4            0   -1152449.4 -9.2501431e-06 8.4350467e-06 5.4369043e-05 
Loop time of 1.4395 on 104 procs for 125 steps with 288751 atoms

99.9% CPU use with 104 MPI tasks x 1 OpenMP threads

Minimization stats:
  Stopping criterion = energy tolerance
  Energy initial, next-to-last, final = 
     -1152449.43854487  -1152449.43990902  -1152449.43990902
  Force two-norm initial, final = 0.16888909 0.00018456222
  Force max component initial, final = 0.077227073 5.4369043e-05
  Final line search alpha, max atom move = 1.0000000 5.4369043e-05
  Iterations, force evaluations = 125 250

MPI task timing breakdown:
Section |  min time  |  avg time  |  max time  |%varavg| %total
---------------------------------------------------------------
Pair    | 0.37902    | 1.0466     | 1.364      |  27.6 | 72.71
Neigh   | 0          | 0          | 0          |   0.0 |  0.00
Comm    | 0.023495   | 0.23405    | 0.70776    |  41.0 | 16.26
Output  | 0          | 0          | 0          |   0.0 |  0.00
Modify  | 1.5279e-05 | 0.0020614  | 0.0043982  |   2.1 |  0.14
Other   |            | 0.1568     |            |       | 10.89

Nlocal:        2776.45 ave        3958 max           0 min
Histogram: 8 4 4 0 4 12 8 2 28 34
Nghost:        3879.03 ave        5424 max         232 min
Histogram: 8 0 8 0 16 0 8 8 16 40
Neighs:        79213.5 ave      115370 max           0 min
Histogram: 8 4 4 0 10 6 8 8 24 32

Total # of neighbors = 8238201
Ave neighs/atom = 28.530467
Neighbor list builds = 0
Dangerous builds = 0
The dot product: -1.69066464750021e-07
Setting atom values ...
  1 settings made for x
  1 settings made for y
  1 settings made for z
Setting up cg style minimization ...
  Unit style    : metal
  Current step  : 802
Per MPI rank memory allocation (min/avg/max) = 5.441 | 5.816 | 6.074 Mbytes
Step PotEng KinEng TotEng v_fx v_fy v_fz 
     802   -1152449.4            0   -1152449.4  0.017879308 -0.013509041  -0.01956847 
     990   -1152449.4            0   -1152449.4 2.1836813e-06 -1.7473283e-06 4.1557157e-07 
Loop time of 2.19446 on 104 procs for 188 steps with 288751 atoms

99.9% CPU use with 104 MPI tasks x 1 OpenMP threads

Minimization stats:
  Stopping criterion = energy tolerance
  Energy initial, next-to-last, final = 
     -1152449.43244058  -1152449.43379697  -1152449.43379697
  Force two-norm initial, final = 0.16731261 6.9751777e-05
  Force max component initial, final = 0.074582295 6.2977607e-06
  Final line search alpha, max atom move = 1.0000000 6.2977607e-06
  Iterations, force evaluations = 188 376

MPI task timing breakdown:
Section |  min time  |  avg time  |  max time  |%varavg| %total
---------------------------------------------------------------
Pair    | 0.57142    | 1.5816     | 2.0638     |  33.9 | 72.07
Neigh   | 0          | 0          | 0          |   0.0 |  0.00
Comm    | 0.034459   | 0.35446    | 1.0737     |  50.0 | 16.15
Output  | 0          | 0          | 0          |   0.0 |  0.00
Modify  | 2.2186e-05 | 0.0031009  | 0.0066114  |   2.6 |  0.14
Other   |            | 0.2553     |            |       | 11.64

Nlocal:        2776.45 ave        3957 max           0 min
Histogram: 8 4 4 0 4 12 8 2 28 34
Nghost:        3879.03 ave        5424 max         232 min
Histogram: 8 0 8 0 16 0 8 8 16 40
Neighs:        79213.5 ave      115335 max           0 min
Histogram: 8 4 4 0 10 6 8 8 24 32

Total # of neighbors = 8238202
Ave neighs/atom = 28.530471
Neighbor list builds = 0
Dangerous builds = 0
The dot product: -7.10451639206796e-09
Setting atom values ...
  1 settings made for x
  1 settings made for y
  1 settings made for z
Setting up cg style minimization ...
  Unit style    : metal
  Current step  : 990
Per MPI rank memory allocation (min/avg/max) = 5.441 | 5.816 | 6.074 Mbytes
Step PotEng KinEng TotEng v_fx v_fy v_fz 
     990   -1152449.4            0   -1152449.4  0.016186342 -0.012379684 -0.013632147 
    1000   -1152449.4            0   -1152449.4 -0.0003354566 0.00027710854 2.1232099e-05 
    1140   -1152449.4            0   -1152449.4 1.9765865e-06 2.392009e-07 -2.3934431e-05 
Loop time of 1.72589 on 104 procs for 150 steps with 288751 atoms

99.9% CPU use with 104 MPI tasks x 1 OpenMP threads

Minimization stats:
  Stopping criterion = energy tolerance
  Energy initial, next-to-last, final = 
     -1152449.42492597   -1152449.4262829   -1152449.4262829
  Force two-norm initial, final = 0.1667702 0.00018231769
  Force max component initial, final = 0.074384928 2.3934431e-05
  Final line search alpha, max atom move = 1.0000000 2.3934431e-05
  Iterations, force evaluations = 150 300

MPI task timing breakdown:
Section |  min time  |  avg time  |  max time  |%varavg| %total
---------------------------------------------------------------
Pair    | 0.4546     | 1.2552     | 1.631      |  30.2 | 72.73
Neigh   | 0          | 0          | 0          |   0.0 |  0.00
Comm    | 0.027146   | 0.28081    | 0.85115    |  44.9 | 16.27
Output  | 9.1713e-05 | 9.8654e-05 | 0.00017349 |   0.0 |  0.01
Modify  | 1.8272e-05 | 0.0024795  | 0.0052688  |   2.4 |  0.14
Other   |            | 0.1873     |            |       | 10.85

Nlocal:        2776.45 ave        3957 max           0 min
Histogram: 8 4 4 0 4 12 8 2 28 34
Nghost:        3879.03 ave        5424 max         232 min
Histogram: 8 0 8 0 16 0 8 8 16 40
Neighs:        79213.5 ave      115335 max           0 min
Histogram: 8 4 4 0 10 6 8 8 24 32

Total # of neighbors = 8238201
Ave neighs/atom = 28.530467
Neighbor list builds = 0
Dangerous builds = 0
The dot product: 5.75548924020688e-08
Setting atom values ...
  1 settings made for x
  1 settings made for y
  1 settings made for z
Setting up cg style minimization ...
  Unit style    : metal
  Current step  : 1140
Per MPI rank memory allocation (min/avg/max) = 5.441 | 5.816 | 6.074 Mbytes
Step PotEng KinEng TotEng v_fx v_fy v_fz 
    1140   -1152449.4            0   -1152449.4  0.014783863 -0.011922883 -0.0087087942 
    1285   -1152449.4            0   -1152449.4  2.41145e-05 -1.5319823e-05 -5.1593695e-05 
Loop time of 1.69281 on 104 procs for 145 steps with 288751 atoms

99.9% CPU use with 104 MPI tasks x 1 OpenMP threads

Minimization stats:
  Stopping criterion = energy tolerance
  Energy initial, next-to-last, final = 
     -1152449.41597206   -1152449.4173359   -1152449.4173359
  Force two-norm initial, final = 0.1668122 0.00023149179
  Force max component initial, final = 0.07473466 6.6037226e-05
  Final line search alpha, max atom move = 1.0000000 6.6037226e-05
  Iterations, force evaluations = 145 290

MPI task timing breakdown:
Section |  min time  |  avg time  |  max time  |%varavg| %total
---------------------------------------------------------------
Pair    | 0.4452     | 1.2245     | 1.5898     |  29.4 | 72.34
Neigh   | 0          | 0          | 0          |   0.0 |  0.00
Comm    | 0.028415   | 0.27505    | 0.84081    |  44.3 | 16.25
Output  | 0          | 0          | 0          |   0.0 |  0.00
Modify  | 1.779e-05  | 0.0023984  | 0.0051212  |   2.3 |  0.14
Other   |            | 0.1909     |            |       | 11.27

Nlocal:        2776.45 ave        3956 max           0 min
Histogram: 8 4 4 0 4 12 8 2 28 34
Nghost:        3879.03 ave        5424 max         232 min
Histogram: 8 0 8 0 16 0 8 8 16 40
Neighs:        79213.5 ave      115297 max           0 min
Histogram: 8 4 4 0 10 6 8 8 24 32

Total # of neighbors = 8238203
Ave neighs/atom = 28.530474
Neighbor list builds = 0
Dangerous builds = 0
The dot product: 2.53967215247115e-08
Setting atom values ...
  1 settings made for x
  1 settings made for y
  1 settings made for z
Setting up cg style minimization ...
  Unit style    : metal
  Current step  : 1285
Per MPI rank memory allocation (min/avg/max) = 5.441 | 5.816 | 6.074 Mbytes
Step PotEng KinEng TotEng v_fx v_fy v_fz 
    1285   -1152449.4            0   -1152449.4  0.013956662  -0.01204176 -0.0051106699 
    1506   -1152449.4            0   -1152449.4 -1.3942831e-06 7.1144306e-07 4.1683578e-06 
Loop time of 2.53662 on 104 procs for 221 steps with 288751 atoms

99.9% CPU use with 104 MPI tasks x 1 OpenMP threads

Minimization stats:
  Stopping criterion = energy tolerance
  Energy initial, next-to-last, final = 
     -1152449.40555856  -1152449.40693045  -1152449.40693045
  Force two-norm initial, final = 0.16713044 2.7496102e-05
  Force max component initial, final = 0.074627224 4.1683578e-06
  Final line search alpha, max atom move = 1.0000000 4.1683578e-06
  Iterations, force evaluations = 221 442

MPI task timing breakdown:
Section |  min time  |  avg time  |  max time  |%varavg| %total
---------------------------------------------------------------
Pair    | 0.66996    | 1.8524     | 2.3968     |  36.6 | 73.03
Neigh   | 0          | 0          | 0          |   0.0 |  0.00
Comm    | 0.040652   | 0.4111     | 1.25       |  54.9 | 16.21
Output  | 0          | 0          | 0          |   0.0 |  0.00
Modify  | 2.6454e-05 | 0.0036415  | 0.0077555  |   2.9 |  0.14
Other   |            | 0.2695     |            |       | 10.62

Nlocal:        2776.45 ave        3951 max           0 min
Histogram: 8 4 4 0 4 12 8 2 28 34
Nghost:        3879.03 ave        5424 max         232 min
Histogram: 8 0 8 0 16 0 8 8 16 40
Neighs:        79213.5 ave      115138 max           0 min
Histogram: 8 4 4 0 10 6 8 8 24 32

Total # of neighbors = 8238201
Ave neighs/atom = 28.530467
Neighbor list builds = 0
Dangerous builds = 0
The dot product: -3.07199289037261e-09
Setting atom values ...
  1 settings made for x
  1 settings made for y
  1 settings made for z
Setting up cg style minimization ...
  Unit style    : metal
  Current step  : 1506
Per MPI rank memory allocation (min/avg/max) = 5.441 | 5.816 | 6.074 Mbytes
Step PotEng KinEng TotEng v_fx v_fy v_fz 
    1506   -1152449.4            0   -1152449.4  0.013884086 -0.012786543 -0.0025752464 
    1669   -1152449.4            0   -1152449.4 1.9139539e-05 -1.0287145e-05 -5.1331808e-05 
Loop time of 1.88984 on 104 procs for 163 steps with 288751 atoms

99.9% CPU use with 104 MPI tasks x 1 OpenMP threads

Minimization stats:
  Stopping criterion = energy tolerance
  Energy initial, next-to-last, final = 
     -1152449.39366455  -1152449.39504305  -1152449.39504305
  Force two-norm initial, final = 0.16755845 0.00017561661
  Force max component initial, final = 0.074511427 5.1331808e-05
  Final line search alpha, max atom move = 1.0000000 5.1331808e-05
  Iterations, force evaluations = 163 326

MPI task timing breakdown:
Section |  min time  |  avg time  |  max time  |%varavg| %total
---------------------------------------------------------------
Pair    | 0.49432    | 1.374      | 1.7851     |  31.6 | 72.70
Neigh   | 0          | 0          | 0          |   0.0 |  0.00
Comm    | 0.027431   | 0.31047    | 0.94828    |  46.7 | 16.43
Output  | 0          | 0          | 0          |   0.0 |  0.00
Modify  | 1.9656e-05 | 0.0027018  | 0.0058148  |   2.5 |  0.14
Other   |            | 0.2027     |            |       | 10.73

Nlocal:        2776.45 ave        3948 max           0 min
Histogram: 8 4 4 0 4 12 8 2 26 36
Nghost:        3879.03 ave        5424 max         232 min
Histogram: 8 0 8 0 16 0 8 8 16 40
Neighs:        79213.5 ave      115055 max           0 min
Histogram: 8 4 4 0 10 6 8 8 24 32

Total # of neighbors = 8238202
Ave neighs/atom = 28.530471
Neighbor list builds = 0
Dangerous builds = 0
The dot product: 2.29342962110047e-08
Setting atom values ...
  1 settings made for x
  1 settings made for y
  1 settings made for z
Setting up cg style minimization ...
  Unit style    : metal
  Current step  : 1669
Per MPI rank memory allocation (min/avg/max) = 5.441 | 5.816 | 6.074 Mbytes
Step PotEng KinEng TotEng v_fx v_fy v_fz 
    1669   -1152449.4            0   -1152449.4  0.014557676 -0.014164093 -0.00074923582 
    1786   -1152449.4            0   -1152449.4 2.4112008e-06 -5.301682e-06 1.7336717e-05 
Loop time of 1.34733 on 104 procs for 117 steps with 288751 atoms

99.9% CPU use with 104 MPI tasks x 1 OpenMP threads

Minimization stats:
  Stopping criterion = energy tolerance
  Energy initial, next-to-last, final = 
     -1152449.38027079  -1152449.38165433  -1152449.38165433
  Force two-norm initial, final = 0.16799398 0.00027270144
  Force max component initial, final = 0.074329919 3.9674723e-05
  Final line search alpha, max atom move = 1.0000000 3.9674723e-05
  Iterations, force evaluations = 117 234

MPI task timing breakdown:
Section |  min time  |  avg time  |  max time  |%varavg| %total
---------------------------------------------------------------
Pair    | 0.35427    | 0.98328    | 1.2771     |  26.9 | 72.98
Neigh   | 0          | 0          | 0          |   0.0 |  0.00
Comm    | 0.024147   | 0.22061    | 0.67282    |  40.0 | 16.37
Output  | 0          | 0          | 0          |   0.0 |  0.00
Modify  | 1.4178e-05 | 0.0019326  | 0.0041171  |   2.1 |  0.14
Other   |            | 0.1415     |            |       | 10.50

Nlocal:        2776.45 ave        3945 max           0 min
Histogram: 8 4 4 0 4 12 8 2 26 36
Nghost:        3879.03 ave        5424 max         232 min
Histogram: 8 0 8 0 16 0 8 8 16 40
Neighs:        79213.5 ave      114946 max           0 min
Histogram: 8 4 4 0 10 6 8 8 22 34

Total # of neighbors = 8238203
Ave neighs/atom = 28.530474
Neighbor list builds = 0
Dangerous builds = 0
The dot product: -4.01125422815497e-08
Setting atom values ...
  1 settings made for x
  1 settings made for y
  1 settings made for z
Setting up cg style minimization ...
  Unit style    : metal
  Current step  : 1786
Per MPI rank memory allocation (min/avg/max) = 5.441 | 5.816 | 6.074 Mbytes
Step PotEng KinEng TotEng v_fx v_fy v_fz 
    1786   -1152449.4            0   -1152449.4  0.015565695 -0.015767207 0.00043633501 
    1934   -1152449.4            0   -1152449.4 1.1304948e-05 -1.4352185e-05 1.6183679e-05 
Loop time of 1.716 on 104 procs for 148 steps with 288751 atoms

99.9% CPU use with 104 MPI tasks x 1 OpenMP threads

Minimization stats:
  Stopping criterion = energy tolerance
  Energy initial, next-to-last, final = 
     -1152449.36535973  -1152449.36674802  -1152449.36674802
  Force two-norm initial, final = 0.16835698 0.00026995197
  Force max component initial, final = 0.074275047 6.5551009e-05
  Final line search alpha, max atom move = 1.0000000 6.5551009e-05
  Iterations, force evaluations = 148 296

MPI task timing breakdown:
Section |  min time  |  avg time  |  max time  |%varavg| %total
---------------------------------------------------------------
Pair    | 0.44896    | 1.2464     | 1.6225     |  30.1 | 72.63
Neigh   | 0          | 0          | 0          |   0.0 |  0.00
Comm    | 0.025315   | 0.28129    | 0.85455    |  44.6 | 16.39
Output  | 0          | 0          | 0          |   0.0 |  0.00
Modify  | 1.8415e-05 | 0.0024435  | 0.0051925  |   2.3 |  0.14
Other   |            | 0.1859     |            |       | 10.83

Nlocal:        2776.45 ave        3943 max           0 min
Histogram: 8 4 4 0 4 12 8 2 26 36
Nghost:        3879.03 ave        5424 max         232 min
Histogram: 8 0 8 0 16 0 8 8 16 40
Neighs:        79213.5 ave      114895 max           0 min
Histogram: 8 4 4 0 10 6 8 8 22 34

Total # of neighbors = 8238204
Ave neighs/atom = 28.530478
Neighbor list builds = 0
Dangerous builds = 0
The dot product: -6.59340473326269e-08
Setting atom values ...
  1 settings made for x
  1 settings made for y
  1 settings made for z
Setting up cg style minimization ...
  Unit style    : metal
  Current step  : 1934
Per MPI rank memory allocation (min/avg/max) = 5.441 | 5.816 | 6.074 Mbytes
Step PotEng KinEng TotEng v_fx v_fy v_fz 
    1934   -1152449.3            0   -1152449.3  0.016271249 -0.016867522 0.00063315388 
    2000   -1152449.4            0   -1152449.4 -6.2984531e-05 5.7434496e-06 0.00030175677 
    2093   -1152449.4            0   -1152449.4 3.5515004e-05 -2.4158428e-05 -6.3281812e-05 
Loop time of 1.83116 on 104 procs for 159 steps with 288751 atoms

99.9% CPU use with 104 MPI tasks x 1 OpenMP threads

Minimization stats:
  Stopping criterion = energy tolerance
  Energy initial, next-to-last, final = 
     -1152449.34890877  -1152449.35030165  -1152449.35030165
  Force two-norm initial, final = 0.16866935 0.00025065997
  Force max component initial, final = 0.074429801 6.3281812e-05
  Final line search alpha, max atom move = 1.0000000 6.3281812e-05
  Iterations, force evaluations = 159 318

MPI task timing breakdown:
Section |  min time  |  avg time  |  max time  |%varavg| %total
---------------------------------------------------------------
Pair    | 0.48061    | 1.329      | 1.7314     |  31.1 | 72.58
Neigh   | 0          | 0          | 0          |   0.0 |  0.00
Comm    | 0.028403   | 0.2994     | 0.90184    |  46.1 | 16.35
Output  | 9.4612e-05 | 9.7421e-05 | 0.00020935 |   0.0 |  0.01
Modify  | 1.9559e-05 | 0.0026208  | 0.0055897  |   2.4 |  0.14
Other   |            | 0.2        |            |       | 10.92

Nlocal:        2776.45 ave        3941 max           0 min
Histogram: 8 4 4 0 4 12 8 2 26 36
Nghost:        3879.03 ave        5424 max         232 min
Histogram: 8 0 8 0 16 0 8 8 16 40
Neighs:        79213.5 ave      114838 max           0 min
Histogram: 8 4 4 0 10 6 8 8 22 34

Total # of neighbors = 8238204
Ave neighs/atom = 28.530478
Neighbor list builds = 0
Dangerous builds = 0
The dot product: 3.3040018048887e-08
Setting atom values ...
  1 settings made for x
  1 settings made for y
  1 settings made for z
Setting up cg style minimization ...
  Unit style    : metal
  Current step  : 2093
Per MPI rank memory allocation (min/avg/max) = 5.441 | 5.816 | 6.074 Mbytes
Step PotEng KinEng TotEng v_fx v_fy v_fz 
    2093   -1152449.3            0   -1152449.3  0.016182123 -0.016915027 -0.00022453887 
    2258   -1152449.3            0   -1152449.3 -1.67132e-05 1.6071325e-05 6.8994815e-06 
Loop time of 1.9147 on 104 procs for 165 steps with 288751 atoms

99.9% CPU use with 104 MPI tasks x 1 OpenMP threads

Minimization stats:
  Stopping criterion = energy tolerance
  Energy initial, next-to-last, final = 
      -1152449.3308904  -1152449.33230231  -1152449.33230231
  Force two-norm initial, final = 0.16875483 0.00023093874
  Force max component initial, final = 0.074441023 4.3265597e-05
  Final line search alpha, max atom move = 1.0000000 4.3265597e-05
  Iterations, force evaluations = 165 330

MPI task timing breakdown:
Section |  min time  |  avg time  |  max time  |%varavg| %total
---------------------------------------------------------------
Pair    | 0.49957    | 1.3855     | 1.8021     |  31.7 | 72.36
Neigh   | 0          | 0          | 0          |   0.0 |  0.00
Comm    | 0.030794   | 0.30953    | 0.93771    |  47.0 | 16.17
Output  | 0          | 0          | 0          |   0.0 |  0.00
Modify  | 1.9722e-05 | 0.002723   | 0.0057847  |   2.5 |  0.14
Other   |            | 0.217      |            |       | 11.33

Nlocal:        2776.45 ave        3939 max           0 min
Histogram: 8 4 4 0 4 12 8 2 26 36
Nghost:        3879.03 ave        5424 max         232 min
Histogram: 8 0 8 0 16 0 8 8 16 40
Neighs:        79213.5 ave      114775 max           0 min
Histogram: 8 4 4 0 10 6 8 8 22 34

Total # of neighbors = 8238202
Ave neighs/atom = 28.530471
Neighbor list builds = 0
Dangerous builds = 0
The dot product: 4.51577393636929e-08
Setting atom values ...
  1 settings made for x
  1 settings made for y
  1 settings made for z
Setting up cg style minimization ...
  Unit style    : metal
  Current step  : 2258
Per MPI rank memory allocation (min/avg/max) = 5.441 | 5.816 | 6.074 Mbytes
Step PotEng KinEng TotEng v_fx v_fy v_fz 
    2258   -1152449.3            0   -1152449.3  0.013851189 -0.013865896 -0.0042984845 
    2609   -1152449.3            0   -1152449.3 -3.0107146e-09 -1.5317188e-09 2.0674437e-08 
Loop time of 4.0303 on 104 procs for 351 steps with 288751 atoms

99.9% CPU use with 104 MPI tasks x 1 OpenMP threads

Minimization stats:
  Stopping criterion = energy tolerance
  Energy initial, next-to-last, final = 
     -1152449.31130222  -1152449.31286961  -1152449.31286961
  Force two-norm initial, final = 0.16861557 7.4639790e-07
  Force max component initial, final = 0.074299173 1.3803443e-07
  Final line search alpha, max atom move = 1.0000000 1.3803443e-07
  Iterations, force evaluations = 351 702

MPI task timing breakdown:
Section |  min time  |  avg time  |  max time  |%varavg| %total
---------------------------------------------------------------
Pair    | 1.0607     | 2.9362     | 3.8131     |  46.4 | 72.85
Neigh   | 0          | 0          | 0          |   0.0 |  0.00
Comm    | 0.067378   | 0.65482    | 1.9876     |  68.8 | 16.25
Output  | 0          | 0          | 0          |   0.0 |  0.00
Modify  | 4.1413e-05 | 0.0057707  | 0.012296   |   3.6 |  0.14
Other   |            | 0.4335     |            |       | 10.76

Nlocal:        2776.45 ave        3935 max           0 min
Histogram: 8 4 4 0 4 12 8 0 28 36
Nghost:        3879.03 ave        5424 max         232 min
Histogram: 8 0 8 0 16 0 8 8 16 40
Neighs:        79213.4 ave      114619 max           0 min
Histogram: 8 4 4 0 8 8 8 8 20 36

Total # of neighbors = 8238196
Ave neighs/atom = 28.530450
Neighbor list builds = 0
Dangerous builds = 0
The dot product: -1.73836187208351e-10
Setting atom values ...
  1 settings made for x
  1 settings made for y
  1 settings made for z
Setting up cg style minimization ...
  Unit style    : metal
  Current step  : 2609
Per MPI rank memory allocation (min/avg/max) = 5.441 | 5.816 | 6.074 Mbytes
Step PotEng KinEng TotEng v_fx v_fy v_fz 
    2609   -1152449.3            0   -1152449.3 -0.0018631406  0.010109722  -0.02761799 
    2802   -1152449.3            0   -1152449.3 -3.26259e-06 2.4381476e-06 4.5099789e-06 
Loop time of 2.24204 on 104 procs for 193 steps with 288751 atoms

99.9% CPU use with 104 MPI tasks x 1 OpenMP threads

Minimization stats:
  Stopping criterion = energy tolerance
  Energy initial, next-to-last, final = 
     -1152449.29038962  -1152449.29271133  -1152449.29271133
  Force two-norm initial, final = 0.17085961 0.00013775747
  Force max component initial, final = 0.072015483 2.1095719e-05
  Final line search alpha, max atom move = 1.0000000 2.1095719e-05
  Iterations, force evaluations = 193 386

MPI task timing breakdown:
Section |  min time  |  avg time  |  max time  |%varavg| %total
---------------------------------------------------------------
Pair    | 0.58818    | 1.6226     | 2.0913     |  34.3 | 72.37
Neigh   | 0          | 0          | 0          |   0.0 |  0.00
Comm    | 0.033638   | 0.36281    | 1.0987     |  51.0 | 16.18
Output  | 0          | 0          | 0          |   0.0 |  0.00
Modify  | 2.2878e-05 | 0.003183   | 0.0067808  |   2.7 |  0.14
Other   |            | 0.2535     |            |       | 11.31

Nlocal:        2776.45 ave        3930 max           0 min
Histogram: 8 4 4 0 4 12 8 0 26 38
Nghost:        3879.11 ave        5424 max         232 min
Histogram: 8 0 8 0 16 0 8 8 16 40
Neighs:        79213.5 ave      114470 max           0 min
Histogram: 8 4 4 0 8 8 8 8 20 36

Total # of neighbors = 8238199
Ave neighs/atom = 28.530461
Neighbor list builds = 0
Dangerous builds = 0
The dot product: 5.29484717393162e-09
Setting atom values ...
  1 settings made for x
  1 settings made for y
  1 settings made for z
Setting up cg style minimization ...
  Unit style    : metal
  Current step  : 2802
Per MPI rank memory allocation (min/avg/max) = 5.441 | 5.816 | 6.074 Mbytes
Step PotEng KinEng TotEng v_fx v_fy v_fz 
    2802   -1152449.3            0   -1152449.3 -0.025324979  0.058414147 -0.059007642 
    3000   -1152449.3            0   -1152449.3 1.4077272e-05 -8.237078e-07 -4.3005255e-05 
    3021   -1152449.3            0   -1152449.3 -1.3530889e-05 4.5037123e-06 3.2444526e-05 
Loop time of 2.50008 on 104 procs for 219 steps with 288751 atoms

99.9% CPU use with 104 MPI tasks x 1 OpenMP threads

Minimization stats:
  Stopping criterion = energy tolerance
  Energy initial, next-to-last, final = 
     -1152449.26908472  -1152449.27260316  -1152449.27260316
  Force two-norm initial, final = 0.19070594 0.00010194797
  Force max component initial, final = 0.078975037 3.2444526e-05
  Final line search alpha, max atom move = 1.0000000 3.2444526e-05
  Iterations, force evaluations = 219 438

MPI task timing breakdown:
Section |  min time  |  avg time  |  max time  |%varavg| %total
---------------------------------------------------------------
Pair    | 0.66239    | 1.8281     | 2.3606     |  36.5 | 73.12
Neigh   | 0          | 0          | 0          |   0.0 |  0.00
Comm    | 0.040308   | 0.40591    | 1.2355     |  54.6 | 16.24
Output  | 0.00014391 | 0.00015293 | 0.00030419 |   0.0 |  0.01
Modify  | 2.5733e-05 | 0.0036093  | 0.0076722  |   2.8 |  0.14
Other   |            | 0.2623     |            |       | 10.49

Nlocal:        2776.45 ave        3930 max           0 min
Histogram: 8 4 4 0 4 12 8 0 26 38
Nghost:        3879.14 ave        5425 max         232 min
Histogram: 8 0 8 0 16 0 8 8 16 40
Neighs:        79213.4 ave      114463 max           0 min
Histogram: 8 4 4 0 8 8 8 8 20 36

Total # of neighbors = 8238195
Ave neighs/atom = 28.530447
Neighbor list builds = 0
Dangerous builds = 0
The dot product: -3.26972901676964e-07
Setting atom values ...
  1 settings made for x
  1 settings made for y
  1 settings made for z
Setting up cg style minimization ...
  Unit style    : metal
  Current step  : 3021
Per MPI rank memory allocation (min/avg/max) = 5.441 | 5.816 | 6.074 Mbytes
Step PotEng KinEng TotEng v_fx v_fy v_fz 
    3021   -1152449.2            0   -1152449.2  -0.03173886   0.09116628 -0.064404484 
    3270   -1152449.3            0   -1152449.3 -4.7451972e-07 -1.0442821e-06 2.993875e-06 
Loop time of 2.87718 on 104 procs for 249 steps with 288751 atoms

99.9% CPU use with 104 MPI tasks x 1 OpenMP threads

Minimization stats:
  Stopping criterion = energy tolerance
  Energy initial, next-to-last, final = 
     -1152449.24798859   -1152449.2521139   -1152449.2521139
  Force two-norm initial, final = 0.20677166 2.5517021e-05
  Force max component initial, final = 0.09116628 2.9938750e-06
  Final line search alpha, max atom move = 1.0000000 2.9938750e-06
  Iterations, force evaluations = 249 498

MPI task timing breakdown:
Section |  min time  |  avg time  |  max time  |%varavg| %total
---------------------------------------------------------------
Pair    | 0.75279    | 2.0944     | 2.7188     |  39.1 | 72.79
Neigh   | 0          | 0          | 0          |   0.0 |  0.00
Comm    | 0.050169   | 0.47102    | 1.4503     |  58.0 | 16.37
Output  | 0          | 0          | 0          |   0.0 |  0.00
Modify  | 3.0169e-05 | 0.0041051  | 0.0087341  |   3.0 |  0.14
Other   |            | 0.3076     |            |       | 10.69

Nlocal:        2776.45 ave        3935 max           0 min
Histogram: 8 4 4 0 4 12 8 0 28 36
Nghost:        3879.14 ave        5425 max         232 min
Histogram: 8 0 8 0 16 0 8 8 16 40
Neighs:        79213.4 ave      114616 max           0 min
Histogram: 8 4 4 0 8 8 8 8 20 36

Total # of neighbors = 8238198
Ave neighs/atom = 28.530457
Neighbor list builds = 0
Dangerous builds = 0
The dot product: -8.22891656517994e-08
Setting atom values ...
  1 settings made for x
  1 settings made for y
  1 settings made for z
Setting up cg style minimization ...
  Unit style    : metal
  Current step  : 3270
Per MPI rank memory allocation (min/avg/max) = 5.441 | 5.816 | 6.074 Mbytes
Step PotEng KinEng TotEng v_fx v_fy v_fz 
    3270   -1152449.2            0   -1152449.2 -0.025494628   0.10293339 -0.056974319 
    3483   -1152449.2            0   -1152449.2 -1.135615e-06 1.7673696e-06 6.711343e-07 
Loop time of 2.44 on 104 procs for 213 steps with 288751 atoms

99.9% CPU use with 104 MPI tasks x 1 OpenMP threads

Minimization stats:
  Stopping criterion = energy tolerance
  Energy initial, next-to-last, final = 
     -1152449.22678007  -1152449.23080254  -1152449.23080254
  Force two-norm initial, final = 0.20958948 0.00012614601
  Force max component initial, final = 0.10293339 2.0327698e-05
  Final line search alpha, max atom move = 1.0000000 2.0327698e-05
  Iterations, force evaluations = 213 426

MPI task timing breakdown:
Section |  min time  |  avg time  |  max time  |%varavg| %total
---------------------------------------------------------------
Pair    | 0.64422    | 1.7829     | 2.3132     |  36.2 | 73.07
Neigh   | 0          | 0          | 0          |   0.0 |  0.00
Comm    | 0.038178   | 0.40034    | 1.217      |  53.9 | 16.41
Output  | 0          | 0          | 0          |   0.0 |  0.00
Modify  | 2.5289e-05 | 0.0035102  | 0.0075266  |   2.8 |  0.14
Other   |            | 0.2532     |            |       | 10.38

Nlocal:        2776.45 ave        3940 max           0 min
Histogram: 8 4 4 0 4 12 8 2 26 36
Nghost:        3879.11 ave        5425 max         232 min
Histogram: 8 0 8 0 16 0 8 8 16 40
Neighs:        79213.5 ave      114802 max           0 min
Histogram: 8 4 4 0 10 6 8 8 22 34

Total # of neighbors = 8238203
Ave neighs/atom = 28.530474
Neighbor list builds = 0
Dangerous builds = 0
The dot product: 4.76486819369612e-08
Setting atom values ...
  1 settings made for x
  1 settings made for y
  1 settings made for z
Setting up cg style minimization ...
  Unit style    : metal
  Current step  : 3483
Per MPI rank memory allocation (min/avg/max) = 5.441 | 5.816 | 6.074 Mbytes
Step PotEng KinEng TotEng v_fx v_fy v_fz 
    3483   -1152449.2            0   -1152449.2 -0.015412017    0.0940149 -0.043208634 
    3694   -1152449.2            0   -1152449.2 -4.925961e-06 4.5415969e-07 1.0199596e-05 
Loop time of 2.43417 on 104 procs for 211 steps with 288751 atoms

99.9% CPU use with 104 MPI tasks x 1 OpenMP threads

Minimization stats:
  Stopping criterion = energy tolerance
  Energy initial, next-to-last, final = 
      -1152449.2047603  -1152449.20820586  -1152449.20820586
  Force two-norm initial, final = 0.20087765 0.0001274288
  Force max component initial, final = 0.11013264 1.5816826e-05
  Final line search alpha, max atom move = 1.0000000 1.5816826e-05
  Iterations, force evaluations = 211 422

MPI task timing breakdown:
Section |  min time  |  avg time  |  max time  |%varavg| %total
---------------------------------------------------------------
Pair    | 0.63819    | 1.7754     | 2.3098     |  36.0 | 72.93
Neigh   | 0          | 0          | 0          |   0.0 |  0.00
Comm    | 0.035698   | 0.40024    | 1.2249     |  53.1 | 16.44
Output  | 0          | 0          | 0          |   0.0 |  0.00
Modify  | 2.5182e-05 | 0.0034851  | 0.0074204  |   2.8 |  0.14
Other   |            | 0.2551     |            |       | 10.48

Nlocal:        2776.45 ave        3951 max           0 min
Histogram: 8 4 4 0 4 12 8 2 28 34
Nghost:        3879.05 ave        5425 max         232 min
Histogram: 8 0 8 0 16 0 8 8 16 40
Neighs:        79213.5 ave      115156 max           0 min
Histogram: 8 4 4 0 10 6 8 8 24 32

Total # of neighbors = 8238206
Ave neighs/atom = 28.530485
Neighbor list builds = 0
Dangerous builds = 0
The dot product: -1.21113814454214e-07
Setting atom values ...
  1 settings made for x
  1 settings made for y
  1 settings made for z
Setting up cg style minimization ...
  Unit style    : metal
  Current step  : 3694
Per MPI rank memory allocation (min/avg/max) = 5.441 | 5.816 | 6.074 Mbytes
Step PotEng KinEng TotEng v_fx v_fy v_fz 
    3694   -1152449.2            0   -1152449.2 -0.0059856086  0.077663224 -0.034092096 
    3886   -1152449.2            0   -1152449.2 2.0363259e-05 2.7475447e-06 -4.1884692e-05 
Loop time of 2.2183 on 104 procs for 192 steps with 288751 atoms

99.9% CPU use with 104 MPI tasks x 1 OpenMP threads

Minimization stats:
  Stopping criterion = energy tolerance
  Energy initial, next-to-last, final = 
     -1152449.18155851  -1152449.18464905  -1152449.18464905
  Force two-norm initial, final = 0.1907255 0.0001749806
  Force max component initial, final = 0.11592437 5.2459534e-05
  Final line search alpha, max atom move = 1.0000000 5.2459534e-05
  Iterations, force evaluations = 192 384

MPI task timing breakdown:
Section |  min time  |  avg time  |  max time  |%varavg| %total
---------------------------------------------------------------
Pair    | 0.5776     | 1.6128     | 2.1006     |  34.4 | 72.70
Neigh   | 0          | 0          | 0          |   0.0 |  0.00
Comm    | 0.037381   | 0.3607     | 1.1001     |  51.1 | 16.26
Output  | 0          | 0          | 0          |   0.0 |  0.00
Modify  | 2.3084e-05 | 0.0031638  | 0.0067719  |   2.7 |  0.14
Other   |            | 0.2416     |            |       | 10.89

Nlocal:        2776.45 ave        3952 max           0 min
Histogram: 8 4 4 0 4 12 8 2 28 34
Nghost:        3879.02 ave        5425 max         232 min
Histogram: 8 0 8 0 16 0 8 8 16 40
Neighs:        79213.5 ave      115184 max           0 min
Histogram: 8 4 4 0 10 6 8 8 24 32

Total # of neighbors = 8238206
Ave neighs/atom = 28.530485
Neighbor list builds = 0
Dangerous builds = 0
The dot product: 6.62825380772094e-07
Setting atom values ...
  1 settings made for x
  1 settings made for y
  1 settings made for z
Setting up cg style minimization ...
  Unit style    : metal
  Current step  : 3886
Per MPI rank memory allocation (min/avg/max) = 5.441 | 5.816 | 6.074 Mbytes
Step PotEng KinEng TotEng v_fx v_fy v_fz 
    3886   -1152449.2            0   -1152449.2 0.0025309789  0.063889472 -0.032458773 
    4000   -1152449.2            0   -1152449.2 3.3392044e-05 -1.5388658e-05 -5.42607e-05 
    4106   -1152449.2            0   -1152449.2 4.7302505e-06 -2.893279e-07 -8.5102315e-06 
Loop time of 2.54266 on 104 procs for 220 steps with 288751 atoms

99.9% CPU use with 104 MPI tasks x 1 OpenMP threads

Minimization stats:
  Stopping criterion = energy tolerance
  Energy initial, next-to-last, final = 
     -1152449.15753821  -1152449.16027307  -1152449.16027307
  Force two-norm initial, final = 0.18406239 5.8864113e-05
  Force max component initial, final = 0.12003643 8.5102315e-06
  Final line search alpha, max atom move = 1.0000000 8.5102315e-06
  Iterations, force evaluations = 220 440

MPI task timing breakdown:
Section |  min time  |  avg time  |  max time  |%varavg| %total
---------------------------------------------------------------
Pair    | 0.66347    | 1.8434     | 2.4068     |  36.6 | 72.50
Neigh   | 0          | 0          | 0          |   0.0 |  0.00
Comm    | 0.041066   | 0.41251    | 1.2602     |  54.1 | 16.22
Output  | 0.00010465 | 0.00010705 | 0.0002365  |   0.0 |  0.00
Modify  | 2.5942e-05 | 0.0036249  | 0.0077267  |   2.8 |  0.14
Other   |            | 0.283      |            |       | 11.13

Nlocal:        2776.45 ave        3952 max           0 min
Histogram: 8 4 4 0 4 12 8 2 28 34
Nghost:        3878.97 ave        5425 max         232 min
Histogram: 8 0 8 0 16 0 8 8 16 40
Neighs:        79213.6 ave      115189 max           0 min
Histogram: 8 4 4 0 10 6 8 8 24 32

Total # of neighbors = 8238211
Ave neighs/atom = 28.530502
Neighbor list builds = 0
Dangerous builds = 0
The dot product: 1.30712771297922e-07
Setting atom values ...
  1 settings made for x
  1 settings made for y
  1 settings made for z
Setting up cg style minimization ...
  Unit style    : metal
  Current step  : 4106
Per MPI rank memory allocation (min/avg/max) = 5.441 | 5.816 | 6.074 Mbytes
Step PotEng KinEng TotEng v_fx v_fy v_fz 
    4106   -1152449.1            0   -1152449.1 0.0087470194  0.056013678 -0.032692941 
    4293   -1152449.1            0   -1152449.1 -1.3188693e-05 -2.4180676e-06 2.3044011e-05 
Loop time of 2.15016 on 104 procs for 187 steps with 288751 atoms

99.9% CPU use with 104 MPI tasks x 1 OpenMP threads

Minimization stats:
  Stopping criterion = energy tolerance
  Energy initial, next-to-last, final = 
      -1152449.1324418  -1152449.13491012  -1152449.13491012
  Force two-norm initial, final = 0.18140005 0.0001692224
  Force max component initial, final = 0.12421791 3.7286180e-05
  Final line search alpha, max atom move = 1.0000000 3.7286180e-05
  Iterations, force evaluations = 187 374

MPI task timing breakdown:
Section |  min time  |  avg time  |  max time  |%varavg| %total
---------------------------------------------------------------
Pair    | 0.56581    | 1.5644     | 2.0394     |  33.8 | 72.76
Neigh   | 0          | 0          | 0          |   0.0 |  0.00
Comm    | 0.033408   | 0.34981    | 1.0561     |  50.1 | 16.27
Output  | 0          | 0          | 0          |   0.0 |  0.00
Modify  | 2.2611e-05 | 0.0030804  | 0.0065847  |   2.6 |  0.14
Other   |            | 0.2329     |            |       | 10.83

Nlocal:        2776.45 ave        3954 max           0 min
Histogram: 8 4 4 0 4 12 8 2 28 34
Nghost:        3878.96 ave        5425 max         232 min
Histogram: 8 0 8 0 16 0 8 8 16 40
Neighs:        79213.6 ave      115253 max           0 min
Histogram: 8 4 4 0 10 6 8 8 24 32

Total # of neighbors = 8238214
Ave neighs/atom = 28.530512
Neighbor list builds = 0
Dangerous builds = 0
The dot product: -4.03051275094664e-07
Setting atom values ...
  1 settings made for x
  1 settings made for y
  1 settings made for z
Setting up cg style minimization ...
  Unit style    : metal
  Current step  : 4293
Per MPI rank memory allocation (min/avg/max) = 5.441 | 5.816 | 6.074 Mbytes
Step PotEng KinEng TotEng v_fx v_fy v_fz 
    4293   -1152449.1            0   -1152449.1  0.011364977  0.046545782 -0.028897574 
    4476   -1152449.1            0   -1152449.1 2.2401795e-05 -3.1483468e-06 -3.4519817e-05 
Loop time of 2.12782 on 104 procs for 183 steps with 288751 atoms

99.9% CPU use with 104 MPI tasks x 1 OpenMP threads

Minimization stats:
  Stopping criterion = energy tolerance
  Energy initial, next-to-last, final = 
     -1152449.10615807  -1152449.10829561  -1152449.10829561
  Force two-norm initial, final = 0.17857182 0.00016279031
  Force max component initial, final = 0.12817764 3.4519817e-05
  Final line search alpha, max atom move = 1.0000000 3.4519817e-05
  Iterations, force evaluations = 183 366

MPI task timing breakdown:
Section |  min time  |  avg time  |  max time  |%varavg| %total
---------------------------------------------------------------
Pair    | 0.55498    | 1.5393     | 2.0143     |  33.5 | 72.34
Neigh   | 0          | 0          | 0          |   0.0 |  0.00
Comm    | 0.031601   | 0.34503    | 1.0396     |  49.4 | 16.22
Output  | 0          | 0          | 0          |   0.0 |  0.00
Modify  | 2.1505e-05 | 0.0030199  | 0.0064471  |   2.6 |  0.14
Other   |            | 0.2405     |            |       | 11.30

Nlocal:        2776.45 ave        3954 max           0 min
Histogram: 8 4 4 0 4 12 8 2 28 34
Nghost:        3878.96 ave        5425 max         232 min
Histogram: 8 0 8 0 16 0 8 8 16 40
Neighs:        79213.6 ave      115248 max           0 min
Histogram: 8 4 4 0 10 6 8 8 24 32

Total # of neighbors = 8238213
Ave neighs/atom = 28.530509
Neighbor list builds = 0
Dangerous builds = 0
The dot product: 4.60485506597056e-07
Setting atom values ...
  1 settings made for x
  1 settings made for y
  1 settings made for z
Setting up cg style minimization ...
  Unit style    : metal
  Current step  : 4476
Per MPI rank memory allocation (min/avg/max) = 5.441 | 5.816 | 6.074 Mbytes
Step PotEng KinEng TotEng v_fx v_fy v_fz 
    4476   -1152449.1            0   -1152449.1  0.010860187  0.035984945  -0.02259544 
    4717   -1152449.1            0   -1152449.1 3.3194526e-06 -7.4285172e-07 -4.8002984e-06 
Loop time of 2.80838 on 104 procs for 241 steps with 288751 atoms

99.9% CPU use with 104 MPI tasks x 1 OpenMP threads

Minimization stats:
  Stopping criterion = energy tolerance
  Energy initial, next-to-last, final = 
     -1152449.07842612  -1152449.08032725  -1152449.08032725
  Force two-norm initial, final = 0.1761153 1.6376623e-05
  Force max component initial, final = 0.13178454 4.8002984e-06
  Final line search alpha, max atom move = 1.0000000 4.8002984e-06
  Iterations, force evaluations = 241 482

MPI task timing breakdown:
Section |  min time  |  avg time  |  max time  |%varavg| %total
---------------------------------------------------------------
Pair    | 0.73709    | 2.0238     | 2.6249     |  38.1 | 72.06
Neigh   | 0          | 0          | 0          |   0.0 |  0.00
Comm    | 0.044856   | 0.45564    | 1.3741     |  56.7 | 16.22
Output  | 0          | 0          | 0          |   0.0 |  0.00
Modify  | 2.8678e-05 | 0.0039757  | 0.0085223  |   3.0 |  0.14
Other   |            | 0.325      |            |       | 11.57

Nlocal:        2776.45 ave        3955 max           0 min
Histogram: 8 4 4 0 4 12 8 1 29 34
Nghost:        3878.95 ave        5425 max         232 min
Histogram: 8 0 8 0 16 0 8 8 16 40
Neighs:        79213.6 ave      115276 max           0 min
Histogram: 8 4 4 0 10 6 8 8 24 32

Total # of neighbors = 8238212
Ave neighs/atom = 28.530506
Neighbor list builds = 0
Dangerous builds = 0
The dot product: 5.34189526588988e-08
Setting atom values ...
  1 settings made for x
  1 settings made for y
  1 settings made for z
Setting up cg style minimization ...
  Unit style    : metal
  Current step  : 4717
Per MPI rank memory allocation (min/avg/max) = 5.441 | 5.816 | 6.074 Mbytes
Step PotEng KinEng TotEng v_fx v_fy v_fz 
    4717     -1152449            0     -1152449 0.0089381914   0.02642992 -0.016419168 
    4909   -1152449.1            0   -1152449.1 -1.3080739e-06 1.7691186e-06 1.607404e-06 
Loop time of 2.23438 on 104 procs for 192 steps with 288751 atoms

99.9% CPU use with 104 MPI tasks x 1 OpenMP threads

Minimization stats:
  Stopping criterion = energy tolerance
  Energy initial, next-to-last, final = 
     -1152449.04926675  -1152449.05102244  -1152449.05102244
  Force two-norm initial, final = 0.17483139 0.0001140226
  Force max component initial, final = 0.13495939 1.2167706e-05
  Final line search alpha, max atom move = 1.0000000 1.2167706e-05
  Iterations, force evaluations = 192 384

MPI task timing breakdown:
Section |  min time  |  avg time  |  max time  |%varavg| %total
---------------------------------------------------------------
Pair    | 0.58035    | 1.6218     | 2.1029     |  34.4 | 72.59
Neigh   | 0          | 0          | 0          |   0.0 |  0.00
Comm    | 0.043089   | 0.36657    | 1.1122     |  50.7 | 16.41
Output  | 0          | 0          | 0          |   0.0 |  0.00
Modify  | 2.2764e-05 | 0.0031731  | 0.0067465  |   2.7 |  0.14
Other   |            | 0.2428     |            |       | 10.87

Nlocal:        2776.45 ave        3955 max           0 min
Histogram: 8 4 4 0 4 12 8 0 30 34
Nghost:        3879.03 ave        5426 max         232 min
Histogram: 8 0 8 0 16 0 8 8 16 40
Neighs:        79213.6 ave      115286 max           0 min
Histogram: 8 4 4 0 10 6 8 8 24 32

Total # of neighbors = 8238215
Ave neighs/atom = 28.530516
Neighbor list builds = 0
Dangerous builds = 0
The dot product: -6.42915381335479e-09
Setting atom values ...
  1 settings made for x
  1 settings made for y
  1 settings made for z
Setting up cg style minimization ...
  Unit style    : metal
  Current step  : 4909
Per MPI rank memory allocation (min/avg/max) = 5.441 | 5.816 | 6.074 Mbytes
Step PotEng KinEng TotEng v_fx v_fy v_fz 
    4909     -1152449            0     -1152449 0.0066554647    0.0187484 -0.011277501 
    5000     -1152449            0     -1152449 0.0001485038 -4.0016661e-05 -0.00019862428 
    5116     -1152449            0     -1152449  3.85071e-06 -2.3434442e-06 -4.9993106e-06 
Loop time of 2.39692 on 104 procs for 207 steps with 288751 atoms

99.9% CPU use with 104 MPI tasks x 1 OpenMP threads

Minimization stats:
  Stopping criterion = energy tolerance
  Energy initial, next-to-last, final = 
     -1152449.01876856  -1152449.02048752  -1152449.02048752
  Force two-norm initial, final = 0.17461832 9.3295141e-05
  Force max component initial, final = 0.13773273 1.5601576e-05
  Final line search alpha, max atom move = 1.0000000 1.5601576e-05
  Iterations, force evaluations = 207 414

MPI task timing breakdown:
Section |  min time  |  avg time  |  max time  |%varavg| %total
---------------------------------------------------------------
Pair    | 0.62562    | 1.7322     | 2.2588     |  35.7 | 72.27
Neigh   | 0          | 0          | 0          |   0.0 |  0.00
Comm    | 0.037268   | 0.3907     | 1.1723     |  52.3 | 16.30
Output  | 0.00014772 | 0.00015608 | 0.00028119 |   0.0 |  0.01
Modify  | 2.4914e-05 | 0.0034099  | 0.0072818  |   2.8 |  0.14
Other   |            | 0.2705     |            |       | 11.28

Nlocal:        2776.45 ave        3955 max           0 min
Histogram: 8 4 4 0 4 12 8 0 30 34
Nghost:        3879.09 ave        5426 max         232 min
Histogram: 8 0 8 0 16 0 8 8 16 40
Neighs:        79213.6 ave      115298 max           0 min
Histogram: 8 4 4 0 10 6 8 8 24 32

Total # of neighbors = 8238218
Ave neighs/atom = 28.530526
Neighbor list builds = 0
Dangerous builds = 0
The dot product: 3.753471285628e-08
Setting atom values ...
  1 settings made for x
  1 settings made for y
  1 settings made for z
Setting up cg style minimization ...
  Unit style    : metal
  Current step  : 5116
Per MPI rank memory allocation (min/avg/max) = 5.441 | 5.816 | 6.074 Mbytes
Step PotEng KinEng TotEng v_fx v_fy v_fz 
    5116     -1152449            0     -1152449 0.0048141364  0.012974463 -0.0076698224 
    5299     -1152449            0     -1152449 1.6329636e-05 -3.238306e-06 -2.135526e-05 
Loop time of 2.11172 on 104 procs for 183 steps with 288751 atoms

99.9% CPU use with 104 MPI tasks x 1 OpenMP threads

Minimization stats:
  Stopping criterion = energy tolerance
  Energy initial, next-to-last, final = 
      -1152448.9871506  -1152448.98883349  -1152448.98883349
  Force two-norm initial, final = 0.17493916 0.00015781007
  Force max component initial, final = 0.14000991 2.1355260e-05
  Final line search alpha, max atom move = 1.0000000 2.1355260e-05
  Iterations, force evaluations = 183 366

MPI task timing breakdown:
Section |  min time  |  avg time  |  max time  |%varavg| %total
---------------------------------------------------------------
Pair    | 0.55191    | 1.5391     | 2.0031     |  33.6 | 72.89
Neigh   | 0          | 0          | 0          |   0.0 |  0.00
Comm    | 0.030867   | 0.34753    | 1.0611     |  49.4 | 16.46
Output  | 0          | 0          | 0          |   0.0 |  0.00
Modify  | 2.2004e-05 | 0.0030206  | 0.0064217  |   2.6 |  0.14
Other   |            | 0.222      |            |       | 10.51

Nlocal:        2776.45 ave        3956 max           0 min
Histogram: 8 4 4 0 4 12 8 0 30 34
Nghost:        3879.07 ave        5426 max         232 min
Histogram: 8 0 8 0 16 0 8 8 16 40
Neighs:        79213.6 ave      115316 max           0 min
Histogram: 8 4 4 0 10 6 8 8 24 32

Total # of neighbors = 8238215
Ave neighs/atom = 28.530516
Neighbor list builds = 0
Dangerous builds = 0
The dot product: 1.70733370092283e-07
Setting atom values ...
  1 settings made for x
  1 settings made for y
  1 settings made for z
Setting up cg style minimization ...
  Unit style    : metal
  Current step  : 5299
Per MPI rank memory allocation (min/avg/max) = 5.441 | 5.816 | 6.074 Mbytes
Step PotEng KinEng TotEng v_fx v_fy v_fz 
    5299     -1152449            0     -1152449 0.0027799474 0.0087793267 -0.0043638392 
    5461     -1152449            0     -1152449 -1.4081993e-05 7.4113945e-06 1.7568537e-05 
Loop time of 1.87102 on 104 procs for 162 steps with 288751 atoms

99.9% CPU use with 104 MPI tasks x 1 OpenMP threads

Minimization stats:
  Stopping criterion = energy tolerance
  Energy initial, next-to-last, final = 
     -1152448.95444827  -1152448.95615563  -1152448.95615563
  Force two-norm initial, final = 0.1756459 0.00029684093
  Force max component initial, final = 0.14208915 4.1741831e-05
  Final line search alpha, max atom move = 1.0000000 4.1741831e-05
  Iterations, force evaluations = 162 324

MPI task timing breakdown:
Section |  min time  |  avg time  |  max time  |%varavg| %total
---------------------------------------------------------------
Pair    | 0.48911    | 1.3598     | 1.7746     |  31.6 | 72.68
Neigh   | 0          | 0          | 0          |   0.0 |  0.00
Comm    | 0.02894    | 0.30505    | 0.92533    |  46.8 | 16.30
Output  | 0          | 0          | 0          |   0.0 |  0.00
Modify  | 1.9284e-05 | 0.0026754  | 0.0057312  |   2.5 |  0.14
Other   |            | 0.2035     |            |       | 10.87

Nlocal:        2776.45 ave        3956 max           0 min
Histogram: 8 4 4 0 4 12 8 0 30 34
Nghost:        3879.05 ave        5426 max         232 min
Histogram: 8 0 8 0 16 0 8 8 16 40
Neighs:        79213.6 ave      115318 max           0 min
Histogram: 8 4 4 0 10 6 8 8 24 32

Total # of neighbors = 8238219
Ave neighs/atom = 28.530530
Neighbor list builds = 0
Dangerous builds = 0
The dot product: -1.23287130107527e-07
Setting atom values ...
  1 settings made for x
  1 settings made for y
  1 settings made for z
Setting up cg style minimization ...
  Unit style    : metal
  Current step  : 5461
Per MPI rank memory allocation (min/avg/max) = 5.441 | 5.816 | 6.074 Mbytes
Step PotEng KinEng TotEng v_fx v_fy v_fz 
    5461   -1152448.9            0   -1152448.9 0.0011469028 0.0059401584 -0.0019258173 
    5646   -1152448.9            0   -1152448.9 6.4373345e-06 -3.6285979e-06 -7.8504894e-06 
Loop time of 2.16541 on 104 procs for 185 steps with 288751 atoms

99.9% CPU use with 104 MPI tasks x 1 OpenMP threads

Minimization stats:
  Stopping criterion = energy tolerance
  Energy initial, next-to-last, final = 
     -1152448.92086157  -1152448.92257214  -1152448.92257214
  Force two-norm initial, final = 0.17637271 0.00017261033
  Force max component initial, final = 0.143829 1.8530418e-05
  Final line search alpha, max atom move = 1.0000000 1.8530418e-05
  Iterations, force evaluations = 185 370

MPI task timing breakdown:
Section |  min time  |  avg time  |  max time  |%varavg| %total
---------------------------------------------------------------
Pair    | 0.56089    | 1.5577     | 2.0455     |  33.7 | 71.93
Neigh   | 0          | 0          | 0          |   0.0 |  0.00
Comm    | 0.038093   | 0.3516     | 1.0599     |  49.6 | 16.24
Output  | 0          | 0          | 0          |   0.0 |  0.00
Modify  | 2.2588e-05 | 0.0030514  | 0.0064979  |   2.6 |  0.14
Other   |            | 0.2531     |            |       | 11.69

Nlocal:        2776.45 ave        3956 max           0 min
Histogram: 8 4 4 0 4 12 8 0 30 34
Nghost:        3879.05 ave        5426 max         232 min
Histogram: 8 0 8 0 16 0 8 8 16 40
Neighs:        79213.6 ave      115325 max           0 min
Histogram: 8 4 4 0 10 6 8 8 24 32

Total # of neighbors = 8238214
Ave neighs/atom = 28.530512
Neighbor list builds = 0
Dangerous builds = 0
The dot product: 5.10715228466074e-08
Setting atom values ...
  1 settings made for x
  1 settings made for y
  1 settings made for z
Setting up cg style minimization ...
  Unit style    : metal
  Current step  : 5646
Per MPI rank memory allocation (min/avg/max) = 5.441 | 5.816 | 6.074 Mbytes
Step PotEng KinEng TotEng v_fx v_fy v_fz 
    5646   -1152448.9            0   -1152448.9 -0.00084442477 0.0039412872 0.00075045626 
    5867   -1152448.9            0   -1152448.9 6.263281e-06 -7.7937494e-07 -7.7096762e-06 
Loop time of 2.54968 on 104 procs for 221 steps with 288751 atoms

99.9% CPU use with 104 MPI tasks x 1 OpenMP threads

Minimization stats:
  Stopping criterion = energy tolerance
  Energy initial, next-to-last, final = 
     -1152448.88636373  -1152448.88798597  -1152448.88798597
  Force two-norm initial, final = 0.17720727 5.4303497e-05
  Force max component initial, final = 0.14537774 8.8450086e-06
  Final line search alpha, max atom move = 1.0000000 8.8450086e-06
  Iterations, force evaluations = 221 442

MPI task timing breakdown:
Section |  min time  |  avg time  |  max time  |%varavg| %total
---------------------------------------------------------------
Pair    | 0.66716    | 1.8552     | 2.4127     |  36.8 | 72.76
Neigh   | 0          | 0          | 0          |   0.0 |  0.00
Comm    | 0.043052   | 0.41261    | 1.2531     |  54.9 | 16.18
Output  | 0          | 0          | 0          |   0.0 |  0.00
Modify  | 2.6831e-05 | 0.0036333  | 0.0077574  |   2.9 |  0.14
Other   |            | 0.2783     |            |       | 10.91

Nlocal:        2776.45 ave        3956 max           0 min
Histogram: 8 4 4 0 4 12 8 0 30 34
Nghost:        3879.04 ave        5426 max         232 min
Histogram: 8 0 8 0 16 0 8 8 16 40
Neighs:        79213.6 ave      115324 max           0 min
Histogram: 8 4 4 0 10 6 8 8 24 32

Total # of neighbors = 8238216
Ave neighs/atom = 28.530519
Neighbor list builds = 0
Dangerous builds = 0
The dot product: 4.38316349643928e-08
Setting atom values ...
  1 settings made for x
  1 settings made for y
  1 settings made for z
Setting up cg style minimization ...
  Unit style    : metal
  Current step  : 5867
Per MPI rank memory allocation (min/avg/max) = 5.441 | 5.816 | 6.074 Mbytes
Step PotEng KinEng TotEng v_fx v_fy v_fz 
    5867   -1152448.9            0   -1152448.9 -0.003676333 0.0026146655 0.0043013198 
    6000   -1152448.9            0   -1152448.9 -2.435198e-05 3.7960137e-06 2.9473904e-05 
    6099   -1152448.9            0   -1152448.9 9.9264873e-07 4.2999705e-07 -1.2438922e-06 
Loop time of 2.70051 on 104 procs for 232 steps with 288751 atoms

99.9% CPU use with 104 MPI tasks x 1 OpenMP threads

Minimization stats:
  Stopping criterion = energy tolerance
  Energy initial, next-to-last, final = 
     -1152448.85072503  -1152448.85234984  -1152448.85234984
  Force two-norm initial, final = 0.1785579 3.7863333e-05
  Force max component initial, final = 0.14717926 6.6822670e-06
  Final line search alpha, max atom move = 1.0000000 6.6822670e-06
  Iterations, force evaluations = 232 464

MPI task timing breakdown:
Section |  min time  |  avg time  |  max time  |%varavg| %total
---------------------------------------------------------------
Pair    | 0.70181    | 1.9488     | 2.5456     |  37.6 | 72.17
Neigh   | 0          | 0          | 0          |   0.0 |  0.00
Comm    | 0.042629   | 0.43552    | 1.3346     |  55.9 | 16.13
Output  | 0.00011099 | 0.00011327 | 0.00025097 |   0.0 |  0.00
Modify  | 2.7549e-05 | 0.0038183  | 0.0081487  |   2.9 |  0.14
Other   |            | 0.3122     |            |       | 11.56

Nlocal:        2776.45 ave        3956 max           0 min
Histogram: 8 4 4 0 4 12 8 0 30 34
Nghost:        3879.04 ave        5426 max         232 min
Histogram: 8 0 8 0 16 0 8 8 16 40
Neighs:        79213.6 ave      115326 max           0 min
Histogram: 8 4 4 0 10 6 8 8 24 32

Total # of neighbors = 8238215
Ave neighs/atom = 28.530516
Neighbor list builds = 0
Dangerous builds = 0
The dot product: 5.94936346005095e-09
Setting atom values ...
  1 settings made for x
  1 settings made for y
  1 settings made for z
Setting up cg style minimization ...
  Unit style    : metal
  Current step  : 6099
Per MPI rank memory allocation (min/avg/max) = 5.441 | 5.816 | 6.074 Mbytes
Step PotEng KinEng TotEng v_fx v_fy v_fz 
    6099   -1152448.8            0   -1152448.8 -0.0062587393 0.0019395263 0.0074171598 
    6327   -1152448.8            0   -1152448.8 1.1829615e-05 -2.1835758e-06 -1.4124742e-05 
Loop time of 2.63696 on 104 procs for 228 steps with 288751 atoms

99.9% CPU use with 104 MPI tasks x 1 OpenMP threads

Minimization stats:
  Stopping criterion = energy tolerance
  Energy initial, next-to-last, final = 
     -1152448.81408335  -1152448.81584373  -1152448.81584373
  Force two-norm initial, final = 0.17976907 5.1829309e-05
  Force max component initial, final = 0.14872956 1.4124742e-05
  Final line search alpha, max atom move = 1.0000000 1.4124742e-05
  Iterations, force evaluations = 228 456

MPI task timing breakdown:
Section |  min time  |  avg time  |  max time  |%varavg| %total
---------------------------------------------------------------
Pair    | 0.68824    | 1.9056     | 2.487      |  37.3 | 72.27
Neigh   | 0          | 0          | 0          |   0.0 |  0.00
Comm    | 0.041521   | 0.42507    | 1.2795     |  55.1 | 16.12
Output  | 0          | 0          | 0          |   0.0 |  0.00
Modify  | 2.7311e-05 | 0.0037488  | 0.0079895  |   2.9 |  0.14
Other   |            | 0.3025     |            |       | 11.47

Nlocal:        2776.45 ave        3956 max           0 min
Histogram: 8 4 4 0 4 12 8 0 30 34
Nghost:        3879.04 ave        5426 max         232 min
Histogram: 8 0 8 0 16 0 8 8 16 40
Neighs:        79213.6 ave      115319 max           0 min
Histogram: 8 4 4 0 10 6 8 8 24 32

Total # of neighbors = 8238213
Ave neighs/atom = 28.530509
Neighbor list builds = 0
Dangerous builds = 0
The dot product: 5.79596903053836e-08
Setting atom values ...
  1 settings made for x
  1 settings made for y
  1 settings made for z
Setting up cg style minimization ...
  Unit style    : metal
  Current step  : 6327
Per MPI rank memory allocation (min/avg/max) = 5.441 | 5.816 | 6.074 Mbytes
Step PotEng KinEng TotEng v_fx v_fy v_fz 
    6327   -1152448.8            0   -1152448.8 -0.0083653838 0.0017416052  0.009875089 
    6514   -1152448.8            0   -1152448.8 -2.3852984e-05 4.1676074e-06 2.8214272e-05 
Loop time of 2.17124 on 104 procs for 187 steps with 288751 atoms

99.9% CPU use with 104 MPI tasks x 1 OpenMP threads

Minimization stats:
  Stopping criterion = energy tolerance
  Energy initial, next-to-last, final = 
     -1152448.77674164  -1152448.77835889  -1152448.77835889
  Force two-norm initial, final = 0.18037144 0.00014698317
  Force max component initial, final = 0.14979778 2.8214272e-05
  Final line search alpha, max atom move = 1.0000000 2.8214272e-05
  Iterations, force evaluations = 187 374

MPI task timing breakdown:
Section |  min time  |  avg time  |  max time  |%varavg| %total
---------------------------------------------------------------
Pair    | 0.56754    | 1.5758     | 2.0605     |  33.9 | 72.58
Neigh   | 0          | 0          | 0          |   0.0 |  0.00
Comm    | 0.032765   | 0.35473    | 1.0753     |  50.2 | 16.34
Output  | 0          | 0          | 0          |   0.0 |  0.00
Modify  | 2.2235e-05 | 0.0030849  | 0.0065583  |   2.6 |  0.14
Other   |            | 0.2376     |            |       | 10.94

Nlocal:        2776.45 ave        3955 max           0 min
Histogram: 8 4 4 0 4 12 8 0 30 34
Nghost:        3879.00 ave        5426 max         232 min
Histogram: 8 0 8 0 16 0 8 8 16 40
Neighs:        79213.6 ave      115301 max           0 min
Histogram: 8 4 4 0 10 6 8 8 24 32

Total # of neighbors = 8238215
Ave neighs/atom = 28.530516
Neighbor list builds = 0
Dangerous builds = 0
The dot product: -7.66185109941904e-08
Setting atom values ...
  1 settings made for x
  1 settings made for y
  1 settings made for z
Setting up cg style minimization ...
  Unit style    : metal
  Current step  : 6514
Per MPI rank memory allocation (min/avg/max) = 5.441 | 5.816 | 6.074 Mbytes
Step PotEng KinEng TotEng v_fx v_fy v_fz 
    6514   -1152448.7            0   -1152448.7 -0.011566496 0.0020604549  0.013591506 
    6706   -1152448.7            0   -1152448.7 -1.0333571e-05 3.1332539e-06 1.2050915e-05 
Loop time of 2.21772 on 104 procs for 192 steps with 288751 atoms

99.9% CPU use with 104 MPI tasks x 1 OpenMP threads

Minimization stats:
  Stopping criterion = energy tolerance
  Energy initial, next-to-last, final = 
     -1152448.73824732  -1152448.73989392  -1152448.73989392
  Force two-norm initial, final = 0.18134466 0.00013173934
  Force max component initial, final = 0.15116381 1.8837071e-05
  Final line search alpha, max atom move = 1.0000000 1.8837071e-05
  Iterations, force evaluations = 192 384

MPI task timing breakdown:
Section |  min time  |  avg time  |  max time  |%varavg| %total
---------------------------------------------------------------
Pair    | 0.58013    | 1.6073     | 2.0986     |  34.3 | 72.48
Neigh   | 0          | 0          | 0          |   0.0 |  0.00
Comm    | 0.040326   | 0.36237    | 1.0961     |  50.6 | 16.34
Output  | 0          | 0          | 0          |   0.0 |  0.00
Modify  | 2.3278e-05 | 0.0031635  | 0.0067398  |   2.7 |  0.14
Other   |            | 0.2448     |            |       | 11.04

Nlocal:        2776.45 ave        3955 max           0 min
Histogram: 8 4 4 0 4 12 8 0 30 34
Nghost:        3878.97 ave        5426 max         232 min
Histogram: 8 0 8 0 16 0 8 8 16 40
Neighs:        79213.6 ave      115299 max           0 min
Histogram: 8 4 4 0 10 6 8 8 24 32

Total # of neighbors = 8238213
Ave neighs/atom = 28.530509
Neighbor list builds = 0
Dangerous builds = 0
The dot product: -1.96069616497869e-08
Setting atom values ...
  1 settings made for x
  1 settings made for y
  1 settings made for z
Setting up cg style minimization ...
  Unit style    : metal
  Current step  : 6706
Per MPI rank memory allocation (min/avg/max) = 5.441 | 5.816 | 6.074 Mbytes
Step PotEng KinEng TotEng v_fx v_fy v_fz 
    6706   -1152448.7            0   -1152448.7 -0.014280918 0.0027510105  0.016706216 
    6900   -1152448.7            0   -1152448.7 2.3757499e-05 -9.8713278e-07 -2.8049988e-05 
Loop time of 2.2441 on 104 procs for 194 steps with 288751 atoms

99.9% CPU use with 104 MPI tasks x 1 OpenMP threads

Minimization stats:
  Stopping criterion = energy tolerance
  Energy initial, next-to-last, final = 
     -1152448.69892326  -1152448.70080852  -1152448.70080852
  Force two-norm initial, final = 0.18153861 0.00013243704
  Force max component initial, final = 0.15209418 3.0869324e-05
  Final line search alpha, max atom move = 1.0000000 3.0869324e-05
  Iterations, force evaluations = 194 388

MPI task timing breakdown:
Section |  min time  |  avg time  |  max time  |%varavg| %total
---------------------------------------------------------------
Pair    | 0.58921    | 1.6347     | 2.1297     |  34.5 | 72.84
Neigh   | 0          | 0          | 0          |   0.0 |  0.00
Comm    | 0.033547   | 0.3669     | 1.1204     |  51.2 | 16.35
Output  | 0          | 0          | 0          |   0.0 |  0.00
Modify  | 2.3166e-05 | 0.0031999  | 0.0068253  |   2.7 |  0.14
Other   |            | 0.2393     |            |       | 10.66

Nlocal:        2776.45 ave        3954 max           0 min
Histogram: 8 4 4 0 4 12 8 0 30 34
Nghost:        3878.98 ave        5426 max         232 min
Histogram: 8 0 8 0 16 0 8 8 16 40
Neighs:        79213.6 ave      115261 max           0 min
Histogram: 8 4 4 0 10 6 8 8 24 32

Total # of neighbors = 8238215
Ave neighs/atom = 28.530516
Neighbor list builds = 0
Dangerous builds = 0
The dot product: 2.15925346909215e-08
Setting atom values ...
  1 settings made for x
  1 settings made for y
  1 settings made for z
Setting up cg style minimization ...
  Unit style    : metal
  Current step  : 6900
Per MPI rank memory allocation (min/avg/max) = 5.441 | 5.816 | 6.074 Mbytes
Step PotEng KinEng TotEng v_fx v_fy v_fz 
    6900   -1152448.7            0   -1152448.7 -0.016294412 0.0032968432  0.019013305 
    7000   -1152448.7            0   -1152448.7 -9.2424372e-05 1.8836732e-05 0.00010783631 
    7076   -1152448.7            0   -1152448.7 8.5413525e-06 -3.545437e-06 -9.8329978e-06 
Loop time of 2.0259 on 104 procs for 176 steps with 288751 atoms

99.9% CPU use with 104 MPI tasks x 1 OpenMP threads

Minimization stats:
  Stopping criterion = energy tolerance
  Energy initial, next-to-last, final = 
     -1152448.65946543   -1152448.6612562   -1152448.6612562
  Force two-norm initial, final = 0.180189 0.00010723797
  Force max component initial, final = 0.15189513 2.0942340e-05
  Final line search alpha, max atom move = 1.0000000 2.0942340e-05
  Iterations, force evaluations = 176 352

MPI task timing breakdown:
Section |  min time  |  avg time  |  max time  |%varavg| %total
---------------------------------------------------------------
Pair    | 0.5338     | 1.475      | 1.921      |  32.8 | 72.81
Neigh   | 0          | 0          | 0          |   0.0 |  0.00
Comm    | 0.031345   | 0.32873    | 0.99929    |  48.8 | 16.23
Output  | 0.00010547 | 0.00010784 | 0.0002338  |   0.0 |  0.01
Modify  | 2.1302e-05 | 0.002903   | 0.0062099  |   2.5 |  0.14
Other   |            | 0.2191     |            |       | 10.82

Nlocal:        2776.45 ave        3954 max           0 min
Histogram: 8 4 4 0 4 12 8 0 30 34
Nghost:        3878.90 ave        5426 max         232 min
Histogram: 8 0 8 0 16 0 8 8 16 40
Neighs:        79213.5 ave      115261 max           0 min
Histogram: 8 4 4 0 10 6 8 8 24 32

Total # of neighbors = 8238200
Ave neighs/atom = 28.530464
Neighbor list builds = 0
Dangerous builds = 0
The dot product: -3.78672542861549e-09
Setting atom values ...
  1 settings made for x
  1 settings made for y
  1 settings made for z
Setting up cg style minimization ...
  Unit style    : metal
  Current step  : 7076
Per MPI rank memory allocation (min/avg/max) = 5.441 | 5.816 | 6.074 Mbytes
Step PotEng KinEng TotEng v_fx v_fy v_fz 
    7076   -1152448.6            0   -1152448.6 -0.019204472 0.0037370359  0.022448943 
    7289   -1152448.6            0   -1152448.6 -5.3827539e-06 1.2373704e-06 6.2776897e-06 
Loop time of 2.4768 on 104 procs for 213 steps with 288751 atoms

99.9% CPU use with 104 MPI tasks x 1 OpenMP threads

Minimization stats:
  Stopping criterion = energy tolerance
  Energy initial, next-to-last, final = 
     -1152448.61983008  -1152448.62198019  -1152448.62198019
  Force two-norm initial, final = 0.17911136 0.00013529037
  Force max component initial, final = 0.15119273 8.4961525e-06
  Final line search alpha, max atom move = 1.0000000 8.4961525e-06
  Iterations, force evaluations = 213 426

MPI task timing breakdown:
Section |  min time  |  avg time  |  max time  |%varavg| %total
---------------------------------------------------------------
Pair    | 0.64665    | 1.7888     | 2.3468     |  36.0 | 72.22
Neigh   | 0          | 0          | 0          |   0.0 |  0.00
Comm    | 0.036685   | 0.40299    | 1.2196     |  53.1 | 16.27
Output  | 0          | 0          | 0          |   0.0 |  0.00
Modify  | 2.5604e-05 | 0.0035108  | 0.0074717  |   2.8 |  0.14
Other   |            | 0.2815     |            |       | 11.36

Nlocal:        2776.45 ave        3954 max           0 min
Histogram: 8 4 4 0 4 12 8 0 30 34
Nghost:        3878.89 ave        5426 max         232 min
Histogram: 8 0 8 0 16 0 8 8 16 40
Neighs:        79213.5 ave      115262 max           0 min
Histogram: 8 4 4 0 10 6 8 8 24 32

Total # of neighbors = 8238201
Ave neighs/atom = 28.530467
Neighbor list builds = 0
Dangerous builds = 0
The dot product: 3.72604553699262e-09
Setting atom values ...
  1 settings made for x
  1 settings made for y
  1 settings made for z
Setting up cg style minimization ...
  Unit style    : metal
  Current step  : 7289
Per MPI rank memory allocation (min/avg/max) = 5.441 | 5.816 | 6.074 Mbytes
Step PotEng KinEng TotEng v_fx v_fy v_fz 
    7289   -1152448.6            0   -1152448.6 -0.021543403 0.00085448921   0.02548155 
    7547   -1152448.6            0   -1152448.6 9.7563289e-06 -2.7919528e-06 -1.1348936e-05 
Loop time of 2.97873 on 104 procs for 258 steps with 288751 atoms

99.9% CPU use with 104 MPI tasks x 1 OpenMP threads

Minimization stats:
  Stopping criterion = energy tolerance
  Energy initial, next-to-last, final = 
        -1152448.58159  -1152448.58609818  -1152448.58609818
  Force two-norm initial, final = 0.17846025 9.3988660e-05
  Force max component initial, final = 0.14831181 1.4957234e-05
  Final line search alpha, max atom move = 1.0000000 1.4957234e-05
  Iterations, force evaluations = 258 516

MPI task timing breakdown:
Section |  min time  |  avg time  |  max time  |%varavg| %total
---------------------------------------------------------------
Pair    | 0.78434    | 2.1627     | 2.8138     |  39.7 | 72.60
Neigh   | 1.0658e-05 | 0.0029625  | 0.0042942  |   2.2 |  0.10
Comm    | 0.052743   | 0.48253    | 1.4658     |  59.1 | 16.20
Output  | 0          | 0          | 0          |   0.0 |  0.00
Modify  | 3.0659e-05 | 0.0042497  | 0.0090609  |   3.1 |  0.14
Other   |            | 0.3263     |            |       | 10.96

Nlocal:        2776.45 ave        3951 max           0 min
Histogram: 8 4 4 0 4 12 8 0 30 34
Nghost:        3879.05 ave        5426 max         232 min
Histogram: 8 0 8 0 16 0 8 8 16 40
Neighs:        79213.4 ave      115158 max           0 min
Histogram: 8 4 4 0 10 6 8 8 24 32

Total # of neighbors = 8238195
Ave neighs/atom = 28.530447
Neighbor list builds = 1
Dangerous builds = 0
The dot product: 1.92836167008783e-07
Setting atom values ...
  1 settings made for x
  1 settings made for y
  1 settings made for z
Setting up cg style minimization ...
  Unit style    : metal
  Current step  : 7547
Per MPI rank memory allocation (min/avg/max) = 5.441 | 5.816 | 6.074 Mbytes
Step PotEng KinEng TotEng v_fx v_fy v_fz 
    7547   -1152448.6            0   -1152448.6 -0.011692132 -0.0012510334   0.01352654 
    7798   -1152448.6            0   -1152448.6 1.9882781e-06 -2.9339037e-07 -2.2576037e-06 
Loop time of 2.91987 on 104 procs for 251 steps with 288751 atoms

99.9% CPU use with 104 MPI tasks x 1 OpenMP threads

Minimization stats:
  Stopping criterion = energy tolerance
  Energy initial, next-to-last, final = 
     -1152448.55848429  -1152448.56158194  -1152448.56158194
  Force two-norm initial, final = 0.1843969 1.6084795e-05
  Force max component initial, final = 0.14845406 2.9043340e-06
  Final line search alpha, max atom move = 1.0000000 2.9043340e-06
  Iterations, force evaluations = 251 502

MPI task timing breakdown:
Section |  min time  |  avg time  |  max time  |%varavg| %total
---------------------------------------------------------------
Pair    | 0.76087    | 2.1128     | 2.7701     |  39.3 | 72.36
Neigh   | 0          | 0          | 0          |   0.0 |  0.00
Comm    | 0.043858   | 0.4739     | 1.4297     |  57.9 | 16.23
Output  | 0          | 0          | 0          |   0.0 |  0.00
Modify  | 3.0158e-05 | 0.004137   | 0.0088366  |   3.0 |  0.14
Other   |            | 0.329      |            |       | 11.27

Nlocal:        2776.45 ave        3952 max           0 min
Histogram: 8 4 4 0 4 12 8 0 30 34
Nghost:        3879.05 ave        5426 max         232 min
Histogram: 8 0 8 0 16 0 8 8 16 40
Neighs:        79213.5 ave      115221 max           0 min
Histogram: 8 4 4 0 10 6 8 8 24 32

Total # of neighbors = 8238199
Ave neighs/atom = 28.530461
Neighbor list builds = 0
Dangerous builds = 0
The dot product: 1.84840786116569e-08
Setting atom values ...
  1 settings made for x
  1 settings made for y
  1 settings made for z
Setting up cg style minimization ...
  Unit style    : metal
  Current step  : 7798
Per MPI rank memory allocation (min/avg/max) = 5.441 | 5.816 | 6.074 Mbytes
Step PotEng KinEng TotEng v_fx v_fy v_fz 
    7798   -1152448.5            0   -1152448.5 -0.024688327 0.0041704989  0.027544692 
    8000   -1152448.5            0   -1152448.5 2.2837217e-05 -1.6838877e-06 -2.5665937e-05 
[...]

Nlocal:        2776.45 ave        3930 max           0 min
Histogram: 8 4 4 0 4 12 8 0 26 38
Nghost:        3879.03 ave        5426 max         232 min
Histogram: 8 0 8 0 16 0 8 8 16 40
Neighs:        79213.3 ave      114462 max           0 min
Histogram: 8 4 4 0 8 8 8 8 20 36

Total # of neighbors = 8238186
Ave neighs/atom = 28.530415
Neighbor list builds = 1
Dangerous builds = 0
The dot product: 6.0191442335168e-07
Setting atom values ...
  1 settings made for x
  1 settings made for y
  1 settings made for z
Setting up cg style minimization ...
  Unit style    : metal
  Current step  : 20353
Per MPI rank memory allocation (min/avg/max) = 5.441 | 5.816 | 6.074 Mbytes
Step PotEng KinEng TotEng v_fx v_fy v_fz 
   20353   -1152448.9            0   -1152448.9 0.0016673114  0.052799026 -0.062038451 
   20504   -1152448.9            0   -1152448.9 8.4252638e-06 1.4505649e-06 -7.4130792e-06 
Loop time of 1.73776 on 104 procs for 151 steps with 288751 atoms

99.9% CPU use with 104 MPI tasks x 1 OpenMP threads

Minimization stats:
  Stopping criterion = energy tolerance
  Energy initial, next-to-last, final = 
     -1152448.88616742   -1152448.8881751   -1152448.8881751
  Force two-norm initial, final = 0.1890873 5.8211907e-05
  Force max component initial, final = 0.10545086 1.4718102e-05
  Final line search alpha, max atom move = 1.0000000 1.4718102e-05
  Iterations, force evaluations = 151 302

MPI task timing breakdown:
Section |  min time  |  avg time  |  max time  |%varavg| %total
---------------------------------------------------------------
Pair    | 0.45453    | 1.2684     | 1.6474     |  30.7 | 72.99
Neigh   | 0          | 0          | 0          |   0.0 |  0.00
Comm    | 0.028215   | 0.28408    | 0.86284    |  45.1 | 16.35
Output  | 0          | 0          | 0          |   0.0 |  0.00
Modify  | 1.6752e-05 | 0.0024834  | 0.0052997  |   2.4 |  0.14
Other   |            | 0.1828     |            |       | 10.52

Nlocal:        2776.45 ave        3930 max           0 min
Histogram: 8 4 4 0 4 12 8 0 26 38
Nghost:        3879.09 ave        5425 max         232 min
Histogram: 8 0 8 0 16 0 8 8 16 40
Neighs:        79213.3 ave      114454 max           0 min
Histogram: 8 4 4 0 8 8 8 8 20 36

Total # of neighbors = 8238183
Ave neighs/atom = 28.530405
Neighbor list builds = 0
Dangerous builds = 0
The dot product: 1.01834164689342e-07
Setting atom values ...
  1 settings made for x
  1 settings made for y
  1 settings made for z
Setting up cg style minimization ...
  Unit style    : metal
  Current step  : 20504
Per MPI rank memory allocation (min/avg/max) = 5.441 | 5.816 | 6.074 Mbytes
Step PotEng KinEng TotEng v_fx v_fy v_fz 
   20504   -1152448.9            0   -1152448.9 0.0047920066 -0.0027440472 -6.8759077e-05 
   20697   -1152448.9            0   -1152448.9 7.6526433e-06 -1.7461497e-05 1.5237618e-05 
Loop time of 2.20966 on 104 procs for 193 steps with 288751 atoms

99.9% CPU use with 104 MPI tasks x 1 OpenMP threads

Minimization stats:
  Stopping criterion = energy tolerance
  Energy initial, next-to-last, final = 
     -1152448.92033836  -1152448.92168962  -1152448.92168962
  Force two-norm initial, final = 0.16965375 0.00011467075
  Force max component initial, final = 0.10393361 2.9952968e-05
  Final line search alpha, max atom move = 1.0000000 2.9952968e-05
  Iterations, force evaluations = 193 386

MPI task timing breakdown:
Section |  min time  |  avg time  |  max time  |%varavg| %total
---------------------------------------------------------------
Pair    | 0.5818     | 1.6159     | 2.0948     |  34.5 | 73.13
Neigh   | 0          | 0          | 0          |   0.0 |  0.00
Comm    | 0.03426    | 0.36164    | 1.0985     |  51.3 | 16.37
Output  | 0          | 0          | 0          |   0.0 |  0.00
Modify  | 2.1198e-05 | 0.0031801  | 0.0067843  |   2.7 |  0.14
Other   |            | 0.2289     |            |       | 10.36

Nlocal:        2776.45 ave        3930 max           0 min
Histogram: 8 4 4 0 4 12 8 0 26 38
Nghost:        3879.09 ave        5425 max         232 min
Histogram: 8 0 8 0 16 0 8 8 16 40
Neighs:        79213.3 ave      114454 max           0 min
Histogram: 8 4 4 0 8 8 8 8 20 36

Total # of neighbors = 8238184
Ave neighs/atom = 28.530409
Neighbor list builds = 0
Dangerous builds = 0
The dot product: 6.90808299297979e-08
Setting atom values ...
  1 settings made for x
  1 settings made for y
  1 settings made for z
Setting up cg style minimization ...
  Unit style    : metal
  Current step  : 20697
Per MPI rank memory allocation (min/avg/max) = 5.441 | 5.816 | 6.074 Mbytes
Step PotEng KinEng TotEng v_fx v_fy v_fz 
   20697     -1152449            0     -1152449 0.0047350936 0.0082593892 -0.012909159 
   20891     -1152449            0     -1152449 1.3849329e-06 1.1656841e-05 -1.4589434e-05 
Loop time of 2.22896 on 104 procs for 194 steps with 288751 atoms

99.9% CPU use with 104 MPI tasks x 1 OpenMP threads

Minimization stats:
  Stopping criterion = energy tolerance
  Energy initial, next-to-last, final = 
     -1152448.95219929  -1152448.95354164  -1152448.95354164
  Force two-norm initial, final = 0.16978709 0.00010581188
  Force max component initial, final = 0.10328746 1.7602889e-05
  Final line search alpha, max atom move = 1.0000000 1.7602889e-05
  Iterations, force evaluations = 194 388

MPI task timing breakdown:
Section |  min time  |  avg time  |  max time  |%varavg| %total
---------------------------------------------------------------
Pair    | 0.58571    | 1.6254     | 2.1031     |  34.6 | 72.92
Neigh   | 0          | 0          | 0          |   0.0 |  0.00
Comm    | 0.035692   | 0.36235    | 1.1043     |  51.5 | 16.26
Output  | 0          | 0          | 0          |   0.0 |  0.00
Modify  | 2.1896e-05 | 0.0031963  | 0.0068215  |   2.7 |  0.14
Other   |            | 0.238      |            |       | 10.68

Nlocal:        2776.45 ave        3930 max           0 min
Histogram: 8 4 4 0 4 12 8 0 26 38
Nghost:        3879.07 ave        5425 max         232 min
Histogram: 8 0 8 0 16 0 8 8 16 40
Neighs:        79213.3 ave      114453 max           0 min
Histogram: 8 4 4 0 8 8 8 8 20 36

Total # of neighbors = 8238185
Ave neighs/atom = 28.530412
Neighbor list builds = 0
Dangerous builds = 0
The dot product: 2.06828588455252e-08
Setting atom values ...
  1 settings made for x
  1 settings made for y
  1 settings made for z
Setting up cg style minimization ...
  Unit style    : metal
  Current step  : 20891
Per MPI rank memory allocation (min/avg/max) = 5.441 | 5.816 | 6.074 Mbytes
Step PotEng KinEng TotEng v_fx v_fy v_fz 
   20891     -1152449            0     -1152449 0.0063439451 0.0070108056 -0.012559106 
   21000     -1152449            0     -1152449 4.2434777e-05 2.1615639e-05 -5.4395648e-05 
   21084     -1152449            0     -1152449 -1.666467e-06 4.7636674e-07 5.8381344e-07 
Loop time of 2.22053 on 104 procs for 193 steps with 288751 atoms

99.9% CPU use with 104 MPI tasks x 1 OpenMP threads

Minimization stats:
  Stopping criterion = energy tolerance
  Energy initial, next-to-last, final = 
     -1152448.98241579   -1152448.9837561   -1152448.9837561
  Force two-norm initial, final = 0.16907936 0.00010869839
  Force max component initial, final = 0.1023713 8.9550153e-06
  Final line search alpha, max atom move = 1.0000000 8.9550153e-06
  Iterations, force evaluations = 193 386

MPI task timing breakdown:
Section |  min time  |  avg time  |  max time  |%varavg| %total
---------------------------------------------------------------
Pair    | 0.58256    | 1.6157     | 2.094      |  34.5 | 72.76
Neigh   | 0          | 0          | 0          |   0.0 |  0.00
Comm    | 0.042765   | 0.36357    | 1.1026     |  50.9 | 16.37
Output  | 0.00015451 | 0.00016175 | 0.00031987 |   0.0 |  0.01
Modify  | 2.1977e-05 | 0.0031844  | 0.0067874  |   2.7 |  0.14
Other   |            | 0.2379     |            |       | 10.72

Nlocal:        2776.45 ave        3930 max           0 min
Histogram: 8 4 4 0 4 12 8 0 26 38
Nghost:        3879.07 ave        5425 max         232 min
Histogram: 8 0 8 0 16 0 8 8 16 40
Neighs:        79213.3 ave      114453 max           0 min
Histogram: 8 4 4 0 8 8 8 8 20 36

Total # of neighbors = 8238187
Ave neighs/atom = 28.530419
Neighbor list builds = 0
Dangerous builds = 0
The dot product: 3.28369285040156e-10
Setting atom values ...
  1 settings made for x
  1 settings made for y
  1 settings made for z
Setting up cg style minimization ...
  Unit style    : metal
  Current step  : 21084
Per MPI rank memory allocation (min/avg/max) = 5.441 | 5.816 | 6.074 Mbytes
Step PotEng KinEng TotEng v_fx v_fy v_fz 
   21084     -1152449            0     -1152449 0.0074835381 0.0078664993 -0.014347541 
   21291     -1152449            0     -1152449 -1.1506494e-06 2.9965779e-08 7.5332949e-07 
Loop time of 2.39041 on 104 procs for 207 steps with 288751 atoms

99.9% CPU use with 104 MPI tasks x 1 OpenMP threads

Minimization stats:
  Stopping criterion = energy tolerance
  Energy initial, next-to-last, final = 
      -1152449.0109991  -1152449.01233935  -1152449.01233935
  Force two-norm initial, final = 0.16867381 7.1983992e-05
  Force max component initial, final = 0.10149229 3.2509252e-06
  Final line search alpha, max atom move = 1.0000000 3.2509252e-06
  Iterations, force evaluations = 207 414

MPI task timing breakdown:
Section |  min time  |  avg time  |  max time  |%varavg| %total
---------------------------------------------------------------
Pair    | 0.62479    | 1.7325     | 2.2431     |  35.7 | 72.48
Neigh   | 0          | 0          | 0          |   0.0 |  0.00
Comm    | 0.038752   | 0.3852     | 1.1721     |  53.2 | 16.11
Output  | 0          | 0          | 0          |   0.0 |  0.00
Modify  | 2.5228e-05 | 0.0034071  | 0.0072433  |   2.8 |  0.14
Other   |            | 0.2693     |            |       | 11.27

Nlocal:        2776.45 ave        3930 max           0 min
Histogram: 8 4 4 0 4 12 8 0 26 38
Nghost:        3879.03 ave        5425 max         232 min
Histogram: 8 0 8 0 16 0 8 8 16 40
Neighs:        79213.4 ave      114452 max           0 min
Histogram: 8 4 4 0 8 8 8 8 20 36

Total # of neighbors = 8238189
Ave neighs/atom = 28.530426
Neighbor list builds = 0
Dangerous builds = 0
The dot product: -3.29396071708469e-10
Setting atom values ...
  1 settings made for x
  1 settings made for y
  1 settings made for z
Setting up cg style minimization ...
  Unit style    : metal
  Current step  : 21291
Per MPI rank memory allocation (min/avg/max) = 5.441 | 5.816 | 6.074 Mbytes
Step PotEng KinEng TotEng v_fx v_fy v_fz 
   21291     -1152449            0     -1152449 0.0087440051 0.0083526648 -0.015790056 
   21486     -1152449            0     -1152449 -2.5773101e-06 7.4545326e-08 1.6791523e-06 
Loop time of 2.24759 on 104 procs for 195 steps with 288751 atoms

99.9% CPU use with 104 MPI tasks x 1 OpenMP threads

Minimization stats:
  Stopping criterion = energy tolerance
  Energy initial, next-to-last, final = 
      -1152449.0379592  -1152449.03930126  -1152449.03930126
  Force two-norm initial, final = 0.16832085 0.00011211501
  Force max component initial, final = 0.100536 3.0817762e-05
  Final line search alpha, max atom move = 1.0000000 3.0817762e-05
  Iterations, force evaluations = 195 390

MPI task timing breakdown:
Section |  min time  |  avg time  |  max time  |%varavg| %total
---------------------------------------------------------------
Pair    | 0.58763    | 1.6313     | 2.1123     |  34.7 | 72.58
Neigh   | 0          | 0          | 0          |   0.0 |  0.00
Comm    | 0.035428   | 0.36733    | 1.1057     |  51.2 | 16.34
Output  | 0          | 0          | 0          |   0.0 |  0.00
Modify  | 2.1112e-05 | 0.0032043  | 0.006855   |   2.7 |  0.14
Other   |            | 0.2457     |            |       | 10.93

Nlocal:        2776.45 ave        3930 max           0 min
Histogram: 8 4 4 0 4 12 8 0 26 38
Nghost:        3879.03 ave        5425 max         232 min
Histogram: 8 0 8 0 16 0 8 8 16 40
Neighs:        79213.4 ave      114452 max           0 min
Histogram: 8 4 4 0 8 8 8 8 20 36

Total # of neighbors = 8238189
Ave neighs/atom = 28.530426
Neighbor list builds = 0
Dangerous builds = 0
The dot product: -1.38797995934932e-09
Setting atom values ...
  1 settings made for x
  1 settings made for y
  1 settings made for z
Setting up cg style minimization ...
  Unit style    : metal
  Current step  : 21486
Per MPI rank memory allocation (min/avg/max) = 5.441 | 5.816 | 6.074 Mbytes
Step PotEng KinEng TotEng v_fx v_fy v_fz 
   21486   -1152449.1            0   -1152449.1 0.0099069131 0.0088525265  -0.01718592 
   21669   -1152449.1            0   -1152449.1 3.8151423e-05 3.3986366e-06 -3.015473e-05 
Loop time of 2.12301 on 104 procs for 183 steps with 288751 atoms

99.9% CPU use with 104 MPI tasks x 1 OpenMP threads

Minimization stats:
  Stopping criterion = energy tolerance
  Energy initial, next-to-last, final = 
     -1152449.06330863  -1152449.06465543  -1152449.06465543
  Force two-norm initial, final = 0.16807039 0.0001544617
  Force max component initial, final = 0.099525833 4.8403914e-05
  Final line search alpha, max atom move = 1.0000000 4.8403914e-05
  Iterations, force evaluations = 183 366

MPI task timing breakdown:
Section |  min time  |  avg time  |  max time  |%varavg| %total
---------------------------------------------------------------
Pair    | 0.55173    | 1.5353     | 1.9986     |  33.7 | 72.32
Neigh   | 0          | 0          | 0          |   0.0 |  0.00
Comm    | 0.034896   | 0.34559    | 1.0351     |  49.4 | 16.28
Output  | 0          | 0          | 0          |   0.0 |  0.00
Modify  | 2.0667e-05 | 0.003011   | 0.0064263  |   2.6 |  0.14
Other   |            | 0.2391     |            |       | 11.26

Nlocal:        2776.45 ave        3930 max           0 min
Histogram: 8 4 4 0 4 12 8 0 26 38
Nghost:        3878.99 ave        5425 max         232 min
Histogram: 8 0 8 0 16 0 8 8 16 40
Neighs:        79213.4 ave      114458 max           0 min
Histogram: 8 4 4 0 8 8 8 8 20 36

Total # of neighbors = 8238190
Ave neighs/atom = 28.530429
Neighbor list builds = 0
Dangerous builds = 0
The dot product: 3.84476502742661e-08
Setting atom values ...
  1 settings made for x
  1 settings made for y
  1 settings made for z
Setting up cg style minimization ...
  Unit style    : metal
  Current step  : 21669
Per MPI rank memory allocation (min/avg/max) = 5.441 | 5.816 | 6.074 Mbytes
Step PotEng KinEng TotEng v_fx v_fy v_fz 
   21669   -1152449.1            0   -1152449.1  0.010928485 0.0093154166 -0.018446534 
   21859   -1152449.1            0   -1152449.1 -2.8058075e-05 5.9603295e-06 1.2255851e-05 
Loop time of 2.18261 on 104 procs for 190 steps with 288751 atoms

99.9% CPU use with 104 MPI tasks x 1 OpenMP threads

Minimization stats:
  Stopping criterion = energy tolerance
  Energy initial, next-to-last, final = 
     -1152449.08706652  -1152449.08842097  -1152449.08842097
  Force two-norm initial, final = 0.16793339 0.00011583363
  Force max component initial, final = 0.098505906 2.8058075e-05
  Final line search alpha, max atom move = 1.0000000 2.8058075e-05
  Iterations, force evaluations = 190 380

MPI task timing breakdown:
Section |  min time  |  avg time  |  max time  |%varavg| %total
---------------------------------------------------------------
Pair    | 0.57164    | 1.5892     | 2.0636     |  34.2 | 72.81
Neigh   | 0          | 0          | 0          |   0.0 |  0.00
Comm    | 0.042543   | 0.35591    | 1.0743     |  50.7 | 16.31
Output  | 0          | 0          | 0          |   0.0 |  0.00
Modify  | 2.0362e-05 | 0.0031278  | 0.006704   |   2.6 |  0.14
Other   |            | 0.2344     |            |       | 10.74

Nlocal:        2776.45 ave        3930 max           0 min
Histogram: 8 4 4 0 4 12 8 0 26 38
Nghost:        3878.95 ave        5425 max         232 min
Histogram: 8 0 8 0 16 0 8 8 16 40
Neighs:        79213.4 ave      114466 max           0 min
Histogram: 8 4 4 0 8 8 8 8 20 36

Total # of neighbors = 8238193
Ave neighs/atom = 28.530440
Neighbor list builds = 0
Dangerous builds = 0
The dot product: -2.05645099838561e-08
Setting atom values ...
  1 settings made for x
  1 settings made for y
  1 settings made for z
Setting up cg style minimization ...
  Unit style    : metal
  Current step  : 21859
Per MPI rank memory allocation (min/avg/max) = 5.441 | 5.816 | 6.074 Mbytes
Step PotEng KinEng TotEng v_fx v_fy v_fz 
   21859   -1152449.1            0   -1152449.1  0.011644025 0.0097502497 -0.019469388 
   22000   -1152449.1            0   -1152449.1 -0.00012363458 -2.3986739e-06 8.7776272e-05 
   22114   -1152449.1            0   -1152449.1 1.9836369e-07 -9.5918422e-08 -2.3485444e-08 
Loop time of 2.922 on 104 procs for 255 steps with 288751 atoms

99.9% CPU use with 104 MPI tasks x 1 OpenMP threads

Minimization stats:
  Stopping criterion = linesearch alpha is zero
  Energy initial, next-to-last, final = 
     -1152449.10925746  -1152449.11062053  -1152449.11062053
  Force two-norm initial, final = 0.16784835 7.8168948e-06
  Force max component initial, final = 0.097481664 1.6460012e-06
  Final line search alpha, max atom move = 0.5 8.2300061e-07
  Iterations, force evaluations = 255 511

MPI task timing breakdown:
Section |  min time  |  avg time  |  max time  |%varavg| %total
---------------------------------------------------------------
Pair    | 0.77204    | 2.1397     | 2.769      |  39.7 | 73.23
Neigh   | 0          | 0          | 0          |   0.0 |  0.00
Comm    | 0.045972   | 0.47762    | 1.4556     |  58.9 | 16.35
Output  | 9.9345e-05 | 0.00011001 | 0.00027192 |   0.0 |  0.00
Modify  | 2.7485e-05 | 0.0042114  | 0.0089559  |   3.1 |  0.14
Other   |            | 0.3003     |            |       | 10.28

Nlocal:        2776.45 ave        3930 max           0 min
Histogram: 8 4 4 0 4 12 8 0 26 38
Nghost:        3878.95 ave        5425 max         232 min
Histogram: 8 0 8 0 16 0 8 8 16 40
Neighs:        79213.4 ave      114466 max           0 min
Histogram: 8 4 4 0 8 8 8 8 20 36

Total # of neighbors = 8238191
Ave neighs/atom = 28.530433
Neighbor list builds = 0
Dangerous builds = 0
The dot product: 6.4494305343577e-11
Setting up cg style minimization ...
  Unit style    : metal
  Current step  : 22114
Per MPI rank memory allocation (min/avg/max) = 5.441 | 5.816 | 6.074 Mbytes
Step PotEng KinEng TotEng v_fx v_fy v_fz 
   22114   -1152449.1            0   -1152449.1   0.43558739   0.74560295   0.63390816 
   22417   -1152449.3            0   -1152449.3 6.2132278e-06 -6.1553097e-07 -4.817155e-06 
Loop time of 3.47937 on 104 procs for 303 steps with 288751 atoms

99.9% CPU use with 104 MPI tasks x 1 OpenMP threads

Minimization stats:
  Stopping criterion = energy tolerance
  Energy initial, next-to-last, final = 
     -1152449.11062053  -1152449.26566399  -1152449.26566399
  Force two-norm initial, final = 1.0712141 3.4146691e-05
  Force max component initial, final = 0.74560295 6.2132278e-06
  Final line search alpha, max atom move = 1.0000000 6.2132278e-06
  Iterations, force evaluations = 303 606

MPI task timing breakdown:
Section |  min time  |  avg time  |  max time  |%varavg| %total
---------------------------------------------------------------
Pair    | 0.91995    | 2.5365     | 3.2865     |  43.1 | 72.90
Neigh   | 1.0065e-05 | 0.0029582  | 0.0042578  |   2.2 |  0.09
Comm    | 0.060309   | 0.56998    | 1.7232     |  64.0 | 16.38
Output  | 0          | 0          | 0          |   0.0 |  0.00
Modify  | 3.0632e-05 | 0.0032513  | 0.0083042  |   3.6 |  0.09
Other   |            | 0.3666     |            |       | 10.54

Nlocal:        2776.45 ave        3930 max           0 min
Histogram: 8 4 4 0 4 12 8 0 26 38
Nghost:        3878.99 ave        5426 max         232 min
Histogram: 8 0 8 0 16 0 8 8 16 40
Neighs:        79213.4 ave      114466 max           0 min
Histogram: 8 4 4 0 8 8 8 8 20 36

Total # of neighbors = 8238191
Ave neighs/atom = 28.530433
Neighbor list builds = 1
Dangerous builds = 0
