LAMMPS (29 Oct 2020)
OMP_NUM_THREADS environment is not set. Defaulting to 1 thread. (../comm.cpp:94)
  using 1 OpenMP thread(s) per MPI task
OMP_NUM_THREADS environment is not set. Defaulting to 1 thread. (../comm.cpp:94)
  using 1 OpenMP thread(s) per MPI task
Reading data file ...
  orthogonal box = (-122.39241 -121.13707 -37.090501) to (122.39241 121.13707 37.090501)
  13 by 4 by 2 MPI processor grid
  reading atoms ...
  288751 atoms
  read_data CPU = 0.481 seconds
199981 atoms in group inner
88770 atoms in group outer
1 atoms in group carbon
Neighbor list info ...
  update every 1 steps, delay 0 steps, check yes
  max neighbors/atom: 2000, page size: 100000
  master list distance cutoff = 5.6
  ghost atom cutoff = 5.6
  binsize = 2.8, bins = 88 87 27
  1 neighbor lists, perpetual/occasional/extra = 1 0 0
  (1) pair eam/alloy, perpetual
      attributes: half, newton on
      pair build: half/bin/atomonly/newton
      stencil: half/bin/3d/newton
      bin: standard
Setting up cg style minimization ...
  Unit style    : metal
  Current step  : 0
Per MPI rank memory allocation (min/avg/max) = 5.441 | 5.816 | 6.074 Mbytes
Step v_fx v_fy v_fz PotEng KinEng TotEng 
       0   -1.4877285   -1.1060716   -2.5033134   -1152447.8            0   -1152447.8 
     158 7.1877279e-06 1.0472536e-05 3.6695263e-05   -1152449.5            0   -1152449.5 
Loop time of 1.87161 on 104 procs for 158 steps with 288751 atoms

99.8% CPU use with 104 MPI tasks x 1 OpenMP threads

Minimization stats:
  Stopping criterion = energy tolerance
  Energy initial, next-to-last, final = 
     -1152447.78702555   -1152449.4503527   -1152449.4503527
  Force two-norm initial, final = 10.135687 0.0001582131
  Force max component initial, final = 4.5376345 4.0220312e-05
  Final line search alpha, max atom move = 1.0000000 4.0220312e-05
  Iterations, force evaluations = 158 315

MPI task timing breakdown:
Section |  min time  |  avg time  |  max time  |%varavg| %total
---------------------------------------------------------------
Pair    | 0.4932     | 1.3306     | 1.7242     |  30.8 | 71.09
Neigh   | 3.3259e-05 | 0.0087535  | 0.012932   |   3.9 |  0.47
Comm    | 0.029924   | 0.30316    | 0.90049    |  45.0 | 16.20
Output  | 0          | 0          | 0          |   0.0 |  0.00
Modify  | 1.6537e-05 | 0.0017066  | 0.0043682  |   2.6 |  0.09
Other   |            | 0.2274     |            |       | 12.15

Nlocal:        2776.45 ave        3960 max           0 min
Histogram: 8 4 4 0 4 12 8 2 28 34
Nghost:        3879.01 ave        5424 max         232 min
Histogram: 8 0 8 0 16 0 8 8 16 40
Neighs:        79213.5 ave      115442 max           0 min
Histogram: 8 4 4 0 10 6 8 8 24 32

Total # of neighbors = 8238207
Ave neighs/atom = 28.530488
Neighbor list builds = 3
Dangerous builds = 1
Setting atom values ...
  1 settings made for x
  1 settings made for y
  1 settings made for z
Setting up cg style minimization ...
  Unit style    : metal
  Current step  : 158
Per MPI rank memory allocation (min/avg/max) = 5.441 | 5.816 | 6.074 Mbytes
Step PotEng KinEng TotEng v_fx v_fy v_fz 
     158   -1152449.4            0   -1152449.4 -0.0077648732 0.0064574466 0.0012567335 
     296   -1152449.5            0   -1152449.5 -5.7384059e-07 3.5142591e-07 -3.0875143e-07 
Loop time of 1.65786 on 104 procs for 138 steps with 288751 atoms

99.9% CPU use with 104 MPI tasks x 1 OpenMP threads

Minimization stats:
  Stopping criterion = energy tolerance
  Energy initial, next-to-last, final = 
     -1152449.44945344  -1152449.45006285  -1152449.45006285
  Force two-norm initial, final = 0.1154145 0.00012310178
  Force max component initial, final = 0.051707769 3.6993618e-06
  Final line search alpha, max atom move = 1.0000000 3.6993618e-06
  Iterations, force evaluations = 138 276

MPI task timing breakdown:
Section |  min time  |  avg time  |  max time  |%varavg| %total
---------------------------------------------------------------
Pair    | 0.41674    | 1.1709     | 1.5354     |  29.3 | 70.63
Neigh   | 0          | 0          | 0          |   0.0 |  0.00
Comm    | 0.025203   | 0.27117    | 0.79692    |  41.9 | 16.36
Output  | 0          | 0          | 0          |   0.0 |  0.00
Modify  | 1.5846e-05 | 0.0023003  | 0.0049299  |   2.3 |  0.14
Other   |            | 0.2135     |            |       | 12.88

Nlocal:        2776.45 ave        3961 max           0 min
Histogram: 8 4 4 0 6 10 8 2 28 34
Nghost:        3879.01 ave        5424 max         232 min
Histogram: 8 0 8 0 16 0 8 8 16 40
Neighs:        79213.4 ave      115455 max           0 min
Histogram: 8 4 4 0 10 6 8 8 24 32

Total # of neighbors = 8238198
Ave neighs/atom = 28.530457
Neighbor list builds = 0
Dangerous builds = 0
Setting atom values ...
  1 settings made for x
  1 settings made for y
  1 settings made for z
Setting up cg style minimization ...
  Unit style    : metal
  Current step  : 296
Per MPI rank memory allocation (min/avg/max) = 5.441 | 5.816 | 6.074 Mbytes
Step PotEng KinEng TotEng v_fx v_fy v_fz 
     296   -1152449.4            0   -1152449.4 -0.018707446  0.018075276 0.0026667374 
     456   -1152449.4            0   -1152449.4 9.8715719e-08 -3.9194638e-06 -1.5010114e-05 
Loop time of 1.8811 on 104 procs for 160 steps with 288751 atoms

99.9% CPU use with 104 MPI tasks x 1 OpenMP threads

Minimization stats:
  Stopping criterion = energy tolerance
  Energy initial, next-to-last, final = 
     -1152449.44670614  -1152449.44838209  -1152449.44838209
  Force two-norm initial, final = 0.19212155 0.0001635496
  Force max component initial, final = 0.080078113 1.5010114e-05
  Final line search alpha, max atom move = 1.0000000 1.5010114e-05
  Iterations, force evaluations = 160 320

MPI task timing breakdown:
Section |  min time  |  avg time  |  max time  |%varavg| %total
---------------------------------------------------------------
Pair    | 0.48444    | 1.3462     | 1.7522     |  31.4 | 71.56
Neigh   | 0          | 0          | 0          |   0.0 |  0.00
Comm    | 0.028239   | 0.30535    | 0.912      |  45.8 | 16.23
Output  | 0          | 0          | 0          |   0.0 |  0.00
Modify  | 1.7519e-05 | 0.0026511  | 0.0056556  |   2.4 |  0.14
Other   |            | 0.2269     |            |       | 12.06

Nlocal:        2776.45 ave        3961 max           0 min
Histogram: 8 4 4 0 6 10 8 2 28 34
Nghost:        3879.01 ave        5426 max         232 min
Histogram: 8 0 8 0 16 0 8 8 16 40
Neighs:        79213.5 ave      115455 max           0 min
Histogram: 8 4 4 0 10 6 8 8 24 32

Total # of neighbors = 8238199
Ave neighs/atom = 28.530461
Neighbor list builds = 0
Dangerous builds = 0
The dot product: 1.56612925895176e-08
Setting atom values ...
  1 settings made for x
  1 settings made for y
  1 settings made for z
Setting up cg style minimization ...
  Unit style    : metal
  Current step  : 456
Per MPI rank memory allocation (min/avg/max) = 5.441 | 5.816 | 6.074 Mbytes
Step PotEng KinEng TotEng v_fx v_fy v_fz 
     456   -1152449.4            0   -1152449.4 -0.023602805  0.026762835 0.0026636744 
     612   -1152449.4            0   -1152449.4 1.1808545e-06 5.0773254e-07 8.8719952e-06 
Loop time of 1.87235 on 104 procs for 156 steps with 288751 atoms

99.9% CPU use with 104 MPI tasks x 1 OpenMP threads

Minimization stats:
  Stopping criterion = energy tolerance
  Energy initial, next-to-last, final = 
     -1152449.44354969   -1152449.4452268   -1152449.4452268
  Force two-norm initial, final = 0.19231292 7.0434464e-05
  Force max component initial, final = 0.076200709 8.8719952e-06
  Final line search alpha, max atom move = 1.0000000 8.8719952e-06
  Iterations, force evaluations = 156 312

MPI task timing breakdown:
Section |  min time  |  avg time  |  max time  |%varavg| %total
---------------------------------------------------------------
Pair    | 0.47022    | 1.3246     | 1.7288     |  31.1 | 70.74
Neigh   | 0          | 0          | 0          |   0.0 |  0.00
Comm    | 0.030561   | 0.30583    | 0.91886    |  44.9 | 16.33
Output  | 0          | 0          | 0          |   0.0 |  0.00
Modify  | 1.7349e-05 | 0.0025825  | 0.0055079  |   2.4 |  0.14
Other   |            | 0.2394     |            |       | 12.79

Nlocal:        2776.45 ave        3960 max           0 min
Histogram: 8 4 4 0 4 12 8 2 28 34
Nghost:        3879.01 ave        5425 max         232 min
Histogram: 8 0 8 0 16 0 8 8 16 40
Neighs:        79213.5 ave      115424 max           0 min
Histogram: 8 4 4 0 10 6 8 8 24 32

Total # of neighbors = 8238201
Ave neighs/atom = 28.530467
Neighbor list builds = 0
Dangerous builds = 0
The dot product: -1.91832259552068e-08
Setting atom values ...
  1 settings made for x
  1 settings made for y
  1 settings made for z
Setting up cg style minimization ...
  Unit style    : metal
  Current step  : 612
Per MPI rank memory allocation (min/avg/max) = 5.441 | 5.816 | 6.074 Mbytes
Step PotEng KinEng TotEng v_fx v_fy v_fz 
     612   -1152449.4            0   -1152449.4 -0.025603318  0.033909974 0.0039138882 
     770   -1152449.4            0   -1152449.4 3.3468977e-07 9.8203244e-07 8.7300065e-06 
Loop time of 1.83923 on 104 procs for 158 steps with 288751 atoms

99.9% CPU use with 104 MPI tasks x 1 OpenMP threads

Minimization stats:
  Stopping criterion = energy tolerance
  Energy initial, next-to-last, final = 
     -1152449.43890926  -1152449.44057825  -1152449.44057825
  Force two-norm initial, final = 0.19189412 2.4237835e-05
  Force max component initial, final = 0.07340191 8.7300065e-06
  Final line search alpha, max atom move = 1.0000000 8.7300065e-06
  Iterations, force evaluations = 158 316

MPI task timing breakdown:
Section |  min time  |  avg time  |  max time  |%varavg| %total
---------------------------------------------------------------
Pair    | 0.47748    | 1.3257     | 1.7219     |  31.1 | 72.08
Neigh   | 0          | 0          | 0          |   0.0 |  0.00
Comm    | 0.026765   | 0.29847    | 0.89765    |  45.7 | 16.23
Output  | 0          | 0          | 0          |   0.0 |  0.00
Modify  | 1.7288e-05 | 0.0026117  | 0.0055949  |   2.4 |  0.14
Other   |            | 0.2124     |            |       | 11.55

Nlocal:        2776.45 ave        3960 max           0 min
Histogram: 8 4 4 0 4 12 8 2 28 34
Nghost:        3879.01 ave        5425 max         232 min
Histogram: 8 0 8 0 16 0 8 8 16 40
Neighs:        79213.5 ave      115424 max           0 min
Histogram: 8 4 4 0 10 6 8 8 24 32

Total # of neighbors = 8238201
Ave neighs/atom = 28.530467
Neighbor list builds = 0
Dangerous builds = 0
The dot product: -1.51934989676532e-08
Setting atom values ...
  1 settings made for x
  1 settings made for y
  1 settings made for z
Setting up cg style minimization ...
  Unit style    : metal
  Current step  : 770
Per MPI rank memory allocation (min/avg/max) = 5.441 | 5.816 | 6.074 Mbytes
Step PotEng KinEng TotEng v_fx v_fy v_fz 
     770   -1152449.4            0   -1152449.4 -0.025933225  0.039457898  0.006116932 
     921   -1152449.4            0   -1152449.4 3.1993985e-07 -8.1314029e-07 -2.6541244e-06 
Loop time of 1.78728 on 104 procs for 151 steps with 288751 atoms

99.9% CPU use with 104 MPI tasks x 1 OpenMP threads

Minimization stats:
  Stopping criterion = energy tolerance
  Energy initial, next-to-last, final = 
     -1152449.43275219  -1152449.43440589  -1152449.43440589
  Force two-norm initial, final = 0.1909962 2.8613420e-05
  Force max component initial, final = 0.073760674 2.6541244e-06
  Final line search alpha, max atom move = 1.0000000 2.6541244e-06
  Iterations, force evaluations = 151 302

MPI task timing breakdown:
Section |  min time  |  avg time  |  max time  |%varavg| %total
---------------------------------------------------------------
Pair    | 0.45449    | 1.2751     | 1.6588     |  30.5 | 71.35
Neigh   | 0          | 0          | 0          |   0.0 |  0.00
Comm    | 0.02676    | 0.28928    | 0.86125    |  44.3 | 16.19
Output  | 0          | 0          | 0          |   0.0 |  0.00
Modify  | 1.631e-05  | 0.0025046  | 0.0053336  |   2.4 |  0.14
Other   |            | 0.2204     |            |       | 12.33

Nlocal:        2776.45 ave        3960 max           0 min
Histogram: 8 4 4 0 4 12 8 2 28 34
Nghost:        3879.01 ave        5426 max         232 min
Histogram: 8 0 8 0 16 0 8 8 16 40
Neighs:        79213.5 ave      115424 max           0 min
Histogram: 8 4 4 0 10 6 8 8 24 32

Total # of neighbors = 8238200
Ave neighs/atom = 28.530464
Neighbor list builds = 0
Dangerous builds = 0
The dot product: 6.46889200515603e-10
Setting atom values ...
  1 settings made for x
  1 settings made for y
  1 settings made for z
Setting up cg style minimization ...
  Unit style    : metal
  Current step  : 921
Per MPI rank memory allocation (min/avg/max) = 5.441 | 5.816 | 6.074 Mbytes
Step PotEng KinEng TotEng v_fx v_fy v_fz 
     921   -1152449.4            0   -1152449.4 -0.025536373  0.043952159 0.0090524064 
    1000   -1152449.4            0   -1152449.4 1.3057643e-05 -2.8734433e-05 -6.8558606e-05 
    1040   -1152449.4            0   -1152449.4 -6.2017718e-07 -4.7439176e-06 -5.9126602e-05 
Loop time of 1.39087 on 104 procs for 119 steps with 288751 atoms

99.9% CPU use with 104 MPI tasks x 1 OpenMP threads

Minimization stats:
  Stopping criterion = energy tolerance
  Energy initial, next-to-last, final = 
     -1152449.42504369  -1152449.42667916  -1152449.42667916
  Force two-norm initial, final = 0.1898731 0.00016792381
  Force max component initial, final = 0.073423473 5.9126602e-05
  Final line search alpha, max atom move = 1.0000000 5.9126602e-05
  Iterations, force evaluations = 119 238

MPI task timing breakdown:
Section |  min time  |  avg time  |  max time  |%varavg| %total
---------------------------------------------------------------
Pair    | 0.35934    | 0.9993     | 1.2979     |  27.0 | 71.85
Neigh   | 0          | 0          | 0          |   0.0 |  0.00
Comm    | 0.020771   | 0.22534    | 0.68774    |  39.7 | 16.20
Output  | 0.00027321 | 0.00028233 | 0.00041845 |   0.0 |  0.02
Modify  | 1.3786e-05 | 0.0019719  | 0.0041995  |   2.1 |  0.14
Other   |            | 0.164      |            |       | 11.79

Nlocal:        2776.45 ave        3959 max           0 min
Histogram: 8 4 4 0 4 12 8 2 28 34
Nghost:        3879.01 ave        5426 max         232 min
Histogram: 8 0 8 0 16 0 8 8 16 40
Neighs:        79213.5 ave      115390 max           0 min
Histogram: 8 4 4 0 10 6 8 8 24 32

Total # of neighbors = 8238202
Ave neighs/atom = 28.530471
Neighbor list builds = 0
Dangerous builds = 0
The dot product: 7.29563937442869e-08
Setting atom values ...
  1 settings made for x
  1 settings made for y
  1 settings made for z
Setting up cg style minimization ...
  Unit style    : metal
  Current step  : 1040
Per MPI rank memory allocation (min/avg/max) = 5.441 | 5.816 | 6.074 Mbytes
Step PotEng KinEng TotEng v_fx v_fy v_fz 
    1040   -1152449.4            0   -1152449.4  -0.02490584  0.047953236   0.01251058 
    1191   -1152449.4            0   -1152449.4 -2.1394477e-07 -2.961532e-08 -5.6504877e-06 
Loop time of 1.76248 on 104 procs for 151 steps with 288751 atoms

99.9% CPU use with 104 MPI tasks x 1 OpenMP threads

Minimization stats:
  Stopping criterion = energy tolerance
  Energy initial, next-to-last, final = 
     -1152449.41575821  -1152449.41737502  -1152449.41737502
  Force two-norm initial, final = 0.18870617 5.0240951e-05
  Force max component initial, final = 0.072491557 5.6504877e-06
  Final line search alpha, max atom move = 1.0000000 5.6504877e-06
  Iterations, force evaluations = 151 302

MPI task timing breakdown:
Section |  min time  |  avg time  |  max time  |%varavg| %total
---------------------------------------------------------------
Pair    | 0.45546    | 1.2722     | 1.6529     |  30.4 | 72.18
Neigh   | 0          | 0          | 0          |   0.0 |  0.00
Comm    | 0.025344   | 0.28722    | 0.86785    |  44.9 | 16.30
Output  | 0          | 0          | 0          |   0.0 |  0.00
Modify  | 1.6444e-05 | 0.0024982  | 0.0053377  |   2.4 |  0.14
Other   |            | 0.2006     |            |       | 11.38

Nlocal:        2776.45 ave        3959 max           0 min
Histogram: 8 4 4 0 4 12 8 2 28 34
Nghost:        3879.01 ave        5427 max         232 min
Histogram: 8 0 8 0 16 0 8 8 16 40
Neighs:        79213.5 ave      115390 max           0 min
Histogram: 8 4 4 0 10 6 8 8 24 32

Total # of neighbors = 8238201
Ave neighs/atom = 28.530467
Neighbor list builds = 0
Dangerous builds = 0
The dot product: 6.92089038714379e-09
Setting atom values ...
  1 settings made for x
  1 settings made for y
  1 settings made for z
Setting up cg style minimization ...
  Unit style    : metal
  Current step  : 1191
Per MPI rank memory allocation (min/avg/max) = 5.441 | 5.816 | 6.074 Mbytes
Step PotEng KinEng TotEng v_fx v_fy v_fz 
    1191   -1152449.4            0   -1152449.4 -0.024299141  0.052064567  0.016630015 
    1350   -1152449.4            0   -1152449.4 6.4547545e-07 -2.0838476e-06 -1.1509694e-05 
Loop time of 1.84988 on 104 procs for 159 steps with 288751 atoms

99.9% CPU use with 104 MPI tasks x 1 OpenMP threads

Minimization stats:
  Stopping criterion = energy tolerance
  Energy initial, next-to-last, final = 
     -1152449.40488155  -1152449.40648233  -1152449.40648233
  Force two-norm initial, final = 0.18773721 4.0601536e-05
  Force max component initial, final = 0.071100623 1.1509694e-05
  Final line search alpha, max atom move = 1.0000000 1.1509694e-05
  Iterations, force evaluations = 159 318

MPI task timing breakdown:
Section |  min time  |  avg time  |  max time  |%varavg| %total
---------------------------------------------------------------
Pair    | 0.47916    | 1.3339     | 1.731      |  31.2 | 72.11
Neigh   | 0          | 0          | 0          |   0.0 |  0.00
Comm    | 0.027534   | 0.2991     | 0.90808    |  46.1 | 16.17
Output  | 0          | 0          | 0          |   0.0 |  0.00
Modify  | 1.8795e-05 | 0.0026251  | 0.0056023  |   2.4 |  0.14
Other   |            | 0.2142     |            |       | 11.58

Nlocal:        2776.45 ave        3958 max           0 min
Histogram: 8 4 4 0 4 12 8 2 28 34
Nghost:        3879.01 ave        5425 max         232 min
Histogram: 8 0 8 0 16 0 8 8 16 40
Neighs:        79213.5 ave      115348 max           0 min
Histogram: 8 4 4 0 10 6 8 8 24 32

Total # of neighbors = 8238200
Ave neighs/atom = 28.530464
Neighbor list builds = 0
Dangerous builds = 0
The dot product: -6.62272027063603e-09
Setting atom values ...
  1 settings made for x
  1 settings made for y
  1 settings made for z
Setting up cg style minimization ...
  Unit style    : metal
  Current step  : 1350
Per MPI rank memory allocation (min/avg/max) = 5.441 | 5.816 | 6.074 Mbytes
Step PotEng KinEng TotEng v_fx v_fy v_fz 
    1350   -1152449.4            0   -1152449.4 -0.023817911  0.056916549  0.021483999 
    1484   -1152449.4            0   -1152449.4 3.0242591e-07 4.8959577e-07 2.0068518e-05 
Loop time of 1.58091 on 104 procs for 134 steps with 288751 atoms

99.9% CPU use with 104 MPI tasks x 1 OpenMP threads

Minimization stats:
  Stopping criterion = energy tolerance
  Energy initial, next-to-last, final = 
     -1152449.39241389  -1152449.39400791  -1152449.39400791
  Force two-norm initial, final = 0.18715219 8.5616699e-05
  Force max component initial, final = 0.069081183 2.0068518e-05
  Final line search alpha, max atom move = 1.0000000 2.0068518e-05
  Iterations, force evaluations = 134 268

MPI task timing breakdown:
Section |  min time  |  avg time  |  max time  |%varavg| %total
---------------------------------------------------------------
Pair    | 0.4033     | 1.133      | 1.4784     |  28.8 | 71.67
Neigh   | 0          | 0          | 0          |   0.0 |  0.00
Comm    | 0.024086   | 0.26039    | 0.78607    |  41.9 | 16.47
Output  | 0          | 0          | 0          |   0.0 |  0.00
Modify  | 1.4828e-05 | 0.0022227  | 0.004729   |   2.2 |  0.14
Other   |            | 0.1853     |            |       | 11.72

Nlocal:        2776.45 ave        3958 max           0 min
Histogram: 8 4 4 0 4 12 8 2 28 34
Nghost:        3879.01 ave        5424 max         232 min
Histogram: 8 0 8 0 16 0 8 8 16 40
Neighs:        79213.4 ave      115348 max           0 min
Histogram: 8 4 4 0 10 6 8 8 24 32

Total # of neighbors = 8238198
Ave neighs/atom = 28.530457
Neighbor list builds = 0
Dangerous builds = 0
The dot product: 6.41597794268961e-09
Setting atom values ...
  1 settings made for x
  1 settings made for y
  1 settings made for z
Setting up cg style minimization ...
  Unit style    : metal
  Current step  : 1484
Per MPI rank memory allocation (min/avg/max) = 5.441 | 5.816 | 6.074 Mbytes
Step PotEng KinEng TotEng v_fx v_fy v_fz 
    1484   -1152449.4            0   -1152449.4 -0.023448854  0.063316388  0.027499746 
    1644   -1152449.4            0   -1152449.4 6.6219804e-07 -1.4447963e-06 4.1954322e-06 
Loop time of 1.87008 on 104 procs for 160 steps with 288751 atoms

99.9% CPU use with 104 MPI tasks x 1 OpenMP threads

Minimization stats:
  Stopping criterion = energy tolerance
  Energy initial, next-to-last, final = 
     -1152449.37838093  -1152449.37999024  -1152449.37999024
  Force two-norm initial, final = 0.18738365 2.4665776e-05
  Force max component initial, final = 0.066317686 4.1954322e-06
  Final line search alpha, max atom move = 1.0000000 4.1954322e-06
  Iterations, force evaluations = 160 320

MPI task timing breakdown:
Section |  min time  |  avg time  |  max time  |%varavg| %total
---------------------------------------------------------------
Pair    | 0.48354    | 1.3481     | 1.7507     |  31.5 | 72.09
Neigh   | 0          | 0          | 0          |   0.0 |  0.00
Comm    | 0.027732   | 0.30569    | 0.91913    |  46.0 | 16.35
Output  | 0          | 0          | 0          |   0.0 |  0.00
Modify  | 1.7407e-05 | 0.0026498  | 0.0056422  |   2.4 |  0.14
Other   |            | 0.2136     |            |       | 11.42

Nlocal:        2776.45 ave        3958 max           0 min
Histogram: 8 4 4 0 4 12 8 2 28 34
Nghost:        3879.05 ave        5424 max         232 min
Histogram: 8 0 8 0 16 0 8 8 16 40
Neighs:        79213.4 ave      115348 max           0 min
Histogram: 8 4 4 0 10 6 8 8 24 32

Total # of neighbors = 8238198
Ave neighs/atom = 28.530457
Neighbor list builds = 0
Dangerous builds = 0
The dot product: -7.09231860400118e-09
Setting atom values ...
  1 settings made for x
  1 settings made for y
  1 settings made for z
Setting up cg style minimization ...
  Unit style    : metal
  Current step  : 1644
Per MPI rank memory allocation (min/avg/max) = 5.441 | 5.816 | 6.074 Mbytes
Step PotEng KinEng TotEng v_fx v_fy v_fz 
    1644   -1152449.4            0   -1152449.4 -0.023602741  0.074674638  0.038030101 
    1768   -1152449.4            0   -1152449.4 2.269821e-06 -3.9268201e-06 2.8395201e-05 
Loop time of 1.45946 on 104 procs for 124 steps with 288751 atoms

99.9% CPU use with 104 MPI tasks x 1 OpenMP threads

Minimization stats:
  Stopping criterion = energy tolerance
  Energy initial, next-to-last, final = 
     -1152449.36286924  -1152449.36461538  -1152449.36461538
  Force two-norm initial, final = 0.19052664 0.00014657002
  Force max component initial, final = 0.074674638 2.8395201e-05
  Final line search alpha, max atom move = 1.0000000 2.8395201e-05
  Iterations, force evaluations = 124 248

MPI task timing breakdown:
Section |  min time  |  avg time  |  max time  |%varavg| %total
---------------------------------------------------------------
Pair    | 0.37708    | 1.0468     | 1.3712     |  27.5 | 71.72
Neigh   | 0          | 0          | 0          |   0.0 |  0.00
Comm    | 0.021784   | 0.23964    | 0.71187    |  40.1 | 16.42
Output  | 0          | 0          | 0          |   0.0 |  0.00
Modify  | 1.369e-05  | 0.0020537  | 0.0043994  |   2.1 |  0.14
Other   |            | 0.171      |            |       | 11.72

Nlocal:        2776.45 ave        3957 max           0 min
Histogram: 8 4 4 0 4 12 8 2 28 34
Nghost:        3879.05 ave        5426 max         232 min
Histogram: 8 0 8 0 16 0 8 8 16 40
Neighs:        79213.4 ave      115326 max           0 min
Histogram: 8 4 4 0 10 6 8 8 24 32

Total # of neighbors = 8238197
Ave neighs/atom = 28.530454
Neighbor list builds = 0
Dangerous builds = 0
The dot product: 9.77342451626299e-08
Setting atom values ...
  1 settings made for x
  1 settings made for y
  1 settings made for z
Setting up cg style minimization ...
  Unit style    : metal
  Current step  : 1768
Per MPI rank memory allocation (min/avg/max) = 5.441 | 5.816 | 6.074 Mbytes
Step PotEng KinEng TotEng v_fx v_fy v_fz 
    1768   -1152449.3            0   -1152449.3 -0.023552775   0.10247837  0.062657001 
    1907   -1152449.4            0   -1152449.4 -1.0511157e-05 2.6770216e-05 -5.6552581e-05 
Loop time of 1.61721 on 104 procs for 139 steps with 288751 atoms

99.9% CPU use with 104 MPI tasks x 1 OpenMP threads

Minimization stats:
  Stopping criterion = energy tolerance
  Energy initial, next-to-last, final = 
     -1152449.34635943  -1152449.35088797  -1152449.35088797
  Force two-norm initial, final = 0.20594689 0.00022931639
  Force max component initial, final = 0.10247837 5.6552581e-05
  Final line search alpha, max atom move = 1.0000000 5.6552581e-05
  Iterations, force evaluations = 139 278

MPI task timing breakdown:
Section |  min time  |  avg time  |  max time  |%varavg| %total
---------------------------------------------------------------
Pair    | 0.41863    | 1.1662     | 1.5114     |  29.1 | 72.11
Neigh   | 0          | 0          | 0          |   0.0 |  0.00
Comm    | 0.024203   | 0.26358    | 0.80001    |  42.9 | 16.30
Output  | 0          | 0          | 0          |   0.0 |  0.00
Modify  | 1.5577e-05 | 0.002303   | 0.0049188  |   2.3 |  0.14
Other   |            | 0.1851     |            |       | 11.45

Nlocal:        2776.45 ave        3958 max           0 min
Histogram: 8 4 4 0 4 12 8 2 28 34
Nghost:        3879.05 ave        5429 max         232 min
Histogram: 8 0 8 0 16 0 8 8 16 40
Neighs:        79213.4 ave      115348 max           0 min
Histogram: 8 4 4 0 10 6 8 8 24 32

Total # of neighbors = 8238192
Ave neighs/atom = 28.530436
Neighbor list builds = 0
Dangerous builds = 0
The dot product: -6.77685175755578e-07
Setting atom values ...
  1 settings made for x
  1 settings made for y
  1 settings made for z
Setting up cg style minimization ...
  Unit style    : metal
  Current step  : 1907
Per MPI rank memory allocation (min/avg/max) = 5.441 | 5.816 | 6.074 Mbytes
Step PotEng KinEng TotEng v_fx v_fy v_fz 
    1907   -1152449.3            0   -1152449.3  0.023726947   0.21798835   0.13877996 
    2000   -1152449.3            0   -1152449.3 4.8192914e-05 -0.00022830009 0.00018486175 
    2155   -1152449.3            0   -1152449.3 -1.1982059e-06 -2.9716385e-06 -5.8464336e-06 
Loop time of 2.89738 on 104 procs for 248 steps with 288751 atoms

99.9% CPU use with 104 MPI tasks x 1 OpenMP threads

Minimization stats:
  Stopping criterion = energy tolerance
  Energy initial, next-to-last, final = 
     -1152449.33554851  -1152449.34591904  -1152449.34591904
  Force two-norm initial, final = 0.29928521 3.7055089e-05
  Force max component initial, final = 0.21798835 1.0737354e-05
  Final line search alpha, max atom move = 1.0000000 1.0737354e-05
  Iterations, force evaluations = 248 496

MPI task timing breakdown:
Section |  min time  |  avg time  |  max time  |%varavg| %total
---------------------------------------------------------------
Pair    | 0.75065    | 2.0883     | 2.7117     |  38.8 | 72.07
Neigh   | 1.0139e-05 | 0.0029458  | 0.0042882  |   2.2 |  0.10
Comm    | 0.042676   | 0.47077    | 1.4259     |  57.6 | 16.25
Output  | 0.00016052 | 0.00016918 | 0.00030165 |   0.0 |  0.01
Modify  | 2.7261e-05 | 0.004099   | 0.0087327  |   3.0 |  0.14
Other   |            | 0.3311     |            |       | 11.43

Nlocal:        2776.45 ave        3959 max           0 min
Histogram: 8 4 4 0 4 12 8 2 28 34
Nghost:        3879.05 ave        5427 max         232 min
Histogram: 8 0 8 0 16 0 8 8 16 40
Neighs:        79213.4 ave      115392 max           0 min
Histogram: 8 4 4 0 10 6 8 8 24 32

Total # of neighbors = 8238196
Ave neighs/atom = 28.530450
Neighbor list builds = 1
Dangerous builds = 0
The dot product: -4.15261621425288e-07
Setting atom values ...
  1 settings made for x
  1 settings made for y
  1 settings made for z
Setting up cg style minimization ...
  Unit style    : metal
  Current step  : 2155
Per MPI rank memory allocation (min/avg/max) = 5.441 | 5.816 | 6.074 Mbytes
Step PotEng KinEng TotEng v_fx v_fy v_fz 
    2155   -1152449.3            0   -1152449.3  0.070497077   0.17555524   0.08012984 
    2394   -1152449.3            0   -1152449.3 2.6065379e-05 2.7474813e-05 5.3236249e-05 
Loop time of 2.79782 on 104 procs for 239 steps with 288751 atoms

99.9% CPU use with 104 MPI tasks x 1 OpenMP threads

Minimization stats:
  Stopping criterion = energy tolerance
  Energy initial, next-to-last, final = 
     -1152449.33328108  -1152449.34468427  -1152449.34468427
  Force two-norm initial, final = 0.24756998 0.00025508151
  Force max component initial, final = 0.17555524 5.3236249e-05
  Final line search alpha, max atom move = 1.0000000 5.3236249e-05
  Iterations, force evaluations = 239 478

MPI task timing breakdown:
Section |  min time  |  avg time  |  max time  |%varavg| %total
---------------------------------------------------------------
Pair    | 0.73317    | 2.0065     | 2.6016     |  38.0 | 71.72
Neigh   | 1.0477e-05 | 0.002908   | 0.0042159  |   2.2 |  0.10
Comm    | 0.047353   | 0.45342    | 1.3767     |  56.0 | 16.21
Output  | 0          | 0          | 0          |   0.0 |  0.00
Modify  | 2.6848e-05 | 0.0039497  | 0.0084405  |   3.0 |  0.14
Other   |            | 0.3311     |            |       | 11.83

Nlocal:        2776.45 ave        3961 max           0 min
Histogram: 8 4 4 0 6 10 8 2 28 34
Nghost:        3879.03 ave        5424 max         232 min
Histogram: 8 0 8 0 16 0 8 8 16 40
Neighs:        79213.4 ave      115465 max           0 min
Histogram: 8 4 4 0 10 6 8 8 24 32

Total # of neighbors = 8238189
Ave neighs/atom = 28.530426
Neighbor list builds = 1
Dangerous builds = 0
The dot product: 6.06616484509779e-06
Setting atom values ...
  1 settings made for x
  1 settings made for y
  1 settings made for z
Setting up cg style minimization ...
  Unit style    : metal
  Current step  : 2394
Per MPI rank memory allocation (min/avg/max) = 5.441 | 5.816 | 6.074 Mbytes
Step PotEng KinEng TotEng v_fx v_fy v_fz 
    2394   -1152449.3            0   -1152449.3  -0.04994748 -0.029996518 -0.047921353 
    2574   -1152449.3            0   -1152449.3 -1.7912185e-05 -1.9111115e-06 -2.4155005e-05 
Loop time of 2.10832 on 104 procs for 180 steps with 288751 atoms

99.9% CPU use with 104 MPI tasks x 1 OpenMP threads

Minimization stats:
  Stopping criterion = energy tolerance
  Energy initial, next-to-last, final = 
     -1152449.34688104  -1152449.34818996  -1152449.34818996
  Force two-norm initial, final = 0.14636235 9.8354463e-05
  Force max component initial, final = 0.04994748 2.4155005e-05
  Final line search alpha, max atom move = 1.0000000 2.4155005e-05
  Iterations, force evaluations = 180 360

MPI task timing breakdown:
Section |  min time  |  avg time  |  max time  |%varavg| %total
---------------------------------------------------------------
Pair    | 0.54503    | 1.5167     | 1.9618     |  33.1 | 71.94
Neigh   | 0          | 0          | 0          |   0.0 |  0.00
Comm    | 0.030567   | 0.34211    | 1.043      |  49.2 | 16.23
Output  | 0          | 0          | 0          |   0.0 |  0.00
Modify  | 1.9654e-05 | 0.0029782  | 0.0063404  |   2.6 |  0.14
Other   |            | 0.2465     |            |       | 11.69

Nlocal:        2776.45 ave        3961 max           0 min
Histogram: 8 4 4 0 6 10 8 2 28 34
Nghost:        3879.07 ave        5424 max         232 min
Histogram: 8 0 8 0 16 0 8 8 16 40
Neighs:        79213.4 ave      115457 max           0 min
Histogram: 8 4 4 0 10 6 8 8 24 32

Total # of neighbors = 8238192
Ave neighs/atom = 28.530436
Neighbor list builds = 0
Dangerous builds = 0
The dot product: 2.6164301770368e-07
Setting atom values ...
  1 settings made for x
  1 settings made for y
  1 settings made for z
Setting up cg style minimization ...
  Unit style    : metal
  Current step  : 2574
Per MPI rank memory allocation (min/avg/max) = 5.441 | 5.816 | 6.074 Mbytes
Step PotEng KinEng TotEng v_fx v_fy v_fz 
    2574   -1152449.3            0   -1152449.3 -0.0066873985 0.0096205362 -0.017545917 
    2749   -1152449.4            0   -1152449.4 3.9196483e-06 3.3073236e-06 3.4075181e-06 
Loop time of 2.03233 on 104 procs for 175 steps with 288751 atoms

99.9% CPU use with 104 MPI tasks x 1 OpenMP threads

Minimization stats:
  Stopping criterion = energy tolerance
  Energy initial, next-to-last, final = 
     -1152449.34955095  -1152449.35045775  -1152449.35045775
  Force two-norm initial, final = 0.12495449 0.00014728301
  Force max component initial, final = 0.047694233 1.4208804e-05
  Final line search alpha, max atom move = 1.0000000 1.4208804e-05
  Iterations, force evaluations = 175 350

MPI task timing breakdown:
Section |  min time  |  avg time  |  max time  |%varavg| %total
---------------------------------------------------------------
Pair    | 0.52804    | 1.4662     | 1.906      |  32.7 | 72.14
Neigh   | 0          | 0          | 0          |   0.0 |  0.00
Comm    | 0.030234   | 0.33096    | 1.0059     |  48.1 | 16.28
Output  | 0          | 0          | 0          |   0.0 |  0.00
Modify  | 1.9037e-05 | 0.0028936  | 0.0061849  |   2.5 |  0.14
Other   |            | 0.2323     |            |       | 11.43

Nlocal:        2776.45 ave        3961 max           0 min
Histogram: 8 4 4 0 6 10 8 2 28 34
Nghost:        3879.07 ave        5425 max         232 min
Histogram: 8 0 8 0 16 0 8 8 16 40
Neighs:        79213.4 ave      115447 max           0 min
Histogram: 8 4 4 0 10 6 8 8 24 32

Total # of neighbors = 8238193
Ave neighs/atom = 28.530440
Neighbor list builds = 0
Dangerous builds = 0
The dot product: 4.43992486207752e-09
Setting atom values ...
  1 settings made for x
  1 settings made for y
  1 settings made for z
Setting up cg style minimization ...
  Unit style    : metal
  Current step  : 2749
Per MPI rank memory allocation (min/avg/max) = 5.441 | 5.816 | 6.074 Mbytes
Step PotEng KinEng TotEng v_fx v_fy v_fz 
    2749   -1152449.4            0   -1152449.4 -0.010231367 0.0063167744 -0.020387832 
    2924   -1152449.4            0   -1152449.4 1.355565e-05 1.2376413e-05 1.0972355e-05 
Loop time of 2.05608 on 104 procs for 175 steps with 288751 atoms

99.9% CPU use with 104 MPI tasks x 1 OpenMP threads

Minimization stats:
  Stopping criterion = energy tolerance
  Energy initial, next-to-last, final = 
      -1152449.3506091  -1152449.35151125  -1152449.35151125
  Force two-norm initial, final = 0.12559258 0.00016317151
  Force max component initial, final = 0.047092357 2.5928360e-05
  Final line search alpha, max atom move = 1.0000000 2.5928360e-05
  Iterations, force evaluations = 175 350

MPI task timing breakdown:
Section |  min time  |  avg time  |  max time  |%varavg| %total
---------------------------------------------------------------
Pair    | 0.52396    | 1.4778     | 1.9318     |  32.9 | 71.88
Neigh   | 0          | 0          | 0          |   0.0 |  0.00
Comm    | 0.028848   | 0.33816    | 1.0192     |  48.0 | 16.45
Output  | 0          | 0          | 0          |   0.0 |  0.00
Modify  | 1.973e-05  | 0.0028927  | 0.0061705  |   2.5 |  0.14
Other   |            | 0.2372     |            |       | 11.54

Nlocal:        2776.45 ave        3961 max           0 min
Histogram: 8 4 4 0 6 10 8 2 28 34
Nghost:        3879.09 ave        5424 max         232 min
Histogram: 8 0 8 0 16 0 8 8 16 40
Neighs:        79213.4 ave      115465 max           0 min
Histogram: 8 4 4 0 10 6 8 8 24 32

Total # of neighbors = 8238189
Ave neighs/atom = 28.530426
Neighbor list builds = 0
Dangerous builds = 0
The dot product: -4.24372813869499e-09
Setting atom values ...
  1 settings made for x
  1 settings made for y
  1 settings made for z
Setting up cg style minimization ...
  Unit style    : metal
  Current step  : 2924
Per MPI rank memory allocation (min/avg/max) = 5.441 | 5.816 | 6.074 Mbytes
Step PotEng KinEng TotEng v_fx v_fy v_fz 
    2924   -1152449.4            0   -1152449.4 -0.0094654531 0.0065767019 -0.019492287 
    3000   -1152449.4            0   -1152449.4 -0.00012601437 -3.5461935e-05 -0.00016399935 
    3087   -1152449.4            0   -1152449.4 4.3600516e-06 -4.1833688e-05 3.9103755e-05 
Loop time of 1.89383 on 104 procs for 163 steps with 288751 atoms

99.9% CPU use with 104 MPI tasks x 1 OpenMP threads

Minimization stats:
  Stopping criterion = energy tolerance
  Energy initial, next-to-last, final = 
     -1152449.35035463   -1152449.3512499   -1152449.3512499
  Force two-norm initial, final = 0.12514459 0.00024038499
  Force max component initial, final = 0.046465868 4.1833688e-05
  Final line search alpha, max atom move = 1.0000000 4.1833688e-05
  Iterations, force evaluations = 163 326

MPI task timing breakdown:
Section |  min time  |  avg time  |  max time  |%varavg| %total
---------------------------------------------------------------
Pair    | 0.49698    | 1.3721     | 1.7785     |  31.6 | 72.45
Neigh   | 0          | 0          | 0          |   0.0 |  0.00
Comm    | 0.028097   | 0.31011    | 0.94099    |  46.7 | 16.37
Output  | 0.0001686  | 0.00017588 | 0.00030555 |   0.0 |  0.01
Modify  | 1.7918e-05 | 0.0027019  | 0.0057342  |   2.4 |  0.14
Other   |            | 0.2087     |            |       | 11.02

Nlocal:        2776.45 ave        3961 max           0 min
Histogram: 8 4 4 0 6 10 8 2 28 34
Nghost:        3879.01 ave        5424 max         232 min
Histogram: 8 0 8 0 16 0 8 8 16 40
Neighs:        79213.4 ave      115465 max           0 min
Histogram: 8 4 4 0 10 6 8 8 24 32

Total # of neighbors = 8238191
Ave neighs/atom = 28.530433
Neighbor list builds = 0
Dangerous builds = 0
The dot product: -3.24763957137431e-08
Setting atom values ...
  1 settings made for x
  1 settings made for y
  1 settings made for z
Setting up cg style minimization ...
  Unit style    : metal
  Current step  : 3087
Per MPI rank memory allocation (min/avg/max) = 5.441 | 5.816 | 6.074 Mbytes
Step PotEng KinEng TotEng v_fx v_fy v_fz 
    3087   -1152449.3            0   -1152449.3 -0.0085590166 0.0064121096 -0.018044905 
    3301   -1152449.3            0   -1152449.3 -1.1917786e-05 -2.7947942e-06 -1.5983871e-05 
Loop time of 2.51775 on 104 procs for 214 steps with 288751 atoms

99.9% CPU use with 104 MPI tasks x 1 OpenMP threads

Minimization stats:
  Stopping criterion = energy tolerance
  Energy initial, next-to-last, final = 
     -1152449.34875662  -1152449.34964002  -1152449.34964002
  Force two-norm initial, final = 0.124238 4.9284194e-05
  Force max component initial, final = 0.045801583 1.5983871e-05
  Final line search alpha, max atom move = 1.0000000 1.5983871e-05
  Iterations, force evaluations = 214 428

MPI task timing breakdown:
Section |  min time  |  avg time  |  max time  |%varavg| %total
---------------------------------------------------------------
Pair    | 0.64226    | 1.8047     | 2.3661     |  36.3 | 71.68
Neigh   | 0          | 0          | 0          |   0.0 |  0.00
Comm    | 0.035759   | 0.41504    | 1.2498     |  52.7 | 16.48
Output  | 0          | 0          | 0          |   0.0 |  0.00
Modify  | 2.5528e-05 | 0.0035404  | 0.0075526  |   2.8 |  0.14
Other   |            | 0.2945     |            |       | 11.70

Nlocal:        2776.45 ave        3960 max           0 min
Histogram: 8 4 4 0 4 12 8 2 28 34
Nghost:        3879.01 ave        5424 max         232 min
Histogram: 8 0 8 0 16 0 8 8 16 40
Neighs:        79213.4 ave      115434 max           0 min
Histogram: 8 4 4 0 10 6 8 8 24 32

Total # of neighbors = 8238191
Ave neighs/atom = 28.530433
Neighbor list builds = 0
Dangerous builds = 0
The dot product: 6.22165669097669e-09
Setting atom values ...
  1 settings made for x
  1 settings made for y
  1 settings made for z
Setting up cg style minimization ...
  Unit style    : metal
  Current step  : 3301
Per MPI rank memory allocation (min/avg/max) = 5.441 | 5.816 | 6.074 Mbytes
Step PotEng KinEng TotEng v_fx v_fy v_fz 
    3301   -1152449.3            0   -1152449.3 -0.0076183197 0.0060892851 -0.016403858 
    3468   -1152449.3            0   -1152449.3 4.2406992e-05 -5.7730735e-06 6.9290205e-05 
Loop time of 1.93238 on 104 procs for 167 steps with 288751 atoms

99.9% CPU use with 104 MPI tasks x 1 OpenMP threads

Minimization stats:
  Stopping criterion = energy tolerance
  Energy initial, next-to-last, final = 
     -1152449.34580405  -1152449.34667342  -1152449.34667342
  Force two-norm initial, final = 0.12326393 0.00023575894
  Force max component initial, final = 0.04514677 6.9290205e-05
  Final line search alpha, max atom move = 1.0000000 6.9290205e-05
  Iterations, force evaluations = 167 334

MPI task timing breakdown:
Section |  min time  |  avg time  |  max time  |%varavg| %total
---------------------------------------------------------------
Pair    | 0.5025     | 1.4052     | 1.8235     |  32.1 | 72.72
Neigh   | 0          | 0          | 0          |   0.0 |  0.00
Comm    | 0.027748   | 0.3163     | 0.95992    |  47.4 | 16.37
Output  | 0          | 0          | 0          |   0.0 |  0.00
Modify  | 1.8599e-05 | 0.0027608  | 0.0058941  |   2.5 |  0.14
Other   |            | 0.2082     |            |       | 10.77

Nlocal:        2776.45 ave        3960 max           0 min
Histogram: 8 4 4 0 4 12 8 2 28 34
Nghost:        3879.01 ave        5424 max         232 min
Histogram: 8 0 8 0 16 0 8 8 16 40
Neighs:        79213.4 ave      115434 max           0 min
Histogram: 8 4 4 0 10 6 8 8 24 32

Total # of neighbors = 8238190
Ave neighs/atom = 28.530429
Neighbor list builds = 0
Dangerous builds = 0
The dot product: -3.1540510739194e-08
Setting atom values ...
  1 settings made for x
  1 settings made for y
  1 settings made for z
Setting up cg style minimization ...
  Unit style    : metal
  Current step  : 3468
Per MPI rank memory allocation (min/avg/max) = 5.441 | 5.816 | 6.074 Mbytes
Step PotEng KinEng TotEng v_fx v_fy v_fz 
    3468   -1152449.3            0   -1152449.3 -0.0067413821 0.0054452736 -0.014597026 
    3661   -1152449.3            0   -1152449.3 -1.2835152e-05 -5.4162904e-06 -1.5385063e-05 
Loop time of 2.26013 on 104 procs for 193 steps with 288751 atoms

99.9% CPU use with 104 MPI tasks x 1 OpenMP threads

Minimization stats:
  Stopping criterion = energy tolerance
  Energy initial, next-to-last, final = 
      -1152449.3414883  -1152449.34234483  -1152449.34234483
  Force two-norm initial, final = 0.1224113 9.0177544e-05
  Force max component initial, final = 0.044398691 1.5385063e-05
  Final line search alpha, max atom move = 1.0000000 1.5385063e-05
  Iterations, force evaluations = 193 386

MPI task timing breakdown:
Section |  min time  |  avg time  |  max time  |%varavg| %total
---------------------------------------------------------------
Pair    | 0.5833     | 1.6252     | 2.1016     |  34.2 | 71.91
Neigh   | 0          | 0          | 0          |   0.0 |  0.00
Comm    | 0.038335   | 0.36734    | 1.1162     |  50.5 | 16.25
Output  | 0          | 0          | 0          |   0.0 |  0.00
Modify  | 2.396e-05  | 0.0031941  | 0.0068071  |   2.7 |  0.14
Other   |            | 0.2644     |            |       | 11.70

Nlocal:        2776.45 ave        3960 max           0 min
Histogram: 8 4 4 0 4 12 8 2 28 34
Nghost:        3879.01 ave        5424 max         232 min
Histogram: 8 0 8 0 16 0 8 8 16 40
Neighs:        79213.4 ave      115434 max           0 min
Histogram: 8 4 4 0 10 6 8 8 24 32

Total # of neighbors = 8238191
Ave neighs/atom = 28.530433
Neighbor list builds = 0
Dangerous builds = 0
The dot product: 3.79168177058067e-09
Setting atom values ...
  1 settings made for x
  1 settings made for y
  1 settings made for z
Setting up cg style minimization ...
  Unit style    : metal
  Current step  : 3661
Per MPI rank memory allocation (min/avg/max) = 5.441 | 5.816 | 6.074 Mbytes
Step PotEng KinEng TotEng v_fx v_fy v_fz 
    3661   -1152449.3            0   -1152449.3 -0.006183667 0.0044973029 -0.013023749 
    3847   -1152449.3            0   -1152449.3 2.4604253e-05 2.6142602e-05 1.7098168e-05 
Loop time of 2.15368 on 104 procs for 186 steps with 288751 atoms

99.9% CPU use with 104 MPI tasks x 1 OpenMP threads

Minimization stats:
  Stopping criterion = energy tolerance
  Energy initial, next-to-last, final = 
     -1152449.33579477  -1152449.33664371  -1152449.33664371
  Force two-norm initial, final = 0.12196545 0.0001079719
  Force max component initial, final = 0.04417085 2.6142602e-05
  Final line search alpha, max atom move = 1.0000000 2.6142602e-05
  Iterations, force evaluations = 186 372

MPI task timing breakdown:
Section |  min time  |  avg time  |  max time  |%varavg| %total
---------------------------------------------------------------
Pair    | 0.55856    | 1.5587     | 2.0257     |  33.8 | 72.37
Neigh   | 0          | 0          | 0          |   0.0 |  0.00
Comm    | 0.031836   | 0.35067    | 1.0628     |  49.7 | 16.28
Output  | 0          | 0          | 0          |   0.0 |  0.00
Modify  | 2.0357e-05 | 0.0030719  | 0.0065949  |   2.6 |  0.14
Other   |            | 0.2412     |            |       | 11.20

Nlocal:        2776.45 ave        3960 max           0 min
Histogram: 8 4 4 0 4 12 8 2 28 34
Nghost:        3879.05 ave        5424 max         232 min
Histogram: 8 0 8 0 16 0 8 8 16 40
Neighs:        79213.4 ave      115434 max           0 min
Histogram: 8 4 4 0 10 6 8 8 24 32

Total # of neighbors = 8238192
Ave neighs/atom = 28.530436
Neighbor list builds = 0
Dangerous builds = 0
The dot product: -2.79985930830286e-10
Setting atom values ...
  1 settings made for x
  1 settings made for y
  1 settings made for z
Setting up cg style minimization ...
  Unit style    : metal
  Current step  : 3847
Per MPI rank memory allocation (min/avg/max) = 5.441 | 5.816 | 6.074 Mbytes
Step PotEng KinEng TotEng v_fx v_fy v_fz 
    3847   -1152449.3            0   -1152449.3 -0.0057891008 0.0032758512 -0.011474795 
    4000   -1152449.3            0   -1152449.3 6.3641321e-07 -5.942513e-06 5.6740649e-06 
    4019   -1152449.3            0   -1152449.3 -4.445386e-05 -2.966116e-06 -6.5885386e-05 
Loop time of 2.00575 on 104 procs for 172 steps with 288751 atoms

99.9% CPU use with 104 MPI tasks x 1 OpenMP threads

Minimization stats:
  Stopping criterion = energy tolerance
  Energy initial, next-to-last, final = 
     -1152449.32870479  -1152449.32955105  -1152449.32955105
  Force two-norm initial, final = 0.121856 0.00019515934
  Force max component initial, final = 0.044036684 6.5885386e-05
  Final line search alpha, max atom move = 1.0000000 6.5885386e-05
  Iterations, force evaluations = 172 344

MPI task timing breakdown:
Section |  min time  |  avg time  |  max time  |%varavg| %total
---------------------------------------------------------------
Pair    | 0.51594    | 1.4496     | 1.888      |  32.6 | 72.27
Neigh   | 0          | 0          | 0          |   0.0 |  0.00
Comm    | 0.02926    | 0.32611    | 0.97747    |  47.8 | 16.26
Output  | 0.00015848 | 0.00016515 | 0.00030274 |   0.0 |  0.01
Modify  | 1.8898e-05 | 0.0028471  | 0.0060788  |   2.5 |  0.14
Other   |            | 0.227      |            |       | 11.32

Nlocal:        2776.45 ave        3960 max           0 min
Histogram: 8 4 4 0 4 12 8 2 28 34
Nghost:        3879.05 ave        5424 max         232 min
Histogram: 8 0 8 0 16 0 8 8 16 40
Neighs:        79213.4 ave      115434 max           0 min
Histogram: 8 4 4 0 10 6 8 8 24 32

Total # of neighbors = 8238190
Ave neighs/atom = 28.530429
Neighbor list builds = 0
Dangerous builds = 0
The dot product: 2.02314245100823e-08
Setting atom values ...
  1 settings made for x
  1 settings made for y
  1 settings made for z
Setting up cg style minimization ...
  Unit style    : metal
  Current step  : 4019
Per MPI rank memory allocation (min/avg/max) = 5.441 | 5.816 | 6.074 Mbytes
Step PotEng KinEng TotEng v_fx v_fy v_fz 
    4019   -1152449.3            0   -1152449.3 -0.0057853068 0.0017085687 -0.010243913 
    4185   -1152449.3            0   -1152449.3 9.4562745e-06 2.0435951e-05 -1.651118e-06 
Loop time of 1.91818 on 104 procs for 166 steps with 288751 atoms

99.9% CPU use with 104 MPI tasks x 1 OpenMP threads

Minimization stats:
  Stopping criterion = energy tolerance
  Energy initial, next-to-last, final = 
      -1152449.3201887  -1152449.32103866  -1152449.32103866
  Force two-norm initial, final = 0.12214986 0.0002367049
  Force max component initial, final = 0.043837654 4.1881526e-05
  Final line search alpha, max atom move = 1.0000000 4.1881526e-05
  Iterations, force evaluations = 166 332

MPI task timing breakdown:
Section |  min time  |  avg time  |  max time  |%varavg| %total
---------------------------------------------------------------
Pair    | 0.50087    | 1.3912     | 1.81       |  31.9 | 72.53
Neigh   | 0          | 0          | 0          |   0.0 |  0.00
Comm    | 0.028977   | 0.31197    | 0.94773    |  47.0 | 16.26
Output  | 0          | 0          | 0          |   0.0 |  0.00
Modify  | 1.8625e-05 | 0.0027453  | 0.0058585  |   2.5 |  0.14
Other   |            | 0.2122     |            |       | 11.07

Nlocal:        2776.45 ave        3960 max           0 min
Histogram: 8 4 4 0 4 12 8 2 28 34
Nghost:        3879.01 ave        5424 max         232 min
Histogram: 8 0 8 0 16 0 8 8 16 40
Neighs:        79213.3 ave      115434 max           0 min
Histogram: 8 4 4 0 10 6 8 8 24 32

Total # of neighbors = 8238188
Ave neighs/atom = 28.530422
Neighbor list builds = 0
Dangerous builds = 0
The dot product: 1.96917030617808e-10
Setting atom values ...
  1 settings made for x
  1 settings made for y
  1 settings made for z
Setting up cg style minimization ...
  Unit style    : metal
  Current step  : 4185
Per MPI rank memory allocation (min/avg/max) = 5.441 | 5.816 | 6.074 Mbytes
Step PotEng KinEng TotEng v_fx v_fy v_fz 
    4185   -1152449.3            0   -1152449.3 -0.0059350021 -7.3066515e-05 -0.0090745631 
    4348   -1152449.3            0   -1152449.3 2.7310129e-06 -3.5833491e-06 7.0434272e-06 
Loop time of 1.90109 on 104 procs for 163 steps with 288751 atoms

99.9% CPU use with 104 MPI tasks x 1 OpenMP threads

Minimization stats:
  Stopping criterion = energy tolerance
  Energy initial, next-to-last, final = 
     -1152449.31021566  -1152449.31107231  -1152449.31107231
  Force two-norm initial, final = 0.12266269 0.0002598841
  Force max component initial, final = 0.043669845 6.3124868e-05
  Final line search alpha, max atom move = 1.0000000 6.3124868e-05
  Iterations, force evaluations = 163 326

MPI task timing breakdown:
Section |  min time  |  avg time  |  max time  |%varavg| %total
---------------------------------------------------------------
Pair    | 0.4911     | 1.3783     | 1.7954     |  31.7 | 72.50
Neigh   | 0          | 0          | 0          |   0.0 |  0.00
Comm    | 0.02726    | 0.31298    | 0.955      |  46.9 | 16.46
Output  | 0          | 0          | 0          |   0.0 |  0.00
Modify  | 1.7814e-05 | 0.0026938  | 0.0057383  |   2.4 |  0.14
Other   |            | 0.2072     |            |       | 10.90

Nlocal:        2776.45 ave        3960 max           0 min
Histogram: 8 4 4 0 4 12 8 2 28 34
Nghost:        3879.01 ave        5424 max         232 min
Histogram: 8 0 8 0 16 0 8 8 16 40
Neighs:        79213.4 ave      115435 max           0 min
Histogram: 8 4 4 0 10 6 8 8 24 32

Total # of neighbors = 8238189
Ave neighs/atom = 28.530426
Neighbor list builds = 0
Dangerous builds = 0
The dot product: -1.81632903076336e-09
Setting atom values ...
  1 settings made for x
  1 settings made for y
  1 settings made for z
Setting up cg style minimization ...
  Unit style    : metal
  Current step  : 4348
Per MPI rank memory allocation (min/avg/max) = 5.441 | 5.816 | 6.074 Mbytes
Step PotEng KinEng TotEng v_fx v_fy v_fz 
    4348   -1152449.3            0   -1152449.3 -0.0064544327 -0.0021029849 -0.0082762943 
    4512   -1152449.3            0   -1152449.3 6.0899865e-06 6.0735496e-05 -3.8796269e-05 
Loop time of 1.90973 on 104 procs for 164 steps with 288751 atoms

99.9% CPU use with 104 MPI tasks x 1 OpenMP threads

Minimization stats:
  Stopping criterion = energy tolerance
  Energy initial, next-to-last, final = 
      -1152449.2987569   -1152449.2996198   -1152449.2996198
  Force two-norm initial, final = 0.12332229 0.00024809627
  Force max component initial, final = 0.043582851 6.0735496e-05
  Final line search alpha, max atom move = 1.0000000 6.0735496e-05
  Iterations, force evaluations = 164 328

MPI task timing breakdown:
Section |  min time  |  avg time  |  max time  |%varavg| %total
---------------------------------------------------------------
Pair    | 0.49419    | 1.3754     | 1.7941     |  31.7 | 72.02
Neigh   | 0          | 0          | 0          |   0.0 |  0.00
Comm    | 0.028534   | 0.311      | 0.93541    |  46.5 | 16.28
Output  | 0          | 0          | 0          |   0.0 |  0.00
Modify  | 1.8165e-05 | 0.0027192  | 0.0057676  |   2.4 |  0.14
Other   |            | 0.2206     |            |       | 11.55

Nlocal:        2776.45 ave        3960 max           0 min
Histogram: 8 4 4 0 4 12 8 2 28 34
Nghost:        3879.07 ave        5424 max         232 min
Histogram: 8 0 8 0 16 0 8 8 16 40
Neighs:        79213.4 ave      115439 max           0 min
Histogram: 8 4 4 0 10 6 8 8 24 32

Total # of neighbors = 8238189
Ave neighs/atom = 28.530426
Neighbor list builds = 0
Dangerous builds = 0
The dot product: -5.00909945623739e-09
Setting atom values ...
  1 settings made for x
  1 settings made for y
  1 settings made for z
Setting up cg style minimization ...
  Unit style    : metal
  Current step  : 4512
Per MPI rank memory allocation (min/avg/max) = 5.441 | 5.816 | 6.074 Mbytes
Step PotEng KinEng TotEng v_fx v_fy v_fz 
    4512   -1152449.3            0   -1152449.3 -0.0073789559 -0.0041666102 -0.0080802163 
    4709   -1152449.3            0   -1152449.3 3.0743192e-06 1.0086025e-05 -3.2566505e-06 
Loop time of 2.30552 on 104 procs for 197 steps with 288751 atoms

99.9% CPU use with 104 MPI tasks x 1 OpenMP threads

Minimization stats:
  Stopping criterion = energy tolerance
  Energy initial, next-to-last, final = 
     -1152449.28579179  -1152449.28665709  -1152449.28665709
  Force two-norm initial, final = 0.12398335 8.3855164e-05
  Force max component initial, final = 0.043311162 1.8124997e-05
  Final line search alpha, max atom move = 1.0000000 1.8124997e-05
  Iterations, force evaluations = 197 394

MPI task timing breakdown:
Section |  min time  |  avg time  |  max time  |%varavg| %total
---------------------------------------------------------------
Pair    | 0.58943    | 1.6605     | 2.1669     |  34.8 | 72.02
Neigh   | 0          | 0          | 0          |   0.0 |  0.00
Comm    | 0.033911   | 0.3805     | 1.1491     |  50.8 | 16.50
Output  | 0          | 0          | 0          |   0.0 |  0.00
Modify  | 2.1695e-05 | 0.0032569  | 0.0069409  |   2.7 |  0.14
Other   |            | 0.2612     |            |       | 11.33

Nlocal:        2776.45 ave        3960 max           0 min
Histogram: 8 4 4 0 4 12 8 2 28 34
Nghost:        3879.12 ave        5424 max         232 min
Histogram: 8 0 8 0 16 0 8 8 16 40
Neighs:        79213.3 ave      115439 max           0 min
Histogram: 8 4 4 0 10 6 8 8 24 32

Total # of neighbors = 8238187
Ave neighs/atom = 28.530419
Neighbor list builds = 0
Dangerous builds = 0
The dot product: -3.62182674299754e-09
Setting atom values ...
  1 settings made for x
  1 settings made for y
  1 settings made for z
Setting up cg style minimization ...
  Unit style    : metal
  Current step  : 4709
Per MPI rank memory allocation (min/avg/max) = 5.441 | 5.816 | 6.074 Mbytes
Step PotEng KinEng TotEng v_fx v_fy v_fz 
    4709   -1152449.3            0   -1152449.3 -0.0088430154 -0.0063076984 -0.0086674176 
    4884   -1152449.3            0   -1152449.3 2.4649014e-05 1.3170591e-05 2.7656705e-05 
Loop time of 2.04382 on 104 procs for 175 steps with 288751 atoms

99.9% CPU use with 104 MPI tasks x 1 OpenMP threads

Minimization stats:
  Stopping criterion = energy tolerance
  Energy initial, next-to-last, final = 
     -1152449.27131684  -1152449.27217741  -1152449.27217741
  Force two-norm initial, final = 0.12455043 0.00016092109
  Force max component initial, final = 0.043151252 2.7656705e-05
  Final line search alpha, max atom move = 1.0000000 2.7656705e-05
  Iterations, force evaluations = 175 350

MPI task timing breakdown:
Section |  min time  |  avg time  |  max time  |%varavg| %total
---------------------------------------------------------------
Pair    | 0.53317    | 1.4758     | 1.9113     |  32.8 | 72.21
Neigh   | 0          | 0          | 0          |   0.0 |  0.00
Comm    | 0.030045   | 0.33372    | 1.0053     |  48.2 | 16.33
Output  | 0          | 0          | 0          |   0.0 |  0.00
Modify  | 1.9128e-05 | 0.0028965  | 0.006158   |   2.5 |  0.14
Other   |            | 0.2314     |            |       | 11.32

Nlocal:        2776.45 ave        3960 max           0 min
Histogram: 8 4 4 0 4 12 8 2 28 34
Nghost:        3879.11 ave        5424 max         232 min
Histogram: 8 0 8 0 16 0 8 8 16 40
Neighs:        79213.3 ave      115439 max           0 min
Histogram: 8 4 4 0 10 6 8 8 24 32

Total # of neighbors = 8238186
Ave neighs/atom = 28.530415
Neighbor list builds = 0
Dangerous builds = 0
The dot product: -3.09502830291612e-08
Setting atom values ...
  1 settings made for x
  1 settings made for y
  1 settings made for z
Setting up cg style minimization ...
  Unit style    : metal
  Current step  : 4884
Per MPI rank memory allocation (min/avg/max) = 5.441 | 5.816 | 6.074 Mbytes
Step PotEng KinEng TotEng v_fx v_fy v_fz 
    4884   -1152449.3            0   -1152449.3 -0.010996784 -0.0081322101 -0.010597881 
    5000   -1152449.3            0   -1152449.3 -4.6455991e-05 -4.976367e-05 -3.2562066e-05 
    5063   -1152449.3            0   -1152449.3 3.006594e-05 2.1832523e-05 2.929341e-05 
Loop time of 2.10001 on 104 procs for 179 steps with 288751 atoms

99.9% CPU use with 104 MPI tasks x 1 OpenMP threads

Minimization stats:
  Stopping criterion = energy tolerance
  Energy initial, next-to-last, final = 
     -1152449.25535712  -1152449.25620486  -1152449.25620486
  Force two-norm initial, final = 0.12510883 0.0001407896
  Force max component initial, final = 0.044199485 3.8177632e-05
  Final line search alpha, max atom move = 1.0000000 3.8177632e-05
  Iterations, force evaluations = 179 358

MPI task timing breakdown:
Section |  min time  |  avg time  |  max time  |%varavg| %total
---------------------------------------------------------------
Pair    | 0.53865    | 1.5127     | 1.9704     |  33.1 | 72.03
Neigh   | 0          | 0          | 0          |   0.0 |  0.00
Comm    | 0.030893   | 0.3423     | 1.016      |  48.5 | 16.30
Output  | 0.0001566  | 0.0001597  | 0.0002919  |   0.0 |  0.01
Modify  | 1.9928e-05 | 0.0029632  | 0.0063228  |   2.6 |  0.14
Other   |            | 0.2419     |            |       | 11.52

Nlocal:        2776.45 ave        3960 max           0 min
Histogram: 8 4 4 0 4 12 8 2 28 34
Nghost:        3879.11 ave        5424 max         232 min
Histogram: 8 0 8 0 16 0 8 8 16 40
Neighs:        79213.3 ave      115442 max           0 min
Histogram: 8 4 4 0 10 6 8 8 24 32

Total # of neighbors = 8238187
Ave neighs/atom = 28.530419
Neighbor list builds = 0
Dangerous builds = 0
The dot product: -5.7944381961339e-08
Setting atom values ...
  1 settings made for x
  1 settings made for y
  1 settings made for z
Setting up cg style minimization ...
  Unit style    : metal
  Current step  : 5063
Per MPI rank memory allocation (min/avg/max) = 5.441 | 5.816 | 6.074 Mbytes
Step PotEng KinEng TotEng v_fx v_fy v_fz 
    5063   -1152449.2            0   -1152449.2 -0.014248315 -0.0096036882 -0.014561415 
    5217   -1152449.2            0   -1152449.2 -5.9175681e-05 -1.347673e-05 -8.1402985e-05 
Loop time of 1.78124 on 104 procs for 154 steps with 288751 atoms

99.9% CPU use with 104 MPI tasks x 1 OpenMP threads

Minimization stats:
  Stopping criterion = energy tolerance
  Energy initial, next-to-last, final = 
     -1152449.23799489  -1152449.23883088  -1152449.23883088
  Force two-norm initial, final = 0.12631031 0.00027347028
  Force max component initial, final = 0.047457187 8.1402985e-05
  Final line search alpha, max atom move = 1.0000000 8.1402985e-05
  Iterations, force evaluations = 154 308

MPI task timing breakdown:
Section |  min time  |  avg time  |  max time  |%varavg| %total
---------------------------------------------------------------
Pair    | 0.46301    | 1.2936     | 1.6797     |  30.8 | 72.62
Neigh   | 0          | 0          | 0          |   0.0 |  0.00
Comm    | 0.026813   | 0.28971    | 0.88096    |  45.5 | 16.26
Output  | 0          | 0          | 0          |   0.0 |  0.00
Modify  | 1.6755e-05 | 0.002549   | 0.0054285  |   2.4 |  0.14
Other   |            | 0.1954     |            |       | 10.97

Nlocal:        2776.45 ave        3960 max           0 min
Histogram: 8 4 4 0 4 12 8 2 28 34
Nghost:        3879.09 ave        5424 max         232 min
Histogram: 8 0 8 0 16 0 8 8 16 40
Neighs:        79213.3 ave      115442 max           0 min
Histogram: 8 4 4 0 10 6 8 8 24 32

Total # of neighbors = 8238185
Ave neighs/atom = 28.530412
Neighbor list builds = 0
Dangerous builds = 0
The dot product: 2.11621755312568e-07
Setting atom values ...
  1 settings made for x
  1 settings made for y
  1 settings made for z
Setting up cg style minimization ...
  Unit style    : metal
  Current step  : 5217
Per MPI rank memory allocation (min/avg/max) = 5.441 | 5.816 | 6.074 Mbytes
Step PotEng KinEng TotEng v_fx v_fy v_fz 
    5217   -1152449.2            0   -1152449.2 -0.019382718 -0.010412327 -0.022119911 
    5519   -1152449.3            0   -1152449.3 2.1919319e-06 9.2019543e-07 2.7059138e-06 
Loop time of 3.51464 on 104 procs for 302 steps with 288751 atoms

99.9% CPU use with 104 MPI tasks x 1 OpenMP threads

Minimization stats:
  Stopping criterion = energy tolerance
  Energy initial, next-to-last, final = 
     -1152449.21945762  -1152449.25004413  -1152449.25004413
  Force two-norm initial, final = 0.13035424 1.2100118e-05
  Force max component initial, final = 0.050703433 2.7059138e-06
  Final line search alpha, max atom move = 1.0000000 2.7059138e-06
  Iterations, force evaluations = 302 602

MPI task timing breakdown:
Section |  min time  |  avg time  |  max time  |%varavg| %total
---------------------------------------------------------------
Pair    | 0.91747    | 2.5364     | 3.2916     |  42.6 | 72.17
Neigh   | 2.0689e-05 | 0.0058706  | 0.0085477  |   3.2 |  0.17
Comm    | 0.052514   | 0.57277    | 1.7282     |  63.3 | 16.30
Output  | 0          | 0          | 0          |   0.0 |  0.00
Modify  | 3.2718e-05 | 0.004975   | 0.010622   |   3.3 |  0.14
Other   |            | 0.3946     |            |       | 11.23

Nlocal:        2776.45 ave        3960 max           0 min
Histogram: 8 4 4 0 4 12 8 2 28 34
Nghost:        3879.11 ave        5424 max         232 min
Histogram: 8 0 8 0 16 0 8 8 16 40
Neighs:        79213.1 ave      115433 max           0 min
Histogram: 8 4 4 0 10 6 8 8 24 32

Total # of neighbors = 8238167
Ave neighs/atom = 28.530350
Neighbor list builds = 2
Dangerous builds = 0
The dot product: -2.61382127183546e-07
Setting atom values ...
  1 settings made for x
  1 settings made for y
  1 settings made for z
Setting up cg style minimization ...
  Unit style    : metal
  Current step  : 5519
Per MPI rank memory allocation (min/avg/max) = 5.441 | 5.816 | 6.074 Mbytes
Step PotEng KinEng TotEng v_fx v_fy v_fz 
    5519   -1152449.2            0   -1152449.2 -0.027979146 -0.033887169 -0.023808986 
    5727   -1152449.2            0   -1152449.2 2.6607686e-05 -4.0440083e-06 6.2120102e-05 
Loop time of 2.4377 on 104 procs for 208 steps with 288751 atoms

99.9% CPU use with 104 MPI tasks x 1 OpenMP threads

Minimization stats:
  Stopping criterion = energy tolerance
  Energy initial, next-to-last, final = 
     -1152449.24564042  -1152449.24930724  -1152449.24930724
  Force two-norm initial, final = 0.15067582 0.00023944498
  Force max component initial, final = 0.055805919 6.2120102e-05
  Final line search alpha, max atom move = 1.0000000 6.2120102e-05
  Iterations, force evaluations = 208 416

MPI task timing breakdown:
Section |  min time  |  avg time  |  max time  |%varavg| %total
---------------------------------------------------------------
Pair    | 0.62563    | 1.7413     | 2.2633     |  35.6 | 71.43
Neigh   | 0          | 0          | 0          |   0.0 |  0.00
Comm    | 0.038895   | 0.39461    | 1.1839     |  51.9 | 16.19
Output  | 0          | 0          | 0          |   0.0 |  0.00
Modify  | 2.3064e-05 | 0.0034353  | 0.0073431  |   2.8 |  0.14
Other   |            | 0.2983     |            |       | 12.24

Nlocal:        2776.45 ave        3960 max           0 min
Histogram: 8 4 4 0 4 12 8 2 28 34
Nghost:        3879.05 ave        5424 max         232 min
Histogram: 8 0 8 0 16 0 8 8 16 40
Neighs:        79213.3 ave      115434 max           0 min
Histogram: 8 4 4 0 10 6 8 8 24 32

Total # of neighbors = 8238183
Ave neighs/atom = 28.530405
Neighbor list builds = 0
Dangerous builds = 0
The dot product: -2.02155627894193e-06
Setting atom values ...
  1 settings made for x
  1 settings made for y
  1 settings made for z
Setting up cg style minimization ...
  Unit style    : metal
  Current step  : 5727
Per MPI rank memory allocation (min/avg/max) = 5.441 | 5.816 | 6.074 Mbytes
Step PotEng KinEng TotEng v_fx v_fy v_fz 
    5727   -1152449.3            0   -1152449.3 -0.014957454 -0.038240185 0.0010791431 
    5935   -1152449.3            0   -1152449.3 3.0111533e-06 6.0142028e-07 6.9347584e-06 
Loop time of 2.44509 on 104 procs for 208 steps with 288751 atoms

99.9% CPU use with 104 MPI tasks x 1 OpenMP threads

Minimization stats:
  Stopping criterion = energy tolerance
  Energy initial, next-to-last, final = 
     -1152449.25028345  -1152449.25218997  -1152449.25218997
  Force two-norm initial, final = 0.1535929 5.6929671e-05
  Force max component initial, final = 0.055088835 1.0314962e-05
  Final line search alpha, max atom move = 1.0000000 1.0314962e-05
  Iterations, force evaluations = 208 416

MPI task timing breakdown:
Section |  min time  |  avg time  |  max time  |%varavg| %total
---------------------------------------------------------------
Pair    | 0.6228     | 1.7569     | 2.2961     |  35.9 | 71.85
Neigh   | 0          | 0          | 0          |   0.0 |  0.00
Comm    | 0.034802   | 0.40128    | 1.1958     |  52.1 | 16.41
Output  | 0          | 0          | 0          |   0.0 |  0.00
Modify  | 2.2633e-05 | 0.0034419  | 0.0073535  |   2.8 |  0.14
Other   |            | 0.2835     |            |       | 11.60

Nlocal:        2776.45 ave        3960 max           0 min
Histogram: 8 4 4 0 4 12 8 2 28 34
Nghost:        3879.12 ave        5424 max         232 min
Histogram: 8 0 8 0 16 0 8 8 16 40
Neighs:        79213.3 ave      115424 max           0 min
Histogram: 8 4 4 0 10 6 8 8 24 32

Total # of neighbors = 8238186
Ave neighs/atom = 28.530415
Neighbor list builds = 0
Dangerous builds = 0
The dot product: -7.0007108550943e-08
Setting atom values ...
  1 settings made for x
  1 settings made for y
  1 settings made for z
Setting up cg style minimization ...
  Unit style    : metal
  Current step  : 5935
Per MPI rank memory allocation (min/avg/max) = 5.441 | 5.816 | 6.074 Mbytes
Step PotEng KinEng TotEng v_fx v_fy v_fz 
    5935   -1152449.3            0   -1152449.3 -0.014273538 -0.049352869  0.012779312 
    6000   -1152449.3            0   -1152449.3 -3.8822824e-05 -7.0089675e-06 -9.4003255e-05 
    6036   -1152449.3            0   -1152449.3 -8.1017575e-06 7.4485927e-06 -2.8635902e-05 
Loop time of 1.17169 on 104 procs for 101 steps with 288751 atoms

99.9% CPU use with 104 MPI tasks x 1 OpenMP threads

Minimization stats:
  Stopping criterion = energy tolerance
  Energy initial, next-to-last, final = 
     -1152449.25427177   -1152449.2554718   -1152449.2554718
  Force two-norm initial, final = 0.15226225 0.00014142058
  Force max component initial, final = 0.055465843 2.8635902e-05
  Final line search alpha, max atom move = 1.0000000 2.8635902e-05
  Iterations, force evaluations = 101 202

MPI task timing breakdown:
Section |  min time  |  avg time  |  max time  |%varavg| %total
---------------------------------------------------------------
Pair    | 0.30457    | 0.8492     | 1.1055     |  24.9 | 72.48
Neigh   | 0          | 0          | 0          |   0.0 |  0.00
Comm    | 0.017439   | 0.19219    | 0.58213    |  36.7 | 16.40
Output  | 0.00015319 | 0.00015671 | 0.00026713 |   0.0 |  0.01
Modify  | 1.111e-05  | 0.0016747  | 0.0035666  |   1.9 |  0.14
Other   |            | 0.1285     |            |       | 10.96

Nlocal:        2776.45 ave        3960 max           0 min
Histogram: 8 4 4 0 4 12 8 2 28 34
Nghost:        3879.12 ave        5424 max         232 min
Histogram: 8 0 8 0 16 0 8 8 16 40
Neighs:        79213.3 ave      115424 max           0 min
Histogram: 8 4 4 0 10 6 8 8 24 32

Total # of neighbors = 8238182
Ave neighs/atom = 28.530402
Neighbor list builds = 0
Dangerous builds = 0
The dot product: 3.18620404782746e-08
Setting atom values ...
  1 settings made for x
  1 settings made for y
  1 settings made for z
Setting up cg style minimization ...
  Unit style    : metal
  Current step  : 6036
Per MPI rank memory allocation (min/avg/max) = 5.441 | 5.816 | 6.074 Mbytes
Step PotEng KinEng TotEng v_fx v_fy v_fz 
    6036   -1152449.3            0   -1152449.3 -0.013646486  -0.05746134  0.020550305 
    6308   -1152449.3            0   -1152449.3 -1.3515807e-06 -1.0787272e-06 -2.5111778e-06 
Loop time of 3.20898 on 104 procs for 272 steps with 288751 atoms

99.9% CPU use with 104 MPI tasks x 1 OpenMP threads

Minimization stats:
  Stopping criterion = energy tolerance
  Energy initial, next-to-last, final = 
     -1152449.25693188  -1152449.29755639  -1152449.29755639
  Force two-norm initial, final = 0.15747034 2.9285134e-05
  Force max component initial, final = 0.05746134 6.1654584e-06
  Final line search alpha, max atom move = 1.0000000 6.1654584e-06
  Iterations, force evaluations = 272 543

MPI task timing breakdown:
Section |  min time  |  avg time  |  max time  |%varavg| %total
---------------------------------------------------------------
Pair    | 0.81779    | 2.2935     | 2.9916     |  40.8 | 71.47
Neigh   | 1.0455e-05 | 0.0029438  | 0.0043146  |   2.2 |  0.09
Comm    | 0.053033   | 0.52191    | 1.5801     |  59.8 | 16.26
Output  | 0          | 0          | 0          |   0.0 |  0.00
Modify  | 2.9298e-05 | 0.0044864  | 0.0095547  |   3.2 |  0.14
Other   |            | 0.3861     |            |       | 12.03

Nlocal:        2776.45 ave        3960 max           0 min
Histogram: 8 4 4 0 4 12 8 2 28 34
Nghost:        3879.12 ave        5424 max         232 min
Histogram: 8 0 8 0 16 0 8 8 16 40
Neighs:        79213.4 ave      115424 max           0 min
Histogram: 8 4 4 0 10 6 8 8 24 32

Total # of neighbors = 8238197
Ave neighs/atom = 28.530454
Neighbor list builds = 1
Dangerous builds = 0
The dot product: 2.66023172708234e-07
Setting atom values ...
  1 settings made for x
  1 settings made for y
  1 settings made for z
Setting up cg style minimization ...
  Unit style    : metal
  Current step  : 6308
Per MPI rank memory allocation (min/avg/max) = 5.441 | 5.816 | 6.074 Mbytes
Step PotEng KinEng TotEng v_fx v_fy v_fz 
    6308   -1152449.3            0   -1152449.3  0.028769652  0.058996953  0.058754791 
    6505   -1152449.3            0   -1152449.3 -1.2642529e-05 -2.782787e-06 -3.8930343e-05 
Loop time of 2.28688 on 104 procs for 197 steps with 288751 atoms

99.9% CPU use with 104 MPI tasks x 1 OpenMP threads

Minimization stats:
  Stopping criterion = energy tolerance
  Energy initial, next-to-last, final = 
     -1152449.30887225  -1152449.31115401  -1152449.31115401
  Force two-norm initial, final = 0.16258341 0.00014708743
  Force max component initial, final = 0.058996953 3.8930343e-05
  Final line search alpha, max atom move = 1.0000000 3.8930343e-05
  Iterations, force evaluations = 197 394

MPI task timing breakdown:
Section |  min time  |  avg time  |  max time  |%varavg| %total
---------------------------------------------------------------
Pair    | 0.59686    | 1.6545     | 2.1479     |  34.7 | 72.35
Neigh   | 0          | 0          | 0          |   0.0 |  0.00
Comm    | 0.033811   | 0.37246    | 1.1237     |  51.1 | 16.29
Output  | 0          | 0          | 0          |   0.0 |  0.00
Modify  | 2.4158e-05 | 0.0032541  | 0.0069403  |   2.7 |  0.14
Other   |            | 0.2567     |            |       | 11.22

Nlocal:        2776.45 ave        3960 max           0 min
Histogram: 8 4 4 0 4 12 8 6 24 34
Nghost:        3879.05 ave        5424 max         232 min
Histogram: 8 0 8 0 16 0 8 8 16 40
Neighs:        79213.4 ave      115431 max           0 min
Histogram: 8 4 4 0 10 6 8 8 24 32

Total # of neighbors = 8238197
Ave neighs/atom = 28.530454
Neighbor list builds = 0
Dangerous builds = 0
The dot product: -3.8299922884807e-07
Setting atom values ...
  1 settings made for x
  1 settings made for y
  1 settings made for z
Setting up cg style minimization ...
  Unit style    : metal
  Current step  : 6505
Per MPI rank memory allocation (min/avg/max) = 5.441 | 5.816 | 6.074 Mbytes
Step PotEng KinEng TotEng v_fx v_fy v_fz 
    6505   -1152449.3            0   -1152449.3 -0.0060666894 -0.071123391  0.027014493 
    6677   -1152449.3            0   -1152449.3 6.6342873e-06 -2.3444352e-05 3.5589456e-05 
Loop time of 1.99619 on 104 procs for 172 steps with 288751 atoms

99.9% CPU use with 104 MPI tasks x 1 OpenMP threads

Minimization stats:
  Stopping criterion = energy tolerance
  Energy initial, next-to-last, final = 
     -1152449.32050107   -1152449.3217454   -1152449.3217454
  Force two-norm initial, final = 0.16161525 0.00017010567
  Force max component initial, final = 0.071123391 3.5589456e-05
  Final line search alpha, max atom move = 1.0000000 3.5589456e-05
  Iterations, force evaluations = 172 344

MPI task timing breakdown:
Section |  min time  |  avg time  |  max time  |%varavg| %total
---------------------------------------------------------------
Pair    | 0.5182     | 1.4489     | 1.8849     |  32.5 | 72.58
Neigh   | 0          | 0          | 0          |   0.0 |  0.00
Comm    | 0.029259   | 0.32708    | 1.0033     |  48.1 | 16.39
Output  | 0          | 0          | 0          |   0.0 |  0.00
Modify  | 1.8925e-05 | 0.0028445  | 0.0060694  |   2.5 |  0.14
Other   |            | 0.2174     |            |       | 10.89

Nlocal:        2776.45 ave        3960 max           0 min
Histogram: 8 4 4 0 4 12 8 4 26 34
Nghost:        3879.05 ave        5427 max         232 min
Histogram: 8 0 8 0 16 0 8 8 16 40
Neighs:        79213.4 ave      115422 max           0 min
Histogram: 8 4 4 0 10 6 8 8 24 32

Total # of neighbors = 8238195
Ave neighs/atom = 28.530447
Neighbor list builds = 0
Dangerous builds = 0
The dot product: 1.90095319975432e-07
Setting atom values ...
  1 settings made for x
  1 settings made for y
  1 settings made for z
Setting up cg style minimization ...
  Unit style    : metal
  Current step  : 6677
Per MPI rank memory allocation (min/avg/max) = 5.441 | 5.816 | 6.074 Mbytes
Step PotEng KinEng TotEng v_fx v_fy v_fz 
    6677   -1152449.3            0   -1152449.3 -0.00049608019 -0.053828706  0.031423045 
    6857   -1152449.3            0   -1152449.3 7.4618401e-06 1.4005935e-05 1.4420586e-05 
Loop time of 2.09431 on 104 procs for 180 steps with 288751 atoms

99.9% CPU use with 104 MPI tasks x 1 OpenMP threads

Minimization stats:
  Stopping criterion = energy tolerance
  Energy initial, next-to-last, final = 
     -1152449.32952221  -1152449.33070679  -1152449.33070679
  Force two-norm initial, final = 0.15654439 0.00012501767
  Force max component initial, final = 0.054021646 2.7020713e-05
  Final line search alpha, max atom move = 1.0000000 2.7020713e-05
  Iterations, force evaluations = 180 360

MPI task timing breakdown:
Section |  min time  |  avg time  |  max time  |%varavg| %total
---------------------------------------------------------------
Pair    | 0.54011    | 1.5121     | 1.9671     |  33.4 | 72.20
Neigh   | 0          | 0          | 0          |   0.0 |  0.00
Comm    | 0.032394   | 0.34106    | 1.0321     |  48.9 | 16.29
Output  | 0          | 0          | 0          |   0.0 |  0.00
Modify  | 2.1473e-05 | 0.0029752  | 0.0063361  |   2.6 |  0.14
Other   |            | 0.2381     |            |       | 11.37

Nlocal:        2776.45 ave        3960 max           0 min
Histogram: 8 4 4 0 4 12 8 4 26 34
Nghost:        3879.11 ave        5429 max         232 min
Histogram: 8 0 8 0 16 0 8 8 16 40
Neighs:        79213.4 ave      115422 max           0 min
Histogram: 8 4 4 0 10 6 8 8 24 32

Total # of neighbors = 8238197
Ave neighs/atom = 28.530454
Neighbor list builds = 0
Dangerous builds = 0
The dot product: -1.09765227871157e-08
Setting atom values ...
  1 settings made for x
  1 settings made for y
  1 settings made for z
Setting up cg style minimization ...
  Unit style    : metal
  Current step  : 6857
Per MPI rank memory allocation (min/avg/max) = 5.441 | 5.816 | 6.074 Mbytes
Step PotEng KinEng TotEng v_fx v_fy v_fz 
    6857   -1152449.3            0   -1152449.3 -0.0012596221 -0.058228295  0.030918417 
    7000   -1152449.3            0   -1152449.3 -1.6763391e-05 1.2163813e-05 -5.8550014e-05 
    7043   -1152449.3            0   -1152449.3 5.5803996e-06 1.0180953e-05 1.0993008e-05 
Loop time of 2.17362 on 104 procs for 186 steps with 288751 atoms

99.9% CPU use with 104 MPI tasks x 1 OpenMP threads

Minimization stats:
  Stopping criterion = energy tolerance
  Energy initial, next-to-last, final = 
     -1152449.33685057   -1152449.3380667   -1152449.3380667
  Force two-norm initial, final = 0.15886881 9.3976239e-05
  Force max component initial, final = 0.058228295 1.3917042e-05
  Final line search alpha, max atom move = 1.0000000 1.3917042e-05
  Iterations, force evaluations = 186 372

MPI task timing breakdown:
Section |  min time  |  avg time  |  max time  |%varavg| %total
---------------------------------------------------------------
Pair    | 0.55863    | 1.5681     | 2.0486     |  33.9 | 72.14
Neigh   | 0          | 0          | 0          |   0.0 |  0.00
Comm    | 0.031629   | 0.35558    | 1.0574     |  49.6 | 16.36
Output  | 0.00014719 | 0.00015621 | 0.00029727 |   0.0 |  0.01
Modify  | 2.0802e-05 | 0.0030727  | 0.0065958  |   2.6 |  0.14
Other   |            | 0.2467     |            |       | 11.35

Nlocal:        2776.45 ave        3960 max           0 min
Histogram: 8 4 4 0 4 12 8 4 26 34
Nghost:        3879.12 ave        5429 max         232 min
Histogram: 8 0 8 0 16 0 8 8 16 40
Neighs:        79213.4 ave      115422 max           0 min
Histogram: 8 4 4 0 10 6 8 8 24 32

Total # of neighbors = 8238197
Ave neighs/atom = 28.530454
Neighbor list builds = 0
Dangerous builds = 0
The dot product: -1.57442126268357e-08
Setting atom values ...
  1 settings made for x
  1 settings made for y
  1 settings made for z
Setting up cg style minimization ...
  Unit style    : metal
  Current step  : 7043
Per MPI rank memory allocation (min/avg/max) = 5.441 | 5.816 | 6.074 Mbytes
Step PotEng KinEng TotEng v_fx v_fy v_fz 
    7043   -1152449.3            0   -1152449.3 -0.0012955006 -0.058777006  0.030129348 
    7232   -1152449.3            0   -1152449.3 -4.6793167e-06 6.0381282e-06  -1.7717e-05 
[...]

Nlocal:        2776.45 ave        3960 max           0 min
Histogram: 8 4 4 0 4 12 8 2 28 34
Nghost:        3879.01 ave        5424 max         232 min
Histogram: 8 0 8 0 16 0 8 8 16 40
Neighs:        79213.5 ave      115434 max           0 min
Histogram: 8 4 4 0 10 6 8 8 24 32

Total # of neighbors = 8238202
Ave neighs/atom = 28.530471
Neighbor list builds = 0
Dangerous builds = 0
The dot product: 3.49173167841672e-08
Setting atom values ...
  1 settings made for x
  1 settings made for y
  1 settings made for z
Setting up cg style minimization ...
  Unit style    : metal
  Current step  : 2325
Per MPI rank memory allocation (min/avg/max) = 5.441 | 5.816 | 6.074 Mbytes
Step PotEng KinEng TotEng v_fx v_fy v_fz 
    2325   -1152449.3            0   -1152449.3 0.0045571421 0.0056048102 0.0036749575 
    2441   -1152449.4            0   -1152449.4 -6.7362746e-06 -5.15816e-06 -8.8373619e-06 
Loop time of 1.36549 on 104 procs for 116 steps with 288751 atoms

99.9% CPU use with 104 MPI tasks x 1 OpenMP threads

Minimization stats:
  Stopping criterion = energy tolerance
  Energy initial, next-to-last, final = 
     -1152449.34944758  -1152449.35066134  -1152449.35066134
  Force two-norm initial, final = 0.13671881 7.4789242e-05
  Force max component initial, final = 0.067895627 8.8373619e-06
  Final line search alpha, max atom move = 1.0000000 8.8373619e-06
  Iterations, force evaluations = 116 232

MPI task timing breakdown:
Section |  min time  |  avg time  |  max time  |%varavg| %total
---------------------------------------------------------------
Pair    | 0.34677    | 0.9778     | 1.2862     |  26.9 | 71.61
Neigh   | 0          | 0          | 0          |   0.0 |  0.00
Comm    | 0.02007    | 0.22463    | 0.66414    |  39.0 | 16.45
Output  | 0          | 0          | 0          |   0.0 |  0.00
Modify  | 1.3577e-05 | 0.0019191  | 0.00408    |   2.1 |  0.14
Other   |            | 0.1612     |            |       | 11.80

Nlocal:        2776.45 ave        3960 max           0 min
Histogram: 8 4 4 0 4 12 8 2 28 34
Nghost:        3879.01 ave        5424 max         232 min
Histogram: 8 0 8 0 16 0 8 8 16 40
Neighs:        79213.5 ave      115434 max           0 min
Histogram: 8 4 4 0 10 6 8 8 24 32

Total # of neighbors = 8238201
Ave neighs/atom = 28.530467
Neighbor list builds = 0
Dangerous builds = 0
The dot product: -5.127447986278e-08
Setting atom values ...
  1 settings made for x
  1 settings made for y
  1 settings made for z
Setting up cg style minimization ...
  Unit style    : metal
  Current step  : 2441
Per MPI rank memory allocation (min/avg/max) = 5.441 | 5.816 | 6.074 Mbytes
Step PotEng KinEng TotEng v_fx v_fy v_fz 
    2441   -1152449.3            0   -1152449.3 0.0073498814 0.0022966657  0.012641401 
    2676   -1152449.3            0   -1152449.3 1.0323791e-05 9.2711974e-06 1.1389966e-05 
Loop time of 2.73425 on 104 procs for 235 steps with 288751 atoms

99.9% CPU use with 104 MPI tasks x 1 OpenMP threads

Minimization stats:
  Stopping criterion = energy tolerance
  Energy initial, next-to-last, final = 
      -1152449.3400459  -1152449.34214473  -1152449.34214473
  Force two-norm initial, final = 0.14103814 5.4660746e-05
  Force max component initial, final = 0.066014458 1.5071204e-05
  Final line search alpha, max atom move = 1.0000000 1.5071204e-05
  Iterations, force evaluations = 235 470

MPI task timing breakdown:
Section |  min time  |  avg time  |  max time  |%varavg| %total
---------------------------------------------------------------
Pair    | 0.70651    | 1.972      | 2.5663     |  37.9 | 72.12
Neigh   | 0          | 0          | 0          |   0.0 |  0.00
Comm    | 0.043798   | 0.44529    | 1.3421     |  55.9 | 16.29
Output  | 0          | 0          | 0          |   0.0 |  0.00
Modify  | 2.6794e-05 | 0.0038841  | 0.008225   |   2.9 |  0.14
Other   |            | 0.3131     |            |       | 11.45

Nlocal:        2776.45 ave        3960 max           0 min
Histogram: 8 4 4 0 4 12 8 2 28 34
Nghost:        3879.01 ave        5424 max         232 min
Histogram: 8 0 8 0 16 0 8 8 16 40
Neighs:        79213.5 ave      115434 max           0 min
Histogram: 8 4 4 0 10 6 8 8 24 32

Total # of neighbors = 8238202
Ave neighs/atom = 28.530471
Neighbor list builds = 0
Dangerous builds = 0
The dot product: 1.96209991120042e-07
Setting atom values ...
  1 settings made for x
  1 settings made for y
  1 settings made for z
Setting up cg style minimization ...
  Unit style    : metal
  Current step  : 2676
Per MPI rank memory allocation (min/avg/max) = 5.441 | 5.816 | 6.074 Mbytes
Step PotEng KinEng TotEng v_fx v_fy v_fz 
    2676   -1152449.3            0   -1152449.3  0.012906463 -0.0011317018   0.02411546 
    2912   -1152449.3            0   -1152449.3 -1.9217849e-05 -1.5434994e-05 -2.0115352e-05 
Loop time of 2.76289 on 104 procs for 236 steps with 288751 atoms

99.9% CPU use with 104 MPI tasks x 1 OpenMP threads

Minimization stats:
  Stopping criterion = energy tolerance
  Energy initial, next-to-last, final = 
     -1152449.33582138  -1152449.34623613  -1152449.34623613
  Force two-norm initial, final = 0.15606879 0.00012335759
  Force max component initial, final = 0.058913966 2.6103543e-05
  Final line search alpha, max atom move = 1.0000000 2.6103543e-05
  Iterations, force evaluations = 236 472

MPI task timing breakdown:
Section |  min time  |  avg time  |  max time  |%varavg| %total
---------------------------------------------------------------
Pair    | 0.71191    | 1.9886     | 2.5824     |  37.9 | 71.98
Neigh   | 1.0271e-05 | 0.0029275  | 0.0042952  |   2.2 |  0.11
Comm    | 0.043572   | 0.45118    | 1.3541     |  56.2 | 16.33
Output  | 0          | 0          | 0          |   0.0 |  0.00
Modify  | 2.701e-05  | 0.003901   | 0.0083006  |   2.9 |  0.14
Other   |            | 0.3163     |            |       | 11.45

Nlocal:        2776.45 ave        3960 max           0 min
Histogram: 8 4 4 0 4 12 8 2 28 34
Nghost:        3879.05 ave        5424 max         232 min
Histogram: 8 0 8 0 16 0 8 8 16 40
Neighs:        79213.4 ave      115434 max           0 min
Histogram: 8 4 4 0 10 6 8 8 24 32

Total # of neighbors = 8238193
Ave neighs/atom = 28.530440
Neighbor list builds = 1
Dangerous builds = 0
The dot product: -5.1909140611135e-07
Setting atom values ...
  1 settings made for x
  1 settings made for y
  1 settings made for z
Setting up cg style minimization ...
  Unit style    : metal
  Current step  : 2912
Per MPI rank memory allocation (min/avg/max) = 5.441 | 5.816 | 6.074 Mbytes
Step PotEng KinEng TotEng v_fx v_fy v_fz 
    2912   -1152449.3            0   -1152449.3 -0.015299568  0.010019251 -0.030369849 
    3000   -1152449.3            0   -1152449.3 4.4738801e-05 -3.8571042e-06 6.9542151e-05 
    3045   -1152449.3            0   -1152449.3 2.5714646e-06 -1.5152495e-05 1.5303283e-05 
Loop time of 1.57255 on 104 procs for 133 steps with 288751 atoms

99.9% CPU use with 104 MPI tasks x 1 OpenMP threads

Minimization stats:
  Stopping criterion = energy tolerance
  Energy initial, next-to-last, final = 
     -1152449.34821489  -1152449.34915926  -1152449.34915926
  Force two-norm initial, final = 0.12869171 0.00013362652
  Force max component initial, final = 0.048211854 1.5474305e-05
  Final line search alpha, max atom move = 1.0000000 1.5474305e-05
  Iterations, force evaluations = 133 266

MPI task timing breakdown:
Section |  min time  |  avg time  |  max time  |%varavg| %total
---------------------------------------------------------------
Pair    | 0.39922    | 1.1181     | 1.456      |  28.6 | 71.10
Neigh   | 0          | 0          | 0          |   0.0 |  0.00
Comm    | 0.024925   | 0.25772    | 0.78487    |  41.5 | 16.39
Output  | 0.00014937 | 0.0001536  | 0.00034789 |   0.0 |  0.01
Modify  | 1.5624e-05 | 0.0022049  | 0.0046693  |   2.2 |  0.14
Other   |            | 0.1944     |            |       | 12.36

Nlocal:        2776.45 ave        3961 max           0 min
Histogram: 8 4 4 0 6 10 8 2 28 34
Nghost:        3879.07 ave        5425 max         232 min
Histogram: 8 0 8 0 16 0 8 8 16 40
Neighs:        79213.4 ave      115447 max           0 min
Histogram: 8 4 4 0 10 6 8 8 24 32

Total # of neighbors = 8238191
Ave neighs/atom = 28.530433
Neighbor list builds = 0
Dangerous builds = 0
The dot product: -5.03605034222772e-08
Setting atom values ...
  1 settings made for x
  1 settings made for y
  1 settings made for z
Setting up cg style minimization ...
  Unit style    : metal
  Current step  : 3045
Per MPI rank memory allocation (min/avg/max) = 5.441 | 5.816 | 6.074 Mbytes
Step PotEng KinEng TotEng v_fx v_fy v_fz 
    3045   -1152449.4            0   -1152449.4 -0.0097429538 0.0060288321 -0.019413914 
    3232   -1152449.4            0   -1152449.4 3.1877734e-06 9.5110235e-06 -2.5171988e-06 
Loop time of 2.16813 on 104 procs for 187 steps with 288751 atoms

99.9% CPU use with 104 MPI tasks x 1 OpenMP threads

Minimization stats:
  Stopping criterion = energy tolerance
  Energy initial, next-to-last, final = 
     -1152449.35009232  -1152449.35099617  -1152449.35099617
  Force two-norm initial, final = 0.12527884 9.8450304e-05
  Force max component initial, final = 0.04742066 2.1622798e-05
  Final line search alpha, max atom move = 1.0000000 2.1622798e-05
  Iterations, force evaluations = 187 374

MPI task timing breakdown:
Section |  min time  |  avg time  |  max time  |%varavg| %total
---------------------------------------------------------------
Pair    | 0.55854    | 1.5688     | 2.0434     |  33.9 | 72.36
Neigh   | 0          | 0          | 0          |   0.0 |  0.00
Comm    | 0.033066   | 0.3554     | 1.0665     |  49.8 | 16.39
Output  | 0          | 0          | 0          |   0.0 |  0.00
Modify  | 2.1417e-05 | 0.003091   | 0.0065864  |   2.6 |  0.14
Other   |            | 0.2408     |            |       | 11.11

Nlocal:        2776.45 ave        3961 max           0 min
Histogram: 8 4 4 0 6 10 8 2 28 34
Nghost:        3879.07 ave        5425 max         232 min
Histogram: 8 0 8 0 16 0 8 8 16 40
Neighs:        79213.4 ave      115447 max           0 min
Histogram: 8 4 4 0 10 6 8 8 24 32

Total # of neighbors = 8238192
Ave neighs/atom = 28.530436
Neighbor list builds = 0
Dangerous builds = 0
The dot product: 1.76702356717103e-09
Setting atom values ...
  1 settings made for x
  1 settings made for y
  1 settings made for z
Setting up cg style minimization ...
  Unit style    : metal
  Current step  : 3232
Per MPI rank memory allocation (min/avg/max) = 5.441 | 5.816 | 6.074 Mbytes
Step PotEng KinEng TotEng v_fx v_fy v_fz 
    3232   -1152449.4            0   -1152449.4 -0.0099315122 0.0065530273 -0.020139857 
    3430   -1152449.4            0   -1152449.4 -2.3459368e-05 -9.9775147e-06 -2.786528e-05 
Loop time of 2.30461 on 104 procs for 198 steps with 288751 atoms

99.9% CPU use with 104 MPI tasks x 1 OpenMP threads

Minimization stats:
  Stopping criterion = energy tolerance
  Energy initial, next-to-last, final = 
     -1152449.35067019  -1152449.35157059  -1152449.35157059
  Force two-norm initial, final = 0.12551191 8.6727802e-05
  Force max component initial, final = 0.046880401 2.7865280e-05
  Final line search alpha, max atom move = 1.0000000 2.7865280e-05
  Iterations, force evaluations = 198 396

MPI task timing breakdown:
Section |  min time  |  avg time  |  max time  |%varavg| %total
---------------------------------------------------------------
Pair    | 0.5989     | 1.6608     | 2.1674     |  34.7 | 72.06
Neigh   | 0          | 0          | 0          |   0.0 |  0.00
Comm    | 0.036456   | 0.37814    | 1.1247     |  50.9 | 16.41
Output  | 0          | 0          | 0          |   0.0 |  0.00
Modify  | 2.2506e-05 | 0.0032712  | 0.0069769  |   2.7 |  0.14
Other   |            | 0.2624     |            |       | 11.39

Nlocal:        2776.45 ave        3961 max           0 min
Histogram: 8 4 4 0 6 10 8 2 28 34
Nghost:        3879.09 ave        5424 max         232 min
Histogram: 8 0 8 0 16 0 8 8 16 40
Neighs:        79213.4 ave      115465 max           0 min
Histogram: 8 4 4 0 10 6 8 8 24 32

Total # of neighbors = 8238190
Ave neighs/atom = 28.530429
Neighbor list builds = 0
Dangerous builds = 0
The dot product: 1.27151630726762e-08
Setting atom values ...
  1 settings made for x
  1 settings made for y
  1 settings made for z
Setting up cg style minimization ...
  Unit style    : metal
  Current step  : 3430
Per MPI rank memory allocation (min/avg/max) = 5.441 | 5.816 | 6.074 Mbytes
Step PotEng KinEng TotEng v_fx v_fy v_fz 
    3430   -1152449.3            0   -1152449.3 -0.0091877697 0.0065378332  -0.01906156 
    3708   -1152449.4            0   -1152449.4 4.3141412e-08 -3.8103899e-07 3.6191835e-07 
Loop time of 3.27527 on 104 procs for 278 steps with 288751 atoms

99.9% CPU use with 104 MPI tasks x 1 OpenMP threads

Minimization stats:
  Stopping criterion = energy tolerance
  Energy initial, next-to-last, final = 
      -1152449.3499212  -1152449.35081255  -1152449.35081255
  Force two-norm initial, final = 0.12487511 1.9040635e-06
  Force max component initial, final = 0.046242464 4.3112255e-07
  Final line search alpha, max atom move = 1.0000000 4.3112255e-07
  Iterations, force evaluations = 278 556

MPI task timing breakdown:
Section |  min time  |  avg time  |  max time  |%varavg| %total
---------------------------------------------------------------
Pair    | 0.82982    | 2.3335     | 3.0696     |  41.4 | 71.24
Neigh   | 0          | 0          | 0          |   0.0 |  0.00
Comm    | 0.050301   | 0.53354    | 1.5985     |  60.4 | 16.29
Output  | 0          | 0          | 0          |   0.0 |  0.00
Modify  | 3.455e-05  | 0.004596   | 0.0097667  |   3.2 |  0.14
Other   |            | 0.4037     |            |       | 12.32

Nlocal:        2776.45 ave        3961 max           0 min
Histogram: 8 4 4 0 6 10 8 2 28 34
Nghost:        3879.01 ave        5424 max         232 min
Histogram: 8 0 8 0 16 0 8 8 16 40
Neighs:        79213.4 ave      115465 max           0 min
Histogram: 8 4 4 0 10 6 8 8 24 32

Total # of neighbors = 8238192
Ave neighs/atom = 28.530436
Neighbor list builds = 0
Dangerous builds = 0
The dot product: -2.93168646827382e-10
Setting atom values ...
  1 settings made for x
  1 settings made for y
  1 settings made for z
Setting up cg style minimization ...
  Unit style    : metal
  Current step  : 3708
Per MPI rank memory allocation (min/avg/max) = 5.441 | 5.816 | 6.074 Mbytes
Step PotEng KinEng TotEng v_fx v_fy v_fz 
    3708   -1152449.3            0   -1152449.3 -0.0082071825 0.0063536601 -0.017479709 
    3904   -1152449.3            0   -1152449.3 2.2343702e-05 8.1615727e-06 2.770474e-05 
Loop time of 2.30594 on 104 procs for 196 steps with 288751 atoms

99.9% CPU use with 104 MPI tasks x 1 OpenMP threads

Minimization stats:
  Stopping criterion = energy tolerance
  Energy initial, next-to-last, final = 
     -1152449.34782322  -1152449.34870151  -1152449.34870151
  Force two-norm initial, final = 0.12388207 9.1061458e-05
  Force max component initial, final = 0.045581908 2.7704740e-05
  Final line search alpha, max atom move = 1.0000000 2.7704740e-05
  Iterations, force evaluations = 196 392

MPI task timing breakdown:
Section |  min time  |  avg time  |  max time  |%varavg| %total
---------------------------------------------------------------
Pair    | 0.58873    | 1.6479     | 2.15       |  34.8 | 71.47
Neigh   | 0          | 0          | 0          |   0.0 |  0.00
Comm    | 0.036282   | 0.37657    | 1.1275     |  50.4 | 16.33
Output  | 0          | 0          | 0          |   0.0 |  0.00
Modify  | 2.2694e-05 | 0.0032364  | 0.0068818  |   2.7 |  0.14
Other   |            | 0.2782     |            |       | 12.06

Nlocal:        2776.45 ave        3960 max           0 min
Histogram: 8 4 4 0 4 12 8 2 28 34
Nghost:        3879.01 ave        5424 max         232 min
Histogram: 8 0 8 0 16 0 8 8 16 40
Neighs:        79213.4 ave      115434 max           0 min
Histogram: 8 4 4 0 10 6 8 8 24 32

Total # of neighbors = 8238191
Ave neighs/atom = 28.530433
Neighbor list builds = 0
Dangerous builds = 0
The dot product: -9.93986027489339e-09
Setting atom values ...
  1 settings made for x
  1 settings made for y
  1 settings made for z
Setting up cg style minimization ...
  Unit style    : metal
  Current step  : 3904
Per MPI rank memory allocation (min/avg/max) = 5.441 | 5.816 | 6.074 Mbytes
Step PotEng KinEng TotEng v_fx v_fy v_fz 
    3904   -1152449.3            0   -1152449.3 -0.0072601707  0.005897696 -0.015722035 
    4000   -1152449.3            0   -1152449.3 1.5325504e-05 6.2524788e-05 -2.5606041e-05 
    4158   -1152449.3            0   -1152449.3 9.9791775e-07 1.1257583e-06 6.4251086e-07 
Loop time of 2.98403 on 104 procs for 254 steps with 288751 atoms

99.9% CPU use with 104 MPI tasks x 1 OpenMP threads

Minimization stats:
  Stopping criterion = energy tolerance
  Energy initial, next-to-last, final = 
     -1152449.34436809  -1152449.34523221  -1152449.34523221
  Force two-norm initial, final = 0.12291065 6.7194454e-06
  Force max component initial, final = 0.044875678 1.1553894e-06
  Final line search alpha, max atom move = 1.0000000 1.1553894e-06
  Iterations, force evaluations = 254 508

MPI task timing breakdown:
Section |  min time  |  avg time  |  max time  |%varavg| %total
---------------------------------------------------------------
Pair    | 0.76033    | 2.1364     | 2.8084     |  39.6 | 71.59
Neigh   | 0          | 0          | 0          |   0.0 |  0.00
Comm    | 0.044253   | 0.48974    | 1.4501     |  57.7 | 16.41
Output  | 0.0001515  | 0.00015911 | 0.00031669 |   0.0 |  0.01
Modify  | 2.9034e-05 | 0.0041969  | 0.0089221  |   3.0 |  0.14
Other   |            | 0.3535     |            |       | 11.85

Nlocal:        2776.45 ave        3960 max           0 min
Histogram: 8 4 4 0 4 12 8 2 28 34
Nghost:        3879.01 ave        5424 max         232 min
Histogram: 8 0 8 0 16 0 8 8 16 40
Neighs:        79213.4 ave      115434 max           0 min
Histogram: 8 4 4 0 10 6 8 8 24 32

Total # of neighbors = 8238190
Ave neighs/atom = 28.530429
Neighbor list builds = 0
Dangerous builds = 0
The dot product: 9.8569394528258e-11
Setting up cg style minimization ...
  Unit style    : metal
  Current step  : 4158
Per MPI rank memory allocation (min/avg/max) = 5.441 | 5.816 | 6.074 Mbytes
Step PotEng KinEng TotEng v_fx v_fy v_fz 
    4158   -1152449.3            0   -1152449.3   0.15957207  -0.08186578  -0.10439674 
    4363   -1152449.4            0   -1152449.4 3.5014041e-05 2.6363026e-05 4.803946e-05 
Loop time of 2.38054 on 104 procs for 205 steps with 288751 atoms

99.9% CPU use with 104 MPI tasks x 1 OpenMP threads

Minimization stats:
  Stopping criterion = energy tolerance
  Energy initial, next-to-last, final = 
     -1152449.34523221   -1152449.3515733   -1152449.3515733
  Force two-norm initial, final = 0.20751851 0.0002191497
  Force max component initial, final = 0.15957207 4.8039460e-05
  Final line search alpha, max atom move = 1.0000000 4.8039460e-05
  Iterations, force evaluations = 205 410

MPI task timing breakdown:
Section |  min time  |  avg time  |  max time  |%varavg| %total
---------------------------------------------------------------
Pair    | 0.61475    | 1.7195     | 2.2381     |  35.4 | 72.23
Neigh   | 0          | 0          | 0          |   0.0 |  0.00
Comm    | 0.03546    | 0.38746    | 1.1664     |  52.2 | 16.28
Output  | 0          | 0          | 0          |   0.0 |  0.00
Modify  | 2.2428e-05 | 0.0022083  | 0.0056475  |   2.9 |  0.09
Other   |            | 0.2714     |            |       | 11.40

Nlocal:        2776.45 ave        3960 max           0 min
Histogram: 8 4 4 0 4 12 8 2 28 34
Nghost:        3879.01 ave        5424 max         232 min
Histogram: 8 0 8 0 16 0 8 8 16 40
Neighs:        79213.4 ave      115434 max           0 min
Histogram: 8 4 4 0 10 6 8 8 24 32

Total # of neighbors = 8238190
Ave neighs/atom = 28.530429
Neighbor list builds = 0
Dangerous builds = 0
