LAMMPS (29 Oct 2020)
OMP_NUM_THREADS environment is not set. Defaulting to 1 thread. (../comm.cpp:94)
  using 1 OpenMP thread(s) per MPI task
OMP_NUM_THREADS environment is not set. Defaulting to 1 thread. (../comm.cpp:94)
  using 1 OpenMP thread(s) per MPI task
Reading data file ...
  orthogonal box = (-122.39241 -121.13707 -37.090501) to (122.39241 121.13707 37.090501)
  13 by 4 by 2 MPI processor grid
  reading atoms ...
  288751 atoms
  read_data CPU = 0.370 seconds
199981 atoms in group inner
88770 atoms in group outer
1 atoms in group carbon
Neighbor list info ...
  update every 1 steps, delay 0 steps, check yes
  max neighbors/atom: 2000, page size: 100000
  master list distance cutoff = 5.6
  ghost atom cutoff = 5.6
  binsize = 2.8, bins = 88 87 27
  1 neighbor lists, perpetual/occasional/extra = 1 0 0
  (1) pair eam/alloy, perpetual
      attributes: half, newton on
      pair build: half/bin/atomonly/newton
      stencil: half/bin/3d/newton
      bin: standard
Setting up cg style minimization ...
  Unit style    : metal
  Current step  : 0
Per MPI rank memory allocation (min/avg/max) = 5.441 | 5.816 | 6.074 Mbytes
Step v_fx v_fy v_fz PotEng KinEng TotEng 
       0    26.079927    15.488492   -51.291662     -1152433            0     -1152433 
     165 4.2764465e-06 4.8595621e-06 3.8768621e-05   -1152449.5            0   -1152449.5 
Loop time of 1.95986 on 104 procs for 165 steps with 288751 atoms

99.8% CPU use with 104 MPI tasks x 1 OpenMP threads

Minimization stats:
  Stopping criterion = energy tolerance
  Energy initial, next-to-last, final = 
     -1152433.02435208   -1152449.4503526   -1152449.4503526
  Force two-norm initial, final = 89.185137 0.00013406213
  Force max component initial, final = 58.401916 3.8768621e-05
  Final line search alpha, max atom move = 1.0000000 3.8768621e-05
  Iterations, force evaluations = 165 321

MPI task timing breakdown:
Section |  min time  |  avg time  |  max time  |%varavg| %total
---------------------------------------------------------------
Pair    | 0.50619    | 1.3633     | 1.7809     |  31.1 | 69.56
Neigh   | 5.1664e-05 | 0.014618   | 0.021245   |   5.0 |  0.75
Comm    | 0.033291   | 0.3186     | 0.9318     |  44.5 | 16.26
Output  | 0          | 0          | 0          |   0.0 |  0.00
Modify  | 1.9017e-05 | 0.0017392  | 0.0044808  |   2.6 |  0.09
Other   |            | 0.2616     |            |       | 13.35

Nlocal:        2776.45 ave        3957 max           0 min
Histogram: 8 4 4 0 4 12 8 2 28 34
Nghost:        3879.03 ave        5424 max         232 min
Histogram: 8 0 8 0 16 0 8 8 16 40
Neighs:        79213.5 ave      115346 max           0 min
Histogram: 8 4 4 0 10 6 8 8 24 32

Total # of neighbors = 8238207
Ave neighs/atom = 28.530488
Neighbor list builds = 5
Dangerous builds = 0
Setting atom values ...
  1 settings made for x
  1 settings made for y
  1 settings made for z
Setting up cg style minimization ...
  Unit style    : metal
  Current step  : 165
Per MPI rank memory allocation (min/avg/max) = 5.441 | 5.816 | 6.074 Mbytes
Step PotEng KinEng TotEng v_fx v_fy v_fz 
     165   -1152449.4            0   -1152449.4 0.0074035419  -0.01505424 -0.024528859 
     298   -1152449.5            0   -1152449.5 -1.8733219e-05 4.0946197e-05 6.4507281e-05 
Loop time of 1.58342 on 104 procs for 133 steps with 288751 atoms

99.9% CPU use with 104 MPI tasks x 1 OpenMP threads

Minimization stats:
  Stopping criterion = energy tolerance
  Energy initial, next-to-last, final = 
     -1152449.44965306  -1152449.45007922  -1152449.45007922
  Force two-norm initial, final = 0.094056113 0.0002642105
  Force max component initial, final = 0.043957493 6.4507281e-05
  Final line search alpha, max atom move = 1.0000000 6.4507281e-05
  Iterations, force evaluations = 133 266

MPI task timing breakdown:
Section |  min time  |  avg time  |  max time  |%varavg| %total
---------------------------------------------------------------
Pair    | 0.39919    | 1.1282     | 1.4658     |  28.9 | 71.25
Neigh   | 0          | 0          | 0          |   0.0 |  0.00
Comm    | 0.031645   | 0.25863    | 0.77205    |  41.4 | 16.33
Output  | 0          | 0          | 0          |   0.0 |  0.00
Modify  | 1.6368e-05 | 0.0022098  | 0.0047147  |   2.2 |  0.14
Other   |            | 0.1944     |            |       | 12.28

Nlocal:        2776.45 ave        3956 max           0 min
Histogram: 8 4 4 0 4 12 8 0 30 34
Nghost:        3879.03 ave        5424 max         232 min
Histogram: 8 0 8 0 16 0 8 8 16 40
Neighs:        79213.4 ave      115324 max           0 min
Histogram: 8 4 4 0 10 6 8 8 24 32

Total # of neighbors = 8238197
Ave neighs/atom = 28.530454
Neighbor list builds = 0
Dangerous builds = 0
Setting atom values ...
  1 settings made for x
  1 settings made for y
  1 settings made for z
Setting up cg style minimization ...
  Unit style    : metal
  Current step  : 298
Per MPI rank memory allocation (min/avg/max) = 5.441 | 5.816 | 6.074 Mbytes
Step PotEng KinEng TotEng v_fx v_fy v_fz 
     298   -1152449.4            0   -1152449.4 0.0083619426 -0.016876474 -0.038757773 
     528   -1152449.4            0   -1152449.4 8.7330102e-07 2.280116e-06 1.1334028e-06 
Loop time of 2.72393 on 104 procs for 230 steps with 288751 atoms

99.9% CPU use with 104 MPI tasks x 1 OpenMP threads

Minimization stats:
  Stopping criterion = energy tolerance
  Energy initial, next-to-last, final = 
     -1152449.44696466  -1152449.44825609  -1152449.44825609
  Force two-norm initial, final = 0.16090381 2.2738293e-05
  Force max component initial, final = 0.087343844 3.9289790e-06
  Final line search alpha, max atom move = 1.0000000 3.9289790e-06
  Iterations, force evaluations = 230 460

MPI task timing breakdown:
Section |  min time  |  avg time  |  max time  |%varavg| %total
---------------------------------------------------------------
Pair    | 0.69456    | 1.9386     | 2.529      |  37.7 | 71.17
Neigh   | 0          | 0          | 0          |   0.0 |  0.00
Comm    | 0.046114   | 0.44413    | 1.3072     |  54.3 | 16.30
Output  | 0          | 0          | 0          |   0.0 |  0.00
Modify  | 3.0873e-05 | 0.0038097  | 0.0081178  |   2.9 |  0.14
Other   |            | 0.3374     |            |       | 12.39

Nlocal:        2776.45 ave        3956 max           0 min
Histogram: 8 4 4 0 4 12 8 0 30 34
Nghost:        3879.03 ave        5424 max         232 min
Histogram: 8 0 8 0 16 0 8 8 16 40
Neighs:        79213.4 ave      115324 max           0 min
Histogram: 8 4 4 0 10 6 8 8 24 32

Total # of neighbors = 8238196
Ave neighs/atom = 28.530450
Neighbor list builds = 0
Dangerous builds = 0
The dot product: -4.89722927148919e-09
Setting atom values ...
  1 settings made for x
  1 settings made for y
  1 settings made for z
Setting up cg style minimization ...
  Unit style    : metal
  Current step  : 528
Per MPI rank memory allocation (min/avg/max) = 5.441 | 5.816 | 6.074 Mbytes
Step PotEng KinEng TotEng v_fx v_fy v_fz 
     528   -1152449.4            0   -1152449.4 0.0058051442 -0.0095447801 -0.031156924 
     700   -1152449.4            0   -1152449.4 -2.8617432e-06 -1.1214633e-05 -1.1753292e-05 
Loop time of 2.04099 on 104 procs for 172 steps with 288751 atoms

99.9% CPU use with 104 MPI tasks x 1 OpenMP threads

Minimization stats:
  Stopping criterion = energy tolerance
  Energy initial, next-to-last, final = 
     -1152449.44358941  -1152449.44482315  -1152449.44482315
  Force two-norm initial, final = 0.15513771 0.0001352427
  Force max component initial, final = 0.092387341 1.9613000e-05
  Final line search alpha, max atom move = 1.0000000 1.9613000e-05
  Iterations, force evaluations = 172 344

MPI task timing breakdown:
Section |  min time  |  avg time  |  max time  |%varavg| %total
---------------------------------------------------------------
Pair    | 0.52157    | 1.4568     | 1.8979     |  32.7 | 71.38
Neigh   | 0          | 0          | 0          |   0.0 |  0.00
Comm    | 0.034943   | 0.33387    | 0.99754    |  47.7 | 16.36
Output  | 0          | 0          | 0          |   0.0 |  0.00
Modify  | 2.2398e-05 | 0.0028499  | 0.0061037  |   2.5 |  0.14
Other   |            | 0.2474     |            |       | 12.12

Nlocal:        2776.45 ave        3956 max           0 min
Histogram: 8 4 4 0 4 12 8 0 30 34
Nghost:        3879.03 ave        5424 max         232 min
Histogram: 8 0 8 0 16 0 8 8 16 40
Neighs:        79213.4 ave      115324 max           0 min
Histogram: 8 4 4 0 10 6 8 8 24 32

Total # of neighbors = 8238193
Ave neighs/atom = 28.530440
Neighbor list builds = 0
Dangerous builds = 0
The dot product: 3.06999729810846e-08
Setting atom values ...
  1 settings made for x
  1 settings made for y
  1 settings made for z
Setting up cg style minimization ...
  Unit style    : metal
  Current step  : 700
Per MPI rank memory allocation (min/avg/max) = 5.441 | 5.816 | 6.074 Mbytes
Step PotEng KinEng TotEng v_fx v_fy v_fz 
     700   -1152449.4            0   -1152449.4 0.0022614809 -0.0089548746 -0.024780432 
     818   -1152449.4            0   -1152449.4 1.4313384e-06 -2.1934413e-05 -4.8404362e-05 
Loop time of 1.384 on 104 procs for 118 steps with 288751 atoms

99.9% CPU use with 104 MPI tasks x 1 OpenMP threads

Minimization stats:
  Stopping criterion = energy tolerance
  Energy initial, next-to-last, final = 
     -1152449.43869603  -1152449.43988103  -1152449.43988103
  Force two-norm initial, final = 0.15164876 0.0001975368
  Force max component initial, final = 0.096052282 4.8404362e-05
  Final line search alpha, max atom move = 1.0000000 4.8404362e-05
  Iterations, force evaluations = 118 236

MPI task timing breakdown:
Section |  min time  |  avg time  |  max time  |%varavg| %total
---------------------------------------------------------------
Pair    | 0.35597    | 0.99337    | 1.2927     |  27.0 | 71.78
Neigh   | 0          | 0          | 0          |   0.0 |  0.00
Comm    | 0.021528   | 0.22486    | 0.66541    |  39.1 | 16.25
Output  | 0          | 0          | 0          |   0.0 |  0.00
Modify  | 1.472e-05  | 0.0019552  | 0.0041683  |   2.1 |  0.14
Other   |            | 0.1638     |            |       | 11.84

Nlocal:        2776.45 ave        3954 max           0 min
Histogram: 8 4 4 0 4 12 8 0 30 34
Nghost:        3879.03 ave        5424 max         232 min
Histogram: 8 0 8 0 16 0 8 8 16 40
Neighs:        79213.4 ave      115263 max           0 min
Histogram: 8 4 4 0 10 6 8 8 24 32

Total # of neighbors = 8238194
Ave neighs/atom = 28.530443
Neighbor list builds = 0
Dangerous builds = 0
The dot product: 1.03210347329908e-07
Setting atom values ...
  1 settings made for x
  1 settings made for y
  1 settings made for z
Setting up cg style minimization ...
  Unit style    : metal
  Current step  : 818
Per MPI rank memory allocation (min/avg/max) = 5.441 | 5.816 | 6.074 Mbytes
Step PotEng KinEng TotEng v_fx v_fy v_fz 
     818   -1152449.4            0   -1152449.4 -0.0029100943 -0.012802481 -0.019392234 
    1000   -1152449.4            0   -1152449.4 -4.8396345e-07 -1.9219006e-06 -2.7559429e-06 
    1037   -1152449.4            0   -1152449.4 1.9283146e-07 2.277517e-07 -1.1983852e-07 
Loop time of 2.5778 on 104 procs for 219 steps with 288751 atoms

99.9% CPU use with 104 MPI tasks x 1 OpenMP threads

Minimization stats:
  Stopping criterion = energy tolerance
  Energy initial, next-to-last, final = 
     -1152449.43236612  -1152449.43353257  -1152449.43353257
  Force two-norm initial, final = 0.1500898 2.0613478e-05
  Force max component initial, final = 0.09907291 3.0457810e-06
  Final line search alpha, max atom move = 1.0000000 3.0457810e-06
  Iterations, force evaluations = 219 438

MPI task timing breakdown:
Section |  min time  |  avg time  |  max time  |%varavg| %total
---------------------------------------------------------------
Pair    | 0.66076    | 1.8499     | 2.4005     |  36.9 | 71.76
Neigh   | 0          | 0          | 0          |   0.0 |  0.00
Comm    | 0.042615   | 0.41827    | 1.2479     |  53.6 | 16.23
Output  | 0.00028465 | 0.00028965 | 0.00044551 |   0.0 |  0.01
Modify  | 2.7368e-05 | 0.0036237  | 0.0077711  |   2.8 |  0.14
Other   |            | 0.3057     |            |       | 11.86

Nlocal:        2776.45 ave        3954 max           0 min
Histogram: 8 4 4 0 4 12 8 0 30 34
Nghost:        3879.03 ave        5424 max         232 min
Histogram: 8 0 8 0 16 0 8 8 16 40
Neighs:        79213.4 ave      115262 max           0 min
Histogram: 8 4 4 0 10 6 8 8 24 32

Total # of neighbors = 8238194
Ave neighs/atom = 28.530443
Neighbor list builds = 0
Dangerous builds = 0
The dot product: -6.1718144013545e-10
Setting atom values ...
  1 settings made for x
  1 settings made for y
  1 settings made for z
Setting up cg style minimization ...
  Unit style    : metal
  Current step  : 1037
Per MPI rank memory allocation (min/avg/max) = 5.441 | 5.816 | 6.074 Mbytes
Step PotEng KinEng TotEng v_fx v_fy v_fz 
    1037   -1152449.4            0   -1152449.4 -0.0078967544 -0.016454168 -0.014331782 
    1181   -1152449.4            0   -1152449.4 4.9940306e-06 3.747419e-06 -7.7736001e-06 
Loop time of 1.68993 on 104 procs for 144 steps with 288751 atoms

99.9% CPU use with 104 MPI tasks x 1 OpenMP threads

Minimization stats:
  Stopping criterion = energy tolerance
  Energy initial, next-to-last, final = 
     -1152449.42472407  -1152449.42589771  -1152449.42589771
  Force two-norm initial, final = 0.14948578 0.00010137385
  Force max component initial, final = 0.10166671 2.3663360e-05
  Final line search alpha, max atom move = 1.0000000 2.3663360e-05
  Iterations, force evaluations = 144 288

MPI task timing breakdown:
Section |  min time  |  avg time  |  max time  |%varavg| %total
---------------------------------------------------------------
Pair    | 0.43255    | 1.2096     | 1.5826     |  29.8 | 71.58
Neigh   | 0          | 0          | 0          |   0.0 |  0.00
Comm    | 0.02633    | 0.27624    | 0.82466    |  43.4 | 16.35
Output  | 0          | 0          | 0          |   0.0 |  0.00
Modify  | 1.7818e-05 | 0.0023852  | 0.0051022  |   2.3 |  0.14
Other   |            | 0.2017     |            |       | 11.94

Nlocal:        2776.45 ave        3953 max           0 min
Histogram: 8 4 4 0 4 12 8 0 30 34
Nghost:        3879.03 ave        5424 max         232 min
Histogram: 8 0 8 0 16 0 8 8 16 40
Neighs:        79213.4 ave      115238 max           0 min
Histogram: 8 4 4 0 10 6 8 8 24 32

Total # of neighbors = 8238194
Ave neighs/atom = 28.530443
Neighbor list builds = 0
Dangerous builds = 0
The dot product: -1.84302668702936e-08
Setting atom values ...
  1 settings made for x
  1 settings made for y
  1 settings made for z
Setting up cg style minimization ...
  Unit style    : metal
  Current step  : 1181
Per MPI rank memory allocation (min/avg/max) = 5.441 | 5.816 | 6.074 Mbytes
Step PotEng KinEng TotEng v_fx v_fy v_fz 
    1181   -1152449.4            0   -1152449.4 -0.010872117 -0.017258483 -0.010247522 
    1285   -1152449.4            0   -1152449.4 -7.045251e-06 -2.6627991e-05 -4.9941708e-05 
Loop time of 1.21245 on 104 procs for 104 steps with 288751 atoms

99.9% CPU use with 104 MPI tasks x 1 OpenMP threads

Minimization stats:
  Stopping criterion = energy tolerance
  Energy initial, next-to-last, final = 
     -1152449.41580274  -1152449.41698655  -1152449.41698655
  Force two-norm initial, final = 0.14932371 0.00027301548
  Force max component initial, final = 0.1038511 4.9941708e-05
  Final line search alpha, max atom move = 1.0000000 4.9941708e-05
  Iterations, force evaluations = 104 208

MPI task timing breakdown:
Section |  min time  |  avg time  |  max time  |%varavg| %total
---------------------------------------------------------------
Pair    | 0.31459    | 0.8791     | 1.1406     |  25.3 | 72.51
Neigh   | 0          | 0          | 0          |   0.0 |  0.00
Comm    | 0.020059   | 0.19706    | 0.59234    |  37.3 | 16.25
Output  | 0          | 0          | 0          |   0.0 |  0.00
Modify  | 1.2939e-05 | 0.0017259  | 0.0036605  |   1.9 |  0.14
Other   |            | 0.1346     |            |       | 11.10

Nlocal:        2776.45 ave        3953 max           0 min
Histogram: 8 4 4 0 4 12 8 0 30 34
Nghost:        3879.01 ave        5424 max         232 min
Histogram: 8 0 8 0 16 0 8 8 16 40
Neighs:        79213.4 ave      115238 max           0 min
Histogram: 8 4 4 0 10 6 8 8 24 32

Total # of neighbors = 8238193
Ave neighs/atom = 28.530440
Neighbor list builds = 0
Dangerous builds = 0
The dot product: 1.91605411762041e-07
Setting atom values ...
  1 settings made for x
  1 settings made for y
  1 settings made for z
Setting up cg style minimization ...
  Unit style    : metal
  Current step  : 1285
Per MPI rank memory allocation (min/avg/max) = 5.441 | 5.816 | 6.074 Mbytes
Step PotEng KinEng TotEng v_fx v_fy v_fz 
    1285   -1152449.4            0   -1152449.4 -0.011649535 -0.015619637 -0.0070398314 
    1457   -1152449.4            0   -1152449.4 -2.0580671e-05 -2.6434452e-05 -8.8848319e-06 
Loop time of 2.01824 on 104 procs for 172 steps with 288751 atoms

99.9% CPU use with 104 MPI tasks x 1 OpenMP threads

Minimization stats:
  Stopping criterion = energy tolerance
  Energy initial, next-to-last, final = 
       -1152449.405589  -1152449.40677503  -1152449.40677503
  Force two-norm initial, final = 0.14943639 0.00014020417
  Force max component initial, final = 0.10561712 3.0911253e-05
  Final line search alpha, max atom move = 1.0000000 3.0911253e-05
  Iterations, force evaluations = 172 344

MPI task timing breakdown:
Section |  min time  |  avg time  |  max time  |%varavg| %total
---------------------------------------------------------------
Pair    | 0.51478    | 1.4457     | 1.8905     |  32.6 | 71.63
Neigh   | 0          | 0          | 0          |   0.0 |  0.00
Comm    | 0.029609   | 0.32976    | 0.98369    |  47.3 | 16.34
Output  | 0          | 0          | 0          |   0.0 |  0.00
Modify  | 2.1341e-05 | 0.0028473  | 0.0061379  |   2.5 |  0.14
Other   |            | 0.2399     |            |       | 11.89

Nlocal:        2776.45 ave        3951 max           0 min
Histogram: 8 4 4 0 4 12 8 0 30 34
Nghost:        3879.01 ave        5424 max         232 min
Histogram: 8 0 8 0 16 0 8 8 16 40
Neighs:        79213.4 ave      115191 max           0 min
Histogram: 8 4 4 0 10 6 8 8 24 32

Total # of neighbors = 8238195
Ave neighs/atom = 28.530447
Neighbor list builds = 0
Dangerous builds = 0
The dot product: 2.07642307813991e-07
Setting atom values ...
  1 settings made for x
  1 settings made for y
  1 settings made for z
Setting up cg style minimization ...
  Unit style    : metal
  Current step  : 1457
Per MPI rank memory allocation (min/avg/max) = 5.441 | 5.816 | 6.074 Mbytes
Step PotEng KinEng TotEng v_fx v_fy v_fz 
    1457   -1152449.4            0   -1152449.4 -0.010523188 -0.012442244 -0.0044280799 
    1614   -1152449.4            0   -1152449.4 -3.7340923e-06 9.1244091e-06 4.2926977e-05 
Loop time of 1.84898 on 104 procs for 157 steps with 288751 atoms

99.9% CPU use with 104 MPI tasks x 1 OpenMP threads

Minimization stats:
  Stopping criterion = energy tolerance
  Energy initial, next-to-last, final = 
     -1152449.39404983  -1152449.39522771  -1152449.39522771
  Force two-norm initial, final = 0.14971544 0.00014110275
  Force max component initial, final = 0.10709496 4.2926977e-05
  Final line search alpha, max atom move = 1.0000000 4.2926977e-05
  Iterations, force evaluations = 157 314

MPI task timing breakdown:
Section |  min time  |  avg time  |  max time  |%varavg| %total
---------------------------------------------------------------
Pair    | 0.47201    | 1.3276     | 1.7249     |  31.2 | 71.80
Neigh   | 0          | 0          | 0          |   0.0 |  0.00
Comm    | 0.02736    | 0.30158    | 0.90516    |  46.0 | 16.31
Output  | 0          | 0          | 0          |   0.0 |  0.00
Modify  | 1.9516e-05 | 0.0025984  | 0.0055594  |   2.4 |  0.14
Other   |            | 0.2172     |            |       | 11.75

Nlocal:        2776.45 ave        3950 max           0 min
Histogram: 8 4 4 0 4 12 8 0 28 36
Nghost:        3879.01 ave        5424 max         232 min
Histogram: 8 0 8 0 16 0 8 8 16 40
Neighs:        79213.4 ave      115149 max           0 min
Histogram: 8 4 4 0 10 6 8 8 24 32

Total # of neighbors = 8238196
Ave neighs/atom = 28.530450
Neighbor list builds = 0
Dangerous builds = 0
The dot product: -5.61150098230597e-08
Setting atom values ...
  1 settings made for x
  1 settings made for y
  1 settings made for z
Setting up cg style minimization ...
  Unit style    : metal
  Current step  : 1614
Per MPI rank memory allocation (min/avg/max) = 5.441 | 5.816 | 6.074 Mbytes
Step PotEng KinEng TotEng v_fx v_fy v_fz 
    1614   -1152449.4            0   -1152449.4 -0.0079510874 -0.0085946453 -0.0026341244 
    1753   -1152449.4            0   -1152449.4 7.7589161e-06 1.8118463e-05 3.6431597e-05 
Loop time of 1.61983 on 104 procs for 139 steps with 288751 atoms

99.9% CPU use with 104 MPI tasks x 1 OpenMP threads

Minimization stats:
  Stopping criterion = energy tolerance
  Energy initial, next-to-last, final = 
     -1152449.38114695  -1152449.38231373  -1152449.38231373
  Force two-norm initial, final = 0.15019142 0.00014212452
  Force max component initial, final = 0.10842905 3.6431597e-05
  Final line search alpha, max atom move = 1.0000000 3.6431597e-05
  Iterations, force evaluations = 139 278

MPI task timing breakdown:
Section |  min time  |  avg time  |  max time  |%varavg| %total
---------------------------------------------------------------
Pair    | 0.41769    | 1.1718     | 1.5251     |  29.4 | 72.34
Neigh   | 0          | 0          | 0          |   0.0 |  0.00
Comm    | 0.026891   | 0.26494    | 0.7905     |  43.1 | 16.36
Output  | 0          | 0          | 0          |   0.0 |  0.00
Modify  | 1.7123e-05 | 0.0023014  | 0.004912   |   2.3 |  0.14
Other   |            | 0.1808     |            |       | 11.16

Nlocal:        2776.45 ave        3945 max           0 min
Histogram: 8 4 4 0 4 12 8 0 28 36
Nghost:        3879.01 ave        5424 max         232 min
Histogram: 8 0 8 0 16 0 8 8 16 40
Neighs:        79213.4 ave      114959 max           0 min
Histogram: 8 4 4 0 10 6 8 8 24 32

Total # of neighbors = 8238193
Ave neighs/atom = 28.530440
Neighbor list builds = 0
Dangerous builds = 0
The dot product: -1.18414906614751e-07
Setting atom values ...
  1 settings made for x
  1 settings made for y
  1 settings made for z
Setting up cg style minimization ...
  Unit style    : metal
  Current step  : 1753
Per MPI rank memory allocation (min/avg/max) = 5.441 | 5.816 | 6.074 Mbytes
Step PotEng KinEng TotEng v_fx v_fy v_fz 
    1753   -1152449.4            0   -1152449.4 -0.0045015586 -0.0046128687 -0.001455784 
    1880   -1152449.4            0   -1152449.4 7.9743906e-06 1.3123438e-05 2.0630513e-05 
Loop time of 1.4963 on 104 procs for 127 steps with 288751 atoms

99.9% CPU use with 104 MPI tasks x 1 OpenMP threads

Minimization stats:
  Stopping criterion = energy tolerance
  Energy initial, next-to-last, final = 
     -1152449.36685657   -1152449.3680135   -1152449.3680135
  Force two-norm initial, final = 0.15091189 0.00017357742
  Force max component initial, final = 0.10982728 2.0630513e-05
  Final line search alpha, max atom move = 1.0000000 2.0630513e-05
  Iterations, force evaluations = 127 254

MPI task timing breakdown:
Section |  min time  |  avg time  |  max time  |%varavg| %total
---------------------------------------------------------------
Pair    | 0.38125    | 1.0738     | 1.4        |  28.1 | 71.76
Neigh   | 0          | 0          | 0          |   0.0 |  0.00
Comm    | 0.026294   | 0.24511    | 0.73297    |  40.6 | 16.38
Output  | 0          | 0          | 0          |   0.0 |  0.00
Modify  | 1.5699e-05 | 0.002108   | 0.0044652  |   2.2 |  0.14
Other   |            | 0.1753     |            |       | 11.72

Nlocal:        2776.45 ave        3943 max           0 min
Histogram: 8 4 4 0 4 12 8 0 28 36
Nghost:        3879.01 ave        5424 max         232 min
Histogram: 8 0 8 0 16 0 8 8 16 40
Neighs:        79213.4 ave      114887 max           0 min
Histogram: 8 4 4 0 10 6 8 8 22 34

Total # of neighbors = 8238192
Ave neighs/atom = 28.530436
Neighbor list builds = 0
Dangerous builds = 0
The dot product: -7.44782504681883e-08
Setting atom values ...
  1 settings made for x
  1 settings made for y
  1 settings made for z
Setting up cg style minimization ...
  Unit style    : metal
  Current step  : 1880
Per MPI rank memory allocation (min/avg/max) = 5.441 | 5.816 | 6.074 Mbytes
Step PotEng KinEng TotEng v_fx v_fy v_fz 
    1880   -1152449.4            0   -1152449.4 -0.00067204361 -0.00078056592 -0.00065971395 
    2000   -1152449.4            0   -1152449.4 3.6480677e-05 2.6186274e-05 -2.551432e-05 
    2052   -1152449.4            0   -1152449.4 -1.9772077e-05 -2.3515095e-05 -2.1494026e-05 
Loop time of 2.00699 on 104 procs for 172 steps with 288751 atoms

99.9% CPU use with 104 MPI tasks x 1 OpenMP threads

Minimization stats:
  Stopping criterion = energy tolerance
  Energy initial, next-to-last, final = 
     -1152449.35116407  -1152449.35230923  -1152449.35230923
  Force two-norm initial, final = 0.15187137 0.00013870985
  Force max component initial, final = 0.11134996 2.3515095e-05
  Final line search alpha, max atom move = 1.0000000 2.3515095e-05
  Iterations, force evaluations = 172 344

MPI task timing breakdown:
Section |  min time  |  avg time  |  max time  |%varavg| %total
---------------------------------------------------------------
Pair    | 0.51616    | 1.4441     | 1.8789     |  32.6 | 71.95
Neigh   | 0          | 0          | 0          |   0.0 |  0.00
Comm    | 0.031383   | 0.32634    | 0.97158    |  47.7 | 16.26
Output  | 0.0002837  | 0.00029456 | 0.00043277 |   0.0 |  0.01
Modify  | 2.116e-05  | 0.0028442  | 0.0060752  |   2.5 |  0.14
Other   |            | 0.2334     |            |       | 11.63

Nlocal:        2776.45 ave        3940 max           0 min
Histogram: 8 4 4 0 4 12 8 0 28 36
Nghost:        3879.03 ave        5424 max         232 min
Histogram: 8 0 8 0 16 0 8 8 16 40
Neighs:        79213.4 ave      114790 max           0 min
Histogram: 8 4 4 0 10 6 8 8 22 34

Total # of neighbors = 8238192
Ave neighs/atom = 28.530436
Neighbor list builds = 0
Dangerous builds = 0
The dot product: 9.84485230500149e-08
Setting atom values ...
  1 settings made for x
  1 settings made for y
  1 settings made for z
Setting up cg style minimization ...
  Unit style    : metal
  Current step  : 2052
Per MPI rank memory allocation (min/avg/max) = 5.441 | 5.816 | 6.074 Mbytes
Step PotEng KinEng TotEng v_fx v_fy v_fz 
    2052   -1152449.3            0   -1152449.3 0.0030279616 0.0027247317 0.00021493745 
    2188   -1152449.3            0   -1152449.3 -1.3155274e-05 -1.8766103e-05 -2.7978507e-05 
Loop time of 1.58002 on 104 procs for 136 steps with 288751 atoms

99.9% CPU use with 104 MPI tasks x 1 OpenMP threads

Minimization stats:
  Stopping criterion = energy tolerance
  Energy initial, next-to-last, final = 
     -1152449.33404541  -1152449.33518168  -1152449.33518168
  Force two-norm initial, final = 0.15307358 0.00012354614
  Force max component initial, final = 0.11306893 2.7978507e-05
  Final line search alpha, max atom move = 1.0000000 2.7978507e-05
  Iterations, force evaluations = 136 272

MPI task timing breakdown:
Section |  min time  |  avg time  |  max time  |%varavg| %total
---------------------------------------------------------------
Pair    | 0.40929    | 1.1472     | 1.486      |  29.0 | 72.61
Neigh   | 0          | 0          | 0          |   0.0 |  0.00
Comm    | 0.024057   | 0.25832    | 0.77649    |  42.6 | 16.35
Output  | 0          | 0          | 0          |   0.0 |  0.00
Modify  | 1.6605e-05 | 0.0022505  | 0.0048183  |   2.2 |  0.14
Other   |            | 0.1722     |            |       | 10.90

Nlocal:        2776.45 ave        3938 max           0 min
Histogram: 8 4 4 0 4 12 8 0 28 36
Nghost:        3879.03 ave        5424 max         232 min
Histogram: 8 0 8 0 16 0 8 8 16 40
Neighs:        79213.4 ave      114718 max           0 min
Histogram: 8 4 4 0 9 7 8 8 22 34

Total # of neighbors = 8238191
Ave neighs/atom = 28.530433
Neighbor list builds = 0
Dangerous builds = 0
The dot product: 5.52044282785511e-08
Setting atom values ...
  1 settings made for x
  1 settings made for y
  1 settings made for z
Setting up cg style minimization ...
  Unit style    : metal
  Current step  : 2188
Per MPI rank memory allocation (min/avg/max) = 5.441 | 5.816 | 6.074 Mbytes
Step PotEng KinEng TotEng v_fx v_fy v_fz 
    2188   -1152449.3            0   -1152449.3 0.0065647702 0.0059563048 0.00094649181 
    2318   -1152449.3            0   -1152449.3 -1.2314959e-06 -6.9170632e-06 -2.332702e-05 
Loop time of 1.56086 on 104 procs for 130 steps with 288751 atoms

99.9% CPU use with 104 MPI tasks x 1 OpenMP threads

Minimization stats:
  Stopping criterion = energy tolerance
  Energy initial, next-to-last, final = 
      -1152449.3154804  -1152449.31661591  -1152449.31661591
  Force two-norm initial, final = 0.15453981 0.00016622727
  Force max component initial, final = 0.11498097 2.3327020e-05
  Final line search alpha, max atom move = 1.0000000 2.3327020e-05
  Iterations, force evaluations = 130 260

MPI task timing breakdown:
Section |  min time  |  avg time  |  max time  |%varavg| %total
---------------------------------------------------------------
Pair    | 0.39199    | 1.0986     | 1.4263     |  28.1 | 70.39
Neigh   | 0          | 0          | 0          |   0.0 |  0.00
Comm    | 0.025766   | 0.25313    | 0.74442    |  40.9 | 16.22
Output  | 0          | 0          | 0          |   0.0 |  0.00
Modify  | 1.6055e-05 | 0.0021495  | 0.0046237  |   2.2 |  0.14
Other   |            | 0.207      |            |       | 13.26

Nlocal:        2776.45 ave        3932 max           0 min
Histogram: 8 4 4 0 4 12 8 0 26 38
Nghost:        3879.05 ave        5424 max         232 min
Histogram: 8 0 8 0 16 0 8 8 16 40
Neighs:        79213.4 ave      114522 max           0 min
Histogram: 8 4 4 0 8 8 8 8 20 36

Total # of neighbors = 8238191
Ave neighs/atom = 28.530433
Neighbor list builds = 0
Dangerous builds = 0
The dot product: 1.82422832976254e-08
Setting atom values ...
  1 settings made for x
  1 settings made for y
  1 settings made for z
Setting up cg style minimization ...
  Unit style    : metal
  Current step  : 2318
Per MPI rank memory allocation (min/avg/max) = 5.441 | 5.816 | 6.074 Mbytes
Step PotEng KinEng TotEng v_fx v_fy v_fz 
    2318   -1152449.3            0   -1152449.3 0.0099315952 0.0090338871 0.0016298802 
    2508   -1152449.3            0   -1152449.3 4.0215861e-06 1.203303e-06 -9.2877631e-06 
Loop time of 2.20612 on 104 procs for 190 steps with 288751 atoms

99.9% CPU use with 104 MPI tasks x 1 OpenMP threads

Minimization stats:
  Stopping criterion = energy tolerance
  Energy initial, next-to-last, final = 
     -1152449.29545885   -1152449.2966019   -1152449.2966019
  Force two-norm initial, final = 0.15631059 5.3389506e-05
  Force max component initial, final = 0.11708567 9.9880672e-06
  Final line search alpha, max atom move = 1.0000000 9.9880672e-06
  Iterations, force evaluations = 190 380

MPI task timing breakdown:
Section |  min time  |  avg time  |  max time  |%varavg| %total
---------------------------------------------------------------
Pair    | 0.56998    | 1.5998     | 2.0699     |  34.3 | 72.52
Neigh   | 0          | 0          | 0          |   0.0 |  0.00
Comm    | 0.035352   | 0.35891    | 1.0828     |  50.8 | 16.27
Output  | 0          | 0          | 0          |   0.0 |  0.00
Modify  | 2.3524e-05 | 0.0031378  | 0.0067205  |   2.6 |  0.14
Other   |            | 0.2442     |            |       | 11.07

Nlocal:        2776.45 ave        3930 max           0 min
Histogram: 8 4 4 0 4 12 8 0 26 38
Nghost:        3879.07 ave        5424 max         232 min
Histogram: 8 0 8 0 16 0 8 8 16 40
Neighs:        79213.4 ave      114474 max           0 min
Histogram: 8 4 4 0 8 8 8 8 20 36

Total # of neighbors = 8238191
Ave neighs/atom = 28.530433
Neighbor list builds = 0
Dangerous builds = 0
The dot product: 8.46947506089005e-09
Setting atom values ...
  1 settings made for x
  1 settings made for y
  1 settings made for z
Setting up cg style minimization ...
  Unit style    : metal
  Current step  : 2508
Per MPI rank memory allocation (min/avg/max) = 5.441 | 5.816 | 6.074 Mbytes
Step PotEng KinEng TotEng v_fx v_fy v_fz 
    2508   -1152449.3            0   -1152449.3  0.013157695  0.012056866   0.00226619 
    2630   -1152449.3            0   -1152449.3 7.7554857e-06 6.4056622e-07 -2.5084078e-05 
Loop time of 1.42362 on 104 procs for 122 steps with 288751 atoms

99.9% CPU use with 104 MPI tasks x 1 OpenMP threads

Minimization stats:
  Stopping criterion = energy tolerance
  Energy initial, next-to-last, final = 
     -1152449.27397473  -1152449.27513436  -1152449.27513436
  Force two-norm initial, final = 0.15844929 0.00016048746
  Force max component initial, final = 0.1193804 2.5084078e-05
  Final line search alpha, max atom move = 1.0000000 2.5084078e-05
  Iterations, force evaluations = 122 244

MPI task timing breakdown:
Section |  min time  |  avg time  |  max time  |%varavg| %total
---------------------------------------------------------------
Pair    | 0.36633    | 1.0246     | 1.3355     |  27.4 | 71.97
Neigh   | 0          | 0          | 0          |   0.0 |  0.00
Comm    | 0.022523   | 0.23308    | 0.69812    |  40.1 | 16.37
Output  | 0          | 0          | 0          |   0.0 |  0.00
Modify  | 1.5256e-05 | 0.0020217  | 0.0043295  |   2.1 |  0.14
Other   |            | 0.1639     |            |       | 11.52

Nlocal:        2776.45 ave        3930 max           0 min
Histogram: 8 4 4 0 4 12 8 0 26 38
Nghost:        3879.11 ave        5424 max         232 min
Histogram: 8 0 8 0 16 0 8 8 16 40
Neighs:        79213.3 ave      114478 max           0 min
Histogram: 8 4 4 0 8 8 8 8 20 36

Total # of neighbors = 8238188
Ave neighs/atom = 28.530422
Neighbor list builds = 0
Dangerous builds = 0
The dot product: 2.54106283872995e-08
Setting atom values ...
  1 settings made for x
  1 settings made for y
  1 settings made for z
Setting up cg style minimization ...
  Unit style    : metal
  Current step  : 2630
Per MPI rank memory allocation (min/avg/max) = 5.441 | 5.816 | 6.074 Mbytes
Step PotEng KinEng TotEng v_fx v_fy v_fz 
    2630   -1152449.3            0   -1152449.3  0.016278564  0.015003985 0.0024112248 
    2767   -1152449.3            0   -1152449.3 1.2980075e-06 1.1538956e-05 4.2604738e-05 
Loop time of 1.607 on 104 procs for 137 steps with 288751 atoms

99.9% CPU use with 104 MPI tasks x 1 OpenMP threads

Minimization stats:
  Stopping criterion = energy tolerance
  Energy initial, next-to-last, final = 
     -1152449.25102647  -1152449.25221329  -1152449.25221329
  Force two-norm initial, final = 0.1610066 0.00017167421
  Force max component initial, final = 0.12186091 4.2604738e-05
  Final line search alpha, max atom move = 1.0000000 4.2604738e-05
  Iterations, force evaluations = 137 274

MPI task timing breakdown:
Section |  min time  |  avg time  |  max time  |%varavg| %total
---------------------------------------------------------------
Pair    | 0.411      | 1.1595     | 1.4995     |  29.2 | 72.15
Neigh   | 0          | 0          | 0          |   0.0 |  0.00
Comm    | 0.024299   | 0.2625     | 0.78901    |  42.9 | 16.33
Output  | 0          | 0          | 0          |   0.0 |  0.00
Modify  | 1.6969e-05 | 0.0022668  | 0.0048385  |   2.2 |  0.14
Other   |            | 0.1827     |            |       | 11.37

Nlocal:        2776.45 ave        3930 max           0 min
Histogram: 8 4 4 0 4 12 8 0 26 38
Nghost:        3879.09 ave        5424 max         232 min
Histogram: 8 0 8 0 16 0 8 8 16 40
Neighs:        79213.3 ave      114477 max           0 min
Histogram: 8 4 4 0 8 8 8 8 20 36

Total # of neighbors = 8238188
Ave neighs/atom = 28.530422
Neighbor list builds = 0
Dangerous builds = 0
The dot product: 5.937227983306e-09
Setting atom values ...
  1 settings made for x
  1 settings made for y
  1 settings made for z
Setting up cg style minimization ...
  Unit style    : metal
  Current step  : 2767
Per MPI rank memory allocation (min/avg/max) = 5.441 | 5.816 | 6.074 Mbytes
Step PotEng KinEng TotEng v_fx v_fy v_fz 
    2767   -1152449.2            0   -1152449.2  0.019184392  0.017918401  0.002465513 
    3000   -1152449.2            0   -1152449.2 1.3249882e-06 1.3095036e-06 4.652767e-07 
    3102   -1152449.2            0   -1152449.2 5.9838036e-08 6.6192414e-08 4.9931475e-08 
Loop time of 3.90919 on 104 procs for 335 steps with 288751 atoms

99.9% CPU use with 104 MPI tasks x 1 OpenMP threads

Minimization stats:
  Stopping criterion = energy tolerance
  Energy initial, next-to-last, final = 
     -1152449.22661927  -1152449.22784343  -1152449.22784343
  Force two-norm initial, final = 0.16398467 3.5350562e-07
  Force max component initial, final = 0.12449664 7.3694591e-08
  Final line search alpha, max atom move = 1.0000000 7.3694591e-08
  Iterations, force evaluations = 335 670

MPI task timing breakdown:
Section |  min time  |  avg time  |  max time  |%varavg| %total
---------------------------------------------------------------
Pair    | 1.004      | 2.8139     | 3.6526     |  45.5 | 71.98
Neigh   | 0          | 0          | 0          |   0.0 |  0.00
Comm    | 0.061689   | 0.63899    | 1.8998     |  66.7 | 16.35
Output  | 0.00039919 | 0.00040498 | 0.00056014 |   0.0 |  0.01
Modify  | 4.1025e-05 | 0.0055366  | 0.01195    |   3.5 |  0.14
Other   |            | 0.4504     |            |       | 11.52

Nlocal:        2776.45 ave        3930 max           0 min
Histogram: 8 4 4 0 4 12 8 0 26 38
Nghost:        3879.09 ave        5424 max         232 min
Histogram: 8 0 8 0 16 0 8 8 16 40
Neighs:        79213.3 ave      114477 max           0 min
Histogram: 8 4 4 0 8 8 8 8 20 36

Total # of neighbors = 8238188
Ave neighs/atom = 28.530422
Neighbor list builds = 0
Dangerous builds = 0
The dot product: 3.49226762208974e-10
Setting atom values ...
  1 settings made for x
  1 settings made for y
  1 settings made for z
Setting up cg style minimization ...
  Unit style    : metal
  Current step  : 3102
Per MPI rank memory allocation (min/avg/max) = 5.441 | 5.816 | 6.074 Mbytes
Step PotEng KinEng TotEng v_fx v_fy v_fz 
    3102   -1152449.2            0   -1152449.2  0.021786548  0.020721467 0.0023344459 
    3220   -1152449.2            0   -1152449.2 9.7738864e-06 1.3242591e-05 1.7169815e-05 
Loop time of 1.38476 on 104 procs for 118 steps with 288751 atoms

99.9% CPU use with 104 MPI tasks x 1 OpenMP threads

Minimization stats:
  Stopping criterion = energy tolerance
  Energy initial, next-to-last, final = 
     -1152449.20076473  -1152449.20203607  -1152449.20203607
  Force two-norm initial, final = 0.16739582 0.00017682787
  Force max component initial, final = 0.12729776 2.1114889e-05
  Final line search alpha, max atom move = 1.0000000 2.1114889e-05
  Iterations, force evaluations = 118 236

MPI task timing breakdown:
Section |  min time  |  avg time  |  max time  |%varavg| %total
---------------------------------------------------------------
Pair    | 0.35732    | 0.99966    | 1.2963     |  26.9 | 72.19
Neigh   | 0          | 0          | 0          |   0.0 |  0.00
Comm    | 0.02413    | 0.22756    | 0.68505    |  40.0 | 16.43
Output  | 0          | 0          | 0          |   0.0 |  0.00
Modify  | 1.5156e-05 | 0.0019594  | 0.0041886  |   2.1 |  0.14
Other   |            | 0.1556     |            |       | 11.23

Nlocal:        2776.45 ave        3930 max           0 min
Histogram: 8 4 4 0 4 12 8 0 26 38
Nghost:        3879.09 ave        5424 max         232 min
Histogram: 8 0 8 0 16 0 8 8 16 40
Neighs:        79213.3 ave      114477 max           0 min
Histogram: 8 4 4 0 8 8 8 8 20 36

Total # of neighbors = 8238183
Ave neighs/atom = 28.530405
Neighbor list builds = 0
Dangerous builds = 0
The dot product: 7.57403815248326e-08
Setting atom values ...
  1 settings made for x
  1 settings made for y
  1 settings made for z
Setting up cg style minimization ...
  Unit style    : metal
  Current step  : 3220
Per MPI rank memory allocation (min/avg/max) = 5.441 | 5.816 | 6.074 Mbytes
Step PotEng KinEng TotEng v_fx v_fy v_fz 
    3220   -1152449.2            0   -1152449.2  0.025230387  0.024373857 0.0014343634 
    3419   -1152449.2            0   -1152449.2 4.8301969e-06 5.3462011e-06 3.0394424e-06 
Loop time of 2.33433 on 104 procs for 199 steps with 288751 atoms

99.9% CPU use with 104 MPI tasks x 1 OpenMP threads

Minimization stats:
  Stopping criterion = energy tolerance
  Energy initial, next-to-last, final = 
     -1152449.17348717  -1152449.17482884  -1152449.17482884
  Force two-norm initial, final = 0.17144132 4.4629258e-05
  Force max component initial, final = 0.13024671 9.7101191e-06
  Final line search alpha, max atom move = 1.0000000 9.7101191e-06
  Iterations, force evaluations = 199 398

MPI task timing breakdown:
Section |  min time  |  avg time  |  max time  |%varavg| %total
---------------------------------------------------------------
Pair    | 0.59947    | 1.6784     | 2.1819     |  35.1 | 71.90
Neigh   | 0          | 0          | 0          |   0.0 |  0.00
Comm    | 0.038107   | 0.38237    | 1.1356     |  51.2 | 16.38
Output  | 0          | 0          | 0          |   0.0 |  0.00
Modify  | 2.4346e-05 | 0.0032915  | 0.0070899  |   2.7 |  0.14
Other   |            | 0.2703     |            |       | 11.58

Nlocal:        2776.45 ave        3930 max           0 min
Histogram: 8 4 4 0 4 12 8 0 26 38
Nghost:        3879.09 ave        5424 max         232 min
Histogram: 8 0 8 0 16 0 8 8 16 40
Neighs:        79213.3 ave      114477 max           0 min
Histogram: 8 4 4 0 8 8 8 8 20 36

Total # of neighbors = 8238183
Ave neighs/atom = 28.530405
Neighbor list builds = 0
Dangerous builds = 0
The dot product: 4.80761125882982e-08
Setting atom values ...
  1 settings made for x
  1 settings made for y
  1 settings made for z
Setting up cg style minimization ...
  Unit style    : metal
  Current step  : 3419
Per MPI rank memory allocation (min/avg/max) = 5.441 | 5.816 | 6.074 Mbytes
Step PotEng KinEng TotEng v_fx v_fy v_fz 
    3419   -1152449.1            0   -1152449.1  0.030337311  0.029070293 -0.0035947765 
    3568   -1152449.1            0   -1152449.1 1.1981169e-05 1.3530234e-05 6.8720523e-06 
Loop time of 1.73388 on 104 procs for 149 steps with 288751 atoms

99.9% CPU use with 104 MPI tasks x 1 OpenMP threads

Minimization stats:
  Stopping criterion = energy tolerance
  Energy initial, next-to-last, final = 
      -1152449.1448253  -1152449.14628953  -1152449.14628953
  Force two-norm initial, final = 0.17601867 9.8962674e-05
  Force max component initial, final = 0.13340895 1.3530234e-05
  Final line search alpha, max atom move = 1.0000000 1.3530234e-05
  Iterations, force evaluations = 149 298

MPI task timing breakdown:
Section |  min time  |  avg time  |  max time  |%varavg| %total
---------------------------------------------------------------
Pair    | 0.44739    | 1.2544     | 1.625      |  30.2 | 72.34
Neigh   | 0          | 0          | 0          |   0.0 |  0.00
Comm    | 0.026977   | 0.28161    | 0.84527    |  44.4 | 16.24
Output  | 0          | 0          | 0          |   0.0 |  0.00
Modify  | 1.8165e-05 | 0.002466   | 0.0052619  |   2.3 |  0.14
Other   |            | 0.1954     |            |       | 11.27

Nlocal:        2776.45 ave        3930 max           0 min
Histogram: 8 4 4 0 4 12 8 0 26 38
Nghost:        3879.09 ave        5424 max         232 min
Histogram: 8 0 8 0 16 0 8 8 16 40
Neighs:        79213.3 ave      114468 max           0 min
Histogram: 8 4 4 0 8 8 8 8 20 36

Total # of neighbors = 8238185
Ave neighs/atom = 28.530412
Neighbor list builds = 0
Dangerous builds = 0
The dot product: 1.68216063843105e-07
Setting atom values ...
  1 settings made for x
  1 settings made for y
  1 settings made for z
Setting up cg style minimization ...
  Unit style    : metal
  Current step  : 3568
Per MPI rank memory allocation (min/avg/max) = 5.441 | 5.816 | 6.074 Mbytes
Step PotEng KinEng TotEng v_fx v_fy v_fz 
    3568   -1152449.1            0   -1152449.1  0.038998185  0.036292276 -0.017120496 
    3737   -1152449.1            0   -1152449.1 7.9414873e-07 -2.179453e-07 -4.248362e-06 
Loop time of 1.96456 on 104 procs for 169 steps with 288751 atoms

99.9% CPU use with 104 MPI tasks x 1 OpenMP threads

Minimization stats:
  Stopping criterion = energy tolerance
  Energy initial, next-to-last, final = 
     -1152449.11471657  -1152449.11645676  -1152449.11645676
  Force two-norm initial, final = 0.18325329 9.6223792e-05
  Force max component initial, final = 0.13704528 1.0926108e-05
  Final line search alpha, max atom move = 1.0000000 1.0926108e-05
  Iterations, force evaluations = 169 338

MPI task timing breakdown:
Section |  min time  |  avg time  |  max time  |%varavg| %total
---------------------------------------------------------------
Pair    | 0.50574    | 1.4184     | 1.8486     |  32.3 | 72.20
Neigh   | 0          | 0          | 0          |   0.0 |  0.00
Comm    | 0.029256   | 0.32256    | 0.96294    |  47.2 | 16.42
Output  | 0          | 0          | 0          |   0.0 |  0.00
Modify  | 2.0563e-05 | 0.0027985  | 0.0059988  |   2.5 |  0.14
Other   |            | 0.2208     |            |       | 11.24

Nlocal:        2776.45 ave        3930 max           0 min
Histogram: 8 4 4 0 4 12 8 0 26 38
Nghost:        3879.09 ave        5424 max         232 min
Histogram: 8 0 8 0 16 0 8 8 16 40
Neighs:        79213.3 ave      114466 max           0 min
Histogram: 8 4 4 0 8 8 8 8 20 36

Total # of neighbors = 8238183
Ave neighs/atom = 28.530405
Neighbor list builds = 0
Dangerous builds = 0
The dot product: 2.68604282891762e-08
Setting atom values ...
  1 settings made for x
  1 settings made for y
  1 settings made for z
Setting up cg style minimization ...
  Unit style    : metal
  Current step  : 3737
Per MPI rank memory allocation (min/avg/max) = 5.441 | 5.816 | 6.074 Mbytes
Step PotEng KinEng TotEng v_fx v_fy v_fz 
    3737   -1152449.1            0   -1152449.1  0.047941587  0.046372535 -0.029234699 
    3884   -1152449.1            0   -1152449.1 8.3346123e-06 1.0199201e-05 3.9362233e-06 
Loop time of 1.70394 on 104 procs for 147 steps with 288751 atoms

99.9% CPU use with 104 MPI tasks x 1 OpenMP threads

Minimization stats:
  Stopping criterion = energy tolerance
  Energy initial, next-to-last, final = 
     -1152449.08328149  -1152449.08534678  -1152449.08534678
  Force two-norm initial, final = 0.19293657 5.3117456e-05
  Force max component initial, final = 0.14125102 1.0199201e-05
  Final line search alpha, max atom move = 1.0000000 1.0199201e-05
  Iterations, force evaluations = 147 294

MPI task timing breakdown:
Section |  min time  |  avg time  |  max time  |%varavg| %total
---------------------------------------------------------------
Pair    | 0.44475    | 1.2414     | 1.602      |  30.1 | 72.85
Neigh   | 0          | 0          | 0          |   0.0 |  0.00
Comm    | 0.026474   | 0.27762    | 0.83804    |  44.5 | 16.29
Output  | 0          | 0          | 0          |   0.0 |  0.00
Modify  | 1.8164e-05 | 0.0024327  | 0.0051797  |   2.3 |  0.14
Other   |            | 0.1825     |            |       | 10.71

Nlocal:        2776.45 ave        3930 max           0 min
Histogram: 8 4 4 0 4 12 8 0 26 38
Nghost:        3879.09 ave        5424 max         232 min
Histogram: 8 0 8 0 16 0 8 8 16 40
Neighs:        79213.3 ave      114465 max           0 min
Histogram: 8 4 4 0 8 8 8 8 20 36

Total # of neighbors = 8238183
Ave neighs/atom = 28.530405
Neighbor list builds = 0
Dangerous builds = 0
The dot product: 2.03926443442215e-07
Setting atom values ...
  1 settings made for x
  1 settings made for y
  1 settings made for z
Setting up cg style minimization ...
  Unit style    : metal
  Current step  : 3884
Per MPI rank memory allocation (min/avg/max) = 5.441 | 5.816 | 6.074 Mbytes
Step PotEng KinEng TotEng v_fx v_fy v_fz 
    3884   -1152449.1            0   -1152449.1  0.053150336  0.055557314 -0.037868888 
    4000   -1152449.1            0   -1152449.1 -1.4751294e-05 -1.3332473e-05 1.9880982e-05 
    4007   -1152449.1            0   -1152449.1 -3.0127409e-05 -3.355289e-05 1.2210005e-05 
Loop time of 1.42696 on 104 procs for 123 steps with 288751 atoms

99.9% CPU use with 104 MPI tasks x 1 OpenMP threads

Minimization stats:
  Stopping criterion = energy tolerance
  Energy initial, next-to-last, final = 
     -1152449.05062698  -1152449.05296027  -1152449.05296027
  Force two-norm initial, final = 0.2016875 0.0002462004
  Force max component initial, final = 0.14557465 5.5093886e-05
  Final line search alpha, max atom move = 1.0000000 5.5093886e-05
  Iterations, force evaluations = 123 246

MPI task timing breakdown:
Section |  min time  |  avg time  |  max time  |%varavg| %total
---------------------------------------------------------------
Pair    | 0.36866    | 1.0328     | 1.3457     |  27.5 | 72.38
Neigh   | 0          | 0          | 0          |   0.0 |  0.00
Comm    | 0.020943   | 0.23292    | 0.70171    |  40.5 | 16.32
Output  | 0.00015955 | 0.00016189 | 0.00031763 |   0.0 |  0.01
Modify  | 1.5306e-05 | 0.0020398  | 0.0043774  |   2.1 |  0.14
Other   |            | 0.1591     |            |       | 11.15

Nlocal:        2776.45 ave        3930 max           0 min
Histogram: 8 4 4 0 4 12 8 0 26 38
Nghost:        3879.09 ave        5424 max         232 min
Histogram: 8 0 8 0 16 0 8 8 16 40
Neighs:        79213.3 ave      114465 max           0 min
Histogram: 8 4 4 0 8 8 8 8 20 36

Total # of neighbors = 8238182
Ave neighs/atom = 28.530402
Neighbor list builds = 0
Dangerous builds = 0
The dot product: -9.89640148338895e-07
Setting atom values ...
  1 settings made for x
  1 settings made for y
  1 settings made for z
Setting up cg style minimization ...
  Unit style    : metal
  Current step  : 4007
Per MPI rank memory allocation (min/avg/max) = 5.441 | 5.816 | 6.074 Mbytes
Step PotEng KinEng TotEng v_fx v_fy v_fz 
    4007     -1152449            0     -1152449  0.055083426  0.062038108 -0.050335335 
    4204     -1152449            0     -1152449 1.2195547e-05 1.5273351e-05 -3.5295184e-06 
Loop time of 2.28704 on 104 procs for 197 steps with 288751 atoms

99.9% CPU use with 104 MPI tasks x 1 OpenMP threads

Minimization stats:
  Stopping criterion = energy tolerance
  Energy initial, next-to-last, final = 
     -1152449.01681997  -1152449.01940538  -1152449.01940538
  Force two-norm initial, final = 0.20990147 8.4519493e-05
  Force max component initial, final = 0.14964733 1.5273351e-05
  Final line search alpha, max atom move = 1.0000000 1.5273351e-05
  Iterations, force evaluations = 197 394

MPI task timing breakdown:
Section |  min time  |  avg time  |  max time  |%varavg| %total
---------------------------------------------------------------
Pair    | 0.59354    | 1.6665     | 2.1479     |  34.9 | 72.87
Neigh   | 0          | 0          | 0          |   0.0 |  0.00
Comm    | 0.035447   | 0.37385    | 1.1368     |  52.1 | 16.35
Output  | 0          | 0          | 0          |   0.0 |  0.00
Modify  | 2.4187e-05 | 0.0032714  | 0.0070459  |   2.7 |  0.14
Other   |            | 0.2435     |            |       | 10.65

Nlocal:        2776.45 ave        3930 max           0 min
Histogram: 8 4 4 0 4 12 8 0 26 38
Nghost:        3879.09 ave        5425 max         232 min
Histogram: 8 0 8 0 16 0 8 8 16 40
Neighs:        79213.2 ave      114465 max           0 min
Histogram: 8 4 4 0 8 8 8 8 20 36

Total # of neighbors = 8238178
Ave neighs/atom = 28.530388
Neighbor list builds = 0
Dangerous builds = 0
The dot product: 4.37356479185367e-07
Setting atom values ...
  1 settings made for x
  1 settings made for y
  1 settings made for z
Setting up cg style minimization ...
  Unit style    : metal
  Current step  : 4204
Per MPI rank memory allocation (min/avg/max) = 5.441 | 5.816 | 6.074 Mbytes
Step PotEng KinEng TotEng v_fx v_fy v_fz 
    4204     -1152449            0     -1152449  0.053658369  0.065122247 -0.068683641 
    4415     -1152449            0     -1152449 4.6166935e-06 4.1247794e-06 -1.4737152e-05 
Loop time of 2.47973 on 104 procs for 211 steps with 288751 atoms

99.9% CPU use with 104 MPI tasks x 1 OpenMP threads

Minimization stats:
  Stopping criterion = energy tolerance
  Energy initial, next-to-last, final = 
     -1152448.98210843  -1152448.98489024  -1152448.98489024
  Force two-norm initial, final = 0.21847619 7.0107036e-05
  Force max component initial, final = 0.15355935 1.4737152e-05
  Final line search alpha, max atom move = 1.0000000 1.4737152e-05
  Iterations, force evaluations = 211 422

MPI task timing breakdown:
Section |  min time  |  avg time  |  max time  |%varavg| %total
---------------------------------------------------------------
Pair    | 0.63151    | 1.7724     | 2.2994     |  36.1 | 71.48
Neigh   | 0          | 0          | 0          |   0.0 |  0.00
Comm    | 0.040329   | 0.40063    | 1.1947     |  52.7 | 16.16
Output  | 0          | 0          | 0          |   0.0 |  0.00
Modify  | 2.6025e-05 | 0.0034814  | 0.0074062  |   2.8 |  0.14
Other   |            | 0.3032     |            |       | 12.23

Nlocal:        2776.45 ave        3930 max           0 min
Histogram: 8 4 4 0 4 12 8 0 26 38
Nghost:        3879.02 ave        5425 max         232 min
Histogram: 8 0 8 0 16 0 8 8 16 40
Neighs:        79213.2 ave      114462 max           0 min
Histogram: 8 4 4 0 8 8 8 8 20 36

Total # of neighbors = 8238178
Ave neighs/atom = 28.530388
Neighbor list builds = 0
Dangerous builds = 0
The dot product: 3.50519267647393e-07
Setting atom values ...
  1 settings made for x
  1 settings made for y
  1 settings made for z
Setting up cg style minimization ...
  Unit style    : metal
  Current step  : 4415
Per MPI rank memory allocation (min/avg/max) = 5.441 | 5.816 | 6.074 Mbytes
Step PotEng KinEng TotEng v_fx v_fy v_fz 
    4415   -1152448.9            0   -1152448.9  0.047437622  0.063617704 -0.081800569 
    4774     -1152449            0     -1152449 4.9753904e-07 1.3558588e-06 4.9094724e-06 
Loop time of 4.19692 on 104 procs for 359 steps with 288751 atoms

99.9% CPU use with 104 MPI tasks x 1 OpenMP threads

Minimization stats:
  Stopping criterion = energy tolerance
  Energy initial, next-to-last, final = 
     -1152448.94672502  -1152448.98109816  -1152448.98109816
  Force two-norm initial, final = 0.22438947 0.00012503141
  Force max component initial, final = 0.15706269 3.8759986e-05
  Final line search alpha, max atom move = 1.0000000 3.8759986e-05
  Iterations, force evaluations = 359 716

MPI task timing breakdown:
Section |  min time  |  avg time  |  max time  |%varavg| %total
---------------------------------------------------------------
Pair    | 1.0859     | 3.0215     | 3.9387     |  46.8 | 71.99
Neigh   | 2.1315e-05 | 0.0058553  | 0.0084577  |   3.2 |  0.14
Comm    | 0.062427   | 0.69026    | 2.0728     |  68.8 | 16.45
Output  | 0          | 0          | 0          |   0.0 |  0.00
Modify  | 4.3569e-05 | 0.0059209  | 0.012651   |   3.6 |  0.14
Other   |            | 0.4734     |            |       | 11.28

Nlocal:        2776.45 ave        3945 max           0 min
Histogram: 8 4 4 0 4 12 8 0 28 36
Nghost:        3879.03 ave        5426 max         232 min
Histogram: 8 0 8 0 16 0 8 8 16 40
Neighs:        79213.3 ave      114938 max           0 min
Histogram: 8 4 4 0 10 6 8 8 23 33

Total # of neighbors = 8238182
Ave neighs/atom = 28.530402
Neighbor list builds = 2
Dangerous builds = 0
The dot product: -2.78661271009396e-07
Setting atom values ...
  1 settings made for x
  1 settings made for y
  1 settings made for z
Setting up cg style minimization ...
  Unit style    : metal
  Current step  : 4774
Per MPI rank memory allocation (min/avg/max) = 5.441 | 5.816 | 6.074 Mbytes
Step PotEng KinEng TotEng v_fx v_fy v_fz 
    4774     -1152449            0     -1152449  0.021544163  0.051751712  -0.14003103 
    4955     -1152449            0     -1152449 2.3871778e-06 5.9666119e-06 -1.7701289e-05 
Loop time of 2.12651 on 104 procs for 181 steps with 288751 atoms

99.9% CPU use with 104 MPI tasks x 1 OpenMP threads

Minimization stats:
  Stopping criterion = energy tolerance
  Energy initial, next-to-last, final = 
     -1152448.95874643  -1152448.96262768  -1152448.96262768
  Force two-norm initial, final = 0.25579636 0.00019761698
  Force max component initial, final = 0.1644393 2.5090652e-05
  Final line search alpha, max atom move = 1.0000000 2.5090652e-05
  Iterations, force evaluations = 181 362

MPI task timing breakdown:
Section |  min time  |  avg time  |  max time  |%varavg| %total
---------------------------------------------------------------
Pair    | 0.5444     | 1.5277     | 1.9908     |  33.5 | 71.84
Neigh   | 0          | 0          | 0          |   0.0 |  0.00
Comm    | 0.031829   | 0.34932    | 1.0361     |  48.9 | 16.43
Output  | 0          | 0          | 0          |   0.0 |  0.00
Modify  | 2.2409e-05 | 0.0029936  | 0.0064406  |   2.6 |  0.14
Other   |            | 0.2465     |            |       | 11.59

Nlocal:        2776.45 ave        3941 max           0 min
Histogram: 8 4 4 0 4 12 8 0 28 36
Nghost:        3879.05 ave        5427 max         232 min
Histogram: 8 0 8 0 16 0 8 8 16 40
Neighs:        79213.3 ave      114819 max           0 min
Histogram: 8 4 4 0 10 6 8 8 22 34

Total # of neighbors = 8238183
Ave neighs/atom = 28.530405
Neighbor list builds = 0
Dangerous builds = 0
The dot product: 5.55285411558132e-07
Setting atom values ...
  1 settings made for x
  1 settings made for y
  1 settings made for z
Setting up cg style minimization ...
  Unit style    : metal
  Current step  : 4955
Per MPI rank memory allocation (min/avg/max) = 5.441 | 5.816 | 6.074 Mbytes
Step PotEng KinEng TotEng v_fx v_fy v_fz 
    4955   -1152448.9            0   -1152448.9 0.0059089961  0.025059207 -0.068563239 
    5000   -1152448.9            0   -1152448.9 -1.129847e-05 -2.4781892e-06 -8.3503194e-05 
    5114   -1152448.9            0   -1152448.9 -5.4560444e-07 -4.7144191e-06 1.7668872e-05 
Loop time of 1.84291 on 104 procs for 159 steps with 288751 atoms

99.9% CPU use with 104 MPI tasks x 1 OpenMP threads

Minimization stats:
  Stopping criterion = energy tolerance
  Energy initial, next-to-last, final = 
     -1152448.94018607   -1152448.9425501   -1152448.9425501
  Force two-norm initial, final = 0.22365579 0.00012668569
  Force max component initial, final = 0.16597149 1.7668872e-05
  Final line search alpha, max atom move = 1.0000000 1.7668872e-05
  Iterations, force evaluations = 159 318

MPI task timing breakdown:
Section |  min time  |  avg time  |  max time  |%varavg| %total
---------------------------------------------------------------
Pair    | 0.47696    | 1.3418     | 1.7378     |  31.4 | 72.81
Neigh   | 0          | 0          | 0          |   0.0 |  0.00
Comm    | 0.028192   | 0.30243    | 0.90793    |  45.8 | 16.41
Output  | 0.00014869 | 0.00015517 | 0.00027299 |   0.0 |  0.01
Modify  | 1.959e-05  | 0.0026299  | 0.0056299  |   2.4 |  0.14
Other   |            | 0.1959     |            |       | 10.63

Nlocal:        2776.45 ave        3942 max           0 min
Histogram: 8 4 4 0 4 12 8 0 28 36
Nghost:        3879.03 ave        5424 max         232 min
Histogram: 8 0 8 0 16 0 8 8 16 40
Neighs:        79213.3 ave      114858 max           0 min
Histogram: 8 4 4 0 10 6 8 8 22 34

Total # of neighbors = 8238184
Ave neighs/atom = 28.530409
Neighbor list builds = 0
Dangerous builds = 0
The dot product: -2.55745468840353e-07
Setting atom values ...
  1 settings made for x
  1 settings made for y
  1 settings made for z
Setting up cg style minimization ...
  Unit style    : metal
  Current step  : 5114
Per MPI rank memory allocation (min/avg/max) = 5.441 | 5.816 | 6.074 Mbytes
Step PotEng KinEng TotEng v_fx v_fy v_fz 
    5114   -1152448.9            0   -1152448.9 0.0010494208  0.012800227 -0.041441864 
    5282   -1152448.9            0   -1152448.9 -3.6092862e-06 -2.4828909e-06 -1.5461436e-05 
Loop time of 1.96305 on 104 procs for 168 steps with 288751 atoms

99.9% CPU use with 104 MPI tasks x 1 OpenMP threads

Minimization stats:
  Stopping criterion = energy tolerance
  Energy initial, next-to-last, final = 
     -1152448.92010268  -1152448.92239052  -1152448.92239052
  Force two-norm initial, final = 0.22082049 0.00010330471
  Force max component initial, final = 0.16767201 1.7779357e-05
  Final line search alpha, max atom move = 1.0000000 1.7779357e-05
  Iterations, force evaluations = 168 336

MPI task timing breakdown:
Section |  min time  |  avg time  |  max time  |%varavg| %total
---------------------------------------------------------------
Pair    | 0.50411    | 1.4133     | 1.8467     |  32.3 | 71.99
Neigh   | 0          | 0          | 0          |   0.0 |  0.00
Comm    | 0.028707   | 0.32233    | 0.96231    |  46.9 | 16.42
Output  | 0          | 0          | 0          |   0.0 |  0.00
Modify  | 2.0676e-05 | 0.0027761  | 0.0059655  |   2.5 |  0.14
Other   |            | 0.2246     |            |       | 11.44

Nlocal:        2776.45 ave        3942 max           0 min
Histogram: 8 4 4 0 4 12 8 0 28 36
Nghost:        3879.05 ave        5425 max         232 min
Histogram: 8 0 8 0 16 0 8 8 16 40
Neighs:        79213.3 ave      114848 max           0 min
Histogram: 8 4 4 0 10 6 8 8 22 34

Total # of neighbors = 8238185
Ave neighs/atom = 28.530412
Neighbor list builds = 0
Dangerous builds = 0
The dot product: 1.2181119277195e-07
Setting atom values ...
  1 settings made for x
  1 settings made for y
  1 settings made for z
Setting up cg style minimization ...
  Unit style    : metal
  Current step  : 5282
Per MPI rank memory allocation (min/avg/max) = 5.441 | 5.816 | 6.074 Mbytes
Step PotEng KinEng TotEng v_fx v_fy v_fz 
    5282   -1152448.9            0   -1152448.9 -0.00054498188 0.0079075352 -0.030294373 
    5420   -1152448.9            0   -1152448.9 1.7025053e-05 3.3802141e-05 -9.0856579e-06 
Loop time of 1.60144 on 104 procs for 138 steps with 288751 atoms

99.9% CPU use with 104 MPI tasks x 1 OpenMP threads

Minimization stats:
  Stopping criterion = energy tolerance
  Energy initial, next-to-last, final = 
     -1152448.90013567  -1152448.90212453  -1152448.90212453
  Force two-norm initial, final = 0.22078692 0.00020820089
  Force max component initial, final = 0.16965032 5.8580058e-05
  Final line search alpha, max atom move = 1.0000000 5.8580058e-05
  Iterations, force evaluations = 138 276

MPI task timing breakdown:
Section |  min time  |  avg time  |  max time  |%varavg| %total
---------------------------------------------------------------
Pair    | 0.41368    | 1.1636     | 1.5095     |  29.2 | 72.66
Neigh   | 0          | 0          | 0          |   0.0 |  0.00
Comm    | 0.025051   | 0.26054    | 0.78269    |  43.1 | 16.27
Output  | 0          | 0          | 0          |   0.0 |  0.00
Modify  | 1.7087e-05 | 0.002282   | 0.004878   |   2.2 |  0.14
Other   |            | 0.175      |            |       | 10.93

Nlocal:        2776.45 ave        3943 max           0 min
Histogram: 8 4 4 0 4 12 8 0 28 36
Nghost:        3879.07 ave        5425 max         232 min
Histogram: 8 0 8 0 16 0 8 8 16 40
Neighs:        79213.3 ave      114873 max           0 min
Histogram: 8 4 4 0 10 6 8 8 22 34

Total # of neighbors = 8238182
Ave neighs/atom = 28.530402
Neighbor list builds = 0
Dangerous builds = 0
The dot product: 7.57795664004157e-08
Setting atom values ...
  1 settings made for x
  1 settings made for y
  1 settings made for z
Setting up cg style minimization ...
  Unit style    : metal
  Current step  : 5420
Per MPI rank memory allocation (min/avg/max) = 5.441 | 5.816 | 6.074 Mbytes
Step PotEng KinEng TotEng v_fx v_fy v_fz 
    5420   -1152448.9            0   -1152448.9 -0.00042516129 0.0055443079  -0.02031806 
    5574   -1152448.9            0   -1152448.9 4.6455607e-06 9.7367745e-06 -3.9019138e-06 
Loop time of 1.78954 on 104 procs for 154 steps with 288751 atoms

99.9% CPU use with 104 MPI tasks x 1 OpenMP threads

Minimization stats:
  Stopping criterion = energy tolerance
  Energy initial, next-to-last, final = 
     -1152448.87880765   -1152448.8806156   -1152448.8806156
  Force two-norm initial, final = 0.21935467 0.00027156337
  Force max component initial, final = 0.17181635 6.3935787e-05
  Final line search alpha, max atom move = 1.0000000 6.3935787e-05
  Iterations, force evaluations = 154 308

MPI task timing breakdown:
Section |  min time  |  avg time  |  max time  |%varavg| %total
---------------------------------------------------------------
Pair    | 0.46301    | 1.292      | 1.6864     |  30.7 | 72.20
Neigh   | 0          | 0          | 0          |   0.0 |  0.00
Comm    | 0.026324   | 0.29263    | 0.87658    |  44.9 | 16.35
Output  | 0          | 0          | 0          |   0.0 |  0.00
Modify  | 1.9049e-05 | 0.0025474  | 0.0054496  |   2.4 |  0.14
Other   |            | 0.2024     |            |       | 11.31

Nlocal:        2776.45 ave        3942 max           0 min
Histogram: 8 4 4 0 4 12 8 0 28 36
Nghost:        3879.05 ave        5425 max         232 min
Histogram: 8 0 8 0 16 0 8 8 16 40
Neighs:        79213.3 ave      114847 max           0 min
Histogram: 8 4 4 0 10 6 8 8 22 34

Total # of neighbors = 8238180
Ave neighs/atom = 28.530395
Neighbor list builds = 0
Dangerous builds = 0
The dot product: 7.76575097158937e-09
Setting atom values ...
  1 settings made for x
  1 settings made for y
  1 settings made for z
Setting up cg style minimization ...
  Unit style    : metal
  Current step  : 5574
Per MPI rank memory allocation (min/avg/max) = 5.441 | 5.816 | 6.074 Mbytes
Step PotEng KinEng TotEng v_fx v_fy v_fz 
    5574   -1152448.9            0   -1152448.9 -0.00022474016 0.0038658164 -0.013436142 
    5780   -1152448.9            0   -1152448.9 6.6961734e-08 -4.5893222e-07 1.827109e-06 
Loop time of 2.39848 on 104 procs for 206 steps with 288751 atoms

99.9% CPU use with 104 MPI tasks x 1 OpenMP threads

Minimization stats:
  Stopping criterion = energy tolerance
  Energy initial, next-to-last, final = 
     -1152448.85529992  -1152448.85721968  -1152448.85721968
  Force two-norm initial, final = 0.22321514 6.7636743e-05
  Force max component initial, final = 0.17399389 1.4615284e-05
  Final line search alpha, max atom move = 1.0000000 1.4615284e-05
  Iterations, force evaluations = 206 412

MPI task timing breakdown:
Section |  min time  |  avg time  |  max time  |%varavg| %total
---------------------------------------------------------------
Pair    | 0.62102    | 1.7416     | 2.2499     |  35.6 | 72.61
Neigh   | 0          | 0          | 0          |   0.0 |  0.00
Comm    | 0.043054   | 0.39107    | 1.1834     |  52.9 | 16.30
Output  | 0          | 0          | 0          |   0.0 |  0.00
Modify  | 2.5721e-05 | 0.0034054  | 0.0072584  |   2.7 |  0.14
Other   |            | 0.2624     |            |       | 10.94

Nlocal:        2776.45 ave        3941 max           0 min
Histogram: 8 4 4 0 4 12 8 0 28 36
Nghost:        3879.03 ave        5425 max         232 min
Histogram: 8 0 8 0 16 0 8 8 16 40
Neighs:        79213.3 ave      114815 max           0 min
Histogram: 8 4 4 0 10 6 8 8 22 34

Total # of neighbors = 8238179
Ave neighs/atom = 28.530391
Neighbor list builds = 0
Dangerous builds = 0
The dot product: -1.22406432103891e-09
Setting atom values ...
  1 settings made for x
  1 settings made for y
  1 settings made for z
Setting up cg style minimization ...
  Unit style    : metal
  Current step  : 5780
Per MPI rank memory allocation (min/avg/max) = 5.441 | 5.816 | 6.074 Mbytes
Step PotEng KinEng TotEng v_fx v_fy v_fz 
    5780   -1152448.8            0   -1152448.8 -0.00011513486 0.0029539314 -0.0098772531 
    5982   -1152448.8            0   -1152448.8 2.5574091e-06 5.2718873e-06 -1.8452022e-06 
Loop time of 2.34172 on 104 procs for 202 steps with 288751 atoms

99.9% CPU use with 104 MPI tasks x 1 OpenMP threads

Minimization stats:
  Stopping criterion = energy tolerance
  Energy initial, next-to-last, final = 
     -1152448.82967276  -1152448.83170409  -1152448.83170409
  Force two-norm initial, final = 0.22782273 7.3248426e-05
  Force max component initial, final = 0.17620367 1.7179433e-05
  Final line search alpha, max atom move = 1.0000000 1.7179433e-05
  Iterations, force evaluations = 202 404

MPI task timing breakdown:
Section |  min time  |  avg time  |  max time  |%varavg| %total
---------------------------------------------------------------
Pair    | 0.60657    | 1.6956     | 2.2059     |  35.2 | 72.41
Neigh   | 0          | 0          | 0          |   0.0 |  0.00
Comm    | 0.038356   | 0.3825     | 1.1415     |  51.8 | 16.33
Output  | 0          | 0          | 0          |   0.0 |  0.00
Modify  | 2.4816e-05 | 0.0033336  | 0.007117   |   2.7 |  0.14
Other   |            | 0.2603     |            |       | 11.11

Nlocal:        2776.45 ave        3939 max           0 min
Histogram: 8 4 4 0 4 12 8 0 28 36
Nghost:        3879.03 ave        5425 max         232 min
Histogram: 8 0 8 0 16 0 8 8 16 40
Neighs:        79213.2 ave      114752 max           0 min
Histogram: 8 4 4 0 9 7 8 8 22 34

Total # of neighbors = 8238177
Ave neighs/atom = 28.530384
Neighbor list builds = 0
Dangerous builds = 0
The dot product: -4.61137913523605e-09
Setting atom values ...
  1 settings made for x
  1 settings made for y
  1 settings made for z
Setting up cg style minimization ...
  Unit style    : metal
  Current step  : 5982
Per MPI rank memory allocation (min/avg/max) = 5.441 | 5.816 | 6.074 Mbytes
Step PotEng KinEng TotEng v_fx v_fy v_fz 
    5982   -1152448.8            0   -1152448.8 3.3809148e-05 0.0025335606 -0.0077258114 
    6000   -1152448.8            0   -1152448.8 -0.000191642 -9.4699178e-05 -0.00079714437 
    6133   -1152448.8            0   -1152448.8 -1.5037787e-05 -2.9622966e-05 6.8111199e-06 
Loop time of 1.77657 on 104 procs for 151 steps with 288751 atoms

99.9% CPU use with 104 MPI tasks x 1 OpenMP threads

Minimization stats:
  Stopping criterion = energy tolerance
  Energy initial, next-to-last, final = 
     -1152448.80181255  -1152448.80394368  -1152448.80394368
  Force two-norm initial, final = 0.23240367 0.00019996285
  Force max component initial, final = 0.17853552 6.1511569e-05
  Final line search alpha, max atom move = 1.0000000 6.1511569e-05
  Iterations, force evaluations = 151 302

MPI task timing breakdown:
Section |  min time  |  avg time  |  max time  |%varavg| %total
---------------------------------------------------------------
Pair    | 0.45225    | 1.2774     | 1.6617     |  30.7 | 71.90
Neigh   | 0          | 0          | 0          |   0.0 |  0.00
Comm    | 0.029232   | 0.28859    | 0.87552    |  45.1 | 16.24
Output  | 0.00014282 | 0.00015594 | 0.00024798 |   0.0 |  0.01
Modify  | 1.8719e-05 | 0.0024981  | 0.0053403  |   2.3 |  0.14
Other   |            | 0.2079     |            |       | 11.70

Nlocal:        2776.45 ave        3937 max           0 min
Histogram: 8 4 4 0 4 12 8 0 28 36
Nghost:        3879.01 ave        5425 max         232 min
Histogram: 8 0 8 0 16 0 8 8 16 40
Neighs:        79213.2 ave      114690 max           0 min
Histogram: 8 4 4 0 8 8 8 8 22 34

Total # of neighbors = 8238176
Ave neighs/atom = 28.530381
Neighbor list builds = 0
Dangerous builds = 0
The dot product: 3.19759283469389e-08
Setting atom values ...
  1 settings made for x
  1 settings made for y
  1 settings made for z
Setting up cg style minimization ...
  Unit style    : metal
  Current step  : 6133
Per MPI rank memory allocation (min/avg/max) = 5.441 | 5.816 | 6.074 Mbytes
Step PotEng KinEng TotEng v_fx v_fy v_fz 
    6133   -1152448.8            0   -1152448.8 0.00026669855 0.0025206596 -0.0063963613 
    6297   -1152448.8            0   -1152448.8 1.8436118e-05 3.8721576e-05 -1.6275367e-05 
Loop time of 1.91832 on 104 procs for 164 steps with 288751 atoms

99.9% CPU use with 104 MPI tasks x 1 OpenMP threads

Minimization stats:
  Stopping criterion = energy tolerance
  Energy initial, next-to-last, final = 
     -1152448.77164501  -1152448.77385224  -1152448.77385224
  Force two-norm initial, final = 0.2363291 0.00027567077
  Force max component initial, final = 0.18082636 9.0142812e-05
  Final line search alpha, max atom move = 1.0000000 9.0142812e-05
  Iterations, force evaluations = 164 328

MPI task timing breakdown:
Section |  min time  |  avg time  |  max time  |%varavg| %total
---------------------------------------------------------------
Pair    | 0.49032    | 1.3791     | 1.7997     |  31.9 | 71.89
Neigh   | 0          | 0          | 0          |   0.0 |  0.00
Comm    | 0.028714   | 0.31396    | 0.93344    |  46.3 | 16.37
Output  | 0          | 0          | 0          |   0.0 |  0.00
Modify  | 2.0252e-05 | 0.0027107  | 0.0058221  |   2.4 |  0.14
Other   |            | 0.2225     |            |       | 11.60

Nlocal:        2776.45 ave        3930 max           0 min
Histogram: 8 4 4 0 4 12 8 0 26 38
Nghost:        3878.99 ave        5425 max         232 min
Histogram: 8 0 8 0 16 0 8 8 16 40
Neighs:        79213.2 ave      114462 max           0 min
Histogram: 8 4 4 0 8 8 8 8 20 36

Total # of neighbors = 8238169
Ave neighs/atom = 28.530357
Neighbor list builds = 0
Dangerous builds = 0
The dot product: -4.69031684208987e-08
Setting atom values ...
  1 settings made for x
  1 settings made for y
  1 settings made for z
Setting up cg style minimization ...
  Unit style    : metal
  Current step  : 6297
Per MPI rank memory allocation (min/avg/max) = 5.441 | 5.816 | 6.074 Mbytes
Step PotEng KinEng TotEng v_fx v_fy v_fz 
    6297   -1152448.7            0   -1152448.7 0.00057718745 0.0028876039 -0.0058254489 
    6454   -1152448.7            0   -1152448.7 7.9949256e-06 1.5814684e-05 -4.1526417e-06 
Loop time of 1.8312 on 104 procs for 157 steps with 288751 atoms

99.9% CPU use with 104 MPI tasks x 1 OpenMP threads

Minimization stats:
  Stopping criterion = energy tolerance
  Energy initial, next-to-last, final = 
     -1152448.73911255  -1152448.74137329  -1152448.74137329
  Force two-norm initial, final = 0.23966554 0.00026015541
  Force max component initial, final = 0.18338162 8.8904597e-05
  Final line search alpha, max atom move = 1.0000000 8.8904597e-05
  Iterations, force evaluations = 157 314

MPI task timing breakdown:
Section |  min time  |  avg time  |  max time  |%varavg| %total
---------------------------------------------------------------
Pair    | 0.47289    | 1.3238     | 1.7127     |  31.1 | 72.29
Neigh   | 0          | 0          | 0          |   0.0 |  0.00
Comm    | 0.027195   | 0.29908    | 0.90055    |  45.8 | 16.33
Output  | 0          | 0          | 0          |   0.0 |  0.00
Modify  | 1.9243e-05 | 0.0026041  | 0.0055948  |   2.4 |  0.14
Other   |            | 0.2057     |            |       | 11.23

Nlocal:        2776.45 ave        3930 max           0 min
Histogram: 8 4 4 0 4 12 8 0 26 38
Nghost:        3878.97 ave        5425 max         232 min
Histogram: 8 0 8 0 16 0 8 8 16 40
Neighs:        79213.1 ave      114461 max           0 min
Histogram: 8 4 4 0 8 8 8 8 20 36

Total # of neighbors = 8238166
Ave neighs/atom = 28.530346
Neighbor list builds = 0
Dangerous builds = 0
The dot product: -1.76078866181522e-08
Setting atom values ...
  1 settings made for x
  1 settings made for y
  1 settings made for z
Setting up cg style minimization ...
  Unit style    : metal
  Current step  : 6454
Per MPI rank memory allocation (min/avg/max) = 5.441 | 5.816 | 6.074 Mbytes
Step PotEng KinEng TotEng v_fx v_fy v_fz 
    6454   -1152448.7            0   -1152448.7 0.00086924921 0.0033496865 -0.0056699633 
    6592   -1152448.7            0   -1152448.7 -2.7826679e-06 2.382684e-08 -1.6136935e-05 
Loop time of 1.61229 on 104 procs for 138 steps with 288751 atoms

99.9% CPU use with 104 MPI tasks x 1 OpenMP threads

Minimization stats:
  Stopping criterion = energy tolerance
  Energy initial, next-to-last, final = 
     -1152448.70418682  -1152448.70647786  -1152448.70647786
  Force two-norm initial, final = 0.24203709 0.00026698075
  Force max component initial, final = 0.18562097 9.1993145e-05
  Final line search alpha, max atom move = 1.0000000 9.1993145e-05
  Iterations, force evaluations = 138 276

MPI task timing breakdown:
Section |  min time  |  avg time  |  max time  |%varavg| %total
---------------------------------------------------------------
Pair    | 0.41476    | 1.1618     | 1.5149     |  29.2 | 72.06
Neigh   | 0          | 0          | 0          |   0.0 |  0.00
Comm    | 0.025327   | 0.26513    | 0.79325    |  42.7 | 16.44
Output  | 0          | 0          | 0          |   0.0 |  0.00
Modify  | 1.698e-05  | 0.0022811  | 0.0048836  |   2.2 |  0.14
Other   |            | 0.183      |            |       | 11.35

Nlocal:        2776.45 ave        3930 max           0 min
Histogram: 8 4 4 0 4 12 8 0 26 38
Nghost:        3878.94 ave        5425 max         232 min
Histogram: 8 0 8 0 16 0 8 8 16 40
Neighs:        79213.1 ave      114461 max           0 min
Histogram: 8 4 4 0 8 8 8 8 20 36

Total # of neighbors = 8238166
Ave neighs/atom = 28.530346
Neighbor list builds = 0
Dangerous builds = 0
The dot product: -1.11569398634361e-08
Setting atom values ...
  1 settings made for x
  1 settings made for y
  1 settings made for z
Setting up cg style minimization ...
  Unit style    : metal
  Current step  : 6592
Per MPI rank memory allocation (min/avg/max) = 5.441 | 5.816 | 6.074 Mbytes
Step PotEng KinEng TotEng v_fx v_fy v_fz 
    6592   -1152448.7            0   -1152448.7 0.0011835707 0.0039821661 -0.0059398229 
    6797   -1152448.7            0   -1152448.7 8.1334744e-07 9.4081845e-07 1.6959579e-06 
Loop time of 2.40234 on 104 procs for 205 steps with 288751 atoms

99.9% CPU use with 104 MPI tasks x 1 OpenMP threads

Minimization stats:
  Stopping criterion = energy tolerance
  Energy initial, next-to-last, final = 
     -1152448.66685458  -1152448.66916122  -1152448.66916122
  Force two-norm initial, final = 0.24415695 8.1152345e-05
  Force max component initial, final = 0.18825292 2.5579635e-05
  Final line search alpha, max atom move = 1.0000000 2.5579635e-05
  Iterations, force evaluations = 205 410

MPI task timing breakdown:
Section |  min time  |  avg time  |  max time  |%varavg| %total
---------------------------------------------------------------
Pair    | 0.61638    | 1.7322     | 2.241      |  35.6 | 72.10
Neigh   | 0          | 0          | 0          |   0.0 |  0.00
Comm    | 0.0369     | 0.39217    | 1.1731     |  51.9 | 16.32
Output  | 0          | 0          | 0          |   0.0 |  0.00
Modify  | 2.5357e-05 | 0.0033838  | 0.0072272  |   2.7 |  0.14
Other   |            | 0.2746     |            |       | 11.43

Nlocal:        2776.45 ave        3930 max           0 min
Histogram: 8 4 4 0 4 12 8 0 26 38
Nghost:        3878.91 ave        5425 max         232 min
Histogram: 8 0 8 0 16 0 8 8 16 40
Neighs:        79213.1 ave      114462 max           0 min
Histogram: 8 4 4 0 8 8 8 8 20 36

Total # of neighbors = 8238163
Ave neighs/atom = 28.530336
Neighbor list builds = 0
Dangerous builds = 0
The dot product: 4.9262967337193e-10
Setting atom values ...
  1 settings made for x
  1 settings made for y
  1 settings made for z
Setting up cg style minimization ...
  Unit style    : metal
  Current step  : 6797
Per MPI rank memory allocation (min/avg/max) = 5.441 | 5.816 | 6.074 Mbytes
Step PotEng KinEng TotEng v_fx v_fy v_fz 
    6797   -1152448.6            0   -1152448.6 0.0015230277 0.0048039999 -0.0066843183 
    7000   -1152448.6            0   -1152448.6 -2.4591782e-06 -4.0511166e-06 -1.2271382e-06 
    7031   -1152448.6            0   -1152448.6 -7.9763007e-07 -1.0354914e-06 -1.3013134e-06 
[...]
Histogram: 8 4 4 0 4 12 8 2 28 34
Nghost:        3879.09 ave        5425 max         232 min
Histogram: 8 0 8 0 16 0 8 8 16 40
Neighs:        79213.4 ave      115353 max           0 min
Histogram: 8 4 4 0 10 6 8 8 24 32

Total # of neighbors = 8238194
Ave neighs/atom = 28.530443
Neighbor list builds = 0
Dangerous builds = 0
The dot product: 2.46088978737798e-08
Setting atom values ...
  1 settings made for x
  1 settings made for y
  1 settings made for z
Setting up cg style minimization ...
  Unit style    : metal
  Current step  : 23614
Per MPI rank memory allocation (min/avg/max) = 5.441 | 5.816 | 6.074 Mbytes
Step PotEng KinEng TotEng v_fx v_fy v_fz 
   23614   -1152449.2            0   -1152449.2   0.01742708 0.0053408382  0.024213584 
   23885   -1152449.3            0   -1152449.3 -5.8956762e-07 -1.0346377e-06 -8.2777821e-07 
Loop time of 3.17441 on 104 procs for 271 steps with 288751 atoms

99.9% CPU use with 104 MPI tasks x 1 OpenMP threads

Minimization stats:
  Stopping criterion = energy tolerance
  Energy initial, next-to-last, final = 
      -1152449.2495033  -1152449.25092323  -1152449.25092323
  Force two-norm initial, final = 0.16800913 3.6889603e-06
  Force max component initial, final = 0.071406672 1.0346377e-06
  Final line search alpha, max atom move = 1.0000000 1.0346377e-06
  Iterations, force evaluations = 271 542

MPI task timing breakdown:
Section |  min time  |  avg time  |  max time  |%varavg| %total
---------------------------------------------------------------
Pair    | 0.8179     | 2.2808     | 2.9603     |  40.8 | 71.85
Neigh   | 0          | 0          | 0          |   0.0 |  0.00
Comm    | 0.056872   | 0.51921    | 1.5576     |  59.9 | 16.36
Output  | 0          | 0          | 0          |   0.0 |  0.00
Modify  | 3.1136e-05 | 0.0044778  | 0.0095819  |   3.2 |  0.14
Other   |            | 0.37       |            |       | 11.65

Nlocal:        2776.45 ave        3957 max           0 min
Histogram: 8 4 4 0 4 12 8 2 28 34
Nghost:        3879.05 ave        5425 max         232 min
Histogram: 8 0 8 0 16 0 8 8 16 40
Neighs:        79213.4 ave      115354 max           0 min
Histogram: 8 4 4 0 10 6 8 8 24 32

Total # of neighbors = 8238194
Ave neighs/atom = 28.530443
Neighbor list builds = 0
Dangerous builds = 0
The dot product: -3.21481012188907e-09
Setting atom values ...
  1 settings made for x
  1 settings made for y
  1 settings made for z
Setting up cg style minimization ...
  Unit style    : metal
  Current step  : 23885
Per MPI rank memory allocation (min/avg/max) = 5.441 | 5.816 | 6.074 Mbytes
Step PotEng KinEng TotEng v_fx v_fy v_fz 
   23885   -1152449.3            0   -1152449.3  0.013815578 -3.0014792e-05  0.019190641 
   24000   -1152449.3            0   -1152449.3 9.6731169e-05 0.00016706162 0.00013611158 
   24058   -1152449.3            0   -1152449.3 -4.4411651e-05 -7.6878226e-05 -6.2494001e-05 
Loop time of 2.00477 on 104 procs for 173 steps with 288751 atoms

99.9% CPU use with 104 MPI tasks x 1 OpenMP threads

Minimization stats:
  Stopping criterion = energy tolerance
  Energy initial, next-to-last, final = 
     -1152449.25564091  -1152449.25707161  -1152449.25707161
  Force two-norm initial, final = 0.16692566 0.00023286661
  Force max component initial, final = 0.070629441 7.6878226e-05
  Final line search alpha, max atom move = 1.0000000 7.6878226e-05
  Iterations, force evaluations = 173 346

MPI task timing breakdown:
Section |  min time  |  avg time  |  max time  |%varavg| %total
---------------------------------------------------------------
Pair    | 0.51744    | 1.4562     | 1.8882     |  32.7 | 72.64
Neigh   | 0          | 0          | 0          |   0.0 |  0.00
Comm    | 0.03218    | 0.3291     | 0.99641    |  48.2 | 16.42
Output  | 0.0002205  | 0.00022577 | 0.00036598 |   0.0 |  0.01
Modify  | 2.0573e-05 | 0.0028648  | 0.0061362  |   2.5 |  0.14
Other   |            | 0.2164     |            |       | 10.79

Nlocal:        2776.45 ave        3957 max           0 min
Histogram: 8 4 4 0 4 12 8 2 28 34
Nghost:        3879.06 ave        5425 max         232 min
Histogram: 8 0 8 0 16 0 8 8 16 40
Neighs:        79213.4 ave      115354 max           0 min
Histogram: 8 4 4 0 10 6 8 8 24 32

Total # of neighbors = 8238193
Ave neighs/atom = 28.530440
Neighbor list builds = 0
Dangerous builds = 0
The dot product: -9.44904783755686e-08
Setting atom values ...
  1 settings made for x
  1 settings made for y
  1 settings made for z
Setting up cg style minimization ...
  Unit style    : metal
  Current step  : 24058
Per MPI rank memory allocation (min/avg/max) = 5.441 | 5.816 | 6.074 Mbytes
Step PotEng KinEng TotEng v_fx v_fy v_fz 
   24058   -1152449.3            0   -1152449.3  0.012617709 -0.001994917  0.017525318 
   24269   -1152449.3            0   -1152449.3 7.2234054e-06 1.2494839e-05 1.0173752e-05 
Loop time of 2.46431 on 104 procs for 211 steps with 288751 atoms

99.9% CPU use with 104 MPI tasks x 1 OpenMP threads

Minimization stats:
  Stopping criterion = energy tolerance
  Energy initial, next-to-last, final = 
     -1152449.26012271  -1152449.26157387  -1152449.26157387
  Force two-norm initial, final = 0.16683384 5.7918317e-05
  Force max component initial, final = 0.069833609 1.2494839e-05
  Final line search alpha, max atom move = 1.0000000 1.2494839e-05
  Iterations, force evaluations = 211 422

MPI task timing breakdown:
Section |  min time  |  avg time  |  max time  |%varavg| %total
---------------------------------------------------------------
Pair    | 0.62972    | 1.7717     | 2.3128     |  36.1 | 71.89
Neigh   | 0          | 0          | 0          |   0.0 |  0.00
Comm    | 0.037496   | 0.40158    | 1.2061     |  53.0 | 16.30
Output  | 0          | 0          | 0          |   0.0 |  0.00
Modify  | 2.4115e-05 | 0.0034839  | 0.0074667  |   2.8 |  0.14
Other   |            | 0.2875     |            |       | 11.67

Nlocal:        2776.45 ave        3957 max           0 min
Histogram: 8 4 4 0 4 12 8 2 28 34
Nghost:        3879.07 ave        5425 max         232 min
Histogram: 8 0 8 0 16 0 8 8 16 40
Neighs:        79213.4 ave      115355 max           0 min
Histogram: 8 4 4 0 10 6 8 8 24 32

Total # of neighbors = 8238195
Ave neighs/atom = 28.530447
Neighbor list builds = 0
Dangerous builds = 0
The dot product: 7.51085104365185e-09
Setting atom values ...
  1 settings made for x
  1 settings made for y
  1 settings made for z
Setting up cg style minimization ...
  Unit style    : metal
  Current step  : 24269
Per MPI rank memory allocation (min/avg/max) = 5.441 | 5.816 | 6.074 Mbytes
Step PotEng KinEng TotEng v_fx v_fy v_fz 
   24269   -1152449.3            0   -1152449.3  0.012631493 -0.0021166239  0.017557792 
   24437   -1152449.3            0   -1152449.3 1.6601645e-05 2.3384282e-05 2.3339353e-05 
Loop time of 1.95215 on 104 procs for 168 steps with 288751 atoms

99.9% CPU use with 104 MPI tasks x 1 OpenMP threads

Minimization stats:
  Stopping criterion = energy tolerance
  Energy initial, next-to-last, final = 
     -1152449.26296065  -1152449.26441787  -1152449.26441787
  Force two-norm initial, final = 0.16673321 0.00026594954
  Force max component initial, final = 0.069005121 5.4687668e-05
  Final line search alpha, max atom move = 1.0000000 5.4687668e-05
  Iterations, force evaluations = 168 336

MPI task timing breakdown:
Section |  min time  |  avg time  |  max time  |%varavg| %total
---------------------------------------------------------------
Pair    | 0.50099    | 1.4132     | 1.8384     |  32.3 | 72.39
Neigh   | 0          | 0          | 0          |   0.0 |  0.00
Comm    | 0.029985   | 0.32089    | 0.96948    |  47.0 | 16.44
Output  | 0          | 0          | 0          |   0.0 |  0.00
Modify  | 1.9294e-05 | 0.0027742  | 0.0059515  |   2.5 |  0.14
Other   |            | 0.2153     |            |       | 11.03

Nlocal:        2776.45 ave        3957 max           0 min
Histogram: 8 4 4 0 4 12 8 2 28 34
Nghost:        3879.09 ave        5425 max         232 min
Histogram: 8 0 8 0 16 0 8 8 16 40
Neighs:        79213.4 ave      115354 max           0 min
Histogram: 8 4 4 0 10 6 8 8 24 32

Total # of neighbors = 8238196
Ave neighs/atom = 28.530450
Neighbor list builds = 0
Dangerous builds = 0
The dot product: 2.15948887242242e-08
Setting atom values ...
  1 settings made for x
  1 settings made for y
  1 settings made for z
Setting up cg style minimization ...
  Unit style    : metal
  Current step  : 24437
Per MPI rank memory allocation (min/avg/max) = 5.441 | 5.816 | 6.074 Mbytes
Step PotEng KinEng TotEng v_fx v_fy v_fz 
   24437   -1152449.3            0   -1152449.3  0.012560723 -0.0022984693  0.017473569 
   24657   -1152449.3            0   -1152449.3 1.828162e-06 3.2866226e-06 2.5784825e-06 
Loop time of 2.55474 on 104 procs for 220 steps with 288751 atoms

99.9% CPU use with 104 MPI tasks x 1 OpenMP threads

Minimization stats:
  Stopping criterion = energy tolerance
  Energy initial, next-to-last, final = 
     -1152449.26415204  -1152449.26561842  -1152449.26561842
  Force two-norm initial, final = 0.16661268 3.5908830e-05
  Force max component initial, final = 0.06813223 3.2866226e-06
  Final line search alpha, max atom move = 1.0000000 3.2866226e-06
  Iterations, force evaluations = 220 440

MPI task timing breakdown:
Section |  min time  |  avg time  |  max time  |%varavg| %total
---------------------------------------------------------------
Pair    | 0.65822    | 1.8446     | 2.4044     |  36.8 | 72.20
Neigh   | 0          | 0          | 0          |   0.0 |  0.00
Comm    | 0.044447   | 0.4169     | 1.2566     |  54.0 | 16.32
Output  | 0          | 0          | 0          |   0.0 |  0.00
Modify  | 2.4613e-05 | 0.0036311  | 0.0077572  |   2.8 |  0.14
Other   |            | 0.2896     |            |       | 11.34

Nlocal:        2776.45 ave        3957 max           0 min
Histogram: 8 4 4 0 4 12 8 2 28 34
Nghost:        3879.09 ave        5425 max         232 min
Histogram: 8 0 8 0 16 0 8 8 16 40
Neighs:        79213.4 ave      115354 max           0 min
Histogram: 8 4 4 0 10 6 8 8 24 32

Total # of neighbors = 8238191
Ave neighs/atom = 28.530433
Neighbor list builds = 0
Dangerous builds = 0
The dot product: 1.93437838834927e-09
Setting atom values ...
  1 settings made for x
  1 settings made for y
  1 settings made for z
Setting up cg style minimization ...
  Unit style    : metal
  Current step  : 24657
Per MPI rank memory allocation (min/avg/max) = 5.441 | 5.816 | 6.074 Mbytes
Step PotEng KinEng TotEng v_fx v_fy v_fz 
   24657   -1152449.3            0   -1152449.3  0.012455179 -0.0024728574  0.017341784 
   24892   -1152449.3            0   -1152449.3 -3.8050976e-07 -5.9616466e-07 -5.360971e-07 
Loop time of 2.71968 on 104 procs for 235 steps with 288751 atoms

99.9% CPU use with 104 MPI tasks x 1 OpenMP threads

Minimization stats:
  Stopping criterion = energy tolerance
  Energy initial, next-to-last, final = 
     -1152449.26371928  -1152449.26518665  -1152449.26518665
  Force two-norm initial, final = 0.1664893 1.9983610e-05
  Force max component initial, final = 0.068822606 9.7103863e-07
  Final line search alpha, max atom move = 1.0000000 9.7103863e-07
  Iterations, force evaluations = 235 470

MPI task timing breakdown:
Section |  min time  |  avg time  |  max time  |%varavg| %total
---------------------------------------------------------------
Pair    | 0.70184    | 1.9765     | 2.5621     |  38.2 | 72.67
Neigh   | 0          | 0          | 0          |   0.0 |  0.00
Comm    | 0.042655   | 0.44633    | 1.3589     |  55.9 | 16.41
Output  | 0          | 0          | 0          |   0.0 |  0.00
Modify  | 2.6377e-05 | 0.0038819  | 0.0083186  |   2.9 |  0.14
Other   |            | 0.293      |            |       | 10.77

Nlocal:        2776.45 ave        3958 max           0 min
Histogram: 8 4 4 0 4 12 8 2 28 34
Nghost:        3879.05 ave        5430 max         232 min
Histogram: 8 0 8 0 16 0 8 8 16 40
Neighs:        79213.4 ave      115371 max           0 min
Histogram: 8 4 4 0 10 6 8 8 24 32

Total # of neighbors = 8238190
Ave neighs/atom = 28.530429
Neighbor list builds = 0
Dangerous builds = 0
The dot product: -4.66232288497774e-10
Setting atom values ...
  1 settings made for x
  1 settings made for y
  1 settings made for z
Setting up cg style minimization ...
  Unit style    : metal
  Current step  : 24892
Per MPI rank memory allocation (min/avg/max) = 5.441 | 5.816 | 6.074 Mbytes
Step PotEng KinEng TotEng v_fx v_fy v_fz 
   24892   -1152449.3            0   -1152449.3  0.012361445 -0.0026174349  0.017227572 
   25000   -1152449.3            0   -1152449.3 0.00011211972 0.00019896359 0.00015825572 
   25069   -1152449.3            0   -1152449.3 -1.3992217e-05 -2.7370079e-05 -1.9772664e-05 
Loop time of 2.05788 on 104 procs for 177 steps with 288751 atoms

99.9% CPU use with 104 MPI tasks x 1 OpenMP threads

Minimization stats:
  Stopping criterion = energy tolerance
  Energy initial, next-to-last, final = 
     -1152449.26165792  -1152449.26312416  -1152449.26312416
  Force two-norm initial, final = 0.1663787 0.00018461845
  Force max component initial, final = 0.069547164 2.7370079e-05
  Final line search alpha, max atom move = 1.0000000 2.7370079e-05
  Iterations, force evaluations = 177 354

MPI task timing breakdown:
Section |  min time  |  avg time  |  max time  |%varavg| %total
---------------------------------------------------------------
Pair    | 0.52854    | 1.4859     | 1.9327     |  33.1 | 72.21
Neigh   | 0          | 0          | 0          |   0.0 |  0.00
Comm    | 0.031773   | 0.33654    | 1.0066     |  48.3 | 16.35
Output  | 0.00015413 | 0.00016458 | 0.00030085 |   0.0 |  0.01
Modify  | 2.0419e-05 | 0.0029236  | 0.0062458  |   2.5 |  0.14
Other   |            | 0.2323     |            |       | 11.29

Nlocal:        2776.45 ave        3958 max           0 min
Histogram: 8 4 4 0 4 12 8 2 28 34
Nghost:        3879.03 ave        5425 max         232 min
Histogram: 8 0 8 0 16 0 8 8 16 40
Neighs:        79213.3 ave      115370 max           0 min
Histogram: 8 4 4 0 10 6 8 8 24 32

Total # of neighbors = 8238186
Ave neighs/atom = 28.530415
Neighbor list builds = 0
Dangerous builds = 0
The dot product: -1.36538286978495e-08
Setting atom values ...
  1 settings made for x
  1 settings made for y
  1 settings made for z
Setting up cg style minimization ...
  Unit style    : metal
  Current step  : 25069
Per MPI rank memory allocation (min/avg/max) = 5.441 | 5.816 | 6.074 Mbytes
Step PotEng KinEng TotEng v_fx v_fy v_fz 
   25069   -1152449.3            0   -1152449.3  0.012255914 -0.0027700556  0.017097585 
   25243   -1152449.3            0   -1152449.3 -3.5925056e-05 -6.1930231e-05 -5.0715851e-05 
Loop time of 2.02186 on 104 procs for 174 steps with 288751 atoms

99.9% CPU use with 104 MPI tasks x 1 OpenMP threads

Minimization stats:
  Stopping criterion = energy tolerance
  Energy initial, next-to-last, final = 
     -1152449.25797097   -1152449.2594373   -1152449.2594373
  Force two-norm initial, final = 0.16627452 0.00022532074
  Force max component initial, final = 0.070221968 6.1930231e-05
  Final line search alpha, max atom move = 1.0000000 6.1930231e-05
  Iterations, force evaluations = 174 348

MPI task timing breakdown:
Section |  min time  |  avg time  |  max time  |%varavg| %total
---------------------------------------------------------------
Pair    | 0.52126    | 1.4644     | 1.9063     |  32.9 | 72.43
Neigh   | 0          | 0          | 0          |   0.0 |  0.00
Comm    | 0.030858   | 0.33101    | 1.0019     |  48.1 | 16.37
Output  | 0          | 0          | 0          |   0.0 |  0.00
Modify  | 1.9836e-05 | 0.0028763  | 0.006151   |   2.5 |  0.14
Other   |            | 0.2236     |            |       | 11.06

Nlocal:        2776.45 ave        3958 max           0 min
Histogram: 8 4 4 0 4 12 8 2 28 34
Nghost:        3879.09 ave        5425 max         232 min
Histogram: 8 0 8 0 16 0 8 8 16 40
Neighs:        79213.3 ave      115369 max           0 min
Histogram: 8 4 4 0 10 6 8 8 24 32

Total # of neighbors = 8238187
Ave neighs/atom = 28.530419
Neighbor list builds = 0
Dangerous builds = 0
The dot product: -4.08299083736781e-08
Setting atom values ...
  1 settings made for x
  1 settings made for y
  1 settings made for z
Setting up cg style minimization ...
  Unit style    : metal
  Current step  : 25243
Per MPI rank memory allocation (min/avg/max) = 5.441 | 5.816 | 6.074 Mbytes
Step PotEng KinEng TotEng v_fx v_fy v_fz 
   25243   -1152449.3            0   -1152449.3  0.012148516 -0.0029114151   0.01696581 
   25518   -1152449.3            0   -1152449.3 6.2842962e-09 1.1296217e-08 8.879564e-09 
Loop time of 3.1879 on 104 procs for 275 steps with 288751 atoms

99.9% CPU use with 104 MPI tasks x 1 OpenMP threads

Minimization stats:
  Stopping criterion = energy tolerance
  Energy initial, next-to-last, final = 
     -1152449.25266844  -1152449.25413317  -1152449.25413317
  Force two-norm initial, final = 0.16617289 3.3533154e-06
  Force max component initial, final = 0.070855983 9.0060649e-08
  Final line search alpha, max atom move = 1.0000000 9.0060649e-08
  Iterations, force evaluations = 275 550

MPI task timing breakdown:
Section |  min time  |  avg time  |  max time  |%varavg| %total
---------------------------------------------------------------
Pair    | 0.82224    | 2.3083     | 2.9978     |  41.2 | 72.41
Neigh   | 0          | 0          | 0          |   0.0 |  0.00
Comm    | 0.055572   | 0.5212     | 1.5695     |  60.5 | 16.35
Output  | 0          | 0          | 0          |   0.0 |  0.00
Modify  | 3.1063e-05 | 0.0045368  | 0.0097027  |   3.2 |  0.14
Other   |            | 0.3538     |            |       | 11.10

Nlocal:        2776.45 ave        3958 max           0 min
Histogram: 8 4 4 0 4 12 8 2 28 34
Nghost:        3879.12 ave        5425 max         232 min
Histogram: 8 0 8 0 16 0 8 8 16 40
Neighs:        79213.3 ave      115369 max           0 min
Histogram: 8 4 4 0 10 6 8 8 24 32

Total # of neighbors = 8238186
Ave neighs/atom = 28.530415
Neighbor list builds = 0
Dangerous builds = 0
The dot product: 7.03956647103198e-12
Setting up cg style minimization ...
  Unit style    : metal
  Current step  : 25518
Per MPI rank memory allocation (min/avg/max) = 5.441 | 5.816 | 6.074 Mbytes
Step PotEng KinEng TotEng v_fx v_fy v_fz 
   25518   -1152449.3            0   -1152449.3    -0.248493 -0.0014342145   0.17768948 
   25740   -1152449.3            0   -1152449.3 4.1103187e-07 5.0566458e-07 4.9389837e-06 
Loop time of 2.56898 on 104 procs for 222 steps with 288751 atoms

99.9% CPU use with 104 MPI tasks x 1 OpenMP threads

Minimization stats:
  Stopping criterion = energy tolerance
  Energy initial, next-to-last, final = 
     -1152449.25413317  -1152449.26566367  -1152449.26566367
  Force two-norm initial, final = 0.30549039 0.00010934687
  Force max component initial, final = 0.248493 4.9389837e-06
  Final line search alpha, max atom move = 1.0000000 4.9389837e-06
  Iterations, force evaluations = 222 444

MPI task timing breakdown:
Section |  min time  |  avg time  |  max time  |%varavg| %total
---------------------------------------------------------------
Pair    | 0.66237    | 1.8676     | 2.4216     |  37.1 | 72.70
Neigh   | 0          | 0          | 0          |   0.0 |  0.00
Comm    | 0.041208   | 0.42154    | 1.2829     |  54.8 | 16.41
Output  | 0          | 0          | 0          |   0.0 |  0.00
Modify  | 2.397e-05  | 0.0023965  | 0.0061495  |   3.1 |  0.09
Other   |            | 0.2775     |            |       | 10.80

Nlocal:        2776.45 ave        3958 max           0 min
Histogram: 8 4 4 0 4 12 8 2 28 34
Nghost:        3879.12 ave        5425 max         232 min
Histogram: 8 0 8 0 16 0 8 8 16 40
Neighs:        79213.3 ave      115359 max           0 min
Histogram: 8 4 4 0 10 6 8 8 24 32

Total # of neighbors = 8238187
Ave neighs/atom = 28.530419
Neighbor list builds = 0
Dangerous builds = 0
