LAMMPS (29 Oct 2020)
OMP_NUM_THREADS environment is not set. Defaulting to 1 thread. (../comm.cpp:94)
  using 1 OpenMP thread(s) per MPI task
OMP_NUM_THREADS environment is not set. Defaulting to 1 thread. (../comm.cpp:94)
  using 1 OpenMP thread(s) per MPI task
Reading data file ...
  orthogonal box = (-122.39241 -121.13707 -37.090501) to (122.39241 121.13707 37.090501)
  13 by 4 by 2 MPI processor grid
  reading atoms ...
  288751 atoms
  read_data CPU = 0.437 seconds
199981 atoms in group inner
88770 atoms in group outer
1 atoms in group carbon
Neighbor list info ...
  update every 1 steps, delay 0 steps, check yes
  max neighbors/atom: 2000, page size: 100000
  master list distance cutoff = 5.6
  ghost atom cutoff = 5.6
  binsize = 2.8, bins = 88 87 27
  1 neighbor lists, perpetual/occasional/extra = 1 0 0
  (1) pair eam/alloy, perpetual
      attributes: half, newton on
      pair build: half/bin/atomonly/newton
      stencil: half/bin/3d/newton
      bin: standard
Setting up cg style minimization ...
  Unit style    : metal
  Current step  : 0
Per MPI rank memory allocation (min/avg/max) = 5.441 | 5.816 | 6.074 Mbytes
Step v_fx v_fy v_fz PotEng KinEng TotEng 
       0   -1.4546072   -1.0888017   -2.4596011   -1152447.8            0   -1152447.8 
     175 3.3892743e-07 -1.3003268e-06 -2.3045867e-05   -1152449.5            0   -1152449.5 
Loop time of 2.09493 on 104 procs for 175 steps with 288751 atoms

99.8% CPU use with 104 MPI tasks x 1 OpenMP threads

Minimization stats:
  Stopping criterion = energy tolerance
  Energy initial, next-to-last, final = 
     -1152447.79174018  -1152449.45035272  -1152449.45035272
  Force two-norm initial, final = 10.089679 5.8529535e-05
  Force max component initial, final = 4.5102156 2.3045867e-05
  Final line search alpha, max atom move = 1.0000000 2.3045867e-05
  Iterations, force evaluations = 175 349

MPI task timing breakdown:
Section |  min time  |  avg time  |  max time  |%varavg| %total
---------------------------------------------------------------
Pair    | 0.54675    | 1.4802     | 1.9229     |  32.6 | 70.66
Neigh   | 3.291e-05  | 0.0087722  | 0.012744   |   3.9 |  0.42
Comm    | 0.037709   | 0.33959    | 1.0035     |  47.3 | 16.21
Output  | 0          | 0          | 0          |   0.0 |  0.00
Modify  | 2.1289e-05 | 0.0019012  | 0.0048347  |   2.7 |  0.09
Other   |            | 0.2645     |            |       | 12.62

Nlocal:        2776.45 ave        3960 max           0 min
Histogram: 8 4 4 0 4 12 8 2 28 34
Nghost:        3879.01 ave        5425 max         232 min
Histogram: 8 0 8 0 16 0 8 8 16 40
Neighs:        79213.5 ave      115442 max           0 min
Histogram: 8 4 4 0 10 6 8 8 24 32

Total # of neighbors = 8238207
Ave neighs/atom = 28.530488
Neighbor list builds = 3
Dangerous builds = 1
Setting atom values ...
  1 settings made for x
  1 settings made for y
  1 settings made for z
Setting up cg style minimization ...
  Unit style    : metal
  Current step  : 175
Per MPI rank memory allocation (min/avg/max) = 5.441 | 5.816 | 6.074 Mbytes
Step PotEng KinEng TotEng v_fx v_fy v_fz 
     175   -1152449.4            0   -1152449.4  0.010226635 -0.0083332359 -0.023221945 
     344   -1152449.5            0   -1152449.5 1.1509381e-07 8.4730056e-06 7.0671409e-06 
Loop time of 2.02963 on 104 procs for 169 steps with 288751 atoms

99.8% CPU use with 104 MPI tasks x 1 OpenMP threads

Minimization stats:
  Stopping criterion = energy tolerance
  Energy initial, next-to-last, final = 
     -1152449.44967138  -1152449.45009679  -1152449.45009679
  Force two-norm initial, final = 0.094784145 0.00012514345
  Force max component initial, final = 0.045878946 9.3741735e-06
  Final line search alpha, max atom move = 1.0000000 9.3741735e-06
  Iterations, force evaluations = 169 338

MPI task timing breakdown:
Section |  min time  |  avg time  |  max time  |%varavg| %total
---------------------------------------------------------------
Pair    | 0.51655    | 1.4372     | 1.8743     |  32.5 | 70.81
Neigh   | 0          | 0          | 0          |   0.0 |  0.00
Comm    | 0.036008   | 0.33213    | 0.98236    |  46.4 | 16.36
Output  | 0          | 0          | 0          |   0.0 |  0.00
Modify  | 2.1779e-05 | 0.0028076  | 0.0060551  |   2.5 |  0.14
Other   |            | 0.2575     |            |       | 12.69

Nlocal:        2776.45 ave        3958 max           0 min
Histogram: 8 4 4 0 4 12 8 2 28 34
Nghost:        3878.99 ave        5426 max         232 min
Histogram: 8 0 8 0 16 0 8 8 16 40
Neighs:        79213.4 ave      115354 max           0 min
Histogram: 8 4 4 0 10 6 8 8 24 32

Total # of neighbors = 8238197
Ave neighs/atom = 28.530454
Neighbor list builds = 0
Dangerous builds = 0
Setting atom values ...
  1 settings made for x
  1 settings made for y
  1 settings made for z
Setting up cg style minimization ...
  Unit style    : metal
  Current step  : 344
Per MPI rank memory allocation (min/avg/max) = 5.441 | 5.816 | 6.074 Mbytes
Step PotEng KinEng TotEng v_fx v_fy v_fz 
     344   -1152449.4            0   -1152449.4  0.014013258 -0.014712073 -0.040890562 
     515   -1152449.4            0   -1152449.4 9.4762627e-07 5.3820322e-05 4.8607498e-05 
Loop time of 2.07053 on 104 procs for 171 steps with 288751 atoms

99.8% CPU use with 104 MPI tasks x 1 OpenMP threads

Minimization stats:
  Stopping criterion = energy tolerance
  Energy initial, next-to-last, final = 
     -1152449.44696715  -1152449.44832295  -1152449.44832295
  Force two-norm initial, final = 0.16772763 0.00022910143
  Force max component initial, final = 0.088634821 5.3820322e-05
  Final line search alpha, max atom move = 1.0000000 5.3820322e-05
  Iterations, force evaluations = 171 342

MPI task timing breakdown:
Section |  min time  |  avg time  |  max time  |%varavg| %total
---------------------------------------------------------------
Pair    | 0.51828    | 1.4438     | 1.883      |  32.7 | 69.73
Neigh   | 0          | 0          | 0          |   0.0 |  0.00
Comm    | 0.032736   | 0.33419    | 0.9742     |  46.4 | 16.14
Output  | 0          | 0          | 0          |   0.0 |  0.00
Modify  | 2.1514e-05 | 0.0028379  | 0.006077   |   2.5 |  0.14
Other   |            | 0.2897     |            |       | 13.99

Nlocal:        2776.45 ave        3958 max           0 min
Histogram: 8 4 4 0 4 12 8 2 28 34
Nghost:        3879.01 ave        5424 max         232 min
Histogram: 8 0 8 0 16 0 8 8 16 40
Neighs:        79213.4 ave      115354 max           0 min
Histogram: 8 4 4 0 10 6 8 8 24 32

Total # of neighbors = 8238196
Ave neighs/atom = 28.530450
Neighbor list builds = 0
Dangerous builds = 0
The dot product: -6.04707483197872e-08
Setting atom values ...
  1 settings made for x
  1 settings made for y
  1 settings made for z
Setting up cg style minimization ...
  Unit style    : metal
  Current step  : 515
Per MPI rank memory allocation (min/avg/max) = 5.441 | 5.816 | 6.074 Mbytes
Step PotEng KinEng TotEng v_fx v_fy v_fz 
     515   -1152449.4            0   -1152449.4  0.010919155 -0.015730323  -0.04111232 
     718   -1152449.4            0   -1152449.4 -2.4760513e-06 -1.0220079e-05 -5.0172048e-06 
Loop time of 2.38221 on 104 procs for 203 steps with 288751 atoms

99.9% CPU use with 104 MPI tasks x 1 OpenMP threads

Minimization stats:
  Stopping criterion = energy tolerance
  Energy initial, next-to-last, final = 
     -1152449.44350429  -1152449.44483991  -1152449.44483991
  Force two-norm initial, final = 0.16525926 7.2376413e-05
  Force max component initial, final = 0.092693148 1.3971213e-05
  Final line search alpha, max atom move = 1.0000000 1.3971213e-05
  Iterations, force evaluations = 203 406

MPI task timing breakdown:
Section |  min time  |  avg time  |  max time  |%varavg| %total
---------------------------------------------------------------
Pair    | 0.61702    | 1.7201     | 2.2238     |  35.5 | 72.21
Neigh   | 0          | 0          | 0          |   0.0 |  0.00
Comm    | 0.04566    | 0.38906    | 1.1504     |  52.2 | 16.33
Output  | 0          | 0          | 0          |   0.0 |  0.00
Modify  | 2.4809e-05 | 0.0033564  | 0.0072024  |   2.7 |  0.14
Other   |            | 0.2697     |            |       | 11.32

Nlocal:        2776.45 ave        3958 max           0 min
Histogram: 8 4 4 0 4 12 8 2 28 34
Nghost:        3879.01 ave        5424 max         232 min
Histogram: 8 0 8 0 16 0 8 8 16 40
Neighs:        79213.4 ave      115356 max           0 min
Histogram: 8 4 4 0 10 6 8 8 24 32

Total # of neighbors = 8238194
Ave neighs/atom = 28.530443
Neighbor list builds = 0
Dangerous builds = 0
The dot product: 1.04671071950577e-08
Setting atom values ...
  1 settings made for x
  1 settings made for y
  1 settings made for z
Setting up cg style minimization ...
  Unit style    : metal
  Current step  : 718
Per MPI rank memory allocation (min/avg/max) = 5.441 | 5.816 | 6.074 Mbytes
Step PotEng KinEng TotEng v_fx v_fy v_fz 
     718   -1152449.4            0   -1152449.4  0.010989499 -0.013661055 -0.044623762 
     878   -1152449.4            0   -1152449.4 3.747372e-06 -2.6889802e-05 -4.1445561e-05 
Loop time of 1.90415 on 104 procs for 160 steps with 288751 atoms

99.9% CPU use with 104 MPI tasks x 1 OpenMP threads

Minimization stats:
  Stopping criterion = energy tolerance
  Energy initial, next-to-last, final = 
     -1152449.43837206  -1152449.43969003  -1152449.43969003
  Force two-norm initial, final = 0.16396885 0.00020923488
  Force max component initial, final = 0.096441859 4.7072430e-05
  Final line search alpha, max atom move = 1.0000000 4.7072430e-05
  Iterations, force evaluations = 160 320

MPI task timing breakdown:
Section |  min time  |  avg time  |  max time  |%varavg| %total
---------------------------------------------------------------
Pair    | 0.48433    | 1.3485     | 1.7596     |  31.5 | 70.82
Neigh   | 0          | 0          | 0          |   0.0 |  0.00
Comm    | 0.028996   | 0.3092     | 0.91088    |  45.2 | 16.24
Output  | 0          | 0          | 0          |   0.0 |  0.00
Modify  | 1.9267e-05 | 0.0026508  | 0.0056396  |   2.4 |  0.14
Other   |            | 0.2438     |            |       | 12.80

Nlocal:        2776.45 ave        3958 max           0 min
Histogram: 8 4 4 0 4 12 8 2 28 34
Nghost:        3879.01 ave        5424 max         232 min
Histogram: 8 0 8 0 16 0 8 8 16 40
Neighs:        79213.4 ave      115356 max           0 min
Histogram: 8 4 4 0 10 6 8 8 24 32

Total # of neighbors = 8238195
Ave neighs/atom = 28.530447
Neighbor list builds = 0
Dangerous builds = 0
The dot product: 1.49517558657409e-07
Setting atom values ...
  1 settings made for x
  1 settings made for y
  1 settings made for z
Setting up cg style minimization ...
  Unit style    : metal
  Current step  : 878
Per MPI rank memory allocation (min/avg/max) = 5.441 | 5.816 | 6.074 Mbytes
Step PotEng KinEng TotEng v_fx v_fy v_fz 
     878   -1152449.4            0   -1152449.4   0.01324243 -0.0082549746 -0.052225385 
     985   -1152449.4            0   -1152449.4 -3.435616e-05 -6.0112487e-05 2.2406699e-05 
Loop time of 1.25798 on 104 procs for 107 steps with 288751 atoms

99.9% CPU use with 104 MPI tasks x 1 OpenMP threads

Minimization stats:
  Stopping criterion = energy tolerance
  Energy initial, next-to-last, final = 
     -1152449.43170144  -1152449.43304323  -1152449.43304323
  Force two-norm initial, final = 0.16428446 0.00024351974
  Force max component initial, final = 0.10024536 6.0112487e-05
  Final line search alpha, max atom move = 1.0000000 6.0112487e-05
  Iterations, force evaluations = 107 214

MPI task timing breakdown:
Section |  min time  |  avg time  |  max time  |%varavg| %total
---------------------------------------------------------------
Pair    | 0.32423    | 0.9054     | 1.1765     |  25.7 | 71.97
Neigh   | 0          | 0          | 0          |   0.0 |  0.00
Comm    | 0.019196   | 0.20464    | 0.60947    |  37.6 | 16.27
Output  | 0          | 0          | 0          |   0.0 |  0.00
Modify  | 1.3291e-05 | 0.001774   | 0.0038234  |   2.0 |  0.14
Other   |            | 0.1462     |            |       | 11.62

Nlocal:        2776.45 ave        3957 max           0 min
Histogram: 8 4 4 0 4 12 8 2 28 34
Nghost:        3879.01 ave        5424 max         232 min
Histogram: 8 0 8 0 16 0 8 8 16 40
Neighs:        79213.4 ave      115317 max           0 min
Histogram: 8 4 4 0 10 6 8 8 24 32

Total # of neighbors = 8238195
Ave neighs/atom = 28.530447
Neighbor list builds = 0
Dangerous builds = 0
The dot product: -2.54752212387163e-07
Setting atom values ...
  1 settings made for x
  1 settings made for y
  1 settings made for z
Setting up cg style minimization ...
  Unit style    : metal
  Current step  : 985
Per MPI rank memory allocation (min/avg/max) = 5.441 | 5.816 | 6.074 Mbytes
Step PotEng KinEng TotEng v_fx v_fy v_fz 
     985   -1152449.4            0   -1152449.4   0.01507114 0.0010988605 -0.059414055 
    1000   -1152449.4            0   -1152449.4 0.00015127487 0.00033023733 -4.0078313e-05 
    1103   -1152449.4            0   -1152449.4 -1.4226888e-05 -3.5552789e-05 -4.0643697e-06 
Loop time of 1.38329 on 104 procs for 118 steps with 288751 atoms

99.9% CPU use with 104 MPI tasks x 1 OpenMP threads

Minimization stats:
  Stopping criterion = energy tolerance
  Energy initial, next-to-last, final = 
     -1152449.42373305  -1152449.42513909  -1152449.42513909
  Force two-norm initial, final = 0.16503346 0.00014409339
  Force max component initial, final = 0.10387783 3.5552789e-05
  Final line search alpha, max atom move = 1.0000000 3.5552789e-05
  Iterations, force evaluations = 118 236

MPI task timing breakdown:
Section |  min time  |  avg time  |  max time  |%varavg| %total
---------------------------------------------------------------
Pair    | 0.35924    | 0.99391    | 1.2922     |  26.9 | 71.85
Neigh   | 0          | 0          | 0          |   0.0 |  0.00
Comm    | 0.026837   | 0.2243     | 0.66638    |  39.5 | 16.21
Output  | 0.00017186 | 0.0001818  | 0.00024844 |   0.0 |  0.01
Modify  | 1.4905e-05 | 0.0019551  | 0.0041665  |   2.1 |  0.14
Other   |            | 0.1629     |            |       | 11.78

Nlocal:        2776.45 ave        3957 max           0 min
Histogram: 8 4 4 0 4 12 8 2 28 34
Nghost:        3879.01 ave        5424 max         232 min
Histogram: 8 0 8 0 16 0 8 8 16 40
Neighs:        79213.4 ave      115325 max           0 min
Histogram: 8 4 4 0 10 6 8 8 24 32

Total # of neighbors = 8238194
Ave neighs/atom = 28.530443
Neighbor list builds = 0
Dangerous builds = 0
The dot product: -1.16860899827398e-07
Setting atom values ...
  1 settings made for x
  1 settings made for y
  1 settings made for z
Setting up cg style minimization ...
  Unit style    : metal
  Current step  : 1103
Per MPI rank memory allocation (min/avg/max) = 5.441 | 5.816 | 6.074 Mbytes
Step PotEng KinEng TotEng v_fx v_fy v_fz 
    1103   -1152449.4            0   -1152449.4  0.013505856 0.0090703767 -0.061896332 
    1290   -1152449.4            0   -1152449.4 -1.8328043e-06 -3.292298e-06 3.4637721e-06 
Loop time of 2.21032 on 104 procs for 187 steps with 288751 atoms

99.9% CPU use with 104 MPI tasks x 1 OpenMP threads

Minimization stats:
  Stopping criterion = energy tolerance
  Energy initial, next-to-last, final = 
     -1152449.41460838  -1152449.41605148  -1152449.41605148
  Force two-norm initial, final = 0.1646593 7.3258218e-05
  Force max component initial, final = 0.1065562 4.8776560e-06
  Final line search alpha, max atom move = 1.0000000 4.8776560e-06
  Iterations, force evaluations = 187 374

MPI task timing breakdown:
Section |  min time  |  avg time  |  max time  |%varavg| %total
---------------------------------------------------------------
Pair    | 0.56714    | 1.5806     | 2.0605     |  34.0 | 71.51
Neigh   | 0          | 0          | 0          |   0.0 |  0.00
Comm    | 0.035772   | 0.35856    | 1.0592     |  49.3 | 16.22
Output  | 0          | 0          | 0          |   0.0 |  0.00
Modify  | 2.2752e-05 | 0.0030951  | 0.0066606  |   2.6 |  0.14
Other   |            | 0.2681     |            |       | 12.13

Nlocal:        2776.45 ave        3957 max           0 min
Histogram: 8 4 4 0 4 12 8 2 28 34
Nghost:        3879.01 ave        5424 max         232 min
Histogram: 8 0 8 0 16 0 8 8 16 40
Neighs:        79213.4 ave      115325 max           0 min
Histogram: 8 4 4 0 10 6 8 8 24 32

Total # of neighbors = 8238194
Ave neighs/atom = 28.530443
Neighbor list builds = 0
Dangerous builds = 0
The dot product: -5.15595930777498e-08
Setting atom values ...
  1 settings made for x
  1 settings made for y
  1 settings made for z
Setting up cg style minimization ...
  Unit style    : metal
  Current step  : 1290
Per MPI rank memory allocation (min/avg/max) = 5.441 | 5.816 | 6.074 Mbytes
Step PotEng KinEng TotEng v_fx v_fy v_fz 
    1290   -1152449.4            0   -1152449.4 0.0096026419  0.013148346 -0.059579163 
    1469   -1152449.4            0   -1152449.4 -4.3453235e-06 -1.5086004e-05 -9.2409832e-06 
Loop time of 2.10018 on 104 procs for 179 steps with 288751 atoms

99.9% CPU use with 104 MPI tasks x 1 OpenMP threads

Minimization stats:
  Stopping criterion = energy tolerance
  Energy initial, next-to-last, final = 
     -1152449.40430873  -1152449.40573856  -1152449.40573856
  Force two-norm initial, final = 0.1630989 0.00012563625
  Force max component initial, final = 0.10804113 2.5924208e-05
  Final line search alpha, max atom move = 1.0000000 2.5924208e-05
  Iterations, force evaluations = 179 358

MPI task timing breakdown:
Section |  min time  |  avg time  |  max time  |%varavg| %total
---------------------------------------------------------------
Pair    | 0.54027    | 1.5074     | 1.9606     |  33.3 | 71.78
Neigh   | 0          | 0          | 0          |   0.0 |  0.00
Comm    | 0.035616   | 0.34289    | 1.0163     |  48.6 | 16.33
Output  | 0          | 0          | 0          |   0.0 |  0.00
Modify  | 2.1715e-05 | 0.0029631  | 0.0063689  |   2.6 |  0.14
Other   |            | 0.2469     |            |       | 11.76

Nlocal:        2776.45 ave        3957 max           0 min
Histogram: 8 4 4 0 4 12 8 2 28 34
Nghost:        3879.01 ave        5424 max         232 min
Histogram: 8 0 8 0 16 0 8 8 16 40
Neighs:        79213.4 ave      115317 max           0 min
Histogram: 8 4 4 0 10 6 8 8 24 32

Total # of neighbors = 8238196
Ave neighs/atom = 28.530450
Neighbor list builds = 0
Dangerous builds = 0
The dot product: -9.55581222271891e-09
Setting atom values ...
  1 settings made for x
  1 settings made for y
  1 settings made for z
Setting up cg style minimization ...
  Unit style    : metal
  Current step  : 1469
Per MPI rank memory allocation (min/avg/max) = 5.441 | 5.816 | 6.074 Mbytes
Step PotEng KinEng TotEng v_fx v_fy v_fz 
    1469   -1152449.4            0   -1152449.4 0.0052534632  0.013246535 -0.053850533 
    1685   -1152449.4            0   -1152449.4 -1.6695471e-06 -6.3684093e-06 -9.5860993e-06 
Loop time of 2.56051 on 104 procs for 216 steps with 288751 atoms

99.9% CPU use with 104 MPI tasks x 1 OpenMP threads

Minimization stats:
  Stopping criterion = energy tolerance
  Energy initial, next-to-last, final = 
     -1152449.39275338  -1152449.39413194  -1152449.39413194
  Force two-norm initial, final = 0.16083784 3.6877133e-05
  Force max component initial, final = 0.10855994 9.5860993e-06
  Final line search alpha, max atom move = 1.0000000 9.5860993e-06
  Iterations, force evaluations = 216 432

MPI task timing breakdown:
Section |  min time  |  avg time  |  max time  |%varavg| %total
---------------------------------------------------------------
Pair    | 0.66358    | 1.836      | 2.3749     |  36.2 | 71.71
Neigh   | 0          | 0          | 0          |   0.0 |  0.00
Comm    | 0.048037   | 0.41676    | 1.221      |  53.1 | 16.28
Output  | 0          | 0          | 0          |   0.0 |  0.00
Modify  | 2.6203e-05 | 0.0035675  | 0.0076465  |   2.8 |  0.14
Other   |            | 0.3041     |            |       | 11.88

Nlocal:        2776.45 ave        3957 max           0 min
Histogram: 8 4 4 0 4 12 8 2 28 34
Nghost:        3879.01 ave        5424 max         232 min
Histogram: 8 0 8 0 16 0 8 8 16 40
Neighs:        79213.4 ave      115318 max           0 min
Histogram: 8 4 4 0 10 6 8 8 24 32

Total # of neighbors = 8238197
Ave neighs/atom = 28.530454
Neighbor list builds = 0
Dangerous builds = 0
The dot product: 4.0473021300277e-08
Setting atom values ...
  1 settings made for x
  1 settings made for y
  1 settings made for z
Setting up cg style minimization ...
  Unit style    : metal
  Current step  : 1685
Per MPI rank memory allocation (min/avg/max) = 5.441 | 5.816 | 6.074 Mbytes
Step PotEng KinEng TotEng v_fx v_fy v_fz 
    1685   -1152449.4            0   -1152449.4 0.0016473913  0.010533554 -0.046696643 
    1855   -1152449.4            0   -1152449.4 2.5985552e-06 1.4395861e-05 -4.9483382e-05 
Loop time of 1.99504 on 104 procs for 170 steps with 288751 atoms

99.9% CPU use with 104 MPI tasks x 1 OpenMP threads

Minimization stats:
  Stopping criterion = energy tolerance
  Energy initial, next-to-last, final = 
     -1152449.37985859  -1152449.38117262  -1152449.38117262
  Force two-norm initial, final = 0.15867321 0.00019421613
  Force max component initial, final = 0.10854832 4.9483382e-05
  Final line search alpha, max atom move = 1.0000000 4.9483382e-05
  Iterations, force evaluations = 170 340

MPI task timing breakdown:
Section |  min time  |  avg time  |  max time  |%varavg| %total
---------------------------------------------------------------
Pair    | 0.51715    | 1.4365     | 1.8659     |  32.4 | 72.01
Neigh   | 0          | 0          | 0          |   0.0 |  0.00
Comm    | 0.031489   | 0.32471    | 0.96946    |  47.6 | 16.28
Output  | 0          | 0          | 0          |   0.0 |  0.00
Modify  | 2.3081e-05 | 0.0028122  | 0.0060874  |   2.5 |  0.14
Other   |            | 0.231      |            |       | 11.58

Nlocal:        2776.45 ave        3957 max           0 min
Histogram: 8 4 4 0 4 12 8 3 27 34
Nghost:        3879.01 ave        5424 max         232 min
Histogram: 8 0 8 0 16 0 8 8 16 40
Neighs:        79213.4 ave      115318 max           0 min
Histogram: 8 4 4 0 10 6 8 8 24 32

Total # of neighbors = 8238193
Ave neighs/atom = 28.530440
Neighbor list builds = 0
Dangerous builds = 0
The dot product: 4.14267642741318e-07
Setting atom values ...
  1 settings made for x
  1 settings made for y
  1 settings made for z
Setting up cg style minimization ...
  Unit style    : metal
  Current step  : 1855
Per MPI rank memory allocation (min/avg/max) = 5.441 | 5.816 | 6.074 Mbytes
Step PotEng KinEng TotEng v_fx v_fy v_fz 
    1855   -1152449.4            0   -1152449.4 -0.00089603975 0.0064200509 -0.039572502 
    2000   -1152449.4            0   -1152449.4 5.373534e-06 1.0750519e-05 4.621674e-05 
    2067   -1152449.4            0   -1152449.4 1.8263006e-08 1.1724719e-06 -4.2504221e-06 
Loop time of 2.46837 on 104 procs for 212 steps with 288751 atoms

99.9% CPU use with 104 MPI tasks x 1 OpenMP threads

Minimization stats:
  Stopping criterion = energy tolerance
  Energy initial, next-to-last, final = 
     -1152449.36556516  -1152449.36682186  -1152449.36682186
  Force two-norm initial, final = 0.15714296 4.3064741e-05
  Force max component initial, final = 0.10844111 9.9855857e-06
  Final line search alpha, max atom move = 1.0000000 9.9855857e-06
  Iterations, force evaluations = 212 424

MPI task timing breakdown:
Section |  min time  |  avg time  |  max time  |%varavg| %total
---------------------------------------------------------------
Pair    | 0.64266    | 1.7892     | 2.3281     |  36.2 | 72.49
Neigh   | 0          | 0          | 0          |   0.0 |  0.00
Comm    | 0.037672   | 0.40794    | 1.2252     |  52.9 | 16.53
Output  | 0.00022547 | 0.0002309  | 0.0003926  |   0.0 |  0.01
Modify  | 2.5741e-05 | 0.0035065  | 0.0074909  |   2.8 |  0.14
Other   |            | 0.2675     |            |       | 10.84

Nlocal:        2776.45 ave        3957 max           0 min
Histogram: 8 4 4 0 4 12 8 3 27 34
Nghost:        3879.01 ave        5429 max         232 min
Histogram: 8 0 8 0 16 0 8 8 16 40
Neighs:        79213.4 ave      115316 max           0 min
Histogram: 8 4 4 0 10 6 8 8 24 32

Total # of neighbors = 8238192
Ave neighs/atom = 28.530436
Neighbor list builds = 0
Dangerous builds = 0
The dot product: 2.93374063366371e-08
Setting atom values ...
  1 settings made for x
  1 settings made for y
  1 settings made for z
Setting up cg style minimization ...
  Unit style    : metal
  Current step  : 2067
Per MPI rank memory allocation (min/avg/max) = 5.441 | 5.816 | 6.074 Mbytes
Step PotEng KinEng TotEng v_fx v_fy v_fz 
    2067   -1152449.3            0   -1152449.3 -0.0025853941 0.0017197126 -0.033211493 
    2309   -1152449.4            0   -1152449.4 5.850975e-07 2.3782528e-06 7.4362097e-07 
Loop time of 2.8261 on 104 procs for 242 steps with 288751 atoms

99.9% CPU use with 104 MPI tasks x 1 OpenMP threads

Minimization stats:
  Stopping criterion = energy tolerance
  Energy initial, next-to-last, final = 
      -1152449.3498421  -1152449.35105357  -1152449.35105357
  Force two-norm initial, final = 0.15638604 9.5925748e-06
  Force max component initial, final = 0.10844933 2.3782528e-06
  Final line search alpha, max atom move = 1.0000000 2.3782528e-06
  Iterations, force evaluations = 242 484

MPI task timing breakdown:
Section |  min time  |  avg time  |  max time  |%varavg| %total
---------------------------------------------------------------
Pair    | 0.73287    | 2.0315     | 2.6498     |  38.5 | 71.88
Neigh   | 0          | 0          | 0          |   0.0 |  0.00
Comm    | 0.046549   | 0.45922    | 1.356      |  56.1 | 16.25
Output  | 0          | 0          | 0          |   0.0 |  0.00
Modify  | 2.9478e-05 | 0.0039955  | 0.0085352  |   3.0 |  0.14
Other   |            | 0.3314     |            |       | 11.73

Nlocal:        2776.45 ave        3956 max           0 min
Histogram: 8 4 4 0 4 12 8 0 30 34
Nghost:        3878.99 ave        5429 max         232 min
Histogram: 8 0 8 0 16 0 8 8 16 40
Neighs:        79213.4 ave      115274 max           0 min
Histogram: 8 4 4 0 10 6 8 8 24 32

Total # of neighbors = 8238192
Ave neighs/atom = 28.530436
Neighbor list builds = 0
Dangerous builds = 0
The dot product: 3.0352240723209e-09
Setting atom values ...
  1 settings made for x
  1 settings made for y
  1 settings made for z
Setting up cg style minimization ...
  Unit style    : metal
  Current step  : 2309
Per MPI rank memory allocation (min/avg/max) = 5.441 | 5.816 | 6.074 Mbytes
Step PotEng KinEng TotEng v_fx v_fy v_fz 
    2309   -1152449.3            0   -1152449.3 -0.0036932606 -0.0030207378 -0.027825032 
    2511   -1152449.3            0   -1152449.3 2.4745902e-07 -4.3578186e-06 1.0370371e-05 
Loop time of 2.35821 on 104 procs for 202 steps with 288751 atoms

99.9% CPU use with 104 MPI tasks x 1 OpenMP threads

Minimization stats:
  Stopping criterion = energy tolerance
  Energy initial, next-to-last, final = 
     -1152449.33266904  -1152449.33385026  -1152449.33385026
  Force two-norm initial, final = 0.15634337 5.7372905e-05
  Force max component initial, final = 0.10874015 1.0370371e-05
  Final line search alpha, max atom move = 1.0000000 1.0370371e-05
  Iterations, force evaluations = 202 404

MPI task timing breakdown:
Section |  min time  |  avg time  |  max time  |%varavg| %total
---------------------------------------------------------------
Pair    | 0.61856    | 1.7071     | 2.2082     |  35.0 | 72.39
Neigh   | 0          | 0          | 0          |   0.0 |  0.00
Comm    | 0.03854    | 0.38323    | 1.139      |  51.9 | 16.25
Output  | 0          | 0          | 0          |   0.0 |  0.00
Modify  | 2.4399e-05 | 0.0033436  | 0.0071699  |   2.7 |  0.14
Other   |            | 0.2645     |            |       | 11.22

Nlocal:        2776.45 ave        3956 max           0 min
Histogram: 8 4 4 0 4 12 8 0 30 34
Nghost:        3878.99 ave        5424 max         232 min
Histogram: 8 0 8 0 16 0 8 8 16 40
Neighs:        79213.4 ave      115264 max           0 min
Histogram: 8 4 4 0 10 6 8 8 24 32

Total # of neighbors = 8238193
Ave neighs/atom = 28.530440
Neighbor list builds = 0
Dangerous builds = 0
The dot product: -4.82659478878839e-08
Setting atom values ...
  1 settings made for x
  1 settings made for y
  1 settings made for z
Setting up cg style minimization ...
  Unit style    : metal
  Current step  : 2511
Per MPI rank memory allocation (min/avg/max) = 5.441 | 5.816 | 6.074 Mbytes
Step PotEng KinEng TotEng v_fx v_fy v_fz 
    2511   -1152449.3            0   -1152449.3 -0.0044828183 -0.007654631 -0.023369207 
    2700   -1152449.3            0   -1152449.3 -3.8414233e-06 -1.392484e-05 -8.419278e-06 
Loop time of 2.20429 on 104 procs for 189 steps with 288751 atoms

99.9% CPU use with 104 MPI tasks x 1 OpenMP threads

Minimization stats:
  Stopping criterion = energy tolerance
  Energy initial, next-to-last, final = 
     -1152449.31403532  -1152449.31520026  -1152449.31520026
  Force two-norm initial, final = 0.15691947 7.4344138e-05
  Force max component initial, final = 0.10934039 1.3924840e-05
  Final line search alpha, max atom move = 1.0000000 1.3924840e-05
  Iterations, force evaluations = 189 378

MPI task timing breakdown:
Section |  min time  |  avg time  |  max time  |%varavg| %total
---------------------------------------------------------------
Pair    | 0.5697     | 1.5881     | 2.0675     |  34.2 | 72.05
Neigh   | 0          | 0          | 0          |   0.0 |  0.00
Comm    | 0.033354   | 0.35922    | 1.0724     |  50.1 | 16.30
Output  | 0          | 0          | 0          |   0.0 |  0.00
Modify  | 2.2824e-05 | 0.0031262  | 0.0067762  |   2.6 |  0.14
Other   |            | 0.2538     |            |       | 11.52

Nlocal:        2776.45 ave        3955 max           0 min
Histogram: 8 4 4 0 4 12 8 0 30 34
Nghost:        3878.99 ave        5424 max         232 min
Histogram: 8 0 8 0 16 0 8 8 16 40
Neighs:        79213.4 ave      115241 max           0 min
Histogram: 8 4 4 0 10 6 8 8 24 32

Total # of neighbors = 8238193
Ave neighs/atom = 28.530440
Neighbor list builds = 0
Dangerous builds = 0
The dot product: 2.16915596686176e-08
Setting atom values ...
  1 settings made for x
  1 settings made for y
  1 settings made for z
Setting up cg style minimization ...
  Unit style    : metal
  Current step  : 2700
Per MPI rank memory allocation (min/avg/max) = 5.441 | 5.816 | 6.074 Mbytes
Step PotEng KinEng TotEng v_fx v_fy v_fz 
    2700   -1152449.3            0   -1152449.3 -0.0051503609 -0.012173008 -0.019751847 
    2889   -1152449.3            0   -1152449.3 -3.0697252e-06 -1.1186204e-05 -6.1744829e-06 
Loop time of 2.20326 on 104 procs for 189 steps with 288751 atoms

99.9% CPU use with 104 MPI tasks x 1 OpenMP threads

Minimization stats:
  Stopping criterion = energy tolerance
  Energy initial, next-to-last, final = 
     -1152449.29393392  -1152449.29509643  -1152449.29509643
  Force two-norm initial, final = 0.15807357 7.4697998e-05
  Force max component initial, final = 0.11028761 1.5244019e-05
  Final line search alpha, max atom move = 1.0000000 1.5244019e-05
  Iterations, force evaluations = 189 378

MPI task timing breakdown:
Section |  min time  |  avg time  |  max time  |%varavg| %total
---------------------------------------------------------------
Pair    | 0.57002    | 1.5945     | 2.0694     |  34.2 | 72.37
Neigh   | 0          | 0          | 0          |   0.0 |  0.00
Comm    | 0.0361     | 0.3577     | 1.0601     |  50.2 | 16.23
Output  | 0          | 0          | 0          |   0.0 |  0.00
Modify  | 2.2951e-05 | 0.0031264  | 0.0066609  |   2.6 |  0.14
Other   |            | 0.248      |            |       | 11.25

Nlocal:        2776.45 ave        3955 max           0 min
Histogram: 8 4 4 0 4 12 8 0 30 34
Nghost:        3878.99 ave        5424 max         232 min
Histogram: 8 0 8 0 16 0 8 8 16 40
Neighs:        79213.4 ave      115242 max           0 min
Histogram: 8 4 4 0 10 6 8 8 24 32

Total # of neighbors = 8238193
Ave neighs/atom = 28.530440
Neighbor list builds = 0
Dangerous builds = 0
The dot product: 2.52199422851981e-08
Setting atom values ...
  1 settings made for x
  1 settings made for y
  1 settings made for z
Setting up cg style minimization ...
  Unit style    : metal
  Current step  : 2889
Per MPI rank memory allocation (min/avg/max) = 5.441 | 5.816 | 6.074 Mbytes
Step PotEng KinEng TotEng v_fx v_fy v_fz 
    2889   -1152449.3            0   -1152449.3 -0.0058157269 -0.016604183 -0.016764072 
    3000   -1152449.3            0   -1152449.3 -1.1371502e-05 -9.0033998e-06 -6.4468934e-05 
    3014   -1152449.3            0   -1152449.3 6.8574806e-06 5.274099e-05 -2.5024163e-05 
Loop time of 1.45422 on 104 procs for 125 steps with 288751 atoms

99.9% CPU use with 104 MPI tasks x 1 OpenMP threads

Minimization stats:
  Stopping criterion = energy tolerance
  Energy initial, next-to-last, final = 
     -1152449.27236359  -1152449.27353582  -1152449.27353582
  Force two-norm initial, final = 0.15976703 0.00025615845
  Force max component initial, final = 0.11155688 6.4888830e-05
  Final line search alpha, max atom move = 1.0000000 6.4888830e-05
  Iterations, force evaluations = 125 250

MPI task timing breakdown:
Section |  min time  |  avg time  |  max time  |%varavg| %total
---------------------------------------------------------------
Pair    | 0.38037    | 1.0513     | 1.365      |  27.7 | 72.29
Neigh   | 0          | 0          | 0          |   0.0 |  0.00
Comm    | 0.024043   | 0.23621    | 0.70224    |  40.7 | 16.24
Output  | 0.00017134 | 0.00017927 | 0.00033336 |   0.0 |  0.01
Modify  | 1.5669e-05 | 0.0020684  | 0.0044327  |   2.1 |  0.14
Other   |            | 0.1644     |            |       | 11.31

Nlocal:        2776.45 ave        3954 max           0 min
Histogram: 8 4 4 0 4 12 8 0 30 34
Nghost:        3878.97 ave        5424 max         232 min
Histogram: 8 0 8 0 16 0 8 8 16 40
Neighs:        79213.4 ave      115220 max           0 min
Histogram: 8 4 4 0 10 6 8 8 24 32

Total # of neighbors = 8238191
Ave neighs/atom = 28.530433
Neighbor list builds = 0
Dangerous builds = 0
The dot product: -4.75094046662276e-08
Setting atom values ...
  1 settings made for x
  1 settings made for y
  1 settings made for z
Setting up cg style minimization ...
  Unit style    : metal
  Current step  : 3014
Per MPI rank memory allocation (min/avg/max) = 5.441 | 5.816 | 6.074 Mbytes
Step PotEng KinEng TotEng v_fx v_fy v_fz 
    3014   -1152449.2            0   -1152449.2 -0.006516439 -0.020869116 -0.014129545 
    3208   -1152449.3            0   -1152449.3 -8.5586632e-08 -1.157334e-06 9.8805106e-07 
Loop time of 2.27635 on 104 procs for 194 steps with 288751 atoms

99.9% CPU use with 104 MPI tasks x 1 OpenMP threads

Minimization stats:
  Stopping criterion = energy tolerance
  Energy initial, next-to-last, final = 
     -1152449.24932556  -1152449.25052065  -1152449.25052065
  Force two-norm initial, final = 0.16198556 5.9013283e-05
  Force max component initial, final = 0.11318328 3.8708905e-06
  Final line search alpha, max atom move = 1.0000000 3.8708905e-06
  Iterations, force evaluations = 194 388

MPI task timing breakdown:
Section |  min time  |  avg time  |  max time  |%varavg| %total
---------------------------------------------------------------
Pair    | 0.587      | 1.6428     | 2.131      |  34.7 | 72.17
Neigh   | 0          | 0          | 0          |   0.0 |  0.00
Comm    | 0.036634   | 0.37176    | 1.099      |  50.8 | 16.33
Output  | 0          | 0          | 0          |   0.0 |  0.00
Modify  | 2.3662e-05 | 0.0032129  | 0.0069139  |   2.7 |  0.14
Other   |            | 0.2586     |            |       | 11.36

Nlocal:        2776.45 ave        3954 max           0 min
Histogram: 8 4 4 0 4 12 8 0 30 34
Nghost:        3878.99 ave        5425 max         232 min
Histogram: 8 0 8 0 16 0 8 8 16 40
Neighs:        79213.3 ave      115220 max           0 min
Histogram: 8 4 4 0 10 6 8 8 24 32

Total # of neighbors = 8238188
Ave neighs/atom = 28.530422
Neighbor list builds = 0
Dangerous builds = 0
The dot product: 1.78054694947978e-09
Setting atom values ...
  1 settings made for x
  1 settings made for y
  1 settings made for z
Setting up cg style minimization ...
  Unit style    : metal
  Current step  : 3208
Per MPI rank memory allocation (min/avg/max) = 5.441 | 5.816 | 6.074 Mbytes
Step PotEng KinEng TotEng v_fx v_fy v_fz 
    3208   -1152449.2            0   -1152449.2 -0.0073496885 -0.024987903 -0.012009928 
    3331   -1152449.2            0   -1152449.2 3.7126053e-07 1.1265767e-05 -1.2812723e-05 
Loop time of 1.43668 on 104 procs for 123 steps with 288751 atoms

99.9% CPU use with 104 MPI tasks x 1 OpenMP threads

Minimization stats:
  Stopping criterion = energy tolerance
  Energy initial, next-to-last, final = 
     -1152449.22482661  -1152449.22605581  -1152449.22605581
  Force two-norm initial, final = 0.16479681 0.00023648472
  Force max component initial, final = 0.11511921 5.4568997e-05
  Final line search alpha, max atom move = 1.0000000 5.4568997e-05
  Iterations, force evaluations = 123 246

MPI task timing breakdown:
Section |  min time  |  avg time  |  max time  |%varavg| %total
---------------------------------------------------------------
Pair    | 0.37433    | 1.0377     | 1.3521     |  27.5 | 72.23
Neigh   | 0          | 0          | 0          |   0.0 |  0.00
Comm    | 0.023757   | 0.2342     | 0.69615    |  40.6 | 16.30
Output  | 0          | 0          | 0          |   0.0 |  0.00
Modify  | 1.518e-05  | 0.0020381  | 0.0043345  |   2.1 |  0.14
Other   |            | 0.1628     |            |       | 11.33

Nlocal:        2776.45 ave        3953 max           0 min
Histogram: 8 4 4 0 4 12 8 0 30 34
Nghost:        3879.03 ave        5425 max         232 min
Histogram: 8 0 8 0 16 0 8 8 16 40
Neighs:        79213.3 ave      115202 max           0 min
Histogram: 8 4 4 0 10 6 8 8 24 32

Total # of neighbors = 8238186
Ave neighs/atom = 28.530415
Neighbor list builds = 0
Dangerous builds = 0
The dot product: -2.94289726421822e-08
Setting atom values ...
  1 settings made for x
  1 settings made for y
  1 settings made for z
Setting up cg style minimization ...
  Unit style    : metal
  Current step  : 3331
Per MPI rank memory allocation (min/avg/max) = 5.441 | 5.816 | 6.074 Mbytes
Step PotEng KinEng TotEng v_fx v_fy v_fz 
    3331   -1152449.2            0   -1152449.2 -0.0082475089 -0.028902294 -0.0098183922 
    3607   -1152449.2            0   -1152449.2 -5.8451646e-08 -1.2520576e-07 -1.7967985e-07 
Loop time of 3.23251 on 104 procs for 276 steps with 288751 atoms

99.9% CPU use with 104 MPI tasks x 1 OpenMP threads

Minimization stats:
  Stopping criterion = energy tolerance
  Energy initial, next-to-last, final = 
     -1152449.19887918  -1152449.20015538  -1152449.20015538
  Force two-norm initial, final = 0.16802029 1.6494858e-06
  Force max component initial, final = 0.11730814 2.2033701e-07
  Final line search alpha, max atom move = 1.0000000 2.2033701e-07
  Iterations, force evaluations = 276 552

MPI task timing breakdown:
Section |  min time  |  avg time  |  max time  |%varavg| %total
---------------------------------------------------------------
Pair    | 0.83352    | 2.3314     | 3.0121     |  41.3 | 72.12
Neigh   | 0          | 0          | 0          |   0.0 |  0.00
Comm    | 0.050563   | 0.52937    | 1.5598     |  60.5 | 16.38
Output  | 0          | 0          | 0          |   0.0 |  0.00
Modify  | 3.3537e-05 | 0.0045615  | 0.0098573  |   3.2 |  0.14
Other   |            | 0.3672     |            |       | 11.36

Nlocal:        2776.45 ave        3953 max           0 min
Histogram: 8 4 4 0 4 12 8 0 30 34
Nghost:        3879.03 ave        5425 max         232 min
Histogram: 8 0 8 0 16 0 8 8 16 40
Neighs:        79213.3 ave      115202 max           0 min
Histogram: 8 4 4 0 10 6 8 8 24 32

Total # of neighbors = 8238183
Ave neighs/atom = 28.530405
Neighbor list builds = 0
Dangerous builds = 0
The dot product: 8.9192886864057e-10
Setting atom values ...
  1 settings made for x
  1 settings made for y
  1 settings made for z
Setting up cg style minimization ...
  Unit style    : metal
  Current step  : 3607
Per MPI rank memory allocation (min/avg/max) = 5.441 | 5.816 | 6.074 Mbytes
Step PotEng KinEng TotEng v_fx v_fy v_fz 
    3607   -1152449.2            0   -1152449.2 -0.0096867695 -0.034454206 -0.0074873721 
    3759   -1152449.2            0   -1152449.2 -1.4804645e-05 -2.72622e-05 -4.8214577e-05 
Loop time of 1.77856 on 104 procs for 152 steps with 288751 atoms

99.9% CPU use with 104 MPI tasks x 1 OpenMP threads

Minimization stats:
  Stopping criterion = energy tolerance
  Energy initial, next-to-last, final = 
     -1152449.17151495  -1152449.17286445  -1152449.17286445
  Force two-norm initial, final = 0.17210861 0.0001734261
  Force max component initial, final = 0.11989231 4.8214577e-05
  Final line search alpha, max atom move = 1.0000000 4.8214577e-05
  Iterations, force evaluations = 152 304

MPI task timing breakdown:
Section |  min time  |  avg time  |  max time  |%varavg| %total
---------------------------------------------------------------
Pair    | 0.46173    | 1.2832     | 1.6712     |  30.7 | 72.15
Neigh   | 0          | 0          | 0          |   0.0 |  0.00
Comm    | 0.031806   | 0.29084    | 0.87387    |  45.2 | 16.35
Output  | 0          | 0          | 0          |   0.0 |  0.00
Modify  | 1.8324e-05 | 0.0025168  | 0.0054487  |   2.4 |  0.14
Other   |            | 0.202      |            |       | 11.36

Nlocal:        2776.45 ave        3951 max           0 min
Histogram: 8 4 4 0 4 12 8 0 30 34
Nghost:        3879.09 ave        5426 max         232 min
Histogram: 8 0 8 0 16 0 8 8 16 40
Neighs:        79213.3 ave      115129 max           0 min
Histogram: 8 4 4 0 10 6 8 8 24 32

Total # of neighbors = 8238184
Ave neighs/atom = 28.530409
Neighbor list builds = 0
Dangerous builds = 0
The dot product: 2.33325029413483e-07
Setting atom values ...
  1 settings made for x
  1 settings made for y
  1 settings made for z
Setting up cg style minimization ...
  Unit style    : metal
  Current step  : 3759
Per MPI rank memory allocation (min/avg/max) = 5.441 | 5.816 | 6.074 Mbytes
Step PotEng KinEng TotEng v_fx v_fy v_fz 
    3759   -1152449.1            0   -1152449.1  -0.01131683 -0.042154728 -0.00094876329 
    3942   -1152449.1            0   -1152449.1 -7.4103935e-07 -1.1602398e-05 1.3675622e-05 
Loop time of 2.133 on 104 procs for 183 steps with 288751 atoms

99.9% CPU use with 104 MPI tasks x 1 OpenMP threads

Minimization stats:
  Stopping criterion = energy tolerance
  Energy initial, next-to-last, final = 
     -1152449.14278154  -1152449.14426611  -1152449.14426611
  Force two-norm initial, final = 0.17676926 8.7959445e-05
  Force max component initial, final = 0.12295653 1.3675622e-05
  Final line search alpha, max atom move = 1.0000000 1.3675622e-05
  Iterations, force evaluations = 183 366

MPI task timing breakdown:
Section |  min time  |  avg time  |  max time  |%varavg| %total
---------------------------------------------------------------
Pair    | 0.55274    | 1.5417     | 2.0074     |  33.5 | 72.28
Neigh   | 0          | 0          | 0          |   0.0 |  0.00
Comm    | 0.03347    | 0.34875    | 1.0362     |  49.0 | 16.35
Output  | 0          | 0          | 0          |   0.0 |  0.00
Modify  | 2.1899e-05 | 0.0030312  | 0.0064752  |   2.6 |  0.14
Other   |            | 0.2395     |            |       | 11.23

Nlocal:        2776.45 ave        3951 max           0 min
Histogram: 8 4 4 0 4 12 8 0 30 34
Nghost:        3879.07 ave        5426 max         232 min
Histogram: 8 0 8 0 16 0 8 8 16 40
Neighs:        79213.3 ave      115129 max           0 min
Histogram: 8 4 4 0 10 6 8 8 24 32

Total # of neighbors = 8238185
Ave neighs/atom = 28.530412
Neighbor list builds = 0
Dangerous builds = 0
The dot product: 1.45260441571223e-07
Setting atom values ...
  1 settings made for x
  1 settings made for y
  1 settings made for z
Setting up cg style minimization ...
  Unit style    : metal
  Current step  : 3942
Per MPI rank memory allocation (min/avg/max) = 5.441 | 5.816 | 6.074 Mbytes
Step PotEng KinEng TotEng v_fx v_fy v_fz 
    3942   -1152449.1            0   -1152449.1 -0.013553997 -0.054148312  0.013967888 
    4000   -1152449.1            0   -1152449.1 -4.6477615e-05 8.611638e-05 -0.00042767874 
    4088   -1152449.1            0   -1152449.1 -1.7745182e-06 3.636903e-06 -1.6939422e-05 
Loop time of 1.69948 on 104 procs for 146 steps with 288751 atoms

99.9% CPU use with 104 MPI tasks x 1 OpenMP threads

Minimization stats:
  Stopping criterion = energy tolerance
  Energy initial, next-to-last, final = 
     -1152449.11263371  -1152449.11439907  -1152449.11439907
  Force two-norm initial, final = 0.1841672 7.4219368e-05
  Force max component initial, final = 0.12703879 1.6939422e-05
  Final line search alpha, max atom move = 1.0000000 1.6939422e-05
  Iterations, force evaluations = 146 292

MPI task timing breakdown:
Section |  min time  |  avg time  |  max time  |%varavg| %total
---------------------------------------------------------------
Pair    | 0.44121    | 1.2264     | 1.5975     |  30.0 | 72.16
Neigh   | 0          | 0          | 0          |   0.0 |  0.00
Comm    | 0.027539   | 0.27586    | 0.82093    |  44.1 | 16.23
Output  | 0.00016367 | 0.00016611 | 0.00027415 |   0.0 |  0.01
Modify  | 1.7935e-05 | 0.0024167  | 0.0051441  |   2.3 |  0.14
Other   |            | 0.1946     |            |       | 11.45

Nlocal:        2776.45 ave        3949 max           0 min
Histogram: 8 4 4 0 4 12 8 0 26 38
Nghost:        3879.04 ave        5426 max         232 min
Histogram: 8 0 8 0 16 0 8 8 16 40
Neighs:        79213.3 ave      115074 max           0 min
Histogram: 8 4 4 0 10 6 8 8 24 32

Total # of neighbors = 8238184
Ave neighs/atom = 28.530409
Neighbor list builds = 0
Dangerous builds = 0
The dot product: -1.18394153007975e-07
Setting atom values ...
  1 settings made for x
  1 settings made for y
  1 settings made for z
Setting up cg style minimization ...
  Unit style    : metal
  Current step  : 4088
Per MPI rank memory allocation (min/avg/max) = 5.441 | 5.816 | 6.074 Mbytes
Step PotEng KinEng TotEng v_fx v_fy v_fz 
    4088   -1152449.1            0   -1152449.1 -0.017684822 -0.065973777  0.026629806 
    4231   -1152449.1            0   -1152449.1 -4.4686575e-06 -9.1203005e-06 -9.0541999e-06 
Loop time of 1.66685 on 104 procs for 143 steps with 288751 atoms

99.9% CPU use with 104 MPI tasks x 1 OpenMP threads

Minimization stats:
  Stopping criterion = energy tolerance
  Energy initial, next-to-last, final = 
     -1152449.08116704    -1152449.083242    -1152449.083242
  Force two-norm initial, final = 0.19354618 5.3375796e-05
  Force max component initial, final = 0.13222603 9.1203005e-06
  Final line search alpha, max atom move = 1.0000000 9.1203005e-06
  Iterations, force evaluations = 143 286

MPI task timing breakdown:
Section |  min time  |  avg time  |  max time  |%varavg| %total
---------------------------------------------------------------
Pair    | 0.43278    | 1.2084     | 1.5707     |  29.8 | 72.50
Neigh   | 0          | 0          | 0          |   0.0 |  0.00
Comm    | 0.024922   | 0.27362    | 0.82183    |  43.6 | 16.42
Output  | 0          | 0          | 0          |   0.0 |  0.00
Modify  | 1.7296e-05 | 0.0023666  | 0.0050638  |   2.3 |  0.14
Other   |            | 0.1825     |            |       | 10.95

Nlocal:        2776.45 ave        3948 max           0 min
Histogram: 8 4 4 0 4 12 8 0 26 38
Nghost:        3879.02 ave        5426 max         232 min
Histogram: 8 0 8 0 16 0 8 8 16 40
Neighs:        79213.3 ave      115039 max           0 min
Histogram: 8 4 4 0 10 6 8 8 24 32

Total # of neighbors = 8238183
Ave neighs/atom = 28.530405
Neighbor list builds = 0
Dangerous builds = 0
The dot product: 1.19950793007771e-07
Setting atom values ...
  1 settings made for x
  1 settings made for y
  1 settings made for z
Setting up cg style minimization ...
  Unit style    : metal
  Current step  : 4231
Per MPI rank memory allocation (min/avg/max) = 5.441 | 5.816 | 6.074 Mbytes
Step PotEng KinEng TotEng v_fx v_fy v_fz 
    4231     -1152449            0     -1152449 -0.022643103 -0.074163947  0.036565871 
    4380   -1152449.1            0   -1152449.1 -1.0179402e-05 -1.4913067e-05 -3.1370281e-05 
Loop time of 1.73976 on 104 procs for 149 steps with 288751 atoms

99.9% CPU use with 104 MPI tasks x 1 OpenMP threads

Minimization stats:
  Stopping criterion = energy tolerance
  Energy initial, next-to-last, final = 
     -1152449.04847061  -1152449.05080145  -1152449.05080145
  Force two-norm initial, final = 0.2020468 0.00015752567
  Force max component initial, final = 0.13793269 3.1370281e-05
  Final line search alpha, max atom move = 1.0000000 3.1370281e-05
  Iterations, force evaluations = 149 298

MPI task timing breakdown:
Section |  min time  |  avg time  |  max time  |%varavg| %total
---------------------------------------------------------------
Pair    | 0.4477     | 1.2573     | 1.6247     |  30.2 | 72.27
Neigh   | 0          | 0          | 0          |   0.0 |  0.00
Comm    | 0.026498   | 0.28435    | 0.85192    |  44.5 | 16.34
Output  | 0          | 0          | 0          |   0.0 |  0.00
Modify  | 1.7829e-05 | 0.0024672  | 0.0053277  |   2.3 |  0.14
Other   |            | 0.1957     |            |       | 11.25

Nlocal:        2776.45 ave        3946 max           0 min
Histogram: 8 4 4 0 4 12 8 0 26 38
Nghost:        3879.01 ave        5426 max         232 min
Histogram: 8 0 8 0 16 0 8 8 16 40
Neighs:        79213.3 ave      114975 max           0 min
Histogram: 8 4 4 0 10 6 8 8 24 32

Total # of neighbors = 8238181
Ave neighs/atom = 28.530398
Neighbor list builds = 0
Dangerous builds = 0
The dot product: 5.9189591761348e-08
Setting atom values ...
  1 settings made for x
  1 settings made for y
  1 settings made for z
Setting up cg style minimization ...
  Unit style    : metal
  Current step  : 4380
Per MPI rank memory allocation (min/avg/max) = 5.441 | 5.816 | 6.074 Mbytes
Step PotEng KinEng TotEng v_fx v_fy v_fz 
    4380     -1152449            0     -1152449 -0.026881118 -0.078352108  0.050506952 
    4583     -1152449            0     -1152449 -7.5316704e-08 -1.056715e-06 2.945168e-06 
Loop time of 2.35729 on 104 procs for 203 steps with 288751 atoms

99.9% CPU use with 104 MPI tasks x 1 OpenMP threads

Minimization stats:
  Stopping criterion = energy tolerance
  Energy initial, next-to-last, final = 
     -1152449.01462866  -1152449.01720916  -1152449.01720916
  Force two-norm initial, final = 0.21020484 7.5766015e-05
  Force max component initial, final = 0.14384202 1.0359222e-05
  Final line search alpha, max atom move = 1.0000000 1.0359222e-05
  Iterations, force evaluations = 203 406

MPI task timing breakdown:
Section |  min time  |  avg time  |  max time  |%varavg| %total
---------------------------------------------------------------
Pair    | 0.61367    | 1.7195     | 2.2176     |  35.5 | 72.95
Neigh   | 0          | 0          | 0          |   0.0 |  0.00
Comm    | 0.038863   | 0.38425    | 1.1449     |  52.6 | 16.30
Output  | 0          | 0          | 0          |   0.0 |  0.00
Modify  | 2.472e-05  | 0.0033551  | 0.007169   |   2.7 |  0.14
Other   |            | 0.2502     |            |       | 10.61

Nlocal:        2776.45 ave        3942 max           0 min
Histogram: 8 4 4 0 4 12 8 0 26 38
Nghost:        3878.94 ave        5426 max         232 min
Histogram: 8 0 8 0 16 0 8 8 16 40
Neighs:        79213.2 ave      114846 max           0 min
Histogram: 8 4 4 0 10 6 8 8 22 34

Total # of neighbors = 8238178
Ave neighs/atom = 28.530388
Neighbor list builds = 0
Dangerous builds = 0
The dot product: 5.80296283407197e-08
Setting atom values ...
  1 settings made for x
  1 settings made for y
  1 settings made for z
Setting up cg style minimization ...
  Unit style    : metal
  Current step  : 4583
Per MPI rank memory allocation (min/avg/max) = 5.441 | 5.816 | 6.074 Mbytes
Step PotEng KinEng TotEng v_fx v_fy v_fz 
    4583     -1152449            0     -1152449 -0.029894057 -0.077704961  0.068722933 
    4777     -1152449            0     -1152449 -8.7016749e-06 -1.7533021e-05 -4.0558154e-06 
Loop time of 2.26828 on 104 procs for 194 steps with 288751 atoms

99.9% CPU use with 104 MPI tasks x 1 OpenMP threads

Minimization stats:
  Stopping criterion = energy tolerance
  Energy initial, next-to-last, final = 
     -1152448.97990422  -1152448.98264601  -1152448.98264601
  Force two-norm initial, final = 0.21832203 0.00012077836
  Force max component initial, final = 0.14988459 2.4656774e-05
  Final line search alpha, max atom move = 1.0000000 2.4656774e-05
  Iterations, force evaluations = 194 388

MPI task timing breakdown:
Section |  min time  |  avg time  |  max time  |%varavg| %total
---------------------------------------------------------------
Pair    | 0.58509    | 1.6307     | 2.1164     |  34.6 | 71.89
Neigh   | 0          | 0          | 0          |   0.0 |  0.00
Comm    | 0.034303   | 0.37067    | 1.1013     |  50.5 | 16.34
Output  | 0          | 0          | 0          |   0.0 |  0.00
Modify  | 2.3452e-05 | 0.0032099  | 0.0068867  |   2.7 |  0.14
Other   |            | 0.2637     |            |       | 11.63

Nlocal:        2776.45 ave        3934 max           0 min
Histogram: 8 4 4 0 4 12 8 0 26 38
Nghost:        3878.96 ave        5426 max         232 min
Histogram: 8 0 8 0 16 0 8 8 16 40
Neighs:        79213.2 ave      114590 max           0 min
Histogram: 8 4 4 0 8 8 8 8 20 36

Total # of neighbors = 8238178
Ave neighs/atom = 28.530388
Neighbor list builds = 0
Dangerous builds = 0
The dot product: 3.00119300255664e-07
Setting atom values ...
  1 settings made for x
  1 settings made for y
  1 settings made for z
Setting up cg style minimization ...
  Unit style    : metal
  Current step  : 4777
Per MPI rank memory allocation (min/avg/max) = 5.441 | 5.816 | 6.074 Mbytes
Step PotEng KinEng TotEng v_fx v_fy v_fz 
    4777   -1152448.9            0   -1152448.9 -0.031293266 -0.070927133  0.081103965 
    5000     -1152449            0     -1152449 7.8435535e-06 1.312728e-05 1.5473424e-05 
    5012     -1152449            0     -1152449 2.1292942e-05 3.3647719e-05 5.7318449e-05 
Loop time of 2.75435 on 104 procs for 235 steps with 288751 atoms

99.9% CPU use with 104 MPI tasks x 1 OpenMP threads

Minimization stats:
  Stopping criterion = energy tolerance
  Energy initial, next-to-last, final = 
     -1152448.94449179  -1152448.98009095  -1152448.98009095
  Force two-norm initial, final = 0.2239122 0.00023935288
  Force max component initial, final = 0.15557666 6.6514169e-05
  Final line search alpha, max atom move = 1.0000000 6.6514169e-05
  Iterations, force evaluations = 235 470

MPI task timing breakdown:
Section |  min time  |  avg time  |  max time  |%varavg| %total
---------------------------------------------------------------
Pair    | 0.71396    | 1.9865     | 2.5589     |  38.1 | 72.12
Neigh   | 1.0262e-05 | 0.0029419  | 0.0042484  |   2.2 |  0.11
Comm    | 0.04429    | 0.45169    | 1.3303     |  55.5 | 16.40
Output  | 0.00025583 | 0.00025936 | 0.00043962 |   0.0 |  0.01
Modify  | 2.8442e-05 | 0.003885   | 0.0083475  |   2.9 |  0.14
Other   |            | 0.3091     |            |       | 11.22

Nlocal:        2776.45 ave        3931 max           0 min
Histogram: 8 4 4 0 4 12 8 0 26 38
Nghost:        3878.94 ave        5426 max         232 min
Histogram: 8 0 8 0 16 0 8 8 16 40
Neighs:        79213.2 ave      114490 max           0 min
Histogram: 8 4 4 0 8 8 8 8 20 36

Total # of neighbors = 8238175
Ave neighs/atom = 28.530377
Neighbor list builds = 1
Dangerous builds = 0
The dot product: 2.66731984551336e-06
Setting atom values ...
  1 settings made for x
  1 settings made for y
  1 settings made for z
Setting up cg style minimization ...
  Unit style    : metal
  Current step  : 5012
Per MPI rank memory allocation (min/avg/max) = 5.441 | 5.816 | 6.074 Mbytes
Step PotEng KinEng TotEng v_fx v_fy v_fz 
    5012     -1152449            0     -1152449 -0.032772036 -0.041786053   0.13716857 
    5186     -1152449            0     -1152449 -7.8943826e-06 -1.5831362e-05 -1.8289244e-05 
Loop time of 2.03365 on 104 procs for 174 steps with 288751 atoms

99.9% CPU use with 104 MPI tasks x 1 OpenMP threads

Minimization stats:
  Stopping criterion = energy tolerance
  Energy initial, next-to-last, final = 
      -1152448.9577248  -1152448.96150303  -1152448.96150303
  Force two-norm initial, final = 0.25375932 0.0002560012
  Force max component initial, final = 0.16594012 8.3987448e-05
  Final line search alpha, max atom move = 1.0000000 8.3987448e-05
  Iterations, force evaluations = 174 348

MPI task timing breakdown:
Section |  min time  |  avg time  |  max time  |%varavg| %total
---------------------------------------------------------------
Pair    | 0.5292     | 1.4685     | 1.915      |  32.8 | 72.21
Neigh   | 0          | 0          | 0          |   0.0 |  0.00
Comm    | 0.031655   | 0.33071    | 0.9826     |  48.2 | 16.26
Output  | 0          | 0          | 0          |   0.0 |  0.00
Modify  | 2.1188e-05 | 0.0028739  | 0.0061388  |   2.5 |  0.14
Other   |            | 0.2316     |            |       | 11.39

Nlocal:        2776.45 ave        3946 max           0 min
Histogram: 8 4 4 0 4 12 8 0 28 36
Nghost:        3879.05 ave        5425 max         232 min
Histogram: 8 0 8 0 16 0 8 8 16 40
Neighs:        79213.3 ave      114984 max           0 min
Histogram: 8 4 4 0 10 6 8 8 24 32

Total # of neighbors = 8238183
Ave neighs/atom = 28.530405
Neighbor list builds = 0
Dangerous builds = 0
The dot product: -3.31684482281331e-07
Setting atom values ...
  1 settings made for x
  1 settings made for y
  1 settings made for z
Setting up cg style minimization ...
  Unit style    : metal
  Current step  : 5186
Per MPI rank memory allocation (min/avg/max) = 5.441 | 5.816 | 6.074 Mbytes
Step PotEng KinEng TotEng v_fx v_fy v_fz 
    5186   -1152448.9            0   -1152448.9 -0.018044397 -0.016519567  0.067404998 
    5362   -1152448.9            0   -1152448.9 -3.1239401e-06 -4.6155396e-06 3.0808563e-06 
Loop time of 2.06334 on 104 procs for 176 steps with 288751 atoms

99.9% CPU use with 104 MPI tasks x 1 OpenMP threads

Minimization stats:
  Stopping criterion = energy tolerance
  Energy initial, next-to-last, final = 
     -1152448.93904672   -1152448.9414039   -1152448.9414039
  Force two-norm initial, final = 0.22347199 8.4289670e-05
  Force max component initial, final = 0.16898642 2.4350493e-05
  Final line search alpha, max atom move = 1.0000000 2.4350493e-05
  Iterations, force evaluations = 176 352

MPI task timing breakdown:
Section |  min time  |  avg time  |  max time  |%varavg| %total
---------------------------------------------------------------
Pair    | 0.53353    | 1.4862     | 1.9309     |  33.0 | 72.03
Neigh   | 0          | 0          | 0          |   0.0 |  0.00
Comm    | 0.035618   | 0.33911    | 1.0192     |  48.1 | 16.44
Output  | 0          | 0          | 0          |   0.0 |  0.00
Modify  | 2.1343e-05 | 0.0029104  | 0.0062529  |   2.5 |  0.14
Other   |            | 0.2351     |            |       | 11.39

Nlocal:        2776.45 ave        3945 max           0 min
Histogram: 8 4 4 0 4 12 8 0 28 36
Nghost:        3879.07 ave        5427 max         232 min
Histogram: 8 0 8 0 16 0 8 8 16 40
Neighs:        79213.3 ave      114941 max           0 min
Histogram: 8 4 4 0 10 6 8 8 22 34

Total # of neighbors = 8238185
Ave neighs/atom = 28.530412
Neighbor list builds = 0
Dangerous builds = 0
The dot product: 6.21367404767879e-08
Setting atom values ...
  1 settings made for x
  1 settings made for y
  1 settings made for z
Setting up cg style minimization ...
  Unit style    : metal
  Current step  : 5362
Per MPI rank memory allocation (min/avg/max) = 5.441 | 5.816 | 6.074 Mbytes
Step PotEng KinEng TotEng v_fx v_fy v_fz 
    5362   -1152448.9            0   -1152448.9 -0.010258114 -0.0068342229  0.041078999 
    5498   -1152448.9            0   -1152448.9 2.6972497e-05 4.6101049e-05 6.0317216e-06 
Loop time of 1.62189 on 104 procs for 136 steps with 288751 atoms

99.9% CPU use with 104 MPI tasks x 1 OpenMP threads

Minimization stats:
  Stopping criterion = energy tolerance
  Energy initial, next-to-last, final = 
     -1152448.91896532  -1152448.92125763  -1152448.92125763
  Force two-norm initial, final = 0.22102031 0.00020170268
  Force max component initial, final = 0.17130858 4.6101049e-05
  Final line search alpha, max atom move = 1.0000000 4.6101049e-05
  Iterations, force evaluations = 136 272

MPI task timing breakdown:
Section |  min time  |  avg time  |  max time  |%varavg| %total
---------------------------------------------------------------
Pair    | 0.41158    | 1.1493     | 1.497      |  29.1 | 70.86
Neigh   | 0          | 0          | 0          |   0.0 |  0.00
Comm    | 0.031931   | 0.2638     | 0.78322    |  42.1 | 16.27
Output  | 0          | 0          | 0          |   0.0 |  0.00
Modify  | 1.6471e-05 | 0.0022565  | 0.004826   |   2.2 |  0.14
Other   |            | 0.2066     |            |       | 12.74

Nlocal:        2776.45 ave        3945 max           0 min
Histogram: 8 4 4 0 4 12 8 0 28 36
Nghost:        3879.07 ave        5425 max         232 min
Histogram: 8 0 8 0 16 0 8 8 16 40
Neighs:        79213.3 ave      114943 max           0 min
Histogram: 8 4 4 0 10 6 8 8 22 34

Total # of neighbors = 8238184
Ave neighs/atom = 28.530409
Neighbor list builds = 0
Dangerous builds = 0
The dot product: -5.01016330612561e-08
Setting atom values ...
  1 settings made for x
  1 settings made for y
  1 settings made for z
Setting up cg style minimization ...
  Unit style    : metal
  Current step  : 5498
Per MPI rank memory allocation (min/avg/max) = 5.441 | 5.816 | 6.074 Mbytes
Step PotEng KinEng TotEng v_fx v_fy v_fz 
    5498   -1152448.9            0   -1152448.9 -0.006955392 -0.0032884079  0.029889871 
    5673   -1152448.9            0   -1152448.9 7.5039621e-07 3.3464758e-07 -3.2986892e-06 
Loop time of 2.03424 on 104 procs for 175 steps with 288751 atoms

99.9% CPU use with 104 MPI tasks x 1 OpenMP threads

Minimization stats:
  Stopping criterion = energy tolerance
  Energy initial, next-to-last, final = 
     -1152448.89898638  -1152448.90095105  -1152448.90095105
  Force two-norm initial, final = 0.22063687 0.00012453989
  Force max component initial, final = 0.17369303 3.7372065e-05
  Final line search alpha, max atom move = 1.0000000 3.7372065e-05
  Iterations, force evaluations = 175 350

MPI task timing breakdown:
Section |  min time  |  avg time  |  max time  |%varavg| %total
---------------------------------------------------------------
Pair    | 0.52957    | 1.4755     | 1.9149     |  32.8 | 72.53
Neigh   | 0          | 0          | 0          |   0.0 |  0.00
Comm    | 0.0312     | 0.33268    | 0.99656    |  48.3 | 16.35
Output  | 0          | 0          | 0          |   0.0 |  0.00
Modify  | 2.1183e-05 | 0.0028934  | 0.006167   |   2.5 |  0.14
Other   |            | 0.2231     |            |       | 10.97

Nlocal:        2776.45 ave        3945 max           0 min
Histogram: 8 4 4 0 4 12 8 0 28 36
Nghost:        3879.09 ave        5425 max         232 min
Histogram: 8 0 8 0 16 0 8 8 16 40
Neighs:        79213.3 ave      114943 max           0 min
Histogram: 8 4 4 0 10 6 8 8 22 34

Total # of neighbors = 8238182
Ave neighs/atom = 28.530402
Neighbor list builds = 0
Dangerous builds = 0
The dot product: -1.61530178795694e-08
Setting atom values ...
  1 settings made for x
  1 settings made for y
  1 settings made for z
Setting up cg style minimization ...
  Unit style    : metal
  Current step  : 5673
Per MPI rank memory allocation (min/avg/max) = 5.441 | 5.816 | 6.074 Mbytes
Step PotEng KinEng TotEng v_fx v_fy v_fz 
    5673   -1152448.9            0   -1152448.9 -0.0048822815 -0.0023019284  0.019880655 
    5854   -1152448.9            0   -1152448.9 1.5323152e-06 1.1666369e-06 -4.6888188e-06 
Loop time of 2.09491 on 104 procs for 181 steps with 288751 atoms

99.9% CPU use with 104 MPI tasks x 1 OpenMP threads

Minimization stats:
  Stopping criterion = energy tolerance
  Energy initial, next-to-last, final = 
     -1152448.87753575  -1152448.87934704  -1152448.87934704
  Force two-norm initial, final = 0.21940972 0.000128535
  Force max component initial, final = 0.17596567 2.5503523e-05
  Final line search alpha, max atom move = 1.0000000 2.5503523e-05
  Iterations, force evaluations = 181 362

MPI task timing breakdown:
Section |  min time  |  avg time  |  max time  |%varavg| %total
---------------------------------------------------------------
Pair    | 0.54727    | 1.5181     | 1.9694     |  33.3 | 72.47
Neigh   | 0          | 0          | 0          |   0.0 |  0.00
Comm    | 0.03205    | 0.3416     | 1.0232     |  49.2 | 16.31
Output  | 0          | 0          | 0          |   0.0 |  0.00
Modify  | 2.2029e-05 | 0.0029883  | 0.0063764  |   2.6 |  0.14
Other   |            | 0.2322     |            |       | 11.08

Nlocal:        2776.45 ave        3945 max           0 min
Histogram: 8 4 4 0 4 12 8 0 28 36
Nghost:        3879.05 ave        5425 max         232 min
Histogram: 8 0 8 0 16 0 8 8 16 40
Neighs:        79213.3 ave      114943 max           0 min
Histogram: 8 4 4 0 10 6 8 8 22 34

Total # of neighbors = 8238180
Ave neighs/atom = 28.530395
Neighbor list builds = 0
Dangerous builds = 0
The dot product: -9.5885121841426e-09
Setting atom values ...
  1 settings made for x
  1 settings made for y
  1 settings made for z
Setting up cg style minimization ...
  Unit style    : metal
  Current step  : 5854
Per MPI rank memory allocation (min/avg/max) = 5.441 | 5.816 | 6.074 Mbytes
Step PotEng KinEng TotEng v_fx v_fy v_fz 
    5854   -1152448.9            0   -1152448.9 -0.0033876633 -0.0016850378  0.013200392 
    6000   -1152448.9            0   -1152448.9 2.2223044e-05 3.6331145e-05 -2.7370675e-07 
    6067   -1152448.9            0   -1152448.9 9.9780789e-07 2.2669469e-06 2.1585592e-06 
Loop time of 2.48605 on 104 procs for 213 steps with 288751 atoms

99.9% CPU use with 104 MPI tasks x 1 OpenMP threads

Minimization stats:
  Stopping criterion = energy tolerance
  Energy initial, next-to-last, final = 
     -1152448.85390971  -1152448.85583538  -1152448.85583538
  Force two-norm initial, final = 0.22340231 5.5861161e-05
  Force max component initial, final = 0.17823219 1.5327853e-05
  Final line search alpha, max atom move = 1.0000000 1.5327853e-05
  Iterations, force evaluations = 213 426

MPI task timing breakdown:
Section |  min time  |  avg time  |  max time  |%varavg| %total
---------------------------------------------------------------
Pair    | 0.64355    | 1.8014     | 2.3391     |  36.3 | 72.46
Neigh   | 0          | 0          | 0          |   0.0 |  0.00
Comm    | 0.037191   | 0.4084     | 1.227      |  53.3 | 16.43
Output  | 0.00024425 | 0.00024694 | 0.00040069 |   0.0 |  0.01
Modify  | 2.5728e-05 | 0.0035195  | 0.0075556  |   2.8 |  0.14
Other   |            | 0.2725     |            |       | 10.96

Nlocal:        2776.45 ave        3943 max           0 min
Histogram: 8 4 4 0 4 12 8 0 28 36
Nghost:        3879.05 ave        5425 max         232 min
Histogram: 8 0 8 0 16 0 8 8 16 40
Neighs:        79213.3 ave      114888 max           0 min
Histogram: 8 4 4 0 10 6 8 8 22 34

Total # of neighbors = 8238179
Ave neighs/atom = 28.530391
Neighbor list builds = 0
Dangerous builds = 0
The dot product: 2.99748499731993e-09
Setting atom values ...
  1 settings made for x
  1 settings made for y
  1 settings made for z
Setting up cg style minimization ...
  Unit style    : metal
  Current step  : 6067
Per MPI rank memory allocation (min/avg/max) = 5.441 | 5.816 | 6.074 Mbytes
Step PotEng KinEng TotEng v_fx v_fy v_fz 
    6067   -1152448.8            0   -1152448.8 -0.002575851 -0.0013614231 0.0097079091 
    6254   -1152448.8            0   -1152448.8 2.3390622e-07 -3.6799807e-06 -1.3758519e-05 
Loop time of 2.16114 on 104 procs for 187 steps with 288751 atoms

99.9% CPU use with 104 MPI tasks x 1 OpenMP threads

Minimization stats:
  Stopping criterion = energy tolerance
  Energy initial, next-to-last, final = 
     -1152448.82815849  -1152448.83019578  -1152448.83019578
  Force two-norm initial, final = 0.2280649 0.00012303823
  Force max component initial, final = 0.18050123 3.9305475e-05
  Final line search alpha, max atom move = 1.0000000 3.9305475e-05
  Iterations, force evaluations = 187 374

MPI task timing breakdown:
Section |  min time  |  avg time  |  max time  |%varavg| %total
---------------------------------------------------------------
Pair    | 0.56405    | 1.5706     | 2.0374     |  33.9 | 72.68
Neigh   | 0          | 0          | 0          |   0.0 |  0.00
Comm    | 0.03332    | 0.35257    | 1.0508     |  50.0 | 16.31
Output  | 0          | 0          | 0          |   0.0 |  0.00
Modify  | 2.243e-05  | 0.0030928  | 0.0066182  |   2.6 |  0.14
Other   |            | 0.2349     |            |       | 10.87

Nlocal:        2776.45 ave        3941 max           0 min
Histogram: 8 4 4 0 4 12 8 0 28 36
Nghost:        3879.03 ave        5425 max         232 min
Histogram: 8 0 8 0 16 0 8 8 16 40
Neighs:        79213.2 ave      114828 max           0 min
Histogram: 8 4 4 0 10 6 8 8 22 34

Total # of neighbors = 8238176
Ave neighs/atom = 28.530381
Neighbor list builds = 0
Dangerous builds = 0
The dot product: -3.14596144135137e-09
Setting atom values ...
  1 settings made for x
  1 settings made for y
  1 settings made for z
Setting up cg style minimization ...
  Unit style    : metal
  Current step  : 6254
Per MPI rank memory allocation (min/avg/max) = 5.441 | 5.816 | 6.074 Mbytes
Step PotEng KinEng TotEng v_fx v_fy v_fz 
    6254   -1152448.8            0   -1152448.8 -0.0021560492 -0.0012983837 0.0076022565 
    6396   -1152448.8            0   -1152448.8 -1.1703677e-05 -1.6873801e-05 8.0846449e-06 
Loop time of 1.65825 on 104 procs for 142 steps with 288751 atoms

99.9% CPU use with 104 MPI tasks x 1 OpenMP threads

Minimization stats:
  Stopping criterion = energy tolerance
  Energy initial, next-to-last, final = 
     -1152448.80016983  -1152448.80230559  -1152448.80230559
  Force two-norm initial, final = 0.23260457 0.00020863406
  Force max component initial, final = 0.18275291 7.7962747e-05
  Final line search alpha, max atom move = 1.0000000 7.7962747e-05
  Iterations, force evaluations = 142 284

MPI task timing breakdown:
Section |  min time  |  avg time  |  max time  |%varavg| %total
---------------------------------------------------------------
Pair    | 0.43093    | 1.2037     | 1.5555     |  29.7 | 72.59
Neigh   | 0          | 0          | 0          |   0.0 |  0.00
Comm    | 0.025239   | 0.27088    | 0.80846    |  43.7 | 16.34
Output  | 0          | 0          | 0          |   0.0 |  0.00
Modify  | 1.7226e-05 | 0.0023481  | 0.0050204  |   2.3 |  0.14
Other   |            | 0.1814     |            |       | 10.94

Nlocal:        2776.45 ave        3932 max           0 min
Histogram: 8 4 4 0 4 12 8 0 26 38
Nghost:        3879.07 ave        5425 max         232 min
Histogram: 8 0 8 0 16 0 8 8 16 40
Neighs:        79213.2 ave      114534 max           0 min
Histogram: 8 4 4 0 8 8 8 8 20 36

Total # of neighbors = 8238176
Ave neighs/atom = 28.530381
Neighbor list builds = 0
Dangerous builds = 0
The dot product: -2.12601042705673e-08
Setting atom values ...
  1 settings made for x
  1 settings made for y
  1 settings made for z
Setting up cg style minimization ...
  Unit style    : metal
  Current step  : 6396
Per MPI rank memory allocation (min/avg/max) = 5.441 | 5.816 | 6.074 Mbytes
Step PotEng KinEng TotEng v_fx v_fy v_fz 
    6396   -1152448.8            0   -1152448.8 -0.0020766602 -0.0015506823 0.0063497949 
    6552   -1152448.8            0   -1152448.8 -2.2167068e-05 -3.1251127e-05 1.808642e-05 
Loop time of 1.81089 on 104 procs for 156 steps with 288751 atoms

99.9% CPU use with 104 MPI tasks x 1 OpenMP threads

Minimization stats:
  Stopping criterion = energy tolerance
  Energy initial, next-to-last, final = 
     -1152448.76986866  -1152448.77208041  -1152448.77208041
  Force two-norm initial, final = 0.23663922 0.00028173
  Force max component initial, final = 0.18517185 7.3177532e-05
  Final line search alpha, max atom move = 1.0000000 7.3177532e-05
  Iterations, force evaluations = 156 312

MPI task timing breakdown:
Section |  min time  |  avg time  |  max time  |%varavg| %total
---------------------------------------------------------------
Pair    | 0.47072    | 1.3122     | 1.7003     |  31.1 | 72.46
Neigh   | 0          | 0          | 0          |   0.0 |  0.00
Comm    | 0.032115   | 0.29651    | 0.88681    |  45.8 | 16.37
Output  | 0          | 0          | 0          |   0.0 |  0.00
Modify  | 1.8859e-05 | 0.0025804  | 0.0055195  |   2.4 |  0.14
Other   |            | 0.1996     |            |       | 11.02

Nlocal:        2776.45 ave        3931 max           0 min
Histogram: 8 4 4 0 4 12 8 0 26 38
Nghost:        3879.07 ave        5425 max         232 min
Histogram: 8 0 8 0 16 0 8 8 16 40
Neighs:        79213.2 ave      114510 max           0 min
Histogram: 8 4 4 0 8 8 8 8 20 36

Total # of neighbors = 8238169
Ave neighs/atom = 28.530357
Neighbor list builds = 0
Dangerous builds = 0
The dot product: -4.38700273805545e-08
Setting atom values ...
  1 settings made for x
  1 settings made for y
  1 settings made for z
Setting up cg style minimization ...
  Unit style    : metal
  Current step  : 6552
Per MPI rank memory allocation (min/avg/max) = 5.441 | 5.816 | 6.074 Mbytes
Step PotEng KinEng TotEng v_fx v_fy v_fz 
    6552   -1152448.7            0   -1152448.7 -0.0022214541 -0.0019693897 0.0057943357 
    6696   -1152448.7            0   -1152448.7 -1.2356662e-06 -3.3023176e-07 5.8176789e-06 
Loop time of 1.67682 on 104 procs for 144 steps with 288751 atoms

99.9% CPU use with 104 MPI tasks x 1 OpenMP threads

Minimization stats:
  Stopping criterion = energy tolerance
  Energy initial, next-to-last, final = 
     -1152448.73720234  -1152448.73946537  -1152448.73946537
  Force two-norm initial, final = 0.23982049 0.00024040614
  Force max component initial, final = 0.18749548 7.0334808e-05
  Final line search alpha, max atom move = 1.0000000 7.0334808e-05
  Iterations, force evaluations = 144 288

MPI task timing breakdown:
Section |  min time  |  avg time  |  max time  |%varavg| %total
---------------------------------------------------------------
Pair    | 0.44021    | 1.2174     | 1.5743     |  29.6 | 72.60
Neigh   | 0          | 0          | 0          |   0.0 |  0.00
Comm    | 0.025767   | 0.27436    | 0.80979    |  43.6 | 16.36
Output  | 0          | 0          | 0          |   0.0 |  0.00
Modify  | 1.777e-05  | 0.0023827  | 0.0051083  |   2.3 |  0.14
Other   |            | 0.1826     |            |       | 10.89

Nlocal:        2776.45 ave        3930 max           0 min
Histogram: 8 4 4 0 4 12 8 0 26 38
Nghost:        3879.05 ave        5425 max         232 min
Histogram: 8 0 8 0 16 0 8 8 16 40
Neighs:        79213.1 ave      114481 max           0 min
Histogram: 8 4 4 0 8 8 8 8 20 36

Total # of neighbors = 8238166
Ave neighs/atom = 28.530346
Neighbor list builds = 0
Dangerous builds = 0
The dot product: -4.67282460775707e-09
Setting atom values ...
  1 settings made for x
  1 settings made for y
  1 settings made for z
Setting up cg style minimization ...
  Unit style    : metal
  Current step  : 6696
Per MPI rank memory allocation (min/avg/max) = 5.441 | 5.816 | 6.074 Mbytes
Step PotEng KinEng TotEng v_fx v_fy v_fz 
    6696   -1152448.7            0   -1152448.7 -0.0024776448 -0.0024490945 0.0056653901 
    6891   -1152448.7            0   -1152448.7 -5.8334172e-06 -9.1884111e-06 1.6869775e-06 
Loop time of 2.27123 on 104 procs for 195 steps with 288751 atoms

99.9% CPU use with 104 MPI tasks x 1 OpenMP threads

Minimization stats:
  Stopping criterion = energy tolerance
  Energy initial, next-to-last, final = 
     -1152448.70213962  -1152448.70443331  -1152448.70443331
  Force two-norm initial, final = 0.24229394 0.00011187077
  Force max component initial, final = 0.1898539 4.3696709e-05
  Final line search alpha, max atom move = 1.0000000 4.3696709e-05
  Iterations, force evaluations = 195 390

MPI task timing breakdown:
Section |  min time  |  avg time  |  max time  |%varavg| %total
---------------------------------------------------------------
Pair    | 0.58937    | 1.641      | 2.1313     |  34.8 | 72.25
Neigh   | 0          | 0          | 0          |   0.0 |  0.00
Comm    | 0.034424   | 0.37077    | 1.11       |  51.1 | 16.32
Output  | 0          | 0          | 0          |   0.0 |  0.00
Modify  | 2.3588e-05 | 0.0032271  | 0.006881   |   2.7 |  0.14
Other   |            | 0.2563     |            |       | 11.28

Nlocal:        2776.45 ave        3930 max           0 min
Histogram: 8 4 4 0 4 12 8 0 26 38
Nghost:        3879.10 ave        5425 max         232 min
Histogram: 8 0 8 0 16 0 8 8 16 40
Neighs:        79213.1 ave      114481 max           0 min
Histogram: 8 4 4 0 8 8 8 8 20 36

Total # of neighbors = 8238166
Ave neighs/atom = 28.530346
Neighbor list builds = 0
Dangerous builds = 0
The dot product: -9.34592952905084e-09
Setting atom values ...
  1 settings made for x
  1 settings made for y
  1 settings made for z
Setting up cg style minimization ...
  Unit style    : metal
  Current step  : 6891
Per MPI rank memory allocation (min/avg/max) = 5.441 | 5.816 | 6.074 Mbytes
Step PotEng KinEng TotEng v_fx v_fy v_fz 
    6891   -1152448.7            0   -1152448.7 -0.0029030989 -0.003054116 0.0060747692 
    7000   -1152448.7            0   -1152448.7 3.7270175e-06 1.0390455e-05 1.4328721e-05 
    7103   -1152448.7            0   -1152448.7 9.5440161e-07 2.3041995e-06 2.4497505e-06 
Loop time of 2.47076 on 104 procs for 212 steps with 288751 atoms

99.9% CPU use with 104 MPI tasks x 1 OpenMP threads

Minimization stats:
  Stopping criterion = energy tolerance
  Energy initial, next-to-last, final = 
     -1152448.66467426  -1152448.66697985  -1152448.66697985
  Force two-norm initial, final = 0.24414704 7.0412212e-05
  Force max component initial, final = 0.19213509 2.3732404e-05
  Final line search alpha, max atom move = 1.0000000 2.3732404e-05
  Iterations, force evaluations = 212 424

MPI task timing breakdown:
Section |  min time  |  avg time  |  max time  |%varavg| %total
---------------------------------------------------------------
Pair    | 0.6405     | 1.7927     | 2.3195     |  36.2 | 72.56
Neigh   | 0          | 0          | 0          |   0.0 |  0.00
Comm    | 0.037673   | 0.40604    | 1.2305     |  53.2 | 16.43
Output  | 0.00015241 | 0.00016093 | 0.00031297 |   0.0 |  0.01
Modify  | 2.5562e-05 | 0.0035044  | 0.0074868  |   2.8 |  0.14
Other   |            | 0.2684     |            |       | 10.86

Nlocal:        2776.45 ave        3930 max           0 min
Histogram: 8 4 4 0 4 12 8 0 26 38
Nghost:        3879.09 ave        5426 max         232 min
Histogram: 8 0 8 0 16 0 8 8 16 40
Neighs:        79213.1 ave      114481 max           0 min
Histogram: 8 4 4 0 8 8 8 8 20 36

Total # of neighbors = 8238163
Ave neighs/atom = 28.530336
Neighbor list builds = 0
Dangerous builds = 0
The dot product: -3.18896455127542e-10
Setting atom values ...
  1 settings made for x
  1 settings made for y
  1 settings made for z
Setting up cg style minimization ...
  Unit style    : metal
  Current step  : 7103
Per MPI rank memory allocation (min/avg/max) = 5.441 | 5.816 | 6.074 Mbytes
Step PotEng KinEng TotEng v_fx v_fy v_fz 
    7103   -1152448.6            0   -1152448.6 -0.0034245121 -0.0037633555 0.0066889272 
    7250   -1152448.6            0   -1152448.6 4.9244747e-06 9.0114143e-06 2.7591397e-06 
[...]
Per MPI rank memory allocation (min/avg/max) = 5.441 | 5.816 | 6.074 Mbytes
Step PotEng KinEng TotEng v_fx v_fy v_fz 
   30372   -1152449.1            0   -1152449.1  0.012893776 -0.0051451494  0.018045296 
   30559   -1152449.1            0   -1152449.1 -1.02213e-05 9.7126507e-07 -1.436173e-05 
Loop time of 2.19229 on 104 procs for 187 steps with 288751 atoms

99.9% CPU use with 104 MPI tasks x 1 OpenMP threads

Minimization stats:
  Stopping criterion = energy tolerance
  Energy initial, next-to-last, final = 
     -1152449.07490586  -1152449.07668478  -1152449.07668478
  Force two-norm initial, final = 0.16744363 0.00017488524
  Force max component initial, final = 0.084092734 2.2704298e-05
  Final line search alpha, max atom move = 1.0000000 2.2704298e-05
  Iterations, force evaluations = 187 374

MPI task timing breakdown:
Section |  min time  |  avg time  |  max time  |%varavg| %total
---------------------------------------------------------------
Pair    | 0.56843    | 1.5805     | 2.0637     |  33.9 | 72.09
Neigh   | 0          | 0          | 0          |   0.0 |  0.00
Comm    | 0.031513   | 0.35942    | 1.0747     |  49.2 | 16.39
Output  | 0          | 0          | 0          |   0.0 |  0.00
Modify  | 2.3174e-05 | 0.0030948  | 0.0066365  |   2.6 |  0.14
Other   |            | 0.2493     |            |       | 11.37

Nlocal:        2776.45 ave        3957 max           0 min
Histogram: 8 4 4 0 4 12 8 4 24 36
Nghost:        3878.96 ave        5433 max         232 min
Histogram: 8 0 8 0 16 0 8 8 16 40
Neighs:        79213.5 ave      115260 max           0 min
Histogram: 8 4 4 0 10 6 8 8 24 32

Total # of neighbors = 8238207
Ave neighs/atom = 28.530488
Neighbor list builds = 0
Dangerous builds = 0
The dot product: 1.37276116734168e-07
The iteration number is maximum!
OMP_NUM_THREADS environment is not set. Defaulting to 1 thread. (../comm.cpp:94)
  using 1 OpenMP thread(s) per MPI task
Reading data file ...
  orthogonal box = (-122.39241 -121.13707 -37.090501) to (122.39241 121.13707 37.090501)
  13 by 4 by 2 MPI processor grid
  reading atoms ...
  288751 atoms
  read_data CPU = 0.345 seconds
199981 atoms in group inner
88770 atoms in group outer
1 atoms in group carbon
Neighbor list info ...
  update every 1 steps, delay 0 steps, check yes
  max neighbors/atom: 2000, page size: 100000
  master list distance cutoff = 5.6
  ghost atom cutoff = 5.6
  binsize = 2.8, bins = 88 87 27
  1 neighbor lists, perpetual/occasional/extra = 1 0 0
  (1) pair eam/alloy, perpetual
      attributes: half, newton on
      pair build: half/bin/atomonly/newton
      stencil: half/bin/3d/newton
      bin: standard
Setting up cg style minimization ...
  Unit style    : metal
  Current step  : 0
Per MPI rank memory allocation (min/avg/max) = 5.441 | 5.816 | 6.074 Mbytes
Step v_fx v_fy v_fz PotEng KinEng TotEng 
       0   -1.4546072   -1.0888017   -2.4596011   -1152447.8            0   -1152447.8 
     175 3.3892743e-07 -1.3003268e-06 -2.3045867e-05   -1152449.5            0   -1152449.5 
Loop time of 2.08097 on 104 procs for 175 steps with 288751 atoms

99.9% CPU use with 104 MPI tasks x 1 OpenMP threads

Minimization stats:
  Stopping criterion = energy tolerance
  Energy initial, next-to-last, final = 
     -1152447.79174018  -1152449.45035272  -1152449.45035272
  Force two-norm initial, final = 10.089679 5.8529535e-05
  Force max component initial, final = 4.5102156 2.3045867e-05
  Final line search alpha, max atom move = 1.0000000 2.3045867e-05
  Iterations, force evaluations = 175 349

MPI task timing breakdown:
Section |  min time  |  avg time  |  max time  |%varavg| %total
---------------------------------------------------------------
Pair    | 0.54568    | 1.4802     | 1.942      |  32.6 | 71.13
Neigh   | 3.2083e-05 | 0.0088267  | 0.01293    |   3.9 |  0.42
Comm    | 0.034679   | 0.33912    | 1.0081     |  46.9 | 16.30
Output  | 0          | 0          | 0          |   0.0 |  0.00
Modify  | 1.8509e-05 | 0.0018848  | 0.0048093  |   2.7 |  0.09
Other   |            | 0.251      |            |       | 12.06

Nlocal:        2776.45 ave        3960 max           0 min
Histogram: 8 4 4 0 4 12 8 2 28 34
Nghost:        3879.01 ave        5425 max         232 min
Histogram: 8 0 8 0 16 0 8 8 16 40
Neighs:        79213.5 ave      115442 max           0 min
Histogram: 8 4 4 0 10 6 8 8 24 32

Total # of neighbors = 8238207
Ave neighs/atom = 28.530488
Neighbor list builds = 3
Dangerous builds = 1
Setting atom values ...
  1 settings made for x
  1 settings made for y
  1 settings made for z
Setting up cg style minimization ...
  Unit style    : metal
  Current step  : 175
Per MPI rank memory allocation (min/avg/max) = 5.441 | 5.816 | 6.074 Mbytes
Step PotEng KinEng TotEng v_fx v_fy v_fz 
     175   -1152449.4            0   -1152449.4  0.037981955 -0.0013661579   0.03254677 
     395   -1152449.4            0   -1152449.4 6.7759551e-06 8.6140572e-06 9.2796919e-06 
Loop time of 2.56779 on 104 procs for 220 steps with 288751 atoms

99.9% CPU use with 104 MPI tasks x 1 OpenMP threads

Minimization stats:
  Stopping criterion = energy tolerance
  Energy initial, next-to-last, final = 
     -1152449.44640908  -1152449.44895648  -1152449.44895648
  Force two-norm initial, final = 0.23281293 4.1641511e-05
  Force max component initial, final = 0.12613312 1.0319502e-05
  Final line search alpha, max atom move = 1.0000000 1.0319502e-05
  Iterations, force evaluations = 220 440

MPI task timing breakdown:
Section |  min time  |  avg time  |  max time  |%varavg| %total
---------------------------------------------------------------
Pair    | 0.67168    | 1.8486     | 2.4159     |  36.7 | 71.99
Neigh   | 0          | 0          | 0          |   0.0 |  0.00
Comm    | 0.039084   | 0.41898    | 1.2378     |  53.3 | 16.32
Output  | 0          | 0          | 0          |   0.0 |  0.00
Modify  | 2.6521e-05 | 0.0036359  | 0.0077589  |   2.8 |  0.14
Other   |            | 0.2965     |            |       | 11.55

Nlocal:        2776.45 ave        3958 max           0 min
Histogram: 8 4 4 0 4 12 8 2 28 34
Nghost:        3878.99 ave        5426 max         232 min
Histogram: 8 0 8 0 16 0 8 8 16 40
Neighs:        79213.4 ave      115354 max           0 min
Histogram: 8 4 4 0 10 6 8 8 24 32

Total # of neighbors = 8238197
Ave neighs/atom = 28.530454
Neighbor list builds = 0
Dangerous builds = 0
Setting atom values ...
  1 settings made for x
  1 settings made for y
  1 settings made for z
Setting up cg style minimization ...
  Unit style    : metal
  Current step  : 395
Per MPI rank memory allocation (min/avg/max) = 5.441 | 5.816 | 6.074 Mbytes
Step PotEng KinEng TotEng v_fx v_fy v_fz 
     395   -1152449.4            0   -1152449.4  0.032669939 -0.0091706119  0.030823364 
     627   -1152449.4            0   -1152449.4 2.6704663e-06 4.3552618e-06 5.0290346e-06 
Loop time of 2.71375 on 104 procs for 232 steps with 288751 atoms

99.9% CPU use with 104 MPI tasks x 1 OpenMP threads

Minimization stats:
  Stopping criterion = energy tolerance
  Energy initial, next-to-last, final = 
     -1152449.44416047  -1152449.44581312  -1152449.44581312
  Force two-norm initial, final = 0.18769153 2.2107808e-05
  Force max component initial, final = 0.10223715 5.0290346e-06
  Final line search alpha, max atom move = 1.0000000 5.0290346e-06
  Iterations, force evaluations = 232 464

MPI task timing breakdown:
Section |  min time  |  avg time  |  max time  |%varavg| %total
---------------------------------------------------------------
Pair    | 0.70707    | 1.9514     | 2.5446     |  37.6 | 71.91
Neigh   | 0          | 0          | 0          |   0.0 |  0.00
Comm    | 0.051167   | 0.4421     | 1.3079     |  54.9 | 16.29
Output  | 0          | 0          | 0          |   0.0 |  0.00
Modify  | 2.8777e-05 | 0.0038319  | 0.0081752  |   2.9 |  0.14
Other   |            | 0.3165     |            |       | 11.66

Nlocal:        2776.45 ave        3959 max           0 min
Histogram: 8 4 4 0 4 12 8 2 28 34
Nghost:        3879.03 ave        5424 max         232 min
Histogram: 8 0 8 0 16 0 8 8 16 40
Neighs:        79213.4 ave      115392 max           0 min
Histogram: 8 4 4 0 10 6 8 8 24 32

Total # of neighbors = 8238196
Ave neighs/atom = 28.530450
Neighbor list builds = 0
Dangerous builds = 0
The dot product: 2.23326522453485e-08
Setting atom values ...
  1 settings made for x
  1 settings made for y
  1 settings made for z
Setting up cg style minimization ...
  Unit style    : metal
  Current step  : 627
Per MPI rank memory allocation (min/avg/max) = 5.441 | 5.816 | 6.074 Mbytes
Step PotEng KinEng TotEng v_fx v_fy v_fz 
     627   -1152449.4            0   -1152449.4  0.036108074 -0.018481238  0.036455914 
     856   -1152449.4            0   -1152449.4 -2.8343514e-06 -2.7807019e-06 -5.2233766e-06 
Loop time of 2.68597 on 104 procs for 229 steps with 288751 atoms

99.9% CPU use with 104 MPI tasks x 1 OpenMP threads

Minimization stats:
  Stopping criterion = energy tolerance
  Energy initial, next-to-last, final = 
     -1152449.43950448  -1152449.44113576  -1152449.44113576
  Force two-norm initial, final = 0.18733548 2.1102258e-05
  Force max component initial, final = 0.10049965 5.2233766e-06
  Final line search alpha, max atom move = 1.0000000 5.2233766e-06
  Iterations, force evaluations = 229 458

MPI task timing breakdown:
Section |  min time  |  avg time  |  max time  |%varavg| %total
---------------------------------------------------------------
Pair    | 0.6988     | 1.927      | 2.5232     |  37.5 | 71.74
Neigh   | 0          | 0          | 0          |   0.0 |  0.00
Comm    | 0.040428   | 0.43558    | 1.2914     |  54.5 | 16.22
Output  | 0          | 0          | 0          |   0.0 |  0.00
Modify  | 2.7781e-05 | 0.0037888  | 0.0081033  |   2.9 |  0.14
Other   |            | 0.3196     |            |       | 11.90

Nlocal:        2776.45 ave        3958 max           0 min
Histogram: 8 4 4 0 4 12 8 2 28 34
Nghost:        3879.07 ave        5424 max         232 min
Histogram: 8 0 8 0 16 0 8 8 16 40
Neighs:        79213.4 ave      115369 max           0 min
Histogram: 8 4 4 0 10 6 8 8 24 32

Total # of neighbors = 8238195
Ave neighs/atom = 28.530447
Neighbor list builds = 0
Dangerous builds = 0
The dot product: -3.18843231362228e-08
Setting atom values ...
  1 settings made for x
  1 settings made for y
  1 settings made for z
Setting up cg style minimization ...
  Unit style    : metal
  Current step  : 856
Per MPI rank memory allocation (min/avg/max) = 5.441 | 5.816 | 6.074 Mbytes
Step PotEng KinEng TotEng v_fx v_fy v_fz 
     856   -1152449.4            0   -1152449.4  0.036785924 -0.027130433  0.041625016 
     985   -1152449.4            0   -1152449.4 -9.5707763e-06 -3.7478155e-06 -1.7442342e-05 
Loop time of 1.51446 on 104 procs for 129 steps with 288751 atoms

99.9% CPU use with 104 MPI tasks x 1 OpenMP threads

Minimization stats:
  Stopping criterion = energy tolerance
  Energy initial, next-to-last, final = 
     -1152449.43362048  -1152449.43525229  -1152449.43525229
  Force two-norm initial, final = 0.18638385 0.00014343147
  Force max component initial, final = 0.096687285 1.7442342e-05
  Final line search alpha, max atom move = 1.0000000 1.7442342e-05
  Iterations, force evaluations = 129 258

MPI task timing breakdown:
Section |  min time  |  avg time  |  max time  |%varavg| %total
---------------------------------------------------------------
Pair    | 0.39392    | 1.0871     | 1.4215     |  28.1 | 71.78
Neigh   | 0          | 0          | 0          |   0.0 |  0.00
Comm    | 0.023104   | 0.24827    | 0.72561    |  40.5 | 16.39
Output  | 0          | 0          | 0          |   0.0 |  0.00
Modify  | 1.5907e-05 | 0.0021333  | 0.0045662  |   2.2 |  0.14
Other   |            | 0.177      |            |       | 11.69

Nlocal:        2776.45 ave        3958 max           0 min
Histogram: 8 4 4 0 4 12 8 2 28 34
Nghost:        3879.07 ave        5424 max         232 min
Histogram: 8 0 8 0 16 0 8 8 16 40
Neighs:        79213.4 ave      115359 max           0 min
Histogram: 8 4 4 0 10 6 8 8 24 32

Total # of neighbors = 8238195
Ave neighs/atom = 28.530447
Neighbor list builds = 0
Dangerous builds = 0
The dot product: -1.38523246705288e-07
Setting atom values ...
  1 settings made for x
  1 settings made for y
  1 settings made for z
Setting up cg style minimization ...
  Unit style    : metal
  Current step  : 985
Per MPI rank memory allocation (min/avg/max) = 5.441 | 5.816 | 6.074 Mbytes
Step PotEng KinEng TotEng v_fx v_fy v_fz 
     985   -1152449.4            0   -1152449.4  0.032611748  -0.03392925  0.040922869 
    1000   -1152449.4            0   -1152449.4 -0.00036538349 0.00054103868 -0.00035114253 
    1114   -1152449.4            0   -1152449.4 -6.8870297e-06 3.3862214e-06 -1.1163822e-05 
Loop time of 1.51904 on 104 procs for 129 steps with 288751 atoms

99.9% CPU use with 104 MPI tasks x 1 OpenMP threads

Minimization stats:
  Stopping criterion = energy tolerance
  Energy initial, next-to-last, final = 
     -1152449.42656663   -1152449.4281439   -1152449.4281439
  Force two-norm initial, final = 0.18292457 0.00011380971
  Force max component initial, final = 0.091514838 1.1163822e-05
  Final line search alpha, max atom move = 1.0000000 1.1163822e-05
  Iterations, force evaluations = 129 258

MPI task timing breakdown:
Section |  min time  |  avg time  |  max time  |%varavg| %total
---------------------------------------------------------------
Pair    | 0.39504    | 1.0898     | 1.4201     |  28.2 | 71.74
Neigh   | 0          | 0          | 0          |   0.0 |  0.00
Comm    | 0.0235     | 0.24731    | 0.7314     |  40.9 | 16.28
Output  | 0.00014512 | 0.00014788 | 0.00023874 |   0.0 |  0.01
Modify  | 1.6075e-05 | 0.0021443  | 0.0045774  |   2.2 |  0.14
Other   |            | 0.1796     |            |       | 11.82

Nlocal:        2776.45 ave        3958 max           0 min
Histogram: 8 4 4 0 4 12 8 2 28 34
Nghost:        3879.07 ave        5424 max         232 min
Histogram: 8 0 8 0 16 0 8 8 16 40
Neighs:        79213.4 ave      115360 max           0 min
Histogram: 8 4 4 0 10 6 8 8 24 32

Total # of neighbors = 8238197
Ave neighs/atom = 28.530454
Neighbor list builds = 0
Dangerous builds = 0
The dot product: -1.03532332760186e-07
Setting atom values ...
  1 settings made for x
  1 settings made for y
  1 settings made for z
Setting up cg style minimization ...
  Unit style    : metal
  Current step  : 1114
Per MPI rank memory allocation (min/avg/max) = 5.441 | 5.816 | 6.074 Mbytes
Step PotEng KinEng TotEng v_fx v_fy v_fz 
    1114   -1152449.4            0   -1152449.4  0.026973102 -0.038591571  0.035800961 
    1257   -1152449.4            0   -1152449.4 -1.0970214e-06 -8.7165012e-06 -8.8024404e-06 
Loop time of 1.66988 on 104 procs for 143 steps with 288751 atoms

99.9% CPU use with 104 MPI tasks x 1 OpenMP threads

Minimization stats:
  Stopping criterion = energy tolerance
  Energy initial, next-to-last, final = 
     -1152449.41821393  -1152449.41971977  -1152449.41971977
  Force two-norm initial, final = 0.17875115 5.5046794e-05
  Force max component initial, final = 0.086237488 8.8024404e-06
  Final line search alpha, max atom move = 1.0000000 8.8024404e-06
  Iterations, force evaluations = 143 286

MPI task timing breakdown:
Section |  min time  |  avg time  |  max time  |%varavg| %total
---------------------------------------------------------------
Pair    | 0.43721    | 1.2045     | 1.5737     |  29.6 | 72.13
Neigh   | 0          | 0          | 0          |   0.0 |  0.00
Comm    | 0.026656   | 0.27248    | 0.80568    |  43.1 | 16.32
Output  | 0          | 0          | 0          |   0.0 |  0.00
Modify  | 1.7976e-05 | 0.0023695  | 0.005043   |   2.3 |  0.14
Other   |            | 0.1905     |            |       | 11.41

Nlocal:        2776.45 ave        3958 max           0 min
Histogram: 8 4 4 0 4 12 8 4 26 34
Nghost:        3879.07 ave        5424 max         232 min
Histogram: 8 0 8 0 16 0 8 8 16 40
Neighs:        79213.5 ave      115360 max           0 min
Histogram: 8 4 4 0 10 6 8 8 24 32

Total # of neighbors = 8238199
Ave neighs/atom = 28.530461
Neighbor list builds = 0
Dangerous builds = 0
The dot product: -2.93360552614441e-08
Setting atom values ...
  1 settings made for x
  1 settings made for y
  1 settings made for z
Setting up cg style minimization ...
  Unit style    : metal
  Current step  : 1257
Per MPI rank memory allocation (min/avg/max) = 5.441 | 5.816 | 6.074 Mbytes
Step PotEng KinEng TotEng v_fx v_fy v_fz 
    1257   -1152449.4            0   -1152449.4  0.021858963 -0.041546886  0.029034227 
    1388   -1152449.4            0   -1152449.4 3.0534607e-07 -1.1639666e-05 -7.8340209e-06 
Loop time of 1.56252 on 104 procs for 131 steps with 288751 atoms

99.9% CPU use with 104 MPI tasks x 1 OpenMP threads

Minimization stats:
  Stopping criterion = energy tolerance
  Energy initial, next-to-last, final = 
     -1152449.40847506  -1152449.40991429  -1152449.40991429
  Force two-norm initial, final = 0.17494176 8.2761417e-05
  Force max component initial, final = 0.0814917 1.2845159e-05
  Final line search alpha, max atom move = 1.0000000 1.2845159e-05
  Iterations, force evaluations = 131 262

MPI task timing breakdown:
Section |  min time  |  avg time  |  max time  |%varavg| %total
---------------------------------------------------------------
Pair    | 0.40059    | 1.1125     | 1.4688     |  28.8 | 71.20
Neigh   | 0          | 0          | 0          |   0.0 |  0.00
Comm    | 0.027553   | 0.25615    | 0.74218    |  40.3 | 16.39
Output  | 0          | 0          | 0          |   0.0 |  0.00
Modify  | 1.6982e-05 | 0.0021675  | 0.0046117  |   2.2 |  0.14
Other   |            | 0.1917     |            |       | 12.27

Nlocal:        2776.45 ave        3959 max           0 min
Histogram: 8 4 4 0 4 12 8 4 26 34
Nghost:        3879.07 ave        5424 max         232 min
Histogram: 8 0 8 0 16 0 8 8 16 40
Neighs:        79213.5 ave      115394 max           0 min
Histogram: 8 4 4 0 10 6 8 8 24 32

Total # of neighbors = 8238202
Ave neighs/atom = 28.530471
Neighbor list builds = 0
Dangerous builds = 0
The dot product: -3.66189932839915e-11
Setting up cg style minimization ...
  Unit style    : metal
  Current step  : 1388
Per MPI rank memory allocation (min/avg/max) = 5.441 | 5.816 | 6.074 Mbytes
Step PotEng KinEng TotEng v_fx v_fy v_fz 
    1388   -1152449.4            0   -1152449.4  -0.48198232  -0.13086149   0.17562063 
    1642   -1152449.5            0   -1152449.5 5.3521122e-06 9.6376673e-06 -1.4573171e-05 
Loop time of 2.96669 on 104 procs for 254 steps with 288751 atoms

99.9% CPU use with 104 MPI tasks x 1 OpenMP threads

Minimization stats:
  Stopping criterion = energy tolerance
  Energy initial, next-to-last, final = 
     -1152449.40991429  -1152449.45035271  -1152449.45035271
  Force two-norm initial, final = 0.52940938 5.5543416e-05
  Force max component initial, final = 0.48198232 1.4573171e-05
  Final line search alpha, max atom move = 1.0000000 1.4573171e-05
  Iterations, force evaluations = 254 508

MPI task timing breakdown:
Section |  min time  |  avg time  |  max time  |%varavg| %total
---------------------------------------------------------------
Pair    | 0.77688    | 2.136      | 2.791      |  39.3 | 72.00
Neigh   | 1.0128e-05 | 0.0029565  | 0.0042583  |   2.2 |  0.10
Comm    | 0.04586    | 0.48361    | 1.431      |  57.4 | 16.30
Output  | 0          | 0          | 0          |   0.0 |  0.00
Modify  | 2.6762e-05 | 0.002735   | 0.0070391  |   3.3 |  0.09
Other   |            | 0.3414     |            |       | 11.51

Nlocal:        2776.45 ave        3959 max           0 min
Histogram: 8 4 4 0 4 12 8 4 26 34
Nghost:        3879.07 ave        5424 max         232 min
Histogram: 8 0 8 0 16 0 8 8 16 40
Neighs:        79213.5 ave      115394 max           0 min
Histogram: 8 4 4 0 10 6 8 8 24 32

Total # of neighbors = 8238199
Ave neighs/atom = 28.530461
Neighbor list builds = 1
Dangerous builds = 0
