LAMMPS (29 Oct 2020)
OMP_NUM_THREADS environment is not set. Defaulting to 1 thread. (../comm.cpp:94)
  using 1 OpenMP thread(s) per MPI task
OMP_NUM_THREADS environment is not set. Defaulting to 1 thread. (../comm.cpp:94)
  using 1 OpenMP thread(s) per MPI task
Reading data file ...
  orthogonal box = (-122.39241 -121.13707 -37.090501) to (122.39241 121.13707 37.090501)
  13 by 4 by 2 MPI processor grid
  reading atoms ...
  288751 atoms
  read_data CPU = 0.467 seconds
199981 atoms in group inner
88770 atoms in group outer
1 atoms in group carbon
Neighbor list info ...
  update every 1 steps, delay 0 steps, check yes
  max neighbors/atom: 2000, page size: 100000
  master list distance cutoff = 5.6
  ghost atom cutoff = 5.6
  binsize = 2.8, bins = 88 87 27
  1 neighbor lists, perpetual/occasional/extra = 1 0 0
  (1) pair eam/alloy, perpetual
      attributes: half, newton on
      pair build: half/bin/atomonly/newton
      stencil: half/bin/3d/newton
      bin: standard
Setting up cg style minimization ...
  Unit style    : metal
  Current step  : 0
Per MPI rank memory allocation (min/avg/max) = 5.441 | 5.816 | 6.074 Mbytes
Step v_fx v_fy v_fz PotEng KinEng TotEng 
       0    1.6561963   -0.7123748   -2.4456475   -1152447.8            0   -1152447.8 
     198 -3.8324188e-06 1.7147946e-07 5.2274711e-06   -1152449.5            0   -1152449.5 
Loop time of 2.33438 on 104 procs for 198 steps with 288751 atoms

99.8% CPU use with 104 MPI tasks x 1 OpenMP threads

Minimization stats:
  Stopping criterion = energy tolerance
  Energy initial, next-to-last, final = 
     -1152447.79290014  -1152449.45035287  -1152449.45035287
  Force two-norm initial, final = 10.072978 1.9782649e-05
  Force max component initial, final = 6.1104342 6.2677529e-06
  Final line search alpha, max atom move = 1.0000000 6.2677529e-06
  Iterations, force evaluations = 198 395

MPI task timing breakdown:
Section |  min time  |  avg time  |  max time  |%varavg| %total
---------------------------------------------------------------
Pair    | 0.61616    | 1.6639     | 2.1575     |  34.4 | 71.28
Neigh   | 3.1515e-05 | 0.009256   | 0.013567   |   4.0 |  0.40
Comm    | 0.038951   | 0.38186    | 1.13       |  50.5 | 16.36
Output  | 0          | 0          | 0          |   0.0 |  0.00
Modify  | 2.3754e-05 | 0.0021331  | 0.0054816  |   2.9 |  0.09
Other   |            | 0.2772     |            |       | 11.87

Nlocal:        2776.45 ave        3959 max           0 min
Histogram: 8 4 4 0 4 12 8 2 28 34
Nghost:        3879.01 ave        5425 max         232 min
Histogram: 8 0 8 0 16 0 8 8 16 40
Neighs:        79213.5 ave      115406 max           0 min
Histogram: 8 4 4 0 10 6 8 8 24 32

Total # of neighbors = 8238206
Ave neighs/atom = 28.530485
Neighbor list builds = 3
Dangerous builds = 0
Setting atom values ...
  1 settings made for x
  1 settings made for y
  1 settings made for z
Setting up cg style minimization ...
  Unit style    : metal
  Current step  : 198
Per MPI rank memory allocation (min/avg/max) = 5.441 | 5.816 | 6.074 Mbytes
Step PotEng KinEng TotEng v_fx v_fy v_fz 
     198   -1152449.4            0   -1152449.4  0.012427662 -0.016207491 -0.020760422 
     301   -1152449.5            0   -1152449.5 2.6754625e-05 -8.8149495e-06 3.8563879e-05 
Loop time of 1.22355 on 104 procs for 103 steps with 288751 atoms

99.9% CPU use with 104 MPI tasks x 1 OpenMP threads

Minimization stats:
  Stopping criterion = energy tolerance
  Energy initial, next-to-last, final = 
     -1152449.44947032  -1152449.45002032  -1152449.45002032
  Force two-norm initial, final = 0.10820713 0.00024385271
  Force max component initial, final = 0.04762637 4.8476439e-05
  Final line search alpha, max atom move = 1.0000000 4.8476439e-05
  Iterations, force evaluations = 103 206

MPI task timing breakdown:
Section |  min time  |  avg time  |  max time  |%varavg| %total
---------------------------------------------------------------
Pair    | 0.31448    | 0.87242    | 1.143      |  25.2 | 71.30
Neigh   | 0          | 0          | 0          |   0.0 |  0.00
Comm    | 0.022839   | 0.19949    | 0.59831    |  36.7 | 16.30
Output  | 0          | 0          | 0          |   0.0 |  0.00
Modify  | 1.3637e-05 | 0.0017088  | 0.003676   |   2.0 |  0.14
Other   |            | 0.1499     |            |       | 12.25

Nlocal:        2776.45 ave        3960 max           0 min
Histogram: 8 4 4 0 4 12 8 2 28 34
Nghost:        3879.01 ave        5424 max         232 min
Histogram: 8 0 8 0 16 0 8 8 16 40
Neighs:        79213.4 ave      115429 max           0 min
Histogram: 8 4 4 0 10 6 8 8 24 32

Total # of neighbors = 8238197
Ave neighs/atom = 28.530454
Neighbor list builds = 0
Dangerous builds = 0
Setting atom values ...
  1 settings made for x
  1 settings made for y
  1 settings made for z
Setting up cg style minimization ...
  Unit style    : metal
  Current step  : 301
Per MPI rank memory allocation (min/avg/max) = 5.441 | 5.816 | 6.074 Mbytes
Step PotEng KinEng TotEng v_fx v_fy v_fz 
     301   -1152449.4            0   -1152449.4  0.021685656 -0.023245675 -0.033854905 
     459   -1152449.4            0   -1152449.4 1.2608263e-05 -2.0392194e-05 -5.387332e-05 
Loop time of 1.88665 on 104 procs for 158 steps with 288751 atoms

99.8% CPU use with 104 MPI tasks x 1 OpenMP threads

Minimization stats:
  Stopping criterion = energy tolerance
  Energy initial, next-to-last, final = 
     -1152449.44665755  -1152449.44808501  -1152449.44808501
  Force two-norm initial, final = 0.174737 0.00018192894
  Force max component initial, final = 0.079496465 5.3873320e-05
  Final line search alpha, max atom move = 1.0000000 5.3873320e-05
  Iterations, force evaluations = 158 316

MPI task timing breakdown:
Section |  min time  |  avg time  |  max time  |%varavg| %total
---------------------------------------------------------------
Pair    | 0.48783    | 1.3347     | 1.7389     |  31.1 | 70.74
Neigh   | 0          | 0          | 0          |   0.0 |  0.00
Comm    | 0.037889   | 0.30534    | 0.91544    |  45.5 | 16.18
Output  | 0          | 0          | 0          |   0.0 |  0.00
Modify  | 2.1978e-05 | 0.0026101  | 0.0055972  |   2.4 |  0.14
Other   |            | 0.244      |            |       | 12.93

Nlocal:        2776.45 ave        3959 max           0 min
Histogram: 8 4 4 0 4 12 8 2 28 34
Nghost:        3879.01 ave        5424 max         232 min
Histogram: 8 0 8 0 16 0 8 8 16 40
Neighs:        79213.5 ave      115403 max           0 min
Histogram: 8 4 4 0 10 6 8 8 24 32

Total # of neighbors = 8238199
Ave neighs/atom = 28.530461
Neighbor list builds = 0
Dangerous builds = 0
The dot product: 1.37606634394848e-07
Setting atom values ...
  1 settings made for x
  1 settings made for y
  1 settings made for z
Setting up cg style minimization ...
  Unit style    : metal
  Current step  : 459
Per MPI rank memory allocation (min/avg/max) = 5.441 | 5.816 | 6.074 Mbytes
Step PotEng KinEng TotEng v_fx v_fy v_fz 
     459   -1152449.4            0   -1152449.4  0.021036148 -0.019056041  -0.03193063 
     595   -1152449.4            0   -1152449.4 6.9282421e-06 -5.6398443e-06 -4.4041785e-06 
Loop time of 1.59057 on 104 procs for 136 steps with 288751 atoms

99.9% CPU use with 104 MPI tasks x 1 OpenMP threads

Minimization stats:
  Stopping criterion = energy tolerance
  Energy initial, next-to-last, final = 
     -1152449.44328005   -1152449.4446604   -1152449.4446604
  Force two-norm initial, final = 0.17152234 5.7247498e-05
  Force max component initial, final = 0.079133195 6.9282421e-06
  Final line search alpha, max atom move = 1.0000000 6.9282421e-06
  Iterations, force evaluations = 136 272

MPI task timing breakdown:
Section |  min time  |  avg time  |  max time  |%varavg| %total
---------------------------------------------------------------
Pair    | 0.41331    | 1.1497     | 1.4957     |  28.9 | 72.28
Neigh   | 0          | 0          | 0          |   0.0 |  0.00
Comm    | 0.023176   | 0.26214    | 0.78281    |  42.5 | 16.48
Output  | 0          | 0          | 0          |   0.0 |  0.00
Modify  | 1.6609e-05 | 0.0022526  | 0.0048126  |   2.2 |  0.14
Other   |            | 0.1765     |            |       | 11.10

Nlocal:        2776.45 ave        3959 max           0 min
Histogram: 8 4 4 0 4 12 8 2 28 34
Nghost:        3879.01 ave        5424 max         232 min
Histogram: 8 0 8 0 16 0 8 8 16 40
Neighs:        79213.5 ave      115403 max           0 min
Histogram: 8 4 4 0 10 6 8 8 24 32

Total # of neighbors = 8238199
Ave neighs/atom = 28.530461
Neighbor list builds = 0
Dangerous builds = 0
The dot product: 1.01678943486648e-08
Setting atom values ...
  1 settings made for x
  1 settings made for y
  1 settings made for z
Setting up cg style minimization ...
  Unit style    : metal
  Current step  : 595
Per MPI rank memory allocation (min/avg/max) = 5.441 | 5.816 | 6.074 Mbytes
Step PotEng KinEng TotEng v_fx v_fy v_fz 
     595   -1152449.4            0   -1152449.4  0.019612022 -0.015600551 -0.026200965 
     708   -1152449.4            0   -1152449.4 2.8163253e-06 -2.4900478e-06 -1.4219475e-05 
Loop time of 1.30579 on 104 procs for 113 steps with 288751 atoms

99.9% CPU use with 104 MPI tasks x 1 OpenMP threads

Minimization stats:
  Stopping criterion = energy tolerance
  Energy initial, next-to-last, final = 
     -1152449.43854612  -1152449.43990985  -1152449.43990985
  Force two-norm initial, final = 0.16886113 0.00023762755
  Force max component initial, final = 0.077223903 5.1517039e-05
  Final line search alpha, max atom move = 1.0000000 5.1517039e-05
  Iterations, force evaluations = 113 226

MPI task timing breakdown:
Section |  min time  |  avg time  |  max time  |%varavg| %total
---------------------------------------------------------------
Pair    | 0.34153    | 0.94642    | 1.2318     |  26.3 | 72.48
Neigh   | 0          | 0          | 0          |   0.0 |  0.00
Comm    | 0.019073   | 0.21069    | 0.64183    |  39.3 | 16.14
Output  | 0          | 0          | 0          |   0.0 |  0.00
Modify  | 1.3839e-05 | 0.0018662  | 0.0039828  |   2.0 |  0.14
Other   |            | 0.1468     |            |       | 11.24

Nlocal:        2776.45 ave        3958 max           0 min
Histogram: 8 4 4 0 4 12 8 2 28 34
Nghost:        3879.01 ave        5424 max         232 min
Histogram: 8 0 8 0 16 0 8 8 16 40
Neighs:        79213.5 ave      115381 max           0 min
Histogram: 8 4 4 0 10 6 8 8 24 32

Total # of neighbors = 8238201
Ave neighs/atom = 28.530467
Neighbor list builds = 0
Dangerous builds = 0
The dot product: 4.31667085581917e-08
Setting atom values ...
  1 settings made for x
  1 settings made for y
  1 settings made for z
Setting up cg style minimization ...
  Unit style    : metal
  Current step  : 708
Per MPI rank memory allocation (min/avg/max) = 5.441 | 5.816 | 6.074 Mbytes
Step PotEng KinEng TotEng v_fx v_fy v_fz 
     708   -1152449.4            0   -1152449.4  0.017878143 -0.013499745  -0.01946285 
     932   -1152449.4            0   -1152449.4 -1.4329308e-08 7.9012146e-08 -1.8948601e-06 
Loop time of 2.6109 on 104 procs for 224 steps with 288751 atoms

99.9% CPU use with 104 MPI tasks x 1 OpenMP threads

Minimization stats:
  Stopping criterion = energy tolerance
  Energy initial, next-to-last, final = 
     -1152449.43244157  -1152449.43379801  -1152449.43379801
  Force two-norm initial, final = 0.16732471 2.2831775e-05
  Force max component initial, final = 0.074549262 2.9848994e-06
  Final line search alpha, max atom move = 1.0000000 2.9848994e-06
  Iterations, force evaluations = 224 448

MPI task timing breakdown:
Section |  min time  |  avg time  |  max time  |%varavg| %total
---------------------------------------------------------------
Pair    | 0.68089    | 1.8849     | 2.468      |  37.0 | 72.19
Neigh   | 0          | 0          | 0          |   0.0 |  0.00
Comm    | 0.038969   | 0.42376    | 1.27       |  54.4 | 16.23
Output  | 0          | 0          | 0          |   0.0 |  0.00
Modify  | 2.7412e-05 | 0.0036908  | 0.0078938  |   2.9 |  0.14
Other   |            | 0.2985     |            |       | 11.43

Nlocal:        2776.45 ave        3957 max           0 min
Histogram: 8 4 4 0 4 12 8 2 28 34
Nghost:        3879.01 ave        5424 max         232 min
Histogram: 8 0 8 0 16 0 8 8 16 40
Neighs:        79213.5 ave      115358 max           0 min
Histogram: 8 4 4 0 10 6 8 8 24 32

Total # of neighbors = 8238202
Ave neighs/atom = 28.530471
Neighbor list builds = 0
Dangerous builds = 0
The dot product: 5.9146387217207e-09
Setting atom values ...
  1 settings made for x
  1 settings made for y
  1 settings made for z
Setting up cg style minimization ...
  Unit style    : metal
  Current step  : 932
Per MPI rank memory allocation (min/avg/max) = 5.441 | 5.816 | 6.074 Mbytes
Step PotEng KinEng TotEng v_fx v_fy v_fz 
     932   -1152449.4            0   -1152449.4  0.016168557 -0.012369979 -0.013521863 
    1000   -1152449.4            0   -1152449.4 -4.1225581e-05 5.526346e-05 -0.00026434644 
    1054   -1152449.4            0   -1152449.4 -4.1934259e-07 2.5768228e-06 -2.8066387e-05 
Loop time of 1.42952 on 104 procs for 122 steps with 288751 atoms

99.9% CPU use with 104 MPI tasks x 1 OpenMP threads

Minimization stats:
  Stopping criterion = energy tolerance
  Energy initial, next-to-last, final = 
     -1152449.42492717    -1152449.426284    -1152449.426284
  Force two-norm initial, final = 0.16677087 0.00020985763
  Force max component initial, final = 0.074388951 2.8066387e-05
  Final line search alpha, max atom move = 1.0000000 2.8066387e-05
  Iterations, force evaluations = 122 244

MPI task timing breakdown:
Section |  min time  |  avg time  |  max time  |%varavg| %total
---------------------------------------------------------------
Pair    | 0.36927    | 1.0224     | 1.3292     |  27.3 | 71.52
Neigh   | 0          | 0          | 0          |   0.0 |  0.00
Comm    | 0.020651   | 0.23143    | 0.71       |  40.5 | 16.19
Output  | 0.00015448 | 0.00015781 | 0.00026848 |   0.0 |  0.01
Modify  | 1.5318e-05 | 0.0020194  | 0.0042723  |   2.1 |  0.14
Other   |            | 0.1735     |            |       | 12.14

Nlocal:        2776.45 ave        3956 max           0 min
Histogram: 8 4 4 0 4 12 8 0 30 34
Nghost:        3879.01 ave        5424 max         232 min
Histogram: 8 0 8 0 16 0 8 8 16 40
Neighs:        79213.5 ave      115318 max           0 min
Histogram: 8 4 4 0 10 6 8 8 24 32

Total # of neighbors = 8238201
Ave neighs/atom = 28.530467
Neighbor list builds = 0
Dangerous builds = 0
The dot product: 7.60791967741193e-08
Setting atom values ...
  1 settings made for x
  1 settings made for y
  1 settings made for z
Setting up cg style minimization ...
  Unit style    : metal
  Current step  : 1054
Per MPI rank memory allocation (min/avg/max) = 5.441 | 5.816 | 6.074 Mbytes
Step PotEng KinEng TotEng v_fx v_fy v_fz 
    1054   -1152449.4            0   -1152449.4  0.014765841   -0.0119232 -0.0085880826 
    1228   -1152449.4            0   -1152449.4 -6.4459604e-06 1.171331e-06 4.0136708e-05 
Loop time of 2.02779 on 104 procs for 174 steps with 288751 atoms

99.9% CPU use with 104 MPI tasks x 1 OpenMP threads

Minimization stats:
  Stopping criterion = energy tolerance
  Energy initial, next-to-last, final = 
     -1152449.41597323  -1152449.41733735  -1152449.41733735
  Force two-norm initial, final = 0.16681675 0.00016619493
  Force max component initial, final = 0.074727127 4.0136708e-05
  Final line search alpha, max atom move = 1.0000000 4.0136708e-05
  Iterations, force evaluations = 174 348

MPI task timing breakdown:
Section |  min time  |  avg time  |  max time  |%varavg| %total
---------------------------------------------------------------
Pair    | 0.52813    | 1.4633     | 1.9165     |  32.6 | 72.16
Neigh   | 0          | 0          | 0          |   0.0 |  0.00
Comm    | 0.029793   | 0.33012    | 0.99336    |  47.9 | 16.28
Output  | 0          | 0          | 0          |   0.0 |  0.00
Modify  | 2.231e-05  | 0.0028699  | 0.0061185  |   2.5 |  0.14
Other   |            | 0.2315     |            |       | 11.42

Nlocal:        2776.45 ave        3954 max           0 min
Histogram: 8 4 4 0 4 12 8 1 29 34
Nghost:        3879.01 ave        5424 max         232 min
Histogram: 8 0 8 0 16 0 8 8 16 40
Neighs:        79213.5 ave      115239 max           0 min
Histogram: 8 4 4 0 10 6 8 8 24 32

Total # of neighbors = 8238203
Ave neighs/atom = 28.530474
Neighbor list builds = 0
Dangerous builds = 0
The dot product: -6.90034851145397e-08
Setting atom values ...
  1 settings made for x
  1 settings made for y
  1 settings made for z
Setting up cg style minimization ...
  Unit style    : metal
  Current step  : 1228
Per MPI rank memory allocation (min/avg/max) = 5.441 | 5.816 | 6.074 Mbytes
Step PotEng KinEng TotEng v_fx v_fy v_fz 
    1228   -1152449.4            0   -1152449.4  0.013924585 -0.012024297 -0.005043973 
    1357   -1152449.4            0   -1152449.4 5.9782855e-06 -7.3781409e-06 1.4247996e-05 
Loop time of 1.4801 on 104 procs for 129 steps with 288751 atoms

99.9% CPU use with 104 MPI tasks x 1 OpenMP threads

Minimization stats:
  Stopping criterion = energy tolerance
  Energy initial, next-to-last, final = 
      -1152449.4055599   -1152449.4069318   -1152449.4069318
  Force two-norm initial, final = 0.16715232 0.00019455784
  Force max component initial, final = 0.074709312 3.0038493e-05
  Final line search alpha, max atom move = 1.0000000 3.0038493e-05
  Iterations, force evaluations = 129 258

MPI task timing breakdown:
Section |  min time  |  avg time  |  max time  |%varavg| %total
---------------------------------------------------------------
Pair    | 0.39033    | 1.0805     | 1.4023     |  28.0 | 73.00
Neigh   | 0          | 0          | 0          |   0.0 |  0.00
Comm    | 0.022207   | 0.24065    | 0.73412    |  42.0 | 16.26
Output  | 0          | 0          | 0          |   0.0 |  0.00
Modify  | 1.5984e-05 | 0.0021306  | 0.0045427  |   2.2 |  0.14
Other   |            | 0.1568     |            |       | 10.60

Nlocal:        2776.45 ave        3953 max           0 min
Histogram: 8 4 4 0 4 12 8 2 28 34
Nghost:        3879.01 ave        5424 max         232 min
Histogram: 8 0 8 0 16 0 8 8 16 40
Neighs:        79213.5 ave      115203 max           0 min
Histogram: 8 4 4 0 10 6 8 8 24 32

Total # of neighbors = 8238201
Ave neighs/atom = 28.530467
Neighbor list builds = 0
Dangerous builds = 0
The dot product: -5.40386738954984e-08
Setting atom values ...
  1 settings made for x
  1 settings made for y
  1 settings made for z
Setting up cg style minimization ...
  Unit style    : metal
  Current step  : 1357
Per MPI rank memory allocation (min/avg/max) = 5.441 | 5.816 | 6.074 Mbytes
Step PotEng KinEng TotEng v_fx v_fy v_fz 
    1357   -1152449.4            0   -1152449.4  0.013870425 -0.012808284 -0.0023872856 
    1497   -1152449.4            0   -1152449.4 -2.0854349e-05 8.8486323e-06 7.1283707e-05 
Loop time of 1.63735 on 104 procs for 140 steps with 288751 atoms

99.9% CPU use with 104 MPI tasks x 1 OpenMP threads

Minimization stats:
  Stopping criterion = energy tolerance
  Energy initial, next-to-last, final = 
     -1152449.39366595  -1152449.39504459  -1152449.39504459
  Force two-norm initial, final = 0.16756341 0.00023494004
  Force max component initial, final = 0.074463994 7.1283707e-05
  Final line search alpha, max atom move = 1.0000000 7.1283707e-05
  Iterations, force evaluations = 140 280

MPI task timing breakdown:
Section |  min time  |  avg time  |  max time  |%varavg| %total
---------------------------------------------------------------
Pair    | 0.42524    | 1.182      | 1.5453     |  29.3 | 72.19
Neigh   | 0          | 0          | 0          |   0.0 |  0.00
Comm    | 0.024109   | 0.2691     | 0.80611    |  43.1 | 16.43
Output  | 0          | 0          | 0          |   0.0 |  0.00
Modify  | 1.7509e-05 | 0.0023187  | 0.0049422  |   2.3 |  0.14
Other   |            | 0.1839     |            |       | 11.23

Nlocal:        2776.45 ave        3951 max           0 min
Histogram: 8 4 4 0 4 12 8 2 28 34
Nghost:        3879.01 ave        5424 max         232 min
Histogram: 8 0 8 0 16 0 8 8 16 40
Neighs:        79213.5 ave      115135 max           0 min
Histogram: 8 4 4 0 10 6 8 8 24 32

Total # of neighbors = 8238202
Ave neighs/atom = 28.530471
Neighbor list builds = 0
Dangerous builds = 0
The dot product: -5.32946994384686e-08
Setting atom values ...
  1 settings made for x
  1 settings made for y
  1 settings made for z
Setting up cg style minimization ...
  Unit style    : metal
  Current step  : 1497
Per MPI rank memory allocation (min/avg/max) = 5.441 | 5.816 | 6.074 Mbytes
Step PotEng KinEng TotEng v_fx v_fy v_fz 
    1497   -1152449.4            0   -1152449.4  0.014522216 -0.014164032 -0.00057946654 
    1630   -1152449.4            0   -1152449.4 -2.3634048e-06 7.3177473e-06 -2.9514487e-05 
Loop time of 1.54435 on 104 procs for 133 steps with 288751 atoms

99.9% CPU use with 104 MPI tasks x 1 OpenMP threads

Minimization stats:
  Stopping criterion = energy tolerance
  Energy initial, next-to-last, final = 
     -1152449.38027258  -1152449.38165613  -1152449.38165613
  Force two-norm initial, final = 0.16798876 0.00024530305
  Force max component initial, final = 0.074348855 4.7884354e-05
  Final line search alpha, max atom move = 1.0000000 4.7884354e-05
  Iterations, force evaluations = 133 266

MPI task timing breakdown:
Section |  min time  |  avg time  |  max time  |%varavg| %total
---------------------------------------------------------------
Pair    | 0.40621    | 1.1198     | 1.4563     |  28.6 | 72.51
Neigh   | 0          | 0          | 0          |   0.0 |  0.00
Comm    | 0.022697   | 0.25141    | 0.76366    |  42.5 | 16.28
Output  | 0          | 0          | 0          |   0.0 |  0.00
Modify  | 1.6639e-05 | 0.0021954  | 0.0046707  |   2.2 |  0.14
Other   |            | 0.1709     |            |       | 11.07

Nlocal:        2776.45 ave        3950 max           0 min
Histogram: 8 4 4 0 4 12 8 2 26 36
Nghost:        3879.01 ave        5424 max         232 min
Histogram: 8 0 8 0 16 0 8 8 16 40
Neighs:        79213.5 ave      115103 max           0 min
Histogram: 8 4 4 0 10 6 8 8 24 32

Total # of neighbors = 8238203
Ave neighs/atom = 28.530474
Neighbor list builds = 0
Dangerous builds = 0
The dot product: 6.21508885455637e-08
Setting atom values ...
  1 settings made for x
  1 settings made for y
  1 settings made for z
Setting up cg style minimization ...
  Unit style    : metal
  Current step  : 1630
Per MPI rank memory allocation (min/avg/max) = 5.441 | 5.816 | 6.074 Mbytes
Step PotEng KinEng TotEng v_fx v_fy v_fz 
    1630   -1152449.4            0   -1152449.4   0.01557351 -0.015769881 0.00037592713 
    1794   -1152449.4            0   -1152449.4 -1.8577977e-05 2.1363659e-06 9.0750028e-05 
Loop time of 1.88967 on 104 procs for 164 steps with 288751 atoms

99.9% CPU use with 104 MPI tasks x 1 OpenMP threads

Minimization stats:
  Stopping criterion = energy tolerance
  Energy initial, next-to-last, final = 
     -1152449.36536192  -1152449.36675002  -1152449.36675002
  Force two-norm initial, final = 0.16835518 0.00024075697
  Force max component initial, final = 0.074259628 9.0750028e-05
  Final line search alpha, max atom move = 1.0000000 9.0750028e-05
  Iterations, force evaluations = 164 328

MPI task timing breakdown:
Section |  min time  |  avg time  |  max time  |%varavg| %total
---------------------------------------------------------------
Pair    | 0.49697    | 1.3804     | 1.7915     |  31.7 | 73.05
Neigh   | 0          | 0          | 0          |   0.0 |  0.00
Comm    | 0.027155   | 0.3105     | 0.94197    |  46.8 | 16.43
Output  | 0          | 0          | 0          |   0.0 |  0.00
Modify  | 1.9485e-05 | 0.0026992  | 0.0057537  |   2.5 |  0.14
Other   |            | 0.196      |            |       | 10.37

Nlocal:        2776.45 ave        3948 max           0 min
Histogram: 8 4 4 0 4 12 8 2 26 36
Nghost:        3879.01 ave        5424 max         232 min
Histogram: 8 0 8 0 16 0 8 8 16 40
Neighs:        79213.5 ave      115042 max           0 min
Histogram: 8 4 4 0 10 6 8 8 24 32

Total # of neighbors = 8238204
Ave neighs/atom = 28.530478
Neighbor list builds = 0
Dangerous builds = 0
The dot product: -1.16386000918709e-07
Setting atom values ...
  1 settings made for x
  1 settings made for y
  1 settings made for z
Setting up cg style minimization ...
  Unit style    : metal
  Current step  : 1794
Per MPI rank memory allocation (min/avg/max) = 5.441 | 5.816 | 6.074 Mbytes
Step PotEng KinEng TotEng v_fx v_fy v_fz 
    1794   -1152449.3            0   -1152449.3  0.016249189 -0.016849035 0.00062521588 
    1921   -1152449.4            0   -1152449.4 -1.8500261e-05 1.7178504e-05 9.5203042e-06 
Loop time of 1.46312 on 104 procs for 127 steps with 288751 atoms

99.9% CPU use with 104 MPI tasks x 1 OpenMP threads

Minimization stats:
  Stopping criterion = energy tolerance
  Energy initial, next-to-last, final = 
     -1152449.34891102  -1152449.35030366  -1152449.35030366
  Force two-norm initial, final = 0.16863839 0.00024273076
  Force max component initial, final = 0.074398379 5.4706857e-05
  Final line search alpha, max atom move = 1.0000000 5.4706857e-05
  Iterations, force evaluations = 127 254

MPI task timing breakdown:
Section |  min time  |  avg time  |  max time  |%varavg| %total
---------------------------------------------------------------
Pair    | 0.38573    | 1.0642     | 1.3825     |  27.8 | 72.73
Neigh   | 0          | 0          | 0          |   0.0 |  0.00
Comm    | 0.023211   | 0.23911    | 0.72755    |  41.3 | 16.34
Output  | 0          | 0          | 0          |   0.0 |  0.00
Modify  | 1.5479e-05 | 0.0021012  | 0.0044687  |   2.2 |  0.14
Other   |            | 0.1577     |            |       | 10.78

Nlocal:        2776.45 ave        3946 max           0 min
Histogram: 8 4 4 0 4 12 8 2 26 36
Nghost:        3879.01 ave        5424 max         232 min
Histogram: 8 0 8 0 16 0 8 8 16 40
Neighs:        79213.5 ave      114987 max           0 min
Histogram: 8 4 4 0 10 6 8 8 24 32

Total # of neighbors = 8238204
Ave neighs/atom = 28.530478
Neighbor list builds = 0
Dangerous builds = 0
The dot product: 3.52856502491656e-08
Setting atom values ...
  1 settings made for x
  1 settings made for y
  1 settings made for z
Setting up cg style minimization ...
  Unit style    : metal
  Current step  : 1921
Per MPI rank memory allocation (min/avg/max) = 5.441 | 5.816 | 6.074 Mbytes
Step PotEng KinEng TotEng v_fx v_fy v_fz 
    1921   -1152449.3            0   -1152449.3  0.016110354 -0.016867913 -0.00011798507 
    2000   -1152449.3            0   -1152449.3 0.00011696595 -6.0490404e-05 -0.00029614455 
    2100   -1152449.3            0   -1152449.3 8.1856121e-06 1.0955078e-06 -4.6114532e-05 
Loop time of 2.08001 on 104 procs for 179 steps with 288751 atoms

99.9% CPU use with 104 MPI tasks x 1 OpenMP threads

Minimization stats:
  Stopping criterion = energy tolerance
  Energy initial, next-to-last, final = 
     -1152449.33089271  -1152449.33230482  -1152449.33230482
  Force two-norm initial, final = 0.16870409 0.00016070017
  Force max component initial, final = 0.074438476 4.6114532e-05
  Final line search alpha, max atom move = 1.0000000 4.6114532e-05
  Iterations, force evaluations = 179 358

MPI task timing breakdown:
Section |  min time  |  avg time  |  max time  |%varavg| %total
---------------------------------------------------------------
Pair    | 0.54335    | 1.5058     | 1.9677     |  33.0 | 72.39
Neigh   | 0          | 0          | 0          |   0.0 |  0.00
Comm    | 0.031649   | 0.33922    | 1.0183     |  48.8 | 16.31
Output  | 0.00010144 | 0.00010405 | 0.00021759 |   0.0 |  0.01
Modify  | 2.1991e-05 | 0.0029546  | 0.0062856  |   2.6 |  0.14
Other   |            | 0.232      |            |       | 11.15

Nlocal:        2776.45 ave        3943 max           0 min
Histogram: 8 4 4 0 4 12 8 2 26 36
Nghost:        3879.01 ave        5424 max         232 min
Histogram: 8 0 8 0 16 0 8 8 16 40
Neighs:        79213.5 ave      114895 max           0 min
Histogram: 8 4 4 0 10 6 8 8 22 34

Total # of neighbors = 8238202
Ave neighs/atom = 28.530471
Neighbor list builds = 0
Dangerous builds = 0
The dot product: 1.27701606889203e-07
Setting atom values ...
  1 settings made for x
  1 settings made for y
  1 settings made for z
Setting up cg style minimization ...
  Unit style    : metal
  Current step  : 2100
Per MPI rank memory allocation (min/avg/max) = 5.441 | 5.816 | 6.074 Mbytes
Step PotEng KinEng TotEng v_fx v_fy v_fz 
    2100   -1152449.3            0   -1152449.3  0.013845173 -0.013833268 -0.0044348486 
    2258   -1152449.3            0   -1152449.3 -2.9390442e-05 1.0329204e-05 9.2006374e-05 
Loop time of 1.84067 on 104 procs for 158 steps with 288751 atoms

99.9% CPU use with 104 MPI tasks x 1 OpenMP threads

Minimization stats:
  Stopping criterion = energy tolerance
  Energy initial, next-to-last, final = 
     -1152449.31130472  -1152449.31287397  -1152449.31287397
  Force two-norm initial, final = 0.16864103 0.00027147458
  Force max component initial, final = 0.074276459 9.2006374e-05
  Final line search alpha, max atom move = 1.0000000 9.2006374e-05
  Iterations, force evaluations = 158 316

MPI task timing breakdown:
Section |  min time  |  avg time  |  max time  |%varavg| %total
---------------------------------------------------------------
Pair    | 0.47833    | 1.3248     | 1.7165     |  31.0 | 71.97
Neigh   | 0          | 0          | 0          |   0.0 |  0.00
Comm    | 0.030849   | 0.30111    | 0.92262    |  45.8 | 16.36
Output  | 0          | 0          | 0          |   0.0 |  0.00
Modify  | 1.8924e-05 | 0.0026064  | 0.0055578  |   2.4 |  0.14
Other   |            | 0.2121     |            |       | 11.53

Nlocal:        2776.45 ave        3936 max           0 min
Histogram: 8 4 4 0 4 12 8 0 28 36
Nghost:        3879.05 ave        5424 max         232 min
Histogram: 8 0 8 0 16 0 8 8 16 40
Neighs:        79213.4 ave      114679 max           0 min
Histogram: 8 4 4 0 8 8 8 8 22 34

Total # of neighbors = 8238196
Ave neighs/atom = 28.530450
Neighbor list builds = 0
Dangerous builds = 0
The dot product: -5.63278105682254e-07
Setting atom values ...
  1 settings made for x
  1 settings made for y
  1 settings made for z
Setting up cg style minimization ...
  Unit style    : metal
  Current step  : 2258
Per MPI rank memory allocation (min/avg/max) = 5.441 | 5.816 | 6.074 Mbytes
Step PotEng KinEng TotEng v_fx v_fy v_fz 
    2258   -1152449.3            0   -1152449.3 -0.0020200678  0.010270662 -0.027523935 
    2468   -1152449.3            0   -1152449.3 8.7385336e-06 -5.2200897e-06 -1.6630343e-05 
Loop time of 2.4449 on 104 procs for 210 steps with 288751 atoms

99.9% CPU use with 104 MPI tasks x 1 OpenMP threads

Minimization stats:
  Stopping criterion = energy tolerance
  Energy initial, next-to-last, final = 
      -1152449.2903953  -1152449.29272151  -1152449.29272151
  Force two-norm initial, final = 0.17087308 0.00010104176
  Force max component initial, final = 0.072021027 2.1520313e-05
  Final line search alpha, max atom move = 1.0000000 2.1520313e-05
  Iterations, force evaluations = 210 420

MPI task timing breakdown:
Section |  min time  |  avg time  |  max time  |%varavg| %total
---------------------------------------------------------------
Pair    | 0.63567    | 1.7645     | 2.3031     |  35.8 | 72.17
Neigh   | 0          | 0          | 0          |   0.0 |  0.00
Comm    | 0.037734   | 0.39572    | 1.1929     |  53.1 | 16.19
Output  | 0          | 0          | 0          |   0.0 |  0.00
Modify  | 2.4964e-05 | 0.0035629  | 0.017917   |   3.6 |  0.15
Other   |            | 0.2811     |            |       | 11.50

Nlocal:        2776.45 ave        3930 max           0 min
Histogram: 8 4 4 0 4 12 8 0 26 38
Nghost:        3879.05 ave        5424 max         232 min
Histogram: 8 0 8 0 16 0 8 8 16 40
Neighs:        79213.5 ave      114454 max           0 min
Histogram: 8 4 4 0 8 8 8 8 20 36

Total # of neighbors = 8238199
Ave neighs/atom = 28.530461
Neighbor list builds = 0
Dangerous builds = 0
The dot product: 8.62635779215759e-08
Setting atom values ...
  1 settings made for x
  1 settings made for y
  1 settings made for z
Setting up cg style minimization ...
  Unit style    : metal
  Current step  : 2468
Per MPI rank memory allocation (min/avg/max) = 5.441 | 5.816 | 6.074 Mbytes
Step PotEng KinEng TotEng v_fx v_fy v_fz 
    2468   -1152449.3            0   -1152449.3 -0.025337413  0.058541376  -0.05911658 
    2734   -1152449.3            0   -1152449.3 9.9021449e-07 -5.1759879e-08 -3.0391012e-06 
Loop time of 3.05312 on 104 procs for 266 steps with 288751 atoms

99.9% CPU use with 104 MPI tasks x 1 OpenMP threads

Minimization stats:
  Stopping criterion = energy tolerance
  Energy initial, next-to-last, final = 
     -1152449.26909733  -1152449.27261805  -1152449.27261805
  Force two-norm initial, final = 0.19077587 1.1685584e-05
  Force max component initial, final = 0.078993836 3.0391012e-06
  Final line search alpha, max atom move = 1.0000000 3.0391012e-06
  Iterations, force evaluations = 266 532

MPI task timing breakdown:
Section |  min time  |  avg time  |  max time  |%varavg| %total
---------------------------------------------------------------
Pair    | 0.80691    | 2.2227     | 2.8819     |  40.2 | 72.80
Neigh   | 0          | 0          | 0          |   0.0 |  0.00
Comm    | 0.046202   | 0.49661    | 1.508      |  59.9 | 16.27
Output  | 0          | 0          | 0          |   0.0 |  0.00
Modify  | 3.2581e-05 | 0.0043756  | 0.0093342  |   3.1 |  0.14
Other   |            | 0.3294     |            |       | 10.79

Nlocal:        2776.45 ave        3930 max           0 min
Histogram: 8 4 4 0 4 12 8 0 26 38
Nghost:        3879.09 ave        5425 max         232 min
Histogram: 8 0 8 0 16 0 8 8 16 40
Neighs:        79213.4 ave      114454 max           0 min
Histogram: 8 4 4 0 8 8 8 8 20 36

Total # of neighbors = 8238195
Ave neighs/atom = 28.530447
Neighbor list builds = 0
Dangerous builds = 0
The dot product: 4.38803127371432e-08
Setting atom values ...
  1 settings made for x
  1 settings made for y
  1 settings made for z
Setting up cg style minimization ...
  Unit style    : metal
  Current step  : 2734
Per MPI rank memory allocation (min/avg/max) = 5.441 | 5.816 | 6.074 Mbytes
Step PotEng KinEng TotEng v_fx v_fy v_fz 
    2734   -1152449.2            0   -1152449.2  -0.03168287  0.091191651 -0.064417898 
    2949   -1152449.3            0   -1152449.3 -1.0906542e-05 -4.4597196e-06 3.6675148e-05 
Loop time of 2.5054 on 104 procs for 215 steps with 288751 atoms

99.9% CPU use with 104 MPI tasks x 1 OpenMP threads

Minimization stats:
  Stopping criterion = energy tolerance
  Energy initial, next-to-last, final = 
     -1152449.24800654  -1152449.25213047  -1152449.25213047
  Force two-norm initial, final = 0.20678072 0.00012030967
  Force max component initial, final = 0.091191651 3.6675148e-05
  Final line search alpha, max atom move = 1.0000000 3.6675148e-05
  Iterations, force evaluations = 215 430

MPI task timing breakdown:
Section |  min time  |  avg time  |  max time  |%varavg| %total
---------------------------------------------------------------
Pair    | 0.65209    | 1.8122     | 2.3673     |  36.3 | 72.33
Neigh   | 0          | 0          | 0          |   0.0 |  0.00
Comm    | 0.036379   | 0.41203    | 1.2313     |  53.4 | 16.45
Output  | 0          | 0          | 0          |   0.0 |  0.00
Modify  | 2.7113e-05 | 0.0035506  | 0.007588   |   2.8 |  0.14
Other   |            | 0.2776     |            |       | 11.08

Nlocal:        2776.45 ave        3936 max           0 min
Histogram: 8 4 4 0 4 12 8 0 28 36
Nghost:        3879.12 ave        5425 max         232 min
Histogram: 8 0 8 0 16 0 8 8 16 40
Neighs:        79213.4 ave      114662 max           0 min
Histogram: 8 4 4 0 8 8 8 8 22 34

Total # of neighbors = 8238198
Ave neighs/atom = 28.530457
Neighbor list builds = 0
Dangerous builds = 0
The dot product: -7.02308654591908e-07
Setting atom values ...
  1 settings made for x
  1 settings made for y
  1 settings made for z
Setting up cg style minimization ...
  Unit style    : metal
  Current step  : 2949
Per MPI rank memory allocation (min/avg/max) = 5.441 | 5.816 | 6.074 Mbytes
Step PotEng KinEng TotEng v_fx v_fy v_fz 
    2949   -1152449.2            0   -1152449.2 -0.025449739   0.10287464 -0.056873964 
    3000   -1152449.2            0   -1152449.2 -0.00018712364 -4.0240569e-05 0.00048798408 
    3145   -1152449.2            0   -1152449.2 2.4927048e-05 5.3318487e-06 -6.4972558e-05 
Loop time of 2.25398 on 104 procs for 196 steps with 288751 atoms

99.9% CPU use with 104 MPI tasks x 1 OpenMP threads

Minimization stats:
  Stopping criterion = energy tolerance
  Energy initial, next-to-last, final = 
     -1152449.22679983  -1152449.23081785  -1152449.23081785
  Force two-norm initial, final = 0.20953269 0.00021271825
  Force max component initial, final = 0.10287464 6.4972558e-05
  Final line search alpha, max atom move = 1.0000000 6.4972558e-05
  Iterations, force evaluations = 196 392

MPI task timing breakdown:
Section |  min time  |  avg time  |  max time  |%varavg| %total
---------------------------------------------------------------
Pair    | 0.59382    | 1.6432     | 2.1342     |  34.6 | 72.90
Neigh   | 0          | 0          | 0          |   0.0 |  0.00
Comm    | 0.035138   | 0.36849    | 1.1241     |  51.7 | 16.35
Output  | 9.4272e-05 | 0.00010181 | 0.0002084  |   0.0 |  0.00
Modify  | 2.3444e-05 | 0.003227   | 0.0068945  |   2.7 |  0.14
Other   |            | 0.239      |            |       | 10.60

Nlocal:        2776.45 ave        3945 max           0 min
Histogram: 8 4 4 0 4 12 8 2 26 36
Nghost:        3879.05 ave        5425 max         232 min
Histogram: 8 0 8 0 16 0 8 8 16 40
Neighs:        79213.5 ave      114927 max           0 min
Histogram: 8 4 4 0 10 6 8 8 22 34

Total # of neighbors = 8238203
Ave neighs/atom = 28.530474
Neighbor list builds = 0
Dangerous builds = 0
The dot product: 1.03142224003844e-06
Setting atom values ...
  1 settings made for x
  1 settings made for y
  1 settings made for z
Setting up cg style minimization ...
  Unit style    : metal
  Current step  : 3145
Per MPI rank memory allocation (min/avg/max) = 5.441 | 5.816 | 6.074 Mbytes
Step PotEng KinEng TotEng v_fx v_fy v_fz 
    3145   -1152449.2            0   -1152449.2 -0.015344776  0.093915681 -0.043189975 
    3356   -1152449.2            0   -1152449.2 -4.9097509e-06 -7.3570291e-08 1.0593245e-05 
Loop time of 2.45197 on 104 procs for 211 steps with 288751 atoms

99.9% CPU use with 104 MPI tasks x 1 OpenMP threads

Minimization stats:
  Stopping criterion = energy tolerance
  Energy initial, next-to-last, final = 
     -1152449.20477796  -1152449.20821945  -1152449.20821945
  Force two-norm initial, final = 0.20079582 0.00012774748
  Force max component initial, final = 0.11008298 1.3821226e-05
  Final line search alpha, max atom move = 1.0000000 1.3821226e-05
  Iterations, force evaluations = 211 422

MPI task timing breakdown:
Section |  min time  |  avg time  |  max time  |%varavg| %total
---------------------------------------------------------------
Pair    | 0.64055    | 1.779      | 2.3177     |  35.9 | 72.56
Neigh   | 0          | 0          | 0          |   0.0 |  0.00
Comm    | 0.035218   | 0.40531    | 1.2173     |  53.0 | 16.53
Output  | 0          | 0          | 0          |   0.0 |  0.00
Modify  | 2.6558e-05 | 0.0034792  | 0.0074633  |   2.8 |  0.14
Other   |            | 0.2641     |            |       | 10.77

Nlocal:        2776.45 ave        3951 max           0 min
Histogram: 8 4 4 0 4 12 8 2 28 34
Nghost:        3879.03 ave        5425 max         232 min
Histogram: 8 0 8 0 16 0 8 8 16 40
Neighs:        79213.5 ave      115118 max           0 min
Histogram: 8 4 4 0 10 6 8 8 24 32

Total # of neighbors = 8238206
Ave neighs/atom = 28.530485
Neighbor list builds = 0
Dangerous builds = 0
The dot product: -1.3993926426013e-07
Setting atom values ...
  1 settings made for x
  1 settings made for y
  1 settings made for z
Setting up cg style minimization ...
  Unit style    : metal
  Current step  : 3356
Per MPI rank memory allocation (min/avg/max) = 5.441 | 5.816 | 6.074 Mbytes
Step PotEng KinEng TotEng v_fx v_fy v_fz 
    3356   -1152449.2            0   -1152449.2 -0.0059428782  0.077548336 -0.034065516 
    3547   -1152449.2            0   -1152449.2 -1.3567379e-05 -2.3732666e-06 2.8226986e-05 
Loop time of 2.20257 on 104 procs for 191 steps with 288751 atoms

99.9% CPU use with 104 MPI tasks x 1 OpenMP threads

Minimization stats:
  Stopping criterion = energy tolerance
  Energy initial, next-to-last, final = 
     -1152449.18157372   -1152449.1846615   -1152449.1846615
  Force two-norm initial, final = 0.19067168 0.00017201597
  Force max component initial, final = 0.11593253 3.9365673e-05
  Final line search alpha, max atom move = 1.0000000 3.9365673e-05
  Iterations, force evaluations = 191 382

MPI task timing breakdown:
Section |  min time  |  avg time  |  max time  |%varavg| %total
---------------------------------------------------------------
Pair    | 0.58019    | 1.6052     | 2.0889     |  34.3 | 72.88
Neigh   | 0          | 0          | 0          |   0.0 |  0.00
Comm    | 0.032586   | 0.3587     | 1.0921     |  51.1 | 16.29
Output  | 0          | 0          | 0          |   0.0 |  0.00
Modify  | 2.2779e-05 | 0.0031505  | 0.0066997  |   2.6 |  0.14
Other   |            | 0.2355     |            |       | 10.69

Nlocal:        2776.45 ave        3955 max           0 min
Histogram: 8 4 4 0 4 12 8 2 28 34
Nghost:        3879.01 ave        5426 max         232 min
Histogram: 8 0 8 0 16 0 8 8 16 40
Neighs:        79213.5 ave      115256 max           0 min
Histogram: 8 4 4 0 10 6 8 8 24 32

Total # of neighbors = 8238206
Ave neighs/atom = 28.530485
Neighbor list builds = 0
Dangerous builds = 0
The dot product: -4.57668105173154e-07
Setting atom values ...
  1 settings made for x
  1 settings made for y
  1 settings made for z
Setting up cg style minimization ...
  Unit style    : metal
  Current step  : 3547
Per MPI rank memory allocation (min/avg/max) = 5.441 | 5.816 | 6.074 Mbytes
Step PotEng KinEng TotEng v_fx v_fy v_fz 
    3547   -1152449.2            0   -1152449.2 0.0025286521   0.06380237 -0.032393005 
    3752   -1152449.2            0   -1152449.2 -1.3058288e-05 1.7753109e-06 2.3068481e-05 
Loop time of 2.38071 on 104 procs for 205 steps with 288751 atoms

99.9% CPU use with 104 MPI tasks x 1 OpenMP threads

Minimization stats:
  Stopping criterion = energy tolerance
  Energy initial, next-to-last, final = 
      -1152449.1575518   -1152449.1602852   -1152449.1602852
  Force two-norm initial, final = 0.18400255 0.00011878629
  Force max component initial, final = 0.12002334 2.3068481e-05
  Final line search alpha, max atom move = 1.0000000 2.3068481e-05
  Iterations, force evaluations = 205 410

MPI task timing breakdown:
Section |  min time  |  avg time  |  max time  |%varavg| %total
---------------------------------------------------------------
Pair    | 0.62083    | 1.7195     | 2.2587     |  35.3 | 72.23
Neigh   | 0          | 0          | 0          |   0.0 |  0.00
Comm    | 0.034281   | 0.38836    | 1.1615     |  51.9 | 16.31
Output  | 0          | 0          | 0          |   0.0 |  0.00
Modify  | 2.4492e-05 | 0.0033782  | 0.0071764  |   2.7 |  0.14
Other   |            | 0.2695     |            |       | 11.32

Nlocal:        2776.45 ave        3956 max           0 min
Histogram: 8 4 4 0 4 12 8 2 28 34
Nghost:        3878.97 ave        5425 max         232 min
Histogram: 8 0 8 0 16 0 8 8 16 40
Neighs:        79213.6 ave      115295 max           0 min
Histogram: 8 4 4 0 10 6 8 8 24 32

Total # of neighbors = 8238211
Ave neighs/atom = 28.530502
Neighbor list builds = 0
Dangerous builds = 0
The dot product: -3.3696464381312e-07
Setting atom values ...
  1 settings made for x
  1 settings made for y
  1 settings made for z
Setting up cg style minimization ...
  Unit style    : metal
  Current step  : 3752
Per MPI rank memory allocation (min/avg/max) = 5.441 | 5.816 | 6.074 Mbytes
Step PotEng KinEng TotEng v_fx v_fy v_fz 
    3752   -1152449.1            0   -1152449.1 0.0087473548  0.055962142 -0.032662025 
    3976   -1152449.1            0   -1152449.1 5.7587602e-06 -2.2052928e-06 -9.0189896e-06 
Loop time of 2.58154 on 104 procs for 224 steps with 288751 atoms

99.9% CPU use with 104 MPI tasks x 1 OpenMP threads

Minimization stats:
  Stopping criterion = energy tolerance
  Energy initial, next-to-last, final = 
     -1152449.13245464  -1152449.13492218  -1152449.13492218
  Force two-norm initial, final = 0.18138349 4.8569244e-05
  Force max component initial, final = 0.1242365 1.2609533e-05
  Final line search alpha, max atom move = 1.0000000 1.2609533e-05
  Iterations, force evaluations = 224 448

MPI task timing breakdown:
Section |  min time  |  avg time  |  max time  |%varavg| %total
---------------------------------------------------------------
Pair    | 0.67838    | 1.8743     | 2.4442     |  37.0 | 72.60
Neigh   | 0          | 0          | 0          |   0.0 |  0.00
Comm    | 0.038505   | 0.42114    | 1.2795     |  55.0 | 16.31
Output  | 0          | 0          | 0          |   0.0 |  0.00
Modify  | 2.6433e-05 | 0.0036829  | 0.0078336  |   2.9 |  0.14
Other   |            | 0.2824     |            |       | 10.94

Nlocal:        2776.45 ave        3957 max           0 min
Histogram: 8 4 4 0 4 12 8 2 28 34
Nghost:        3878.97 ave        5425 max         232 min
Histogram: 8 0 8 0 16 0 8 8 16 40
Neighs:        79213.6 ave      115343 max           0 min
Histogram: 8 4 4 0 10 6 8 8 24 32

Total # of neighbors = 8238214
Ave neighs/atom = 28.530512
Neighbor list builds = 0
Dangerous builds = 0
The dot product: 1.1196835347194e-07
Setting atom values ...
  1 settings made for x
  1 settings made for y
  1 settings made for z
Setting up cg style minimization ...
  Unit style    : metal
  Current step  : 3976
Per MPI rank memory allocation (min/avg/max) = 5.441 | 5.816 | 6.074 Mbytes
Step PotEng KinEng TotEng v_fx v_fy v_fz 
    3976   -1152449.1            0   -1152449.1  0.011404918  0.046479676 -0.028936514 
    4000   -1152449.1            0   -1152449.1 -0.00053261617 8.3416074e-05 0.00081867868 
    4147   -1152449.1            0   -1152449.1 2.8974631e-05 -9.7560759e-06 -4.3303441e-05 
Loop time of 1.99748 on 104 procs for 171 steps with 288751 atoms

99.9% CPU use with 104 MPI tasks x 1 OpenMP threads

Minimization stats:
  Stopping criterion = energy tolerance
  Energy initial, next-to-last, final = 
     -1152449.10617089  -1152449.10830764  -1152449.10830764
  Force two-norm initial, final = 0.178568 0.00025079568
  Force max component initial, final = 0.12818278 5.9963374e-05
  Final line search alpha, max atom move = 1.0000000 5.9963374e-05
  Iterations, force evaluations = 171 342

MPI task timing breakdown:
Section |  min time  |  avg time  |  max time  |%varavg| %total
---------------------------------------------------------------
Pair    | 0.51645    | 1.439      | 1.8911     |  32.4 | 72.04
Neigh   | 0          | 0          | 0          |   0.0 |  0.00
Comm    | 0.028518   | 0.32339    | 0.97351    |  47.6 | 16.19
Output  | 9.7366e-05 | 0.00010272 | 0.00019088 |   0.0 |  0.01
Modify  | 2.0519e-05 | 0.0028207  | 0.0060061  |   2.5 |  0.14
Other   |            | 0.2322     |            |       | 11.62

Nlocal:        2776.45 ave        3958 max           0 min
Histogram: 8 4 4 0 4 12 8 2 28 34
Nghost:        3878.95 ave        5425 max         232 min
Histogram: 8 0 8 0 16 0 8 8 16 40
Neighs:        79213.6 ave      115365 max           0 min
Histogram: 8 4 4 0 10 6 8 8 24 32

Total # of neighbors = 8238213
Ave neighs/atom = 28.530509
Neighbor list builds = 0
Dangerous builds = 0
The dot product: 5.11624724077369e-07
Setting atom values ...
  1 settings made for x
  1 settings made for y
  1 settings made for z
Setting up cg style minimization ...
  Unit style    : metal
  Current step  : 4147
Per MPI rank memory allocation (min/avg/max) = 5.441 | 5.816 | 6.074 Mbytes
Step PotEng KinEng TotEng v_fx v_fy v_fz 
    4147   -1152449.1            0   -1152449.1  0.010854327  0.035954167  -0.02257703 
    4356   -1152449.1            0   -1152449.1 -3.0162117e-06 -1.0990136e-06 4.6798475e-06 
Loop time of 2.40734 on 104 procs for 209 steps with 288751 atoms

99.9% CPU use with 104 MPI tasks x 1 OpenMP threads

Minimization stats:
  Stopping criterion = energy tolerance
  Energy initial, next-to-last, final = 
     -1152449.07843888  -1152449.08033954  -1152449.08033954
  Force two-norm initial, final = 0.17608692 6.9316305e-05
  Force max component initial, final = 0.13174813 1.4108177e-05
  Final line search alpha, max atom move = 1.0000000 1.4108177e-05
  Iterations, force evaluations = 209 418

MPI task timing breakdown:
Section |  min time  |  avg time  |  max time  |%varavg| %total
---------------------------------------------------------------
Pair    | 0.63243    | 1.7496     | 2.2825     |  35.7 | 72.68
Neigh   | 0          | 0          | 0          |   0.0 |  0.00
Comm    | 0.035887   | 0.39055    | 1.1863     |  53.0 | 16.22
Output  | 0          | 0          | 0          |   0.0 |  0.00
Modify  | 2.4725e-05 | 0.0034373  | 0.0073059  |   2.8 |  0.14
Other   |            | 0.2638     |            |       | 10.96

Nlocal:        2776.45 ave        3959 max           0 min
Histogram: 8 4 4 0 4 12 8 2 28 34
Nghost:        3878.95 ave        5425 max         232 min
Histogram: 8 0 8 0 16 0 8 8 16 40
Neighs:        79213.6 ave      115391 max           0 min
Histogram: 8 4 4 0 10 6 8 8 24 32

Total # of neighbors = 8238212
Ave neighs/atom = 28.530506
Neighbor list builds = 0
Dangerous builds = 0
The dot product: -6.73513128946048e-08
Setting atom values ...
  1 settings made for x
  1 settings made for y
  1 settings made for z
Setting up cg style minimization ...
  Unit style    : metal
  Current step  : 4356
Per MPI rank memory allocation (min/avg/max) = 5.441 | 5.816 | 6.074 Mbytes
Step PotEng KinEng TotEng v_fx v_fy v_fz 
    4356     -1152449            0     -1152449 0.0089336069   0.02640397 -0.016406837 
    4576   -1152449.1            0   -1152449.1 -3.5223294e-06 4.7888337e-07 4.9330805e-06 
Loop time of 2.57099 on 104 procs for 220 steps with 288751 atoms

99.9% CPU use with 104 MPI tasks x 1 OpenMP threads

Minimization stats:
  Stopping criterion = energy tolerance
  Energy initial, next-to-last, final = 
     -1152449.04927957  -1152449.05103508  -1152449.05103508
  Force two-norm initial, final = 0.17482294 4.0018874e-05
  Force max component initial, final = 0.13495406 4.9330805e-06
  Final line search alpha, max atom move = 1.0000000 4.9330805e-06
  Iterations, force evaluations = 220 440

MPI task timing breakdown:
Section |  min time  |  avg time  |  max time  |%varavg| %total
---------------------------------------------------------------
Pair    | 0.6663     | 1.8577     | 2.4391     |  36.9 | 72.26
Neigh   | 0          | 0          | 0          |   0.0 |  0.00
Comm    | 0.037295   | 0.42162    | 1.2614     |  54.1 | 16.40
Output  | 0          | 0          | 0          |   0.0 |  0.00
Modify  | 2.6288e-05 | 0.0036257  | 0.0078213  |   2.9 |  0.14
Other   |            | 0.288      |            |       | 11.20

Nlocal:        2776.45 ave        3959 max           0 min
Histogram: 8 4 4 0 4 12 8 2 28 34
Nghost:        3878.97 ave        5425 max         232 min
Histogram: 8 0 8 0 16 0 8 8 16 40
Neighs:        79213.6 ave      115391 max           0 min
Histogram: 8 4 4 0 10 6 8 8 24 32

Total # of neighbors = 8238215
Ave neighs/atom = 28.530516
Neighbor list builds = 0
Dangerous builds = 0
The dot product: -4.96731566382698e-08
Setting atom values ...
  1 settings made for x
  1 settings made for y
  1 settings made for z
Setting up cg style minimization ...
  Unit style    : metal
  Current step  : 4576
Per MPI rank memory allocation (min/avg/max) = 5.441 | 5.816 | 6.074 Mbytes
Step PotEng KinEng TotEng v_fx v_fy v_fz 
    4576     -1152449            0     -1152449 0.0066623771  0.018718569 -0.011282419 
    4785     -1152449            0     -1152449 1.0380505e-05 -3.4290837e-06 -1.3810816e-05 
Loop time of 2.43052 on 104 procs for 209 steps with 288751 atoms

99.9% CPU use with 104 MPI tasks x 1 OpenMP threads

Minimization stats:
  Stopping criterion = energy tolerance
  Energy initial, next-to-last, final = 
     -1152449.01878168  -1152449.02050049  -1152449.02050049
  Force two-norm initial, final = 0.17460872 9.1630732e-05
  Force max component initial, final = 0.13772159 2.1772176e-05
  Final line search alpha, max atom move = 1.0000000 2.1772176e-05
  Iterations, force evaluations = 209 418

MPI task timing breakdown:
Section |  min time  |  avg time  |  max time  |%varavg| %total
---------------------------------------------------------------
Pair    | 0.63619    | 1.7511     | 2.2882     |  35.7 | 72.05
Neigh   | 0          | 0          | 0          |   0.0 |  0.00
Comm    | 0.036888   | 0.39389    | 1.1864     |  52.7 | 16.21
Output  | 0          | 0          | 0          |   0.0 |  0.00
Modify  | 2.4917e-05 | 0.0034468  | 0.0073171  |   2.8 |  0.14
Other   |            | 0.2821     |            |       | 11.61

Nlocal:        2776.45 ave        3960 max           0 min
Histogram: 8 4 4 0 4 12 8 2 28 34
Nghost:        3878.97 ave        5425 max         232 min
Histogram: 8 0 8 0 16 0 8 8 16 40
Neighs:        79213.6 ave      115419 max           0 min
Histogram: 8 4 4 0 10 6 8 8 24 32

Total # of neighbors = 8238218
Ave neighs/atom = 28.530526
Neighbor list builds = 0
Dangerous builds = 0
The dot product: 1.16615909257021e-07
Setting atom values ...
  1 settings made for x
  1 settings made for y
  1 settings made for z
Setting up cg style minimization ...
  Unit style    : metal
  Current step  : 4785
Per MPI rank memory allocation (min/avg/max) = 5.441 | 5.816 | 6.074 Mbytes
Step PotEng KinEng TotEng v_fx v_fy v_fz 
    4785     -1152449            0     -1152449 0.0048181012  0.012958828 -0.0076730507 
    4952     -1152449            0     -1152449 2.0390225e-05 -5.6535235e-06 -2.6506672e-05 
Loop time of 1.96155 on 104 procs for 167 steps with 288751 atoms

99.9% CPU use with 104 MPI tasks x 1 OpenMP threads

Minimization stats:
  Stopping criterion = energy tolerance
  Energy initial, next-to-last, final = 
     -1152448.98716405  -1152448.98884679  -1152448.98884679
  Force two-norm initial, final = 0.17493663 0.00023930335
  Force max component initial, final = 0.14000652 3.7195033e-05
  Final line search alpha, max atom move = 1.0000000 3.7195033e-05
  Iterations, force evaluations = 167 334

MPI task timing breakdown:
Section |  min time  |  avg time  |  max time  |%varavg| %total
---------------------------------------------------------------
Pair    | 0.50693    | 1.4081     | 1.8428     |  32.0 | 71.78
Neigh   | 0          | 0          | 0          |   0.0 |  0.00
Comm    | 0.027913   | 0.32316    | 0.96039    |  46.8 | 16.47
Output  | 0          | 0          | 0          |   0.0 |  0.00
Modify  | 2.0446e-05 | 0.0027652  | 0.0058961  |   2.5 |  0.14
Other   |            | 0.2276     |            |       | 11.60

Nlocal:        2776.45 ave        3960 max           0 min
Histogram: 8 4 4 0 4 12 8 2 28 34
Nghost:        3878.97 ave        5425 max         232 min
Histogram: 8 0 8 0 16 0 8 8 16 40
Neighs:        79213.6 ave      115425 max           0 min
Histogram: 8 4 4 0 10 6 8 8 24 32

Total # of neighbors = 8238215
Ave neighs/atom = 28.530516
Neighbor list builds = 0
Dangerous builds = 0
The dot product: 2.06918345913726e-07
Setting atom values ...
  1 settings made for x
  1 settings made for y
  1 settings made for z
Setting up cg style minimization ...
  Unit style    : metal
  Current step  : 4952
Per MPI rank memory allocation (min/avg/max) = 5.441 | 5.816 | 6.074 Mbytes
Step PotEng KinEng TotEng v_fx v_fy v_fz 
    4952     -1152449            0     -1152449 0.0027694517 0.0087715508 -0.0043494376 
    5000     -1152449            0     -1152449 -0.00014370787 3.2261975e-05 0.0001830861 
    5143     -1152449            0     -1152449 6.0325543e-06 -3.7271291e-06 -7.4781482e-06 
Loop time of 2.20577 on 104 procs for 191 steps with 288751 atoms

99.9% CPU use with 104 MPI tasks x 1 OpenMP threads

Minimization stats:
  Stopping criterion = energy tolerance
  Energy initial, next-to-last, final = 
     -1152448.95446212  -1152448.95616944  -1152448.95616944
  Force two-norm initial, final = 0.17563047 0.00012673008
  Force max component initial, final = 0.14206795 2.5599532e-05
  Final line search alpha, max atom move = 1.0000000 2.5599532e-05
  Iterations, force evaluations = 191 382

MPI task timing breakdown:
Section |  min time  |  avg time  |  max time  |%varavg| %total
---------------------------------------------------------------
Pair    | 0.57923    | 1.6043     | 2.0925     |  34.3 | 72.73
Neigh   | 0          | 0          | 0          |   0.0 |  0.00
Comm    | 0.032069   | 0.3603     | 1.0923     |  50.9 | 16.33
Output  | 0.00010207 | 0.00011206 | 0.0002121  |   0.0 |  0.01
Modify  | 2.3215e-05 | 0.0031586  | 0.0067344  |   2.7 |  0.14
Other   |            | 0.2379     |            |       | 10.79

Nlocal:        2776.45 ave        3960 max           0 min
Histogram: 8 4 4 0 4 12 8 2 28 34
Nghost:        3878.93 ave        5425 max         232 min
Histogram: 8 0 8 0 16 0 8 8 16 40
Neighs:        79213.6 ave      115416 max           0 min
Histogram: 8 4 4 0 10 6 8 8 24 32

Total # of neighbors = 8238219
Ave neighs/atom = 28.530530
Neighbor list builds = 0
Dangerous builds = 0
The dot product: 5.15283696521228e-08
Setting atom values ...
  1 settings made for x
  1 settings made for y
  1 settings made for z
Setting up cg style minimization ...
  Unit style    : metal
  Current step  : 5143
Per MPI rank memory allocation (min/avg/max) = 5.441 | 5.816 | 6.074 Mbytes
Step PotEng KinEng TotEng v_fx v_fy v_fz 
    5143   -1152448.9            0   -1152448.9 0.0011909439 0.0059153381 -0.001979404 
    5341   -1152448.9            0   -1152448.9 -7.7765426e-06 2.4096966e-06 9.6414578e-06 
Loop time of 2.33966 on 104 procs for 198 steps with 288751 atoms

99.9% CPU use with 104 MPI tasks x 1 OpenMP threads

Minimization stats:
  Stopping criterion = energy tolerance
  Energy initial, next-to-last, final = 
     -1152448.92087606  -1152448.92258622  -1152448.92258622
  Force two-norm initial, final = 0.17632851 0.00010894522
  Force max component initial, final = 0.14376335 1.3779127e-05
  Final line search alpha, max atom move = 1.0000000 1.3779127e-05
  Iterations, force evaluations = 198 396

MPI task timing breakdown:
Section |  min time  |  avg time  |  max time  |%varavg| %total
---------------------------------------------------------------
Pair    | 0.60019    | 1.6663     | 2.1919     |  34.9 | 71.22
Neigh   | 0          | 0          | 0          |   0.0 |  0.00
Comm    | 0.0327     | 0.3827     | 1.134      |  50.2 | 16.36
Output  | 0          | 0          | 0          |   0.0 |  0.00
Modify  | 2.5251e-05 | 0.0032664  | 0.0069608  |   2.7 |  0.14
Other   |            | 0.2874     |            |       | 12.28

Nlocal:        2776.45 ave        3960 max           0 min
Histogram: 8 4 4 0 4 12 8 2 28 34
Nghost:        3878.97 ave        5426 max         232 min
Histogram: 8 0 8 0 16 0 8 8 16 40
Neighs:        79213.6 ave      115420 max           0 min
Histogram: 8 4 4 0 10 6 8 8 24 32

Total # of neighbors = 8238214
Ave neighs/atom = 28.530512
Neighbor list builds = 0
Dangerous builds = 0
The dot product: -6.51189976878083e-08
Setting atom values ...
  1 settings made for x
  1 settings made for y
  1 settings made for z
Setting up cg style minimization ...
  Unit style    : metal
  Current step  : 5341
Per MPI rank memory allocation (min/avg/max) = 5.441 | 5.816 | 6.074 Mbytes
Step PotEng KinEng TotEng v_fx v_fy v_fz 
    5341   -1152448.9            0   -1152448.9 -0.00085607056 0.0039404023 0.00076496925 
    5515   -1152448.9            0   -1152448.9 3.5372202e-06 1.3655525e-06 -4.4899594e-06 
Loop time of 2.02601 on 104 procs for 174 steps with 288751 atoms

99.9% CPU use with 104 MPI tasks x 1 OpenMP threads

Minimization stats:
  Stopping criterion = energy tolerance
  Energy initial, next-to-last, final = 
     -1152448.88637807  -1152448.88800036  -1152448.88800036
  Force two-norm initial, final = 0.17723026 0.00019429757
  Force max component initial, final = 0.14540952 2.6912479e-05
  Final line search alpha, max atom move = 1.0000000 2.6912479e-05
  Iterations, force evaluations = 174 348

MPI task timing breakdown:
Section |  min time  |  avg time  |  max time  |%varavg| %total
---------------------------------------------------------------
Pair    | 0.52814    | 1.4627     | 1.9053     |  32.6 | 72.19
Neigh   | 0          | 0          | 0          |   0.0 |  0.00
Comm    | 0.032801   | 0.32936    | 0.99787    |  48.4 | 16.26
Output  | 0          | 0          | 0          |   0.0 |  0.00
Modify  | 2.0502e-05 | 0.0028716  | 0.0061019  |   2.5 |  0.14
Other   |            | 0.2311     |            |       | 11.41

Nlocal:        2776.45 ave        3960 max           0 min
Histogram: 8 4 4 0 4 12 8 2 28 34
Nghost:        3878.96 ave        5426 max         232 min
Histogram: 8 0 8 0 16 0 8 8 16 40
Neighs:        79213.6 ave      115422 max           0 min
Histogram: 8 4 4 0 10 6 8 8 24 32

Total # of neighbors = 8238216
Ave neighs/atom = 28.530519
Neighbor list builds = 0
Dangerous builds = 0
The dot product: 2.65337078186871e-08
Setting atom values ...
  1 settings made for x
  1 settings made for y
  1 settings made for z
Setting up cg style minimization ...
  Unit style    : metal
  Current step  : 5515
Per MPI rank memory allocation (min/avg/max) = 5.441 | 5.816 | 6.074 Mbytes
Step PotEng KinEng TotEng v_fx v_fy v_fz 
    5515   -1152448.9            0   -1152448.9 -0.003707251 0.0026151867 0.0043391742 
    5740   -1152448.9            0   -1152448.9 -1.6039824e-06 1.4976272e-07 1.9486748e-06 
Loop time of 2.62274 on 104 procs for 225 steps with 288751 atoms

99.9% CPU use with 104 MPI tasks x 1 OpenMP threads

Minimization stats:
  Stopping criterion = energy tolerance
  Energy initial, next-to-last, final = 
     -1152448.85073991  -1152448.85236471  -1152448.85236471
  Force two-norm initial, final = 0.17857503 5.2441415e-05
  Force max component initial, final = 0.14720087 3.0566830e-06
  Final line search alpha, max atom move = 1.0000000 3.0566830e-06
  Iterations, force evaluations = 225 450

MPI task timing breakdown:
Section |  min time  |  avg time  |  max time  |%varavg| %total
---------------------------------------------------------------
Pair    | 0.68       | 1.8915     | 2.488      |  37.1 | 72.12
Neigh   | 0          | 0          | 0          |   0.0 |  0.00
Comm    | 0.036936   | 0.42714    | 1.2771     |  54.4 | 16.29
Output  | 0          | 0          | 0          |   0.0 |  0.00
Modify  | 2.7305e-05 | 0.0037062  | 0.0078664  |   2.9 |  0.14
Other   |            | 0.3004     |            |       | 11.45

Nlocal:        2776.45 ave        3960 max           0 min
Histogram: 8 4 4 0 4 12 8 2 28 34
Nghost:        3878.97 ave        5426 max         232 min
Histogram: 8 0 8 0 16 0 8 8 16 40
Neighs:        79213.6 ave      115426 max           0 min
Histogram: 8 4 4 0 10 6 8 8 24 32

Total # of neighbors = 8238215
Ave neighs/atom = 28.530516
Neighbor list builds = 0
Dangerous builds = 0
The dot product: -9.15522596459429e-09
Setting atom values ...
  1 settings made for x
  1 settings made for y
  1 settings made for z
Setting up cg style minimization ...
  Unit style    : metal
  Current step  : 5740
Per MPI rank memory allocation (min/avg/max) = 5.441 | 5.816 | 6.074 Mbytes
Step PotEng KinEng TotEng v_fx v_fy v_fz 
    5740   -1152448.8            0   -1152448.8 -0.0062581391 0.0019362658 0.0074168202 
    5945   -1152448.8            0   -1152448.8 -3.5278543e-06 1.9673245e-07 4.2447718e-06 
Loop time of 2.36602 on 104 procs for 205 steps with 288751 atoms

99.9% CPU use with 104 MPI tasks x 1 OpenMP threads

Minimization stats:
  Stopping criterion = energy tolerance
  Energy initial, next-to-last, final = 
     -1152448.81409862  -1152448.81585894  -1152448.81585894
  Force two-norm initial, final = 0.17976426 9.1517342e-05
  Force max component initial, final = 0.14872292 4.2447718e-06
  Final line search alpha, max atom move = 1.0000000 4.2447718e-06
  Iterations, force evaluations = 205 410

MPI task timing breakdown:
Section |  min time  |  avg time  |  max time  |%varavg| %total
---------------------------------------------------------------
Pair    | 0.62065    | 1.7134     | 2.2382     |  35.3 | 72.42
Neigh   | 0          | 0          | 0          |   0.0 |  0.00
Comm    | 0.036417   | 0.38351    | 1.1647     |  52.4 | 16.21
Output  | 0          | 0          | 0          |   0.0 |  0.00
Modify  | 2.4398e-05 | 0.0033718  | 0.0071769  |   2.7 |  0.14
Other   |            | 0.2657     |            |       | 11.23

Nlocal:        2776.45 ave        3960 max           0 min
Histogram: 8 4 4 0 4 12 8 2 28 34
Nghost:        3878.97 ave        5426 max         232 min
Histogram: 8 0 8 0 16 0 8 8 16 40
Neighs:        79213.6 ave      115426 max           0 min
Histogram: 8 4 4 0 10 6 8 8 24 32

Total # of neighbors = 8238213
Ave neighs/atom = 28.530509
Neighbor list builds = 0
Dangerous builds = 0
The dot product: -1.73737273688421e-08
Setting atom values ...
  1 settings made for x
  1 settings made for y
  1 settings made for z
Setting up cg style minimization ...
  Unit style    : metal
  Current step  : 5945
Per MPI rank memory allocation (min/avg/max) = 5.441 | 5.816 | 6.074 Mbytes
Step PotEng KinEng TotEng v_fx v_fy v_fz 
    5945   -1152448.8            0   -1152448.8 -0.0083781012 0.0017411529 0.0098904805 
    6000   -1152448.8            0   -1152448.8 1.1274255e-05 -1.4511439e-05 -1.2447895e-05 
    6140   -1152448.8            0   -1152448.8 7.1517704e-06 -1.5603733e-06 -8.4375328e-06 
Loop time of 2.29675 on 104 procs for 195 steps with 288751 atoms

99.9% CPU use with 104 MPI tasks x 1 OpenMP threads

Minimization stats:
  Stopping criterion = energy tolerance
  Energy initial, next-to-last, final = 
     -1152448.77675692  -1152448.77837454  -1152448.77837454
  Force two-norm initial, final = 0.18038223 0.00010947784
  Force max component initial, final = 0.14980948 1.0596727e-05
  Final line search alpha, max atom move = 1.0000000 1.0596727e-05
  Iterations, force evaluations = 195 390

MPI task timing breakdown:
Section |  min time  |  avg time  |  max time  |%varavg| %total
---------------------------------------------------------------
Pair    | 0.59149    | 1.6454     | 2.1635     |  34.7 | 71.64
Neigh   | 0          | 0          | 0          |   0.0 |  0.00
Comm    | 0.032877   | 0.37281    | 1.118      |  50.7 | 16.23
Output  | 9.2108e-05 | 0.00010128 | 0.00021137 |   0.0 |  0.00
Modify  | 2.3325e-05 | 0.0032197  | 0.0068406  |   2.7 |  0.14
Other   |            | 0.2752     |            |       | 11.98

Nlocal:        2776.45 ave        3960 max           0 min
Histogram: 8 4 4 0 4 12 8 2 28 34
Nghost:        3878.94 ave        5426 max         232 min
Histogram: 8 0 8 0 16 0 8 8 16 40
Neighs:        79213.6 ave      115438 max           0 min
Histogram: 8 4 4 0 10 6 8 8 24 32

Total # of neighbors = 8238215
Ave neighs/atom = 28.530516
Neighbor list builds = 0
Dangerous builds = 0
The dot product: 2.30323059350119e-08
Setting atom values ...
  1 settings made for x
  1 settings made for y
  1 settings made for z
Setting up cg style minimization ...
  Unit style    : metal
  Current step  : 6140
Per MPI rank memory allocation (min/avg/max) = 5.441 | 5.816 | 6.074 Mbytes
Step PotEng KinEng TotEng v_fx v_fy v_fz 
    6140   -1152448.7            0   -1152448.7 -0.011530361 0.0020532358  0.013549211 
    6298   -1152448.7            0   -1152448.7 5.5281894e-05 -1.3429556e-05 -6.4706495e-05 
Loop time of 1.839 on 104 procs for 158 steps with 288751 atoms

99.9% CPU use with 104 MPI tasks x 1 OpenMP threads

Minimization stats:
  Stopping criterion = energy tolerance
  Energy initial, next-to-last, final = 
     -1152448.73826361  -1152448.73990981  -1152448.73990981
  Force two-norm initial, final = 0.18131312 0.00029044959
  Force max component initial, final = 0.15113051 6.9885318e-05
  Final line search alpha, max atom move = 1.0000000 6.9885318e-05
  Iterations, force evaluations = 158 316

MPI task timing breakdown:
Section |  min time  |  avg time  |  max time  |%varavg| %total
---------------------------------------------------------------
Pair    | 0.48366    | 1.3252     | 1.7301     |  31.0 | 72.06
Neigh   | 0          | 0          | 0          |   0.0 |  0.00
Comm    | 0.027928   | 0.2975     | 0.90085    |  46.1 | 16.18
Output  | 0          | 0          | 0          |   0.0 |  0.00
Modify  | 1.8942e-05 | 0.002609   | 0.005557   |   2.4 |  0.14
Other   |            | 0.2137     |            |       | 11.62

Nlocal:        2776.45 ave        3960 max           0 min
Histogram: 8 4 4 0 4 12 8 2 28 34
Nghost:        3878.89 ave        5425 max         232 min
Histogram: 8 0 8 0 16 0 8 8 16 40
Neighs:        79213.6 ave      115438 max           0 min
Histogram: 8 4 4 0 10 6 8 8 24 32

Total # of neighbors = 8238213
Ave neighs/atom = 28.530509
Neighbor list builds = 0
Dangerous builds = 0
The dot product: 1.01955166159835e-07
Setting atom values ...
  1 settings made for x
  1 settings made for y
  1 settings made for z
Setting up cg style minimization ...
  Unit style    : metal
  Current step  : 6298
Per MPI rank memory allocation (min/avg/max) = 5.441 | 5.816 | 6.074 Mbytes
Step PotEng KinEng TotEng v_fx v_fy v_fz 
    6298   -1152448.7            0   -1152448.7 -0.014251215 0.0027352142  0.016673371 
    6460   -1152448.7            0   -1152448.7 -3.7114078e-05 7.3406651e-06 4.3406419e-05 
Loop time of 1.88618 on 104 procs for 162 steps with 288751 atoms

99.9% CPU use with 104 MPI tasks x 1 OpenMP threads

Minimization stats:
  Stopping criterion = energy tolerance
  Energy initial, next-to-last, final = 
     -1152448.69893917  -1152448.70082471  -1152448.70082471
  Force two-norm initial, final = 0.18147252 0.00016625882
  Force max component initial, final = 0.15201555 4.6198979e-05
  Final line search alpha, max atom move = 1.0000000 4.6198979e-05
  Iterations, force evaluations = 162 324

MPI task timing breakdown:
Section |  min time  |  avg time  |  max time  |%varavg| %total
---------------------------------------------------------------
Pair    | 0.49161    | 1.367      | 1.7854     |  31.5 | 72.48
Neigh   | 0          | 0          | 0          |   0.0 |  0.00
Comm    | 0.027518   | 0.30864    | 0.92428    |  46.6 | 16.36
Output  | 0          | 0          | 0          |   0.0 |  0.00
Modify  | 1.916e-05  | 0.0026703  | 0.0057087  |   2.4 |  0.14
Other   |            | 0.2079     |            |       | 11.02

Nlocal:        2776.45 ave        3959 max           0 min
Histogram: 8 4 4 0 4 12 8 2 28 34
Nghost:        3878.93 ave        5426 max         232 min
Histogram: 8 0 8 0 16 0 8 8 16 40
Neighs:        79213.6 ave      115395 max           0 min
Histogram: 8 4 4 0 10 6 8 8 24 32

Total # of neighbors = 8238215
Ave neighs/atom = 28.530516
Neighbor list builds = 0
Dangerous builds = 0
The dot product: -3.80335936997505e-08
Setting atom values ...
  1 settings made for x
  1 settings made for y
  1 settings made for z
Setting up cg style minimization ...
  Unit style    : metal
  Current step  : 6460
Per MPI rank memory allocation (min/avg/max) = 5.441 | 5.816 | 6.074 Mbytes
Step PotEng KinEng TotEng v_fx v_fy v_fz 
    6460   -1152448.7            0   -1152448.7 -0.016357355 0.0032972186  0.019089118 
    6667   -1152448.7            0   -1152448.7 -4.1431587e-06 -2.5658535e-07 4.9153405e-06 
Loop time of 2.3897 on 104 procs for 207 steps with 288751 atoms

99.9% CPU use with 104 MPI tasks x 1 OpenMP threads

Minimization stats:
  Stopping criterion = energy tolerance
  Energy initial, next-to-last, final = 
      -1152448.6594815  -1152448.66127267  -1152448.66127267
  Force two-norm initial, final = 0.18023914 4.9758316e-05
  Force max component initial, final = 0.15193861 6.4441968e-06
  Final line search alpha, max atom move = 1.0000000 6.4441968e-06
  Iterations, force evaluations = 207 414

MPI task timing breakdown:
Section |  min time  |  avg time  |  max time  |%varavg| %total
---------------------------------------------------------------
Pair    | 0.62796    | 1.7342     | 2.262      |  35.6 | 72.57
Neigh   | 0          | 0          | 0          |   0.0 |  0.00
Comm    | 0.035336   | 0.38757    | 1.1809     |  52.9 | 16.22
Output  | 0          | 0          | 0          |   0.0 |  0.00
Modify  | 2.4667e-05 | 0.003409   | 0.0072354  |   2.8 |  0.14
Other   |            | 0.2645     |            |       | 11.07

Nlocal:        2776.45 ave        3959 max           0 min
Histogram: 8 4 4 0 4 12 8 2 28 34
Nghost:        3878.92 ave        5426 max         232 min
Histogram: 8 0 8 0 16 0 8 8 16 40
Neighs:        79213.5 ave      115399 max           0 min
Histogram: 8 4 4 0 10 6 8 8 24 32

Total # of neighbors = 8238200
Ave neighs/atom = 28.530464
Neighbor list builds = 0
Dangerous builds = 0
The dot product: 4.05575603675414e-09
Setting atom values ...
  1 settings made for x
  1 settings made for y
  1 settings made for z
Setting up cg style minimization ...
  Unit style    : metal
  Current step  : 6667
Per MPI rank memory allocation (min/avg/max) = 5.441 | 5.816 | 6.074 Mbytes
Step PotEng KinEng TotEng v_fx v_fy v_fz 
    6667   -1152448.6            0   -1152448.6  -0.01917769 0.0037456476  0.022416939 
    6831   -1152448.6            0   -1152448.6 -2.1436697e-05 8.8254224e-06 2.4704687e-05 
Loop time of 1.91235 on 104 procs for 164 steps with 288751 atoms

99.9% CPU use with 104 MPI tasks x 1 OpenMP threads

Minimization stats:
  Stopping criterion = energy tolerance
  Energy initial, next-to-last, final = 
     -1152448.61984619  -1152448.62199613  -1152448.62199613
  Force two-norm initial, final = 0.1791212 0.00025532337
  Force max component initial, final = 0.15121451 4.8362878e-05
  Final line search alpha, max atom move = 1.0000000 4.8362878e-05
  Iterations, force evaluations = 164 328

MPI task timing breakdown:
Section |  min time  |  avg time  |  max time  |%varavg| %total
---------------------------------------------------------------
Pair    | 0.49565    | 1.3793     | 1.8146     |  31.7 | 72.12
Neigh   | 0          | 0          | 0          |   0.0 |  0.00
Comm    | 0.026978   | 0.31467    | 0.93706    |  46.3 | 16.45
Output  | 0          | 0          | 0          |   0.0 |  0.00
Modify  | 2.0052e-05 | 0.0027085  | 0.0058046  |   2.5 |  0.14
Other   |            | 0.2157     |            |       | 11.28

Nlocal:        2776.45 ave        3958 max           0 min
Histogram: 8 4 4 0 4 12 8 2 28 34
Nghost:        3878.90 ave        5426 max         232 min
Histogram: 8 0 8 0 16 0 8 8 16 40
Neighs:        79213.5 ave      115377 max           0 min
Histogram: 8 4 4 0 10 6 8 8 24 32

Total # of neighbors = 8238201
Ave neighs/atom = 28.530467
Neighbor list builds = 0
Dangerous builds = 0
The dot product: 7.77054669402898e-09
Setting atom values ...
  1 settings made for x
  1 settings made for y
  1 settings made for z
Setting up cg style minimization ...
  Unit style    : metal
  Current step  : 6831
Per MPI rank memory allocation (min/avg/max) = 5.441 | 5.816 | 6.074 Mbytes
Step PotEng KinEng TotEng v_fx v_fy v_fz 
    6831   -1152448.6            0   -1152448.6 -0.021511984 0.00087347943  0.025441209 
    7000   -1152448.6            0   -1152448.6 -0.00046227038 5.8693133e-05 0.00054353737 
    7142   -1152448.6            0   -1152448.6 -5.4088586e-08 1.630691e-07 5.1202236e-08 
Loop time of 3.59351 on 104 procs for 311 steps with 288751 atoms

99.9% CPU use with 104 MPI tasks x 1 OpenMP threads

Minimization stats:
  Stopping criterion = energy tolerance
  Energy initial, next-to-last, final = 
     -1152448.58160386  -1152448.58610962  -1152448.58610962
  Force two-norm initial, final = 0.1784732 1.5348377e-05
  Force max component initial, final = 0.14835327 3.2246544e-07
  Final line search alpha, max atom move = 1.0000000 3.2246544e-07
  Iterations, force evaluations = 311 622

MPI task timing breakdown:
Section |  min time  |  avg time  |  max time  |%varavg| %total
---------------------------------------------------------------
Pair    | 0.94753    | 2.6069     | 3.4047     |  43.5 | 72.54
Neigh   | 1.0729e-05 | 0.0029529  | 0.0042868  |   2.2 |  0.08
Comm    | 0.054025   | 0.58473    | 1.7748     |  64.7 | 16.27
Output  | 0.00010515 | 0.00010787 | 0.00025239 |   0.0 |  0.00
Modify  | 3.8597e-05 | 0.0051161  | 0.010881   |   3.4 |  0.14
Other   |            | 0.3937     |            |       | 10.96

Nlocal:        2776.45 ave        3955 max           0 min
Histogram: 8 4 4 0 4 12 8 0 30 34
Nghost:        3878.97 ave        5425 max         232 min
Histogram: 8 0 8 0 16 0 8 8 16 40
Neighs:        79213.4 ave      115305 max           0 min
Histogram: 8 4 4 0 10 6 8 8 24 32

Total # of neighbors = 8238198
Ave neighs/atom = 28.530457
Neighbor list builds = 1
Dangerous builds = 0
The dot product: -1.42659072057181e-09
Setting atom values ...
  1 settings made for x
  1 settings made for y
  1 settings made for z
Setting up cg style minimization ...
  Unit style    : metal
  Current step  : 7142
Per MPI rank memory allocation (min/avg/max) = 5.441 | 5.816 | 6.074 Mbytes
Step PotEng KinEng TotEng v_fx v_fy v_fz 
    7142   -1152448.6            0   -1152448.6 -0.011717528 -0.0012543077  0.013555758 
    7343   -1152448.6            0   -1152448.6 8.1291786e-06 -2.0161785e-06 -9.1614169e-06 
Loop time of 2.34758 on 104 procs for 201 steps with 288751 atoms

99.9% CPU use with 104 MPI tasks x 1 OpenMP threads

Minimization stats:
  Stopping criterion = energy tolerance
  Energy initial, next-to-last, final = 
     -1152448.55849348  -1152448.56159206  -1152448.56159206
  Force two-norm initial, final = 0.18441747 0.0001393786
  Force max component initial, final = 0.14846843 1.4325992e-05
  Final line search alpha, max atom move = 1.0000000 1.4325992e-05
  Iterations, force evaluations = 201 402

MPI task timing breakdown:
Section |  min time  |  avg time  |  max time  |%varavg| %total
---------------------------------------------------------------
Pair    | 0.60923    | 1.6927     | 2.225      |  35.1 | 72.10
Neigh   | 0          | 0          | 0          |   0.0 |  0.00
Comm    | 0.03357    | 0.38253    | 1.1563     |  51.4 | 16.29
Output  | 0          | 0          | 0          |   0.0 |  0.00
Modify  | 2.4103e-05 | 0.0033121  | 0.0070528  |   2.7 |  0.14
Other   |            | 0.2691     |            |       | 11.46

Nlocal:        2776.45 ave        3957 max           0 min
Histogram: 8 4 4 0 4 12 8 2 28 34
Nghost:        3879.03 ave        5426 max         232 min
Histogram: 8 0 8 0 16 0 8 8 16 40
Neighs:        79213.4 ave      115352 max           0 min
Histogram: 8 4 4 0 10 6 8 8 24 32

Total # of neighbors = 8238198
Ave neighs/atom = 28.530457
Neighbor list builds = 0
Dangerous builds = 0
The dot product: 7.63039124735425e-08
Setting atom values ...
  1 settings made for x
  1 settings made for y
  1 settings made for z
Setting up cg style minimization ...
  Unit style    : metal
  Current step  : 7343
Per MPI rank memory allocation (min/avg/max) = 5.441 | 5.816 | 6.074 Mbytes
Step PotEng KinEng TotEng v_fx v_fy v_fz 
    7343   -1152448.5            0   -1152448.5 -0.024675834 0.0041658072  0.027530204 
    7558   -1152448.5            0   -1152448.5 -1.8154153e-05 1.3570048e-06 2.040066e-05 
[...]
Histogram: 8 0 8 0 16 0 8 8 16 40
Neighs:        79213.2 ave      115491 max           0 min
Histogram: 8 4 4 0 10 6 8 8 24 32

Total # of neighbors = 8238174
Ave neighs/atom = 28.530374
Neighbor list builds = 0
Dangerous builds = 0
The dot product: 2.24157361380442e-10
Setting atom values ...
  1 settings made for x
  1 settings made for y
  1 settings made for z
Setting up cg style minimization ...
  Unit style    : metal
  Current step  : 27795
Per MPI rank memory allocation (min/avg/max) = 5.441 | 5.816 | 6.074 Mbytes
Step PotEng KinEng TotEng v_fx v_fy v_fz 
   27795   -1152449.1            0   -1152449.1 0.00074959611 0.0083301941 -0.010855794 
   27972   -1152449.1            0   -1152449.1  -2.2076e-05 3.1897169e-06 1.1903746e-05 
Loop time of 2.06511 on 104 procs for 177 steps with 288751 atoms

99.9% CPU use with 104 MPI tasks x 1 OpenMP threads

Minimization stats:
  Stopping criterion = energy tolerance
  Energy initial, next-to-last, final = 
     -1152449.12554717  -1152449.12689529  -1152449.12689529
  Force two-norm initial, final = 0.16243762 0.00010349723
  Force max component initial, final = 0.093632157 2.2076000e-05
  Final line search alpha, max atom move = 1.0000000 2.2076000e-05
  Iterations, force evaluations = 177 354

MPI task timing breakdown:
Section |  min time  |  avg time  |  max time  |%varavg| %total
---------------------------------------------------------------
Pair    | 0.53354    | 1.4834     | 1.9596     |  33.1 | 71.83
Neigh   | 0          | 0          | 0          |   0.0 |  0.00
Comm    | 0.031252   | 0.33362    | 1.002      |  48.3 | 16.15
Output  | 0          | 0          | 0          |   0.0 |  0.00
Modify  | 2.1288e-05 | 0.0029205  | 0.0061981  |   2.5 |  0.14
Other   |            | 0.2452     |            |       | 11.87

Nlocal:        2776.45 ave        3961 max           0 min
Histogram: 8 4 4 0 6 10 8 4 26 34
Nghost:        3879.09 ave        5424 max         232 min
Histogram: 8 0 8 0 16 0 8 8 16 40
Neighs:        79213.2 ave      115490 max           0 min
Histogram: 8 4 4 0 10 6 8 8 24 32

Total # of neighbors = 8238174
Ave neighs/atom = 28.530374
Neighbor list builds = 0
Dangerous builds = 0
The dot product: 1.51945342704595e-08
Setting atom values ...
  1 settings made for x
  1 settings made for y
  1 settings made for z
Setting up cg style minimization ...
  Unit style    : metal
  Current step  : 27972
Per MPI rank memory allocation (min/avg/max) = 5.441 | 5.816 | 6.074 Mbytes
Step PotEng KinEng TotEng v_fx v_fy v_fz 
   27972   -1152449.1            0   -1152449.1 0.00089649803 0.0072805202 -0.0096735212 
   28000   -1152449.1            0   -1152449.1 3.6085855e-05 2.2669306e-05 -5.402702e-05 
   28197   -1152449.1            0   -1152449.1 -9.5159217e-07 -3.8170399e-07 1.1566941e-06 
Loop time of 2.62897 on 104 procs for 225 steps with 288751 atoms

99.9% CPU use with 104 MPI tasks x 1 OpenMP threads

Minimization stats:
  Stopping criterion = energy tolerance
  Energy initial, next-to-last, final = 
     -1152449.10680772  -1152449.10816695  -1152449.10816695
  Force two-norm initial, final = 0.1620291 1.5850315e-05
  Force max component initial, final = 0.094534874 1.1566941e-06
  Final line search alpha, max atom move = 1.0000000 1.1566941e-06
  Iterations, force evaluations = 225 450

MPI task timing breakdown:
Section |  min time  |  avg time  |  max time  |%varavg| %total
---------------------------------------------------------------
Pair    | 0.68137    | 1.8861     | 2.4788     |  37.2 | 71.74
Neigh   | 0          | 0          | 0          |   0.0 |  0.00
Comm    | 0.047782   | 0.42436    | 1.2726     |  54.6 | 16.14
Output  | 9.8349e-05 | 0.00010857 | 0.00022387 |   0.0 |  0.00
Modify  | 2.6593e-05 | 0.003706   | 0.0078653  |   2.9 |  0.14
Other   |            | 0.3147     |            |       | 11.97

Nlocal:        2776.45 ave        3961 max           0 min
Histogram: 8 4 4 0 6 10 8 4 26 34
Nghost:        3879.09 ave        5424 max         232 min
Histogram: 8 0 8 0 16 0 8 8 16 40
Neighs:        79213.2 ave      115482 max           0 min
Histogram: 8 4 4 0 10 6 8 8 24 32

Total # of neighbors = 8238172
Ave neighs/atom = 28.530367
Neighbor list builds = 0
Dangerous builds = 0
The dot product: -6.25408487343257e-10
Setting atom values ...
  1 settings made for x
  1 settings made for y
  1 settings made for z
Setting up cg style minimization ...
  Unit style    : metal
  Current step  : 28197
Per MPI rank memory allocation (min/avg/max) = 5.441 | 5.816 | 6.074 Mbytes
Step PotEng KinEng TotEng v_fx v_fy v_fz 
   28197   -1152449.1            0   -1152449.1 0.0010640231 0.0061342035 -0.0083810536 
   28376   -1152449.1            0   -1152449.1 -1.0054656e-06 2.8132524e-06 -2.7717067e-06 
Loop time of 2.08998 on 104 procs for 179 steps with 288751 atoms

99.9% CPU use with 104 MPI tasks x 1 OpenMP threads

Minimization stats:
  Stopping criterion = energy tolerance
  Energy initial, next-to-last, final = 
     -1152449.08701572  -1152449.08841216  -1152449.08841216
  Force two-norm initial, final = 0.1617958 0.00010201674
  Force max component initial, final = 0.095354422 9.0669584e-06
  Final line search alpha, max atom move = 1.0000000 9.0669584e-06
  Iterations, force evaluations = 179 358

MPI task timing breakdown:
Section |  min time  |  avg time  |  max time  |%varavg| %total
---------------------------------------------------------------
Pair    | 0.54003    | 1.4992     | 1.9791     |  33.2 | 71.73
Neigh   | 0          | 0          | 0          |   0.0 |  0.00
Comm    | 0.031643   | 0.33718    | 1.0096     |  48.7 | 16.13
Output  | 0          | 0          | 0          |   0.0 |  0.00
Modify  | 2.1404e-05 | 0.0029488  | 0.0062761  |   2.6 |  0.14
Other   |            | 0.2507     |            |       | 11.99

Nlocal:        2776.45 ave        3961 max           0 min
Histogram: 8 4 4 0 6 10 8 4 26 34
Nghost:        3879.12 ave        5425 max         232 min
Histogram: 8 0 8 0 16 0 8 8 16 40
Neighs:        79213.2 ave      115479 max           0 min
Histogram: 8 4 4 0 10 6 8 8 24 32

Total # of neighbors = 8238172
Ave neighs/atom = 28.530367
Neighbor list builds = 0
Dangerous builds = 0
The dot product: 8.46722521622381e-09
Setting atom values ...
  1 settings made for x
  1 settings made for y
  1 settings made for z
Setting up cg style minimization ...
  Unit style    : metal
  Current step  : 28376
Per MPI rank memory allocation (min/avg/max) = 5.441 | 5.816 | 6.074 Mbytes
Step PotEng KinEng TotEng v_fx v_fy v_fz 
   28376   -1152449.1            0   -1152449.1 0.0011844166 0.0051975651 -0.0073119792 
   28546   -1152449.1            0   -1152449.1 2.1544271e-05 8.8974512e-06 -2.6519568e-05 
Loop time of 2.0102 on 104 procs for 170 steps with 288751 atoms

99.9% CPU use with 104 MPI tasks x 1 OpenMP threads

Minimization stats:
  Stopping criterion = energy tolerance
  Energy initial, next-to-last, final = 
     -1152449.06621649   -1152449.0676025   -1152449.0676025
  Force two-norm initial, final = 0.1618111 0.00017426938
  Force max component initial, final = 0.096096494 2.9381487e-05
  Final line search alpha, max atom move = 1.0000000 2.9381487e-05
  Iterations, force evaluations = 170 340

MPI task timing breakdown:
Section |  min time  |  avg time  |  max time  |%varavg| %total
---------------------------------------------------------------
Pair    | 0.51391    | 1.4329     | 1.8971     |  32.6 | 71.28
Neigh   | 0          | 0          | 0          |   0.0 |  0.00
Comm    | 0.033814   | 0.32538    | 0.96552    |  47.1 | 16.19
Output  | 0          | 0          | 0          |   0.0 |  0.00
Modify  | 2.0057e-05 | 0.0028021  | 0.0059651  |   2.5 |  0.14
Other   |            | 0.2492     |            |       | 12.39

Nlocal:        2776.45 ave        3961 max           0 min
Histogram: 8 4 4 0 6 10 8 4 26 34
Nghost:        3879.16 ave        5425 max         232 min
Histogram: 8 0 8 0 16 0 8 8 16 40
Neighs:        79213.2 ave      115476 max           0 min
Histogram: 8 4 4 0 10 6 8 8 24 32

Total # of neighbors = 8238171
Ave neighs/atom = 28.530364
Neighbor list builds = 0
Dangerous builds = 0
The dot product: 1.01151420237722e-08
Setting atom values ...
  1 settings made for x
  1 settings made for y
  1 settings made for z
Setting up cg style minimization ...
  Unit style    : metal
  Current step  : 28546
Per MPI rank memory allocation (min/avg/max) = 5.441 | 5.816 | 6.074 Mbytes
Step PotEng KinEng TotEng v_fx v_fy v_fz 
   28546     -1152449            0     -1152449  0.001182656 0.0043121374 -0.0062153374 
   28713     -1152449            0     -1152449 -1.2440326e-05 1.5067906e-06 7.0462712e-06 
Loop time of 1.938 on 104 procs for 167 steps with 288751 atoms

99.9% CPU use with 104 MPI tasks x 1 OpenMP threads

Minimization stats:
  Stopping criterion = energy tolerance
  Energy initial, next-to-last, final = 
     -1152449.04425683  -1152449.04560987  -1152449.04560987
  Force two-norm initial, final = 0.16193239 0.0002015758
  Force max component initial, final = 0.096783152 2.3581466e-05
  Final line search alpha, max atom move = 1.0000000 2.3581466e-05
  Iterations, force evaluations = 167 334

MPI task timing breakdown:
Section |  min time  |  avg time  |  max time  |%varavg| %total
---------------------------------------------------------------
Pair    | 0.50531    | 1.3989     | 1.8375     |  32.1 | 72.18
Neigh   | 0          | 0          | 0          |   0.0 |  0.00
Comm    | 0.031663   | 0.31302    | 0.94964    |  47.3 | 16.15
Output  | 0          | 0          | 0          |   0.0 |  0.00
Modify  | 2.0079e-05 | 0.0027526  | 0.0058542  |   2.5 |  0.14
Other   |            | 0.2233     |            |       | 11.52

Nlocal:        2776.45 ave        3960 max           0 min
Histogram: 8 4 4 0 4 12 8 4 26 34
Nghost:        3879.16 ave        5425 max         232 min
Histogram: 8 0 8 0 16 0 8 8 16 40
Neighs:        79213.2 ave      115447 max           0 min
Histogram: 8 4 4 0 10 6 8 8 24 32

Total # of neighbors = 8238170
Ave neighs/atom = 28.530360
Neighbor list builds = 0
Dangerous builds = 0
The dot product: 9.39852207267522e-09
Setting atom values ...
  1 settings made for x
  1 settings made for y
  1 settings made for z
Setting up cg style minimization ...
  Unit style    : metal
  Current step  : 28713
Per MPI rank memory allocation (min/avg/max) = 5.441 | 5.816 | 6.074 Mbytes
Step PotEng KinEng TotEng v_fx v_fy v_fz 
   28713     -1152449            0     -1152449 0.0008352987 0.0035248933 -0.0049900507 
   28928     -1152449            0     -1152449 -1.0861698e-05 -1.1560454e-06 9.2267663e-06 
Loop time of 2.52242 on 104 procs for 215 steps with 288751 atoms

99.9% CPU use with 104 MPI tasks x 1 OpenMP threads

Minimization stats:
  Stopping criterion = energy tolerance
  Energy initial, next-to-last, final = 
     -1152449.02099398  -1152449.02232662  -1152449.02232662
  Force two-norm initial, final = 0.16219552 4.0779458e-05
  Force max component initial, final = 0.097486217 1.0861698e-05
  Final line search alpha, max atom move = 1.0000000 1.0861698e-05
  Iterations, force evaluations = 215 430

MPI task timing breakdown:
Section |  min time  |  avg time  |  max time  |%varavg| %total
---------------------------------------------------------------
Pair    | 0.65114    | 1.8053     | 2.3653     |  36.5 | 71.57
Neigh   | 0          | 0          | 0          |   0.0 |  0.00
Comm    | 0.049364   | 0.40954    | 1.2283     |  52.9 | 16.24
Output  | 0          | 0          | 0          |   0.0 |  0.00
Modify  | 2.5578e-05 | 0.0035393  | 0.007544   |   2.8 |  0.14
Other   |            | 0.304      |            |       | 12.05

Nlocal:        2776.45 ave        3960 max           0 min
Histogram: 8 4 4 0 4 12 8 4 26 34
Nghost:        3879.16 ave        5425 max         232 min
Histogram: 8 0 8 0 16 0 8 8 16 40
Neighs:        79213.2 ave      115448 max           0 min
Histogram: 8 4 4 0 10 6 8 8 24 32

Total # of neighbors = 8238171
Ave neighs/atom = 28.530364
Neighbor list builds = 0
Dangerous builds = 0
The dot product: 4.47837986325802e-09
Setting atom values ...
  1 settings made for x
  1 settings made for y
  1 settings made for z
Setting up cg style minimization ...
  Unit style    : metal
  Current step  : 28928
Per MPI rank memory allocation (min/avg/max) = 5.441 | 5.816 | 6.074 Mbytes
Step PotEng KinEng TotEng v_fx v_fy v_fz 
   28928     -1152449            0     -1152449 0.00022687349 0.0028438586 -0.0037079443 
   29000     -1152449            0     -1152449 -3.1019363e-05 5.8781133e-05 -5.1053678e-05 
   29122     -1152449            0     -1152449 2.3002879e-05 6.072015e-07 -1.7240075e-05 
Loop time of 2.25637 on 104 procs for 194 steps with 288751 atoms

99.9% CPU use with 104 MPI tasks x 1 OpenMP threads

Minimization stats:
  Stopping criterion = energy tolerance
  Energy initial, next-to-last, final = 
     -1152448.99633938  -1152448.99765379  -1152448.99765379
  Force two-norm initial, final = 0.16262302 9.5745110e-05
  Force max component initial, final = 0.098093542 2.3002879e-05
  Final line search alpha, max atom move = 1.0000000 2.3002879e-05
  Iterations, force evaluations = 194 388

MPI task timing breakdown:
Section |  min time  |  avg time  |  max time  |%varavg| %total
---------------------------------------------------------------
Pair    | 0.58612    | 1.6261     | 2.1375     |  34.6 | 72.07
Neigh   | 0          | 0          | 0          |   0.0 |  0.00
Comm    | 0.0367     | 0.36415    | 1.1024     |  50.9 | 16.14
Output  | 0.00010554 | 0.00010806 | 0.00024816 |   0.0 |  0.00
Modify  | 2.3691e-05 | 0.0031965  | 0.0067975  |   2.7 |  0.14
Other   |            | 0.2628     |            |       | 11.65

Nlocal:        2776.45 ave        3960 max           0 min
Histogram: 8 4 4 0 4 12 8 4 26 34
Nghost:        3879.16 ave        5425 max         232 min
Histogram: 8 0 8 0 16 0 8 8 16 40
Neighs:        79213.2 ave      115450 max           0 min
Histogram: 8 4 4 0 10 6 8 8 24 32

Total # of neighbors = 8238173
Ave neighs/atom = 28.530370
Neighbor list builds = 0
Dangerous builds = 0
The dot product: -1.74693213179773e-08
Setting atom values ...
  1 settings made for x
  1 settings made for y
  1 settings made for z
Setting up cg style minimization ...
  Unit style    : metal
  Current step  : 29122
Per MPI rank memory allocation (min/avg/max) = 5.441 | 5.816 | 6.074 Mbytes
Step PotEng KinEng TotEng v_fx v_fy v_fz 
   29122     -1152449            0     -1152449 -0.00055010543 0.0022533015 -0.0024166835 
   29304     -1152449            0     -1152449 2.2333545e-05 -7.0337329e-07 -1.5116609e-05 
Loop time of 2.12042 on 104 procs for 182 steps with 288751 atoms

99.9% CPU use with 104 MPI tasks x 1 OpenMP threads

Minimization stats:
  Stopping criterion = energy tolerance
  Energy initial, next-to-last, final = 
     -1152448.97019204  -1152448.97149195  -1152448.97149195
  Force two-norm initial, final = 0.16327425 0.0001269603
  Force max component initial, final = 0.098675053 2.2333545e-05
  Final line search alpha, max atom move = 1.0000000 2.2333545e-05
  Iterations, force evaluations = 182 364

MPI task timing breakdown:
Section |  min time  |  avg time  |  max time  |%varavg| %total
---------------------------------------------------------------
Pair    | 0.55       | 1.5236     | 2.0085     |  33.5 | 71.85
Neigh   | 0          | 0          | 0          |   0.0 |  0.00
Comm    | 0.033383   | 0.34218    | 1.0282     |  49.2 | 16.14
Output  | 0          | 0          | 0          |   0.0 |  0.00
Modify  | 2.1921e-05 | 0.0030054  | 0.0063732  |   2.6 |  0.14
Other   |            | 0.2516     |            |       | 11.87

Nlocal:        2776.45 ave        3960 max           0 min
Histogram: 8 4 4 0 4 12 8 4 26 34
Nghost:        3879.12 ave        5425 max         232 min
Histogram: 8 0 8 0 16 0 8 8 16 40
Neighs:        79213.2 ave      115448 max           0 min
Histogram: 8 4 4 0 10 6 8 8 24 32

Total # of neighbors = 8238171
Ave neighs/atom = 28.530364
Neighbor list builds = 0
Dangerous builds = 0
The dot product: -2.40255420562818e-08
Setting atom values ...
  1 settings made for x
  1 settings made for y
  1 settings made for z
Setting up cg style minimization ...
  Unit style    : metal
  Current step  : 29304
Per MPI rank memory allocation (min/avg/max) = 5.441 | 5.816 | 6.074 Mbytes
Step PotEng KinEng TotEng v_fx v_fy v_fz 
   29304   -1152448.9            0   -1152448.9 -0.0013982939 0.0017387235 -0.0011689167 
   29477   -1152448.9            0   -1152448.9 -2.269016e-06 -1.8308982e-06 3.9081768e-06 
Loop time of 2.01671 on 104 procs for 173 steps with 288751 atoms

99.9% CPU use with 104 MPI tasks x 1 OpenMP threads

Minimization stats:
  Stopping criterion = energy tolerance
  Energy initial, next-to-last, final = 
     -1152448.94246104  -1152448.94375511  -1152448.94375511
  Force two-norm initial, final = 0.16415644 0.00019820673
  Force max component initial, final = 0.099250032 4.9937273e-05
  Final line search alpha, max atom move = 1.0000000 4.9937273e-05
  Iterations, force evaluations = 173 346

MPI task timing breakdown:
Section |  min time  |  avg time  |  max time  |%varavg| %total
---------------------------------------------------------------
Pair    | 0.52262    | 1.4496     | 1.9133     |  32.7 | 71.88
Neigh   | 0          | 0          | 0          |   0.0 |  0.00
Comm    | 0.032483   | 0.32673    | 0.97763    |  47.7 | 16.20
Output  | 0          | 0          | 0          |   0.0 |  0.00
Modify  | 2.1258e-05 | 0.0028508  | 0.0060524  |   2.5 |  0.14
Other   |            | 0.2375     |            |       | 11.78

Nlocal:        2776.45 ave        3960 max           0 min
Histogram: 8 4 4 0 4 12 8 4 26 34
Nghost:        3879.09 ave        5425 max         232 min
Histogram: 8 0 8 0 16 0 8 8 16 40
Neighs:        79213.2 ave      115445 max           0 min
Histogram: 8 4 4 0 10 6 8 8 24 32

Total # of neighbors = 8238172
Ave neighs/atom = 28.530367
Neighbor list builds = 0
Dangerous builds = 0
The dot product: 2.10573769036097e-09
Setting atom values ...
  1 settings made for x
  1 settings made for y
  1 settings made for z
Setting up cg style minimization ...
  Unit style    : metal
  Current step  : 29477
Per MPI rank memory allocation (min/avg/max) = 5.441 | 5.816 | 6.074 Mbytes
Step PotEng KinEng TotEng v_fx v_fy v_fz 
   29477   -1152448.9            0   -1152448.9 -0.0020857076 0.0012916161 -0.00012083783 
   29683   -1152448.9            0   -1152448.9 -1.3853789e-05 2.0215134e-06 7.381298e-06 
Loop time of 2.39341 on 104 procs for 206 steps with 288751 atoms

99.9% CPU use with 104 MPI tasks x 1 OpenMP threads

Minimization stats:
  Stopping criterion = energy tolerance
  Energy initial, next-to-last, final = 
     -1152448.91307683  -1152448.91437043  -1152448.91437043
  Force two-norm initial, final = 0.16517253 7.1853698e-05
  Force max component initial, final = 0.099719655 1.3853789e-05
  Final line search alpha, max atom move = 1.0000000 1.3853789e-05
  Iterations, force evaluations = 206 412

MPI task timing breakdown:
Section |  min time  |  avg time  |  max time  |%varavg| %total
---------------------------------------------------------------
Pair    | 0.6217     | 1.7257     | 2.2696     |  35.7 | 72.10
Neigh   | 0          | 0          | 0          |   0.0 |  0.00
Comm    | 0.036899   | 0.38765    | 1.1674     |  52.3 | 16.20
Output  | 0          | 0          | 0          |   0.0 |  0.00
Modify  | 2.5053e-05 | 0.0033948  | 0.0071892  |   2.7 |  0.14
Other   |            | 0.2766     |            |       | 11.56

Nlocal:        2776.45 ave        3960 max           0 min
Histogram: 8 4 4 0 4 12 8 4 26 34
Nghost:        3879.08 ave        5425 max         232 min
Histogram: 8 0 8 0 16 0 8 8 16 40
Neighs:        79213.2 ave      115447 max           0 min
Histogram: 8 4 4 0 10 6 8 8 24 32

Total # of neighbors = 8238170
Ave neighs/atom = 28.530360
Neighbor list builds = 0
Dangerous builds = 0
The dot product: 2.02477166060657e-08
