LAMMPS (29 Oct 2020)
OMP_NUM_THREADS environment is not set. Defaulting to 1 thread. (../comm.cpp:94)
  using 1 OpenMP thread(s) per MPI task
OMP_NUM_THREADS environment is not set. Defaulting to 1 thread. (../comm.cpp:94)
  using 1 OpenMP thread(s) per MPI task
Reading data file ...
  orthogonal box = (-122.39241 -121.13707 -37.090501) to (122.39241 121.13707 37.090501)
  13 by 4 by 2 MPI processor grid
  reading atoms ...
  288751 atoms
  read_data CPU = 0.368 seconds
199981 atoms in group inner
88770 atoms in group outer
1 atoms in group carbon
Neighbor list info ...
  update every 1 steps, delay 0 steps, check yes
  max neighbors/atom: 2000, page size: 100000
  master list distance cutoff = 5.6
  ghost atom cutoff = 5.6
  binsize = 2.8, bins = 88 87 27
  1 neighbor lists, perpetual/occasional/extra = 1 0 0
  (1) pair eam/alloy, perpetual
      attributes: half, newton on
      pair build: half/bin/atomonly/newton
      stencil: half/bin/3d/newton
      bin: standard
Setting up cg style minimization ...
  Unit style    : metal
  Current step  : 0
Per MPI rank memory allocation (min/avg/max) = 5.441 | 5.816 | 6.074 Mbytes
Step v_fx v_fy v_fz PotEng KinEng TotEng 
       0   0.38824989    -0.479145  -0.60055585   -1152447.8            0   -1152447.8 
     154 2.972526e-05 1.5152333e-06 -1.8997177e-05   -1152449.5            0   -1152449.5 
Loop time of 1.83464 on 104 procs for 154 steps with 288751 atoms

99.8% CPU use with 104 MPI tasks x 1 OpenMP threads

Minimization stats:
  Stopping criterion = energy tolerance
  Energy initial, next-to-last, final = 
     -1152447.84490657  -1152449.45035284  -1152449.45035284
  Force two-norm initial, final = 9.8174702 0.00016954272
  Force max component initial, final = 5.3084670 4.8368062e-05
  Final line search alpha, max atom move = 1.0000000 4.8368062e-05
  Iterations, force evaluations = 154 307

MPI task timing breakdown:
Section |  min time  |  avg time  |  max time  |%varavg| %total
---------------------------------------------------------------
Pair    | 0.47825    | 1.2977     | 1.6796     |  30.4 | 70.74
Neigh   | 2.1176e-05 | 0.0058565  | 0.0084425  |   3.2 |  0.32
Comm    | 0.030404   | 0.29662    | 0.88501    |  44.6 | 16.17
Output  | 0          | 0          | 0          |   0.0 |  0.00
Modify  | 1.6999e-05 | 0.0016569  | 0.004296   |   2.6 |  0.09
Other   |            | 0.2328     |            |       | 12.69

Nlocal:        2776.45 ave        3957 max           0 min
Histogram: 8 4 4 0 4 12 8 2 28 34
Nghost:        3879.03 ave        5424 max         232 min
Histogram: 8 0 8 0 16 0 8 8 16 40
Neighs:        79213.7 ave      115327 max           0 min
Histogram: 8 4 4 0 10 6 8 8 24 32

Total # of neighbors = 8238222
Ave neighs/atom = 28.530540
Neighbor list builds = 2
Dangerous builds = 0
Setting atom values ...
  1 settings made for x
  1 settings made for y
  1 settings made for z
Setting up cg style minimization ...
  Unit style    : metal
  Current step  : 154
Per MPI rank memory allocation (min/avg/max) = 5.441 | 5.816 | 6.074 Mbytes
Step PotEng KinEng TotEng v_fx v_fy v_fz 
     154   -1152449.4            0   -1152449.4  0.019906952  -0.05755591 -0.063072311 
     363   -1152449.4            0   -1152449.4 -1.9062457e-07 3.6978861e-06 6.8888228e-06 
Loop time of 2.50614 on 104 procs for 209 steps with 288751 atoms

99.8% CPU use with 104 MPI tasks x 1 OpenMP threads

Minimization stats:
  Stopping criterion = energy tolerance
  Energy initial, next-to-last, final = 
     -1152449.44378166  -1152449.44832856  -1152449.44832856
  Force two-norm initial, final = 0.3258542 8.1675067e-05
  Force max component initial, final = 0.1465221 1.6496446e-05
  Final line search alpha, max atom move = 1.0000000 1.6496446e-05
  Iterations, force evaluations = 209 418

MPI task timing breakdown:
Section |  min time  |  avg time  |  max time  |%varavg| %total
---------------------------------------------------------------
Pair    | 0.63706    | 1.7721     | 2.3092     |  35.9 | 70.71
Neigh   | 0          | 0          | 0          |   0.0 |  0.00
Comm    | 0.046208   | 0.4068     | 1.2096     |  52.1 | 16.23
Output  | 0          | 0          | 0          |   0.0 |  0.00
Modify  | 2.6478e-05 | 0.0034541  | 0.0074298  |   2.8 |  0.14
Other   |            | 0.3237     |            |       | 12.92

Nlocal:        2776.45 ave        3960 max           0 min
Histogram: 8 4 4 0 4 12 8 2 28 34
Nghost:        3879.03 ave        5424 max         232 min
Histogram: 8 0 8 0 16 0 8 8 16 40
Neighs:        79213.4 ave      115436 max           0 min
Histogram: 8 4 4 0 10 6 8 8 24 32

Total # of neighbors = 8238198
Ave neighs/atom = 28.530457
Neighbor list builds = 0
Dangerous builds = 0
Setting atom values ...
  1 settings made for x
  1 settings made for y
  1 settings made for z
Setting up cg style minimization ...
  Unit style    : metal
  Current step  : 363
Per MPI rank memory allocation (min/avg/max) = 5.441 | 5.816 | 6.074 Mbytes
Step PotEng KinEng TotEng v_fx v_fy v_fz 
     363   -1152449.4            0   -1152449.4   0.02530055 -0.050838367 -0.060433914 
     577   -1152449.4            0   -1152449.4 -7.9822584e-07 -1.7566109e-06 -8.2174283e-06 
Loop time of 2.52241 on 104 procs for 214 steps with 288751 atoms

99.9% CPU use with 104 MPI tasks x 1 OpenMP threads

Minimization stats:
  Stopping criterion = energy tolerance
  Energy initial, next-to-last, final = 
     -1152449.43946598  -1152449.44305289  -1152449.44305289
  Force two-norm initial, final = 0.2885806 4.4822382e-05
  Force max component initial, final = 0.1202846 8.6832493e-06
  Final line search alpha, max atom move = 1.0000000 8.6832493e-06
  Iterations, force evaluations = 214 428

MPI task timing breakdown:
Section |  min time  |  avg time  |  max time  |%varavg| %total
---------------------------------------------------------------
Pair    | 0.65291    | 1.8022     | 2.3454     |  36.3 | 71.45
Neigh   | 0          | 0          | 0          |   0.0 |  0.00
Comm    | 0.044479   | 0.41004    | 1.2217     |  52.9 | 16.26
Output  | 0          | 0          | 0          |   0.0 |  0.00
Modify  | 2.7884e-05 | 0.0035477  | 0.0076333  |   2.8 |  0.14
Other   |            | 0.3067     |            |       | 12.16

Nlocal:        2776.45 ave        3960 max           0 min
Histogram: 8 4 4 0 4 12 8 2 28 34
Nghost:        3879.03 ave        5424 max         232 min
Histogram: 8 0 8 0 16 0 8 8 16 40
Neighs:        79213.5 ave      115434 max           0 min
Histogram: 8 4 4 0 10 6 8 8 24 32

Total # of neighbors = 8238201
Ave neighs/atom = 28.530467
Neighbor list builds = 0
Dangerous builds = 0
The dot product: 5.16086439712425e-07
The angle: 86.4946876317847
Setting atom values ...
  1 settings made for x
  1 settings made for y
  1 settings made for z
Setting up cg style minimization ...
  Unit style    : metal
  Current step  : 577
Per MPI rank memory allocation (min/avg/max) = 5.441 | 5.816 | 6.074 Mbytes
Step PotEng KinEng TotEng v_fx v_fy v_fz 
     577   -1152449.4            0   -1152449.4   0.03073578 -0.048989796 -0.058716824 
     704   -1152449.4            0   -1152449.4 -1.1981251e-05 2.0141707e-05 2.7450791e-05 
Loop time of 1.48904 on 104 procs for 127 steps with 288751 atoms

99.9% CPU use with 104 MPI tasks x 1 OpenMP threads

Minimization stats:
  Stopping criterion = energy tolerance
  Energy initial, next-to-last, final = 
     -1152449.43089378  -1152449.43438238  -1152449.43438238
  Force two-norm initial, final = 0.28303123 0.00015968431
  Force max component initial, final = 0.11307861 2.8757798e-05
  Final line search alpha, max atom move = 1.0000000 2.8757798e-05
  Iterations, force evaluations = 127 254

MPI task timing breakdown:
Section |  min time  |  avg time  |  max time  |%varavg| %total
---------------------------------------------------------------
Pair    | 0.3851     | 1.0747     | 1.4066     |  28.0 | 72.18
Neigh   | 0          | 0          | 0          |   0.0 |  0.00
Comm    | 0.023786   | 0.2438     | 0.7348     |  41.1 | 16.37
Output  | 0          | 0          | 0          |   0.0 |  0.00
Modify  | 1.5415e-05 | 0.0021036  | 0.0045003  |   2.2 |  0.14
Other   |            | 0.1684     |            |       | 11.31

Nlocal:        2776.45 ave        3958 max           0 min
Histogram: 8 4 4 0 4 12 8 2 28 34
Nghost:        3879.03 ave        5424 max         232 min
Histogram: 8 0 8 0 16 0 8 8 16 40
Neighs:        79213.5 ave      115355 max           0 min
Histogram: 8 4 4 0 10 6 8 8 24 32

Total # of neighbors = 8238203
Ave neighs/atom = 28.530474
Neighbor list builds = 0
Dangerous builds = 0
The dot product: -1.60110789946744e-06
The angle: 92.542432588702
Setting atom values ...
  1 settings made for x
  1 settings made for y
  1 settings made for z
Setting up cg style minimization ...
  Unit style    : metal
  Current step  : 704
Per MPI rank memory allocation (min/avg/max) = 5.441 | 5.816 | 6.074 Mbytes
Step PotEng KinEng TotEng v_fx v_fy v_fz 
     704   -1152449.4            0   -1152449.4  0.035606478 -0.048792717 -0.057404284 
     824   -1152449.4            0   -1152449.4 5.6433222e-06 -1.1678812e-05 -3.3442807e-05 
Loop time of 1.39381 on 104 procs for 120 steps with 288751 atoms

99.9% CPU use with 104 MPI tasks x 1 OpenMP threads

Minimization stats:
  Stopping criterion = energy tolerance
  Energy initial, next-to-last, final = 
     -1152449.41879822  -1152449.42221261  -1152449.42221261
  Force two-norm initial, final = 0.27874325 0.00022392392
  Force max component initial, final = 0.10834048 4.3251884e-05
  Final line search alpha, max atom move = 1.0000000 4.3251884e-05
  Iterations, force evaluations = 120 240

MPI task timing breakdown:
Section |  min time  |  avg time  |  max time  |%varavg| %total
---------------------------------------------------------------
Pair    | 0.36368    | 1.0074     | 1.3076     |  27.0 | 72.28
Neigh   | 0          | 0          | 0          |   0.0 |  0.00
Comm    | 0.021411   | 0.2255     | 0.68101    |  40.0 | 16.18
Output  | 0          | 0          | 0          |   0.0 |  0.00
Modify  | 1.4342e-05 | 0.0019827  | 0.0042788  |   2.1 |  0.14
Other   |            | 0.1589     |            |       | 11.40

Nlocal:        2776.45 ave        3957 max           0 min
Histogram: 8 4 4 0 4 12 8 2 28 34
Nghost:        3879.03 ave        5424 max         232 min
Histogram: 8 0 8 0 16 0 8 8 16 40
Neighs:        79213.5 ave      115319 max           0 min
Histogram: 8 4 4 0 10 6 8 8 24 32

Total # of neighbors = 8238202
Ave neighs/atom = 28.530471
Neighbor list builds = 0
Dangerous builds = 0
The dot product: 1.25910269637098e-06
The angle: 87.9884048208887
Setting atom values ...
  1 settings made for x
  1 settings made for y
  1 settings made for z
Setting up cg style minimization ...
  Unit style    : metal
  Current step  : 824
Per MPI rank memory allocation (min/avg/max) = 5.441 | 5.816 | 6.074 Mbytes
Step PotEng KinEng TotEng v_fx v_fy v_fz 
     824   -1152449.4            0   -1152449.4  0.041301833 -0.050672231 -0.058416407 
    1000   -1152449.4            0   -1152449.4 -5.7349704e-06 4.8237002e-06 -1.1246574e-05 
    1018   -1152449.4            0   -1152449.4 4.5462924e-06 -5.9783651e-06 -9.9355799e-06 
Loop time of 2.3247 on 104 procs for 194 steps with 288751 atoms

99.8% CPU use with 104 MPI tasks x 1 OpenMP threads

Minimization stats:
  Stopping criterion = energy tolerance
  Energy initial, next-to-last, final = 
     -1152449.40312652  -1152449.40649107  -1152449.40649107
  Force two-norm initial, final = 0.2758762 4.1946188e-05
  Force max component initial, final = 0.10392415 9.9355799e-06
  Final line search alpha, max atom move = 1.0000000 9.9355799e-06
  Iterations, force evaluations = 194 388

MPI task timing breakdown:
Section |  min time  |  avg time  |  max time  |%varavg| %total
---------------------------------------------------------------
Pair    | 0.59146    | 1.6476     | 2.1507     |  34.8 | 70.87
Neigh   | 0          | 0          | 0          |   0.0 |  0.00
Comm    | 0.044676   | 0.37507    | 1.1052     |  49.8 | 16.13
Output  | 0.00026481 | 0.00027314 | 0.00043663 |   0.0 |  0.01
Modify  | 2.5589e-05 | 0.0032104  | 0.0068801  |   2.7 |  0.14
Other   |            | 0.2985     |            |       | 12.84

Nlocal:        2776.45 ave        3956 max           0 min
Histogram: 8 4 4 0 4 12 8 1 29 34
Nghost:        3879.03 ave        5424 max         232 min
Histogram: 8 0 8 0 16 0 8 8 16 40
Neighs:        79213.5 ave      115287 max           0 min
Histogram: 8 4 4 0 10 6 8 8 24 32

Total # of neighbors = 8238200
Ave neighs/atom = 28.530464
Neighbor list builds = 0
Dangerous builds = 0
The dot product: 4.23542940702123e-07
The angle: 88.0512218521295
Setting atom values ...
  1 settings made for x
  1 settings made for y
  1 settings made for z
Setting up cg style minimization ...
  Unit style    : metal
  Current step  : 1018
Per MPI rank memory allocation (min/avg/max) = 5.441 | 5.816 | 6.074 Mbytes
Step PotEng KinEng TotEng v_fx v_fy v_fz 
    1018   -1152449.4            0   -1152449.4  0.048978402 -0.054555887 -0.062587506 
    1147   -1152449.4            0   -1152449.4 -1.9331531e-05 2.1378085e-05 2.263582e-05 
Loop time of 1.49632 on 104 procs for 129 steps with 288751 atoms

99.9% CPU use with 104 MPI tasks x 1 OpenMP threads

Minimization stats:
  Stopping criterion = energy tolerance
  Energy initial, next-to-last, final = 
     -1152449.38389618  -1152449.38724488  -1152449.38724488
  Force two-norm initial, final = 0.27444667 0.00017105312
  Force max component initial, final = 0.10643494 3.2866245e-05
  Final line search alpha, max atom move = 1.0000000 3.2866245e-05
  Iterations, force evaluations = 129 258

MPI task timing breakdown:
Section |  min time  |  avg time  |  max time  |%varavg| %total
---------------------------------------------------------------
Pair    | 0.39684    | 1.0849     | 1.4072     |  27.9 | 72.51
Neigh   | 0          | 0          | 0          |   0.0 |  0.00
Comm    | 0.02284    | 0.24354    | 0.73563    |  41.5 | 16.28
Output  | 0          | 0          | 0          |   0.0 |  0.00
Modify  | 1.5108e-05 | 0.002133   | 0.0051325  |   2.2 |  0.14
Other   |            | 0.1657     |            |       | 11.07

Nlocal:        2776.45 ave        3954 max           0 min
Histogram: 8 4 4 0 4 12 8 2 28 34
Nghost:        3879.07 ave        5424 max         232 min
Histogram: 8 0 8 0 16 0 8 8 16 40
Neighs:        79213.4 ave      115232 max           0 min
Histogram: 8 4 4 0 10 6 8 8 24 32

Total # of neighbors = 8238197
Ave neighs/atom = 28.530454
Neighbor list builds = 0
Dangerous builds = 0
The dot product: -1.43570451748661e-06
The angle: 92.2451372694555
Setting atom values ...
  1 settings made for x
  1 settings made for y
  1 settings made for z
Setting up cg style minimization ...
  Unit style    : metal
  Current step  : 1147
Per MPI rank memory allocation (min/avg/max) = 5.441 | 5.816 | 6.074 Mbytes
Step PotEng KinEng TotEng v_fx v_fy v_fz 
    1147   -1152449.4            0   -1152449.4  0.062583224 -0.062811077 -0.074648759 
    1277   -1152449.4            0   -1152449.4 -3.2414763e-05 3.0168337e-05 -2.6808797e-05 
Loop time of 1.50644 on 104 procs for 130 steps with 288751 atoms

99.9% CPU use with 104 MPI tasks x 1 OpenMP threads

Minimization stats:
  Stopping criterion = energy tolerance
  Energy initial, next-to-last, final = 
      -1152449.3612496  -1152449.36479669  -1152449.36479669
  Force two-norm initial, final = 0.27725309 0.00024371929
  Force max component initial, final = 0.11038635 4.7076927e-05
  Final line search alpha, max atom move = 1.0000000 4.7076927e-05
  Iterations, force evaluations = 130 260

MPI task timing breakdown:
Section |  min time  |  avg time  |  max time  |%varavg| %total
---------------------------------------------------------------
Pair    | 0.39294    | 1.0961     | 1.4228     |  28.2 | 72.76
Neigh   | 0          | 0          | 0          |   0.0 |  0.00
Comm    | 0.024448   | 0.24477    | 0.74212    |  41.9 | 16.25
Output  | 0          | 0          | 0          |   0.0 |  0.00
Modify  | 1.5556e-05 | 0.0021438  | 0.00461    |   2.2 |  0.14
Other   |            | 0.1634     |            |       | 10.85

Nlocal:        2776.45 ave        3945 max           0 min
Histogram: 8 4 4 0 4 12 8 2 26 36
Nghost:        3879.11 ave        5424 max         232 min
Histogram: 8 0 8 0 16 0 8 8 16 40
Neighs:        79213.4 ave      114959 max           0 min
Histogram: 8 4 4 0 10 6 8 8 24 32

Total # of neighbors = 8238196
Ave neighs/atom = 28.530450
Neighbor list builds = 0
Dangerous builds = 0
The dot product: -1.22848501930523e-06
The angle: 91.3598836962036
Setting atom values ...
  1 settings made for x
  1 settings made for y
  1 settings made for z
Setting up cg style minimization ...
  Unit style    : metal
  Current step  : 1277
Per MPI rank memory allocation (min/avg/max) = 5.441 | 5.816 | 6.074 Mbytes
Step PotEng KinEng TotEng v_fx v_fy v_fz 
    1277   -1152449.3            0   -1152449.3   0.10155424 -0.083028938  -0.11420579 
    1534   -1152449.3            0   -1152449.3 1.4405387e-06 -1.1647167e-06 -2.0223531e-06 
Loop time of 2.99665 on 104 procs for 257 steps with 288751 atoms

99.9% CPU use with 104 MPI tasks x 1 OpenMP threads

Minimization stats:
  Stopping criterion = energy tolerance
  Energy initial, next-to-last, final = 
     -1152449.33634062  -1152449.34575076  -1152449.34575076
  Force two-norm initial, final = 0.30084768 1.4033412e-05
  Force max component initial, final = 0.11596198 2.4623903e-06
  Final line search alpha, max atom move = 1.0000000 2.4623903e-06
  Iterations, force evaluations = 257 514

MPI task timing breakdown:
Section |  min time  |  avg time  |  max time  |%varavg| %total
---------------------------------------------------------------
Pair    | 0.78329    | 2.1577     | 2.7921     |  39.5 | 72.00
Neigh   | 1.0191e-05 | 0.0029638  | 0.0042683  |   2.2 |  0.10
Comm    | 0.04542    | 0.48434    | 1.4704     |  58.8 | 16.16
Output  | 0          | 0          | 0          |   0.0 |  0.00
Modify  | 3.3354e-05 | 0.0042388  | 0.0091459  |   3.1 |  0.14
Other   |            | 0.3474     |            |       | 11.59

Nlocal:        2776.45 ave        3941 max           0 min
Histogram: 8 4 4 0 4 12 8 2 26 36
Nghost:        3879.11 ave        5424 max         232 min
Histogram: 8 0 8 0 16 0 8 8 16 40
Neighs:        79213.3 ave      114831 max           0 min
Histogram: 8 4 4 0 10 6 8 8 22 34

Total # of neighbors = 8238188
Ave neighs/atom = 28.530422
Neighbor list builds = 1
Dangerous builds = 0
The dot product: 8.69328178227772e-07
The angle: 71.5197927757837
Setting atom values ...
  1 settings made for x
  1 settings made for y
  1 settings made for z
Setting up cg style minimization ...
  Unit style    : metal
  Current step  : 1534
Per MPI rank memory allocation (min/avg/max) = 5.441 | 5.816 | 6.074 Mbytes
Step PotEng KinEng TotEng v_fx v_fy v_fz 
    1534   -1152449.3            0   -1152449.3   0.24480842 -0.072817999  -0.17568664 
    1819   -1152449.3            0   -1152449.3 1.2237108e-05 -4.09135e-06 -7.0284448e-06 
Loop time of 3.36547 on 104 procs for 285 steps with 288751 atoms

99.9% CPU use with 104 MPI tasks x 1 OpenMP threads

Minimization stats:
  Stopping criterion = energy tolerance
  Energy initial, next-to-last, final = 
     -1152449.32247976  -1152449.34788559  -1152449.34788559
  Force two-norm initial, final = 0.37786615 6.1232528e-05
  Force max component initial, final = 0.24480842 1.6462494e-05
  Final line search alpha, max atom move = 1.0000000 1.6462494e-05
  Iterations, force evaluations = 285 570

MPI task timing breakdown:
Section |  min time  |  avg time  |  max time  |%varavg| %total
---------------------------------------------------------------
Pair    | 0.86969    | 2.4128     | 3.155      |  41.8 | 71.69
Neigh   | 2.0448e-05 | 0.0058627  | 0.0084648  |   3.2 |  0.17
Comm    | 0.056864   | 0.55376    | 1.6526     |  61.0 | 16.45
Output  | 0          | 0          | 0          |   0.0 |  0.00
Modify  | 3.2987e-05 | 0.0047143  | 0.010118   |   3.2 |  0.14
Other   |            | 0.3883     |            |       | 11.54

Nlocal:        2776.45 ave        3948 max           0 min
Histogram: 8 4 4 0 4 12 8 2 26 36
Nghost:        3879.03 ave        5424 max         232 min
Histogram: 8 0 8 0 16 0 8 8 16 40
Neighs:        79213.3 ave      115014 max           0 min
Histogram: 8 4 4 0 10 6 8 8 24 32

Total # of neighbors = 8238187
Ave neighs/atom = 28.530419
Neighbor list builds = 2
Dangerous builds = 0
The dot product: 7.04910938311799e-06
The angle: 61.3303452269364
Setting atom values ...
  1 settings made for x
  1 settings made for y
  1 settings made for z
Setting up cg style minimization ...
  Unit style    : metal
  Current step  : 1819
Per MPI rank memory allocation (min/avg/max) = 5.441 | 5.816 | 6.074 Mbytes
Step PotEng KinEng TotEng v_fx v_fy v_fz 
    1819   -1152449.3            0   -1152449.3 -0.072572102 -0.042386174  0.070115683 
    2000   -1152449.4            0   -1152449.4 -1.5423877e-06 1.758408e-05 -2.8486237e-05 
    2095   -1152449.4            0   -1152449.4 -5.7476441e-07 -3.6716946e-07 6.0635155e-07 
Loop time of 3.20439 on 104 procs for 276 steps with 288751 atoms

99.9% CPU use with 104 MPI tasks x 1 OpenMP threads

Minimization stats:
  Stopping criterion = energy tolerance
  Energy initial, next-to-last, final = 
     -1152449.34856769  -1152449.35123151  -1152449.35123151
  Force two-norm initial, final = 0.21552458 2.9941971e-06
  Force max component initial, final = 0.077185177 6.0635155e-07
  Final line search alpha, max atom move = 1.0000000 6.0635155e-07
  Iterations, force evaluations = 276 552

MPI task timing breakdown:
Section |  min time  |  avg time  |  max time  |%varavg| %total
---------------------------------------------------------------
Pair    | 0.83442    | 2.3201     | 3.0222     |  41.2 | 72.40
Neigh   | 0          | 0          | 0          |   0.0 |  0.00
Comm    | 0.04878    | 0.52051    | 1.577      |  61.1 | 16.24
Output  | 0.000117   | 0.00011981 | 0.0002852  |   0.0 |  0.00
Modify  | 3.2227e-05 | 0.0045511  | 0.0097848  |   3.2 |  0.14
Other   |            | 0.3591     |            |       | 11.21

Nlocal:        2776.45 ave        3960 max           0 min
Histogram: 8 4 4 0 4 12 8 2 28 34
Nghost:        3879.03 ave        5426 max         232 min
Histogram: 8 0 8 0 16 0 8 8 16 40
Neighs:        79213.4 ave      115440 max           0 min
Histogram: 8 4 4 0 10 6 8 8 24 32

Total # of neighbors = 8238190
Ave neighs/atom = 28.530429
Neighbor list builds = 0
Dangerous builds = 0
The dot product: 3.57878309406974e-08
The angle: 87.7525436250349
Setting atom values ...
  1 settings made for x
  1 settings made for y
  1 settings made for z
Setting up cg style minimization ...
  Unit style    : metal
  Current step  : 2095
Per MPI rank memory allocation (min/avg/max) = 5.441 | 5.816 | 6.074 Mbytes
Step PotEng KinEng TotEng v_fx v_fy v_fz 
    2095   -1152449.3            0   -1152449.3 0.0035152057 -0.016567072   0.02791016 
    2280   -1152449.4            0   -1152449.4 3.0581717e-05 2.3951622e-05 -4.3550726e-05 
Loop time of 2.18062 on 104 procs for 185 steps with 288751 atoms

99.9% CPU use with 104 MPI tasks x 1 OpenMP threads

Minimization stats:
  Stopping criterion = energy tolerance
  Energy initial, next-to-last, final = 
     -1152449.34914983  -1152449.35116396  -1152449.35116396
  Force two-norm initial, final = 0.18724674 0.00018012704
  Force max component initial, final = 0.079364267 4.3550726e-05
  Final line search alpha, max atom move = 1.0000000 4.3550726e-05
  Iterations, force evaluations = 185 370

MPI task timing breakdown:
Section |  min time  |  avg time  |  max time  |%varavg| %total
---------------------------------------------------------------
Pair    | 0.56307    | 1.5652     | 2.0375     |  33.6 | 71.78
Neigh   | 0          | 0          | 0          |   0.0 |  0.00
Comm    | 0.033969   | 0.35562    | 1.0671     |  49.5 | 16.31
Output  | 0          | 0          | 0          |   0.0 |  0.00
Modify  | 2.1858e-05 | 0.0030528  | 0.0066067  |   2.6 |  0.14
Other   |            | 0.2568     |            |       | 11.78

Nlocal:        2776.45 ave        3959 max           0 min
Histogram: 8 4 4 0 4 12 8 2 28 34
Nghost:        3879.03 ave        5424 max         232 min
Histogram: 8 0 8 0 16 0 8 8 16 40
Neighs:        79213.4 ave      115401 max           0 min
Histogram: 8 4 4 0 10 6 8 8 24 32

Total # of neighbors = 8238190
Ave neighs/atom = 28.530429
Neighbor list builds = 0
Dangerous builds = 0
The dot product: -2.94237372380257e-08
The angle: 90.0288884653837
Setting atom values ...
  1 settings made for x
  1 settings made for y
  1 settings made for z
Setting up cg style minimization ...
  Unit style    : metal
  Current step  : 2280
Per MPI rank memory allocation (min/avg/max) = 5.441 | 5.816 | 6.074 Mbytes
Step PotEng KinEng TotEng v_fx v_fy v_fz 
    2280   -1152449.3            0   -1152449.3 0.0023705346  -0.01503983  0.025514351 
    2502   -1152449.3            0   -1152449.3 8.3651827e-06 9.0663236e-06 -1.6229041e-05 
Loop time of 2.56521 on 104 procs for 222 steps with 288751 atoms

99.9% CPU use with 104 MPI tasks x 1 OpenMP threads

Minimization stats:
  Stopping criterion = energy tolerance
  Energy initial, next-to-last, final = 
     -1152449.34608961  -1152449.34806403  -1152449.34806403
  Force two-norm initial, final = 0.18545023 4.9927420e-05
  Force max component initial, final = 0.079019421 1.6229041e-05
  Final line search alpha, max atom move = 1.0000000 1.6229041e-05
  Iterations, force evaluations = 222 444

MPI task timing breakdown:
Section |  min time  |  avg time  |  max time  |%varavg| %total
---------------------------------------------------------------
Pair    | 0.67149    | 1.8599     | 2.4252     |  36.8 | 72.50
Neigh   | 0          | 0          | 0          |   0.0 |  0.00
Comm    | 0.039485   | 0.41651    | 1.2574     |  54.5 | 16.24
Output  | 0          | 0          | 0          |   0.0 |  0.00
Modify  | 2.7329e-05 | 0.0036542  | 0.007854   |   2.9 |  0.14
Other   |            | 0.2852     |            |       | 11.12

Nlocal:        2776.45 ave        3960 max           0 min
Histogram: 8 4 4 0 4 12 8 2 28 34
Nghost:        3879.03 ave        5424 max         232 min
Histogram: 8 0 8 0 16 0 8 8 16 40
Neighs:        79213.4 ave      115429 max           0 min
Histogram: 8 4 4 0 10 6 8 8 24 32

Total # of neighbors = 8238191
Ave neighs/atom = 28.530433
Neighbor list builds = 0
Dangerous builds = 0
The dot product: -2.18599665084692e-08
The angle: 90.0614408591111
Setting atom values ...
  1 settings made for x
  1 settings made for y
  1 settings made for z
Setting up cg style minimization ...
  Unit style    : metal
  Current step  : 2502
Per MPI rank memory allocation (min/avg/max) = 5.441 | 5.816 | 6.074 Mbytes
Step PotEng KinEng TotEng v_fx v_fy v_fz 
    2502   -1152449.3            0   -1152449.3 0.0021694267 -0.012728708  0.021664258 
    2683   -1152449.3            0   -1152449.3 3.3480774e-06 -8.4066639e-06 1.4145488e-05 
Loop time of 2.11887 on 104 procs for 181 steps with 288751 atoms

99.9% CPU use with 104 MPI tasks x 1 OpenMP threads

Minimization stats:
  Stopping criterion = energy tolerance
  Energy initial, next-to-last, final = 
     -1152449.33997425  -1152449.34190445  -1152449.34190445
  Force two-norm initial, final = 0.18354693 0.00020976228
  Force max component initial, final = 0.078696133 5.2310729e-05
  Final line search alpha, max atom move = 1.0000000 5.2310729e-05
  Iterations, force evaluations = 181 362

MPI task timing breakdown:
Section |  min time  |  avg time  |  max time  |%varavg| %total
---------------------------------------------------------------
Pair    | 0.54675    | 1.5262     | 1.9936     |  33.5 | 72.03
Neigh   | 0          | 0          | 0          |   0.0 |  0.00
Comm    | 0.036175   | 0.3442     | 1.0336     |  49.0 | 16.24
Output  | 0          | 0          | 0          |   0.0 |  0.00
Modify  | 2.1316e-05 | 0.0029873  | 0.0064533  |   2.6 |  0.14
Other   |            | 0.2455     |            |       | 11.58

Nlocal:        2776.45 ave        3958 max           0 min
Histogram: 8 4 4 0 4 12 8 2 28 34
Nghost:        3879.03 ave        5424 max         232 min
Histogram: 8 0 8 0 16 0 8 8 16 40
Neighs:        79213.4 ave      115371 max           0 min
Histogram: 8 4 4 0 10 6 8 8 24 32

Total # of neighbors = 8238190
Ave neighs/atom = 28.530429
Neighbor list builds = 0
Dangerous builds = 0
The dot product: 2.44606705857057e-08
The angle: 89.9165387796915
Setting atom values ...
  1 settings made for x
  1 settings made for y
  1 settings made for z
Setting up cg style minimization ...
  Unit style    : metal
  Current step  : 2683
Per MPI rank memory allocation (min/avg/max) = 5.441 | 5.816 | 6.074 Mbytes
Step PotEng KinEng TotEng v_fx v_fy v_fz 
    2683   -1152449.3            0   -1152449.3 0.00079279726 -0.010504911  0.018020189 
    2940   -1152449.3            0   -1152449.3 -1.8117324e-06 -1.2221231e-06 2.2554343e-06 
Loop time of 2.98475 on 104 procs for 257 steps with 288751 atoms

99.9% CPU use with 104 MPI tasks x 1 OpenMP threads

Minimization stats:
  Stopping criterion = energy tolerance
  Energy initial, next-to-last, final = 
     -1152449.33074504  -1152449.33265183  -1152449.33265183
  Force two-norm initial, final = 0.18266724 8.2688128e-06
  Force max component initial, final = 0.078295591 2.3508110e-06
  Final line search alpha, max atom move = 1.0000000 2.3508110e-06
  Iterations, force evaluations = 257 514

MPI task timing breakdown:
Section |  min time  |  avg time  |  max time  |%varavg| %total
---------------------------------------------------------------
Pair    | 0.77866    | 2.1565     | 2.8023     |  39.7 | 72.25
Neigh   | 0          | 0          | 0          |   0.0 |  0.00
Comm    | 0.044304   | 0.48447    | 1.4647     |  58.5 | 16.23
Output  | 0          | 0          | 0          |   0.0 |  0.00
Modify  | 2.9145e-05 | 0.0042335  | 0.0091244  |   3.1 |  0.14
Other   |            | 0.3395     |            |       | 11.38

Nlocal:        2776.45 ave        3955 max           0 min
Histogram: 8 4 4 0 4 12 8 0 30 34
Nghost:        3879.03 ave        5424 max         232 min
Histogram: 8 0 8 0 16 0 8 8 16 40
Neighs:        79213.4 ave      115269 max           0 min
Histogram: 8 4 4 0 10 6 8 8 24 32

Total # of neighbors = 8238192
Ave neighs/atom = 28.530436
Neighbor list builds = 0
Dangerous builds = 0
The dot product: 1.65422072582198e-09
The angle: 89.9698204435046
Setting atom values ...
  1 settings made for x
  1 settings made for y
  1 settings made for z
Setting up cg style minimization ...
  Unit style    : metal
  Current step  : 2940
Per MPI rank memory allocation (min/avg/max) = 5.441 | 5.816 | 6.074 Mbytes
Step PotEng KinEng TotEng v_fx v_fy v_fz 
    2940   -1152449.3            0   -1152449.3 -0.0019268737 -0.0085392611  0.014894705 
    3000   -1152449.3            0   -1152449.3 -0.00040953844 2.0267254e-05 -1.1016608e-06 
    3122   -1152449.3            0   -1152449.3 -2.4007621e-05 -8.7277455e-06 1.7046175e-05 
Loop time of 2.1287 on 104 procs for 182 steps with 288751 atoms

99.9% CPU use with 104 MPI tasks x 1 OpenMP threads

Minimization stats:
  Stopping criterion = energy tolerance
  Energy initial, next-to-last, final = 
     -1152449.31832128   -1152449.3202314   -1152449.3202314
  Force two-norm initial, final = 0.18300188 0.00018122681
  Force max component initial, final = 0.077986501 4.4692553e-05
  Final line search alpha, max atom move = 1.0000000 4.4692553e-05
  Iterations, force evaluations = 182 364

MPI task timing breakdown:
Section |  min time  |  avg time  |  max time  |%varavg| %total
---------------------------------------------------------------
Pair    | 0.55093    | 1.5346     | 1.9966     |  33.4 | 72.09
Neigh   | 0          | 0          | 0          |   0.0 |  0.00
Comm    | 0.040697   | 0.34608    | 1.0408     |  49.2 | 16.26
Output  | 0.00015537 | 0.00016086 | 0.00029894 |   0.0 |  0.01
Modify  | 2.1182e-05 | 0.0030073  | 0.0064874  |   2.6 |  0.14
Other   |            | 0.2448     |            |       | 11.50

Nlocal:        2776.45 ave        3951 max           0 min
Histogram: 8 4 4 0 4 12 8 0 30 34
Nghost:        3878.99 ave        5424 max         232 min
Histogram: 8 0 8 0 16 0 8 8 16 40
Neighs:        79213.3 ave      115159 max           0 min
Histogram: 8 4 4 0 10 6 8 8 24 32

Total # of neighbors = 8238188
Ave neighs/atom = 28.530422
Neighbor list builds = 0
Dangerous builds = 0
The dot product: 1.55263956042913e-08
The angle: 89.9710324488271
Setting atom values ...
  1 settings made for x
  1 settings made for y
  1 settings made for z
Setting up cg style minimization ...
  Unit style    : metal
  Current step  : 3122
Per MPI rank memory allocation (min/avg/max) = 5.441 | 5.816 | 6.074 Mbytes
Step PotEng KinEng TotEng v_fx v_fy v_fz 
    3122   -1152449.3            0   -1152449.3 -0.0058977815 -0.0070202945   0.01262578 
    3428   -1152449.3            0   -1152449.3 -2.8135873e-07 9.9819348e-08 -1.4928391e-07 
Loop time of 3.52878 on 104 procs for 306 steps with 288751 atoms

99.9% CPU use with 104 MPI tasks x 1 OpenMP threads

Minimization stats:
  Stopping criterion = energy tolerance
  Energy initial, next-to-last, final = 
     -1152449.30260157  -1152449.30453359  -1152449.30453359
  Force two-norm initial, final = 0.18426682 1.2656263e-06
  Force max component initial, final = 0.077623066 2.8135873e-07
  Final line search alpha, max atom move = 1.0000000 2.8135873e-07
  Iterations, force evaluations = 306 612

MPI task timing breakdown:
Section |  min time  |  avg time  |  max time  |%varavg| %total
---------------------------------------------------------------
Pair    | 0.92387    | 2.5614     | 3.328      |  43.3 | 72.59
Neigh   | 0          | 0          | 0          |   0.0 |  0.00
Comm    | 0.052375   | 0.57346    | 1.741      |  64.0 | 16.25
Output  | 0          | 0          | 0          |   0.0 |  0.00
Modify  | 3.5819e-05 | 0.0050411  | 0.0109     |   3.4 |  0.14
Other   |            | 0.3889     |            |       | 11.02

Nlocal:        2776.45 ave        3945 max           0 min
Histogram: 8 4 4 0 4 12 8 0 28 36
Nghost:        3879.09 ave        5424 max         232 min
Histogram: 8 0 8 0 16 0 8 8 16 40
Neighs:        79213.4 ave      114965 max           0 min
Histogram: 8 4 4 0 10 6 8 8 24 32

Total # of neighbors = 8238189
Ave neighs/atom = 28.530426
Neighbor list builds = 0
Dangerous builds = 0
The dot product: 2.48259547035824e-11
The angle: 89.9957385050356
Setting up cg style minimization ...
  Unit style    : metal
  Current step  : 3428
Per MPI rank memory allocation (min/avg/max) = 5.441 | 5.816 | 6.074 Mbytes
Step PotEng KinEng TotEng v_fx v_fy v_fz 
    3428   -1152449.3            0   -1152449.3  0.023984998   0.50085891   0.28969572 
    3666   -1152449.4            0   -1152449.4 2.7573996e-05 6.5589892e-06 -2.561105e-05 
Loop time of 2.78534 on 104 procs for 238 steps with 288751 atoms

99.9% CPU use with 104 MPI tasks x 1 OpenMP threads

Minimization stats:
  Stopping criterion = linesearch alpha is zero
  Energy initial, next-to-last, final = 
     -1152449.30453359  -1152449.35157347  -1152449.35157347
  Force two-norm initial, final = 0.57910149 0.00012643821
  Force max component initial, final = 0.50085891 2.7573996e-05
  Final line search alpha, max atom move = 0.5 1.3786998e-05
  Iterations, force evaluations = 238 477

MPI task timing breakdown:
Section |  min time  |  avg time  |  max time  |%varavg| %total
---------------------------------------------------------------
Pair    | 0.72457    | 2.0143     | 2.6282     |  38.2 | 72.32
Neigh   | 1.0215e-05 | 0.0029518  | 0.0042697  |   2.2 |  0.11
Comm    | 0.048608   | 0.45797    | 1.3821     |  56.4 | 16.44
Output  | 0          | 0          | 0          |   0.0 |  0.00
Modify  | 2.5298e-05 | 0.0025614  | 0.0066688  |   3.2 |  0.09
Other   |            | 0.3076     |            |       | 11.04

Nlocal:        2776.45 ave        3941 max           0 min
Histogram: 8 4 4 0 4 12 8 0 28 36
Nghost:        3879.14 ave        5425 max         232 min
Histogram: 8 0 8 0 16 0 8 8 16 40
Neighs:        79213.4 ave      114827 max           0 min
Histogram: 8 4 4 0 10 6 8 8 22 34

Total # of neighbors = 8238194
Ave neighs/atom = 28.530443
Neighbor list builds = 1
Dangerous builds = 0
2
OMP_NUM_THREADS environment is not set. Defaulting to 1 thread. (../comm.cpp:94)
  using 1 OpenMP thread(s) per MPI task
Reading data file ...
  orthogonal box = (-122.39241 -121.13707 -37.090501) to (122.39241 121.13707 37.090501)
  13 by 4 by 2 MPI processor grid
  reading atoms ...
  288751 atoms
  read_data CPU = 0.347 seconds
199981 atoms in group inner
88770 atoms in group outer
1 atoms in group carbon
Neighbor list info ...
  update every 1 steps, delay 0 steps, check yes
  max neighbors/atom: 2000, page size: 100000
  master list distance cutoff = 5.6
  ghost atom cutoff = 5.6
  binsize = 2.8, bins = 88 87 27
  1 neighbor lists, perpetual/occasional/extra = 1 0 0
  (1) pair eam/alloy, perpetual
      attributes: half, newton on
      pair build: half/bin/atomonly/newton
      stencil: half/bin/3d/newton
      bin: standard
Setting up cg style minimization ...
  Unit style    : metal
  Current step  : 0
Per MPI rank memory allocation (min/avg/max) = 5.441 | 5.816 | 6.074 Mbytes
Step v_fx v_fy v_fz PotEng KinEng TotEng 
       0   0.38824989    -0.479145  -0.60055585   -1152447.8            0   -1152447.8 
     154 2.972526e-05 1.5152333e-06 -1.8997177e-05   -1152449.5            0   -1152449.5 
Loop time of 1.78338 on 104 procs for 154 steps with 288751 atoms

99.9% CPU use with 104 MPI tasks x 1 OpenMP threads

Minimization stats:
  Stopping criterion = energy tolerance
  Energy initial, next-to-last, final = 
     -1152447.84490657  -1152449.45035284  -1152449.45035284
  Force two-norm initial, final = 9.8174702 0.00016954272
  Force max component initial, final = 5.3084670 4.8368062e-05
  Final line search alpha, max atom move = 1.0000000 4.8368062e-05
  Iterations, force evaluations = 154 307

MPI task timing breakdown:
Section |  min time  |  avg time  |  max time  |%varavg| %total
---------------------------------------------------------------
Pair    | 0.47502    | 1.2936     | 1.675      |  30.4 | 72.54
Neigh   | 2.0529e-05 | 0.0059064  | 0.0084812  |   3.2 |  0.33
Comm    | 0.027003   | 0.29037    | 0.88247    |  45.6 | 16.28
Output  | 0          | 0          | 0          |   0.0 |  0.00
Modify  | 1.7544e-05 | 0.0016501  | 0.0043091  |   2.6 |  0.09
Other   |            | 0.1918     |            |       | 10.76

Nlocal:        2776.45 ave        3957 max           0 min
Histogram: 8 4 4 0 4 12 8 2 28 34
Nghost:        3879.03 ave        5424 max         232 min
Histogram: 8 0 8 0 16 0 8 8 16 40
Neighs:        79213.7 ave      115327 max           0 min
Histogram: 8 4 4 0 10 6 8 8 24 32

Total # of neighbors = 8238222
Ave neighs/atom = 28.530540
Neighbor list builds = 2
Dangerous builds = 0
Setting atom values ...
  1 settings made for x
  1 settings made for y
  1 settings made for z
Setting up cg style minimization ...
  Unit style    : metal
  Current step  : 154
Per MPI rank memory allocation (min/avg/max) = 5.441 | 5.816 | 6.074 Mbytes
Step PotEng KinEng TotEng v_fx v_fy v_fz 
     154   -1152449.4            0   -1152449.4 -0.0041826228  0.043892197  0.047500497 
     385   -1152449.4            0   -1152449.4 5.3494126e-07 1.3274761e-06 1.0505223e-06 
Loop time of 2.68749 on 104 procs for 231 steps with 288751 atoms

99.9% CPU use with 104 MPI tasks x 1 OpenMP threads

Minimization stats:
  Stopping criterion = energy tolerance
  Energy initial, next-to-last, final = 
     -1152449.44568276  -1152449.44865251  -1152449.44865251
  Force two-norm initial, final = 0.25127596 3.1964800e-05
  Force max component initial, final = 0.10399137 1.3274761e-06
  Final line search alpha, max atom move = 1.0000000 1.3274761e-06
  Iterations, force evaluations = 231 462

MPI task timing breakdown:
Section |  min time  |  avg time  |  max time  |%varavg| %total
---------------------------------------------------------------
Pair    | 0.69341    | 1.9358     | 2.5133     |  37.6 | 72.03
Neigh   | 0          | 0          | 0          |   0.0 |  0.00
Comm    | 0.047255   | 0.43539    | 1.3138     |  55.6 | 16.20
Output  | 0          | 0          | 0          |   0.0 |  0.00
Modify  | 2.7785e-05 | 0.0038056  | 0.0082056  |   2.9 |  0.14
Other   |            | 0.3125     |            |       | 11.63

Nlocal:        2776.45 ave        3960 max           0 min
Histogram: 8 4 4 0 4 12 8 2 28 34
Nghost:        3879.03 ave        5424 max         232 min
Histogram: 8 0 8 0 16 0 8 8 16 40
Neighs:        79213.4 ave      115436 max           0 min
Histogram: 8 4 4 0 10 6 8 8 24 32

Total # of neighbors = 8238197
Ave neighs/atom = 28.530454
Neighbor list builds = 0
Dangerous builds = 0
Setting atom values ...
  1 settings made for x
  1 settings made for y
  1 settings made for z
Setting up cg style minimization ...
  Unit style    : metal
  Current step  : 385
Per MPI rank memory allocation (min/avg/max) = 5.441 | 5.816 | 6.074 Mbytes
Step PotEng KinEng TotEng v_fx v_fy v_fz 
     385   -1152449.4            0   -1152449.4 0.0035815113  0.049588798  0.059359679 
     581   -1152449.4            0   -1152449.4 -3.7997854e-05 1.7086266e-05 4.5217379e-05 
Loop time of 2.26845 on 104 procs for 196 steps with 288751 atoms

99.9% CPU use with 104 MPI tasks x 1 OpenMP threads

Minimization stats:
  Stopping criterion = energy tolerance
  Energy initial, next-to-last, final = 
      -1152449.4395669  -1152449.44300052  -1152449.44300052
  Force two-norm initial, final = 0.26951103 0.00016543015
  Force max component initial, final = 0.1274204 4.5217379e-05
  Final line search alpha, max atom move = 1.0000000 4.5217379e-05
  Iterations, force evaluations = 196 392

MPI task timing breakdown:
Section |  min time  |  avg time  |  max time  |%varavg| %total
---------------------------------------------------------------
Pair    | 0.594      | 1.6457     | 2.1439     |  34.6 | 72.55
Neigh   | 0          | 0          | 0          |   0.0 |  0.00
Comm    | 0.037469   | 0.37022    | 1.1238     |  51.4 | 16.32
Output  | 0          | 0          | 0          |   0.0 |  0.00
Modify  | 2.4087e-05 | 0.0032272  | 0.0069565  |   2.7 |  0.14
Other   |            | 0.2493     |            |       | 10.99

Nlocal:        2776.45 ave        3960 max           0 min
Histogram: 8 4 4 0 4 12 8 2 28 34
Nghost:        3879.03 ave        5424 max         232 min
Histogram: 8 0 8 0 16 0 8 8 16 40
Neighs:        79213.4 ave      115435 max           0 min
Histogram: 8 4 4 0 10 6 8 8 24 32

Total # of neighbors = 8238194
Ave neighs/atom = 28.530443
Neighbor list builds = 0
Dangerous builds = 0
The dot product: 2.9653466024753e-06
The angle: 87.2356159809826
Setting atom values ...
  1 settings made for x
  1 settings made for y
  1 settings made for z
Setting up cg style minimization ...
  Unit style    : metal
  Current step  : 581
Per MPI rank memory allocation (min/avg/max) = 5.441 | 5.816 | 6.074 Mbytes
Step PotEng KinEng TotEng v_fx v_fy v_fz 
     581   -1152449.4            0   -1152449.4  0.010400109  0.048357359  0.064751449 
     777   -1152449.4            0   -1152449.4 1.4545928e-05 1.391179e-05 1.0863388e-05 
Loop time of 2.26477 on 104 procs for 196 steps with 288751 atoms

99.9% CPU use with 104 MPI tasks x 1 OpenMP threads

Minimization stats:
  Stopping criterion = energy tolerance
  Energy initial, next-to-last, final = 
     -1152449.43015824  -1152449.43352335  -1152449.43352335
  Force two-norm initial, final = 0.2647366 0.00013982581
  Force max component initial, final = 0.1405509 2.7118127e-05
  Final line search alpha, max atom move = 1.0000000 2.7118127e-05
  Iterations, force evaluations = 196 392

MPI task timing breakdown:
Section |  min time  |  avg time  |  max time  |%varavg| %total
---------------------------------------------------------------
Pair    | 0.59432    | 1.6435     | 2.133      |  34.5 | 72.57
Neigh   | 0          | 0          | 0          |   0.0 |  0.00
Comm    | 0.036465   | 0.36804    | 1.116      |  51.3 | 16.25
Output  | 0          | 0          | 0          |   0.0 |  0.00
Modify  | 2.3281e-05 | 0.003232   | 0.0069589  |   2.7 |  0.14
Other   |            | 0.25       |            |       | 11.04

Nlocal:        2776.45 ave        3960 max           0 min
Histogram: 8 4 4 0 4 12 8 2 28 34
Nghost:        3879.07 ave        5424 max         232 min
Histogram: 8 0 8 0 16 0 8 8 16 40
Neighs:        79213.5 ave      115434 max           0 min
Histogram: 8 4 4 0 10 6 8 8 24 32

Total # of neighbors = 8238199
Ave neighs/atom = 28.530461
Neighbor list builds = 0
Dangerous builds = 0
The dot product: 1.45683616436999e-06
The angle: 86.3480862639152
Setting atom values ...
  1 settings made for x
  1 settings made for y
  1 settings made for z
Setting up cg style minimization ...
  Unit style    : metal
  Current step  : 777
Per MPI rank memory allocation (min/avg/max) = 5.441 | 5.816 | 6.074 Mbytes
Step PotEng KinEng TotEng v_fx v_fy v_fz 
     777   -1152449.4            0   -1152449.4  0.013507319  0.045143251  0.069518789 
     955   -1152449.4            0   -1152449.4 -1.9713235e-05 -1.1732059e-05 -6.4590066e-06 
Loop time of 2.06937 on 104 procs for 178 steps with 288751 atoms

99.9% CPU use with 104 MPI tasks x 1 OpenMP threads

Minimization stats:
  Stopping criterion = energy tolerance
  Energy initial, next-to-last, final = 
     -1152449.41703031  -1152449.42038062  -1152449.42038062
  Force two-norm initial, final = 0.26066036 0.00018981801
  Force max component initial, final = 0.15292982 3.4852897e-05
  Final line search alpha, max atom move = 1.0000000 3.4852897e-05
  Iterations, force evaluations = 178 356

MPI task timing breakdown:
Section |  min time  |  avg time  |  max time  |%varavg| %total
---------------------------------------------------------------
Pair    | 0.54241    | 1.5        | 1.9491     |  33.0 | 72.49
Neigh   | 0          | 0          | 0          |   0.0 |  0.00
Comm    | 0.035974   | 0.33833    | 1.0241     |  49.0 | 16.35
Output  | 0          | 0          | 0          |   0.0 |  0.00
Modify  | 2.1347e-05 | 0.0029321  | 0.0063352  |   2.6 |  0.14
Other   |            | 0.2281     |            |       | 11.02

Nlocal:        2776.45 ave        3960 max           0 min
Histogram: 8 4 4 0 4 12 8 4 26 34
Nghost:        3879.14 ave        5424 max         232 min
Histogram: 8 0 8 0 16 0 8 8 16 40
Neighs:        79213.4 ave      115423 max           0 min
Histogram: 8 4 4 0 10 6 8 8 24 32

Total # of neighbors = 8238195
Ave neighs/atom = 28.530447
Neighbor list builds = 0
Dangerous builds = 0
The dot product: -1.14160493824903e-06
The angle: 92.7456260367651
Setting atom values ...
  1 settings made for x
  1 settings made for y
  1 settings made for z
Setting up cg style minimization ...
  Unit style    : metal
  Current step  : 955
Per MPI rank memory allocation (min/avg/max) = 5.441 | 5.816 | 6.074 Mbytes
Step PotEng KinEng TotEng v_fx v_fy v_fz 
     955   -1152449.4            0   -1152449.4 0.0093836465  0.041698379  0.080250201 
    1000   -1152449.4            0   -1152449.4 0.00029758641 -0.00013504302 -0.00051575587 
    1134   -1152449.4            0   -1152449.4 9.6839084e-06 1.6207469e-07 -7.2142249e-06 
Loop time of 2.10588 on 104 procs for 179 steps with 288751 atoms

99.9% CPU use with 104 MPI tasks x 1 OpenMP threads

Minimization stats:
  Stopping criterion = energy tolerance
  Energy initial, next-to-last, final = 
     -1152449.40061939  -1152449.40396801  -1152449.40396801
  Force two-norm initial, final = 0.25861371 0.0001056649
  Force max component initial, final = 0.16501613 9.6839084e-06
  Final line search alpha, max atom move = 1.0000000 9.6839084e-06
  Iterations, force evaluations = 179 358

MPI task timing breakdown:
Section |  min time  |  avg time  |  max time  |%varavg| %total
---------------------------------------------------------------
Pair    | 0.54408    | 1.5084     | 1.97       |  33.0 | 71.63
Neigh   | 0          | 0          | 0          |   0.0 |  0.00
Comm    | 0.032721   | 0.34575    | 1.051      |  48.5 | 16.42
Output  | 0.00016946 | 0.00017796 | 0.00029202 |   0.0 |  0.01
Modify  | 2.1895e-05 | 0.0029543  | 0.0063868  |   2.6 |  0.14
Other   |            | 0.2486     |            |       | 11.81

Nlocal:        2776.45 ave        3960 max           0 min
Histogram: 8 4 4 0 4 12 8 4 26 34
Nghost:        3879.12 ave        5424 max         232 min
Histogram: 8 0 8 0 16 0 8 8 16 40
Neighs:        79213.4 ave      115442 max           0 min
Histogram: 8 4 4 0 10 6 8 8 24 32

Total # of neighbors = 8238194
Ave neighs/atom = 28.530443
Neighbor list builds = 0
Dangerous builds = 0
The dot product: -4.0765151970248e-07
The angle: 91.9343804534391
Setting atom values ...
  1 settings made for x
  1 settings made for y
  1 settings made for z
Setting up cg style minimization ...
  Unit style    : metal
  Current step  : 1134
Per MPI rank memory allocation (min/avg/max) = 5.441 | 5.816 | 6.074 Mbytes
Step PotEng KinEng TotEng v_fx v_fy v_fz 
    1134   -1152449.4            0   -1152449.4 0.0035622964  0.035507814  0.089862366 
    1317   -1152449.4            0   -1152449.4 9.7121644e-06 -1.1830554e-06 -1.1970607e-05 
Loop time of 2.12174 on 104 procs for 183 steps with 288751 atoms

99.9% CPU use with 104 MPI tasks x 1 OpenMP threads

Minimization stats:
  Stopping criterion = energy tolerance
  Energy initial, next-to-last, final = 
     -1152449.38157583  -1152449.38489702  -1152449.38489702
  Force two-norm initial, final = 0.25807074 8.1259734e-05
  Force max component initial, final = 0.17673357 1.6293995e-05
  Final line search alpha, max atom move = 1.0000000 1.6293995e-05
  Iterations, force evaluations = 183 366

MPI task timing breakdown:
Section |  min time  |  avg time  |  max time  |%varavg| %total
---------------------------------------------------------------
Pair    | 0.55263    | 1.5371     | 1.9998     |  33.5 | 72.45
Neigh   | 0          | 0          | 0          |   0.0 |  0.00
Comm    | 0.032815   | 0.3445     | 1.0397     |  49.6 | 16.24
Output  | 0          | 0          | 0          |   0.0 |  0.00
Modify  | 2.1915e-05 | 0.0030176  | 0.0064902  |   2.6 |  0.14
Other   |            | 0.2371     |            |       | 11.17

Nlocal:        2776.45 ave        3960 max           0 min
Histogram: 8 4 4 0 4 12 8 4 26 34
Nghost:        3879.12 ave        5424 max         232 min
Histogram: 8 0 8 0 16 0 8 8 16 40
Neighs:        79213.4 ave      115440 max           0 min
Histogram: 8 4 4 0 10 6 8 8 24 32

Total # of neighbors = 8238190
Ave neighs/atom = 28.530429
Neighbor list builds = 0
Dangerous builds = 0
The dot product: -9.43146127154632e-07
The angle: 93.4974632160942
Setting atom values ...
  1 settings made for x
  1 settings made for y
  1 settings made for z
Setting up cg style minimization ...
  Unit style    : metal
  Current step  : 1317
Per MPI rank memory allocation (min/avg/max) = 5.441 | 5.816 | 6.074 Mbytes
Step PotEng KinEng TotEng v_fx v_fy v_fz 
    1317   -1152449.4            0   -1152449.4 0.0029896876  0.028195817  0.093160847 
    1466   -1152449.4            0   -1152449.4 -3.1482172e-05 -1.374192e-06 3.2441033e-05 
Loop time of 1.7414 on 104 procs for 149 steps with 288751 atoms

99.9% CPU use with 104 MPI tasks x 1 OpenMP threads

Minimization stats:
  Stopping criterion = energy tolerance
  Energy initial, next-to-last, final = 
     -1152449.36002877  -1152449.36331924  -1152449.36331924
  Force two-norm initial, final = 0.25611427 0.00033767683
  Force max component initial, final = 0.18662814 8.6266870e-05
  Final line search alpha, max atom move = 1.0000000 8.6266870e-05
  Iterations, force evaluations = 149 298

MPI task timing breakdown:
Section |  min time  |  avg time  |  max time  |%varavg| %total
---------------------------------------------------------------
Pair    | 0.45316    | 1.2539     | 1.6383     |  30.1 | 72.00
Neigh   | 0          | 0          | 0          |   0.0 |  0.00
Comm    | 0.028535   | 0.28515    | 0.86639    |  44.4 | 16.37
Output  | 0          | 0          | 0          |   0.0 |  0.00
Modify  | 1.8403e-05 | 0.0024574  | 0.0052509  |   2.3 |  0.14
Other   |            | 0.1999     |            |       | 11.48

Nlocal:        2776.45 ave        3960 max           0 min
Histogram: 8 4 4 0 4 12 8 4 26 34
Nghost:        3879.12 ave        5424 max         232 min
Histogram: 8 0 8 0 16 0 8 8 16 40
Neighs:        79213.3 ave      115438 max           0 min
Histogram: 8 4 4 0 10 6 8 8 24 32

Total # of neighbors = 8238187
Ave neighs/atom = 28.530419
Neighbor list builds = 0
Dangerous builds = 0
The dot product: 2.4215325169666e-06
The angle: 86.9307823070457
Setting atom values ...
  1 settings made for x
  1 settings made for y
  1 settings made for z
Setting up cg style minimization ...
  Unit style    : metal
  Current step  : 1466
Per MPI rank memory allocation (min/avg/max) = 5.441 | 5.816 | 6.074 Mbytes
Step PotEng KinEng TotEng v_fx v_fy v_fz 
    1466   -1152449.3            0   -1152449.3 0.0088915987  0.022292001  0.090885605 
    1718   -1152449.3            0   -1152449.3 7.0013338e-08 -1.126128e-07 -6.4634573e-07 
Loop time of 2.9611 on 104 procs for 252 steps with 288751 atoms

99.9% CPU use with 104 MPI tasks x 1 OpenMP threads

Minimization stats:
  Stopping criterion = energy tolerance
  Energy initial, next-to-last, final = 
     -1152449.33589367  -1152449.33911571  -1152449.33911571
  Force two-norm initial, final = 0.25425188 8.2302597e-06
  Force max component initial, final = 0.19496059 1.0579896e-06
  Final line search alpha, max atom move = 1.0000000 1.0579896e-06
  Iterations, force evaluations = 252 504

MPI task timing breakdown:
Section |  min time  |  avg time  |  max time  |%varavg| %total
---------------------------------------------------------------
Pair    | 0.77558    | 2.1241     | 2.7612     |  39.0 | 71.73
Neigh   | 0          | 0          | 0          |   0.0 |  0.00
Comm    | 0.052212   | 0.48071    | 1.4542     |  58.3 | 16.23
Output  | 0          | 0          | 0          |   0.0 |  0.00
Modify  | 2.9985e-05 | 0.0041481  | 0.0089478  |   3.0 |  0.14
Other   |            | 0.3521     |            |       | 11.89

Nlocal:        2776.45 ave        3961 max           0 min
Histogram: 8 4 4 0 6 10 8 4 26 34
Nghost:        3879.14 ave        5424 max         232 min
Histogram: 8 0 8 0 16 0 8 8 16 40
Neighs:        79213.3 ave      115483 max           0 min
Histogram: 8 4 4 0 10 6 8 8 24 32

Total # of neighbors = 8238185
Ave neighs/atom = 28.530412
Neighbor list builds = 0
Dangerous builds = 0
The dot product: -4.19936013668579e-08
The angle: 93.6490679852543
Setting atom values ...
  1 settings made for x
  1 settings made for y
  1 settings made for z
Setting up cg style minimization ...
  Unit style    : metal
  Current step  : 1718
Per MPI rank memory allocation (min/avg/max) = 5.441 | 5.816 | 6.074 Mbytes
Step PotEng KinEng TotEng v_fx v_fy v_fz 
    1718   -1152449.3            0   -1152449.3  0.017894889  0.018100773  0.084942689 
    1892   -1152449.3            0   -1152449.3 -1.8513849e-05 -1.2321996e-05 -4.2685955e-05 
Loop time of 2.01556 on 104 procs for 174 steps with 288751 atoms

99.9% CPU use with 104 MPI tasks x 1 OpenMP threads

Minimization stats:
  Stopping criterion = energy tolerance
  Energy initial, next-to-last, final = 
     -1152449.30903569  -1152449.31218317  -1152449.31218317
  Force two-norm initial, final = 0.25311993 0.00021194032
  Force max component initial, final = 0.20244594 4.2685955e-05
  Final line search alpha, max atom move = 1.0000000 4.2685955e-05
  Iterations, force evaluations = 174 348

MPI task timing breakdown:
Section |  min time  |  avg time  |  max time  |%varavg| %total
---------------------------------------------------------------
Pair    | 0.52818    | 1.4597     | 1.8974     |  32.6 | 72.42
Neigh   | 0          | 0          | 0          |   0.0 |  0.00
Comm    | 0.033216   | 0.32926    | 0.99282    |  48.0 | 16.34
Output  | 0          | 0          | 0          |   0.0 |  0.00
Modify  | 2.1325e-05 | 0.0028619  | 0.0061332  |   2.5 |  0.14
Other   |            | 0.2238     |            |       | 11.10

Nlocal:        2776.45 ave        3961 max           0 min
Histogram: 8 4 4 0 6 10 8 4 26 34
Nghost:        3879.14 ave        5424 max         232 min
Histogram: 8 0 8 0 16 0 8 8 16 40
Neighs:        79213.3 ave      115481 max           0 min
Histogram: 8 4 4 0 10 6 8 8 24 32

Total # of neighbors = 8238182
Ave neighs/atom = 28.530402
Neighbor list builds = 0
Dangerous builds = 0
The dot product: -2.62345386831536e-06
The angle: 93.1244807064925
Setting atom values ...
  1 settings made for x
  1 settings made for y
  1 settings made for z
Setting up cg style minimization ...
  Unit style    : metal
  Current step  : 1892
Per MPI rank memory allocation (min/avg/max) = 5.441 | 5.816 | 6.074 Mbytes
Step PotEng KinEng TotEng v_fx v_fy v_fz 
    1892   -1152449.3            0   -1152449.3  0.026549587  0.014990832  0.076759292 
    2000   -1152449.3            0   -1152449.3 5.356077e-05 2.9574312e-05 0.00014679494 
    2073   -1152449.3            0   -1152449.3 3.0535302e-05 1.0436041e-05 6.187769e-06 
Loop time of 2.109 on 104 procs for 181 steps with 288751 atoms

99.9% CPU use with 104 MPI tasks x 1 OpenMP threads

Minimization stats:
  Stopping criterion = energy tolerance
  Energy initial, next-to-last, final = 
     -1152449.27936188  -1152449.28244495  -1152449.28244495
  Force two-norm initial, final = 0.25314357 0.00015768318
  Force max component initial, final = 0.20970058 3.4032162e-05
  Final line search alpha, max atom move = 1.0000000 3.4032162e-05
  Iterations, force evaluations = 181 362

MPI task timing breakdown:
Section |  min time  |  avg time  |  max time  |%varavg| %total
---------------------------------------------------------------
Pair    | 0.54626    | 1.5201     | 1.9867     |  33.3 | 72.08
Neigh   | 0          | 0          | 0          |   0.0 |  0.00
Comm    | 0.036972   | 0.34237    | 1.0352     |  49.3 | 16.23
Output  | 0.00015313 | 0.00016319 | 0.00030927 |   0.0 |  0.01
Modify  | 2.194e-05  | 0.002986   | 0.0064758  |   2.6 |  0.14
Other   |            | 0.2434     |            |       | 11.54

Nlocal:        2776.45 ave        3961 max           0 min
Histogram: 8 4 4 0 6 10 8 4 26 34
Nghost:        3879.14 ave        5424 max         232 min
Histogram: 8 0 8 0 16 0 8 8 16 40
Neighs:        79213.3 ave      115481 max           0 min
Histogram: 8 4 4 0 10 6 8 8 24 32

Total # of neighbors = 8238183
Ave neighs/atom = 28.530405
Neighbor list builds = 0
Dangerous builds = 0
The dot product: 8.75430383757837e-07
The angle: 88.4732660034565
Setting atom values ...
  1 settings made for x
  1 settings made for y
  1 settings made for z
Setting up cg style minimization ...
  Unit style    : metal
  Current step  : 2073
Per MPI rank memory allocation (min/avg/max) = 5.441 | 5.816 | 6.074 Mbytes
Step PotEng KinEng TotEng v_fx v_fy v_fz 
    2073   -1152449.2            0   -1152449.2   0.03355387  0.012590334  0.068317361 
    2251   -1152449.2            0   -1152449.2 2.7282464e-05 9.1313894e-06 2.3595515e-05 
Loop time of 2.05186 on 104 procs for 178 steps with 288751 atoms

99.9% CPU use with 104 MPI tasks x 1 OpenMP threads

Minimization stats:
  Stopping criterion = energy tolerance
  Energy initial, next-to-last, final = 
       -1152449.246819  -1152449.24986756  -1152449.24986756
  Force two-norm initial, final = 0.25472404 0.0001813189
  Force max component initial, final = 0.21685355 3.3954152e-05
  Final line search alpha, max atom move = 1.0000000 3.3954152e-05
  Iterations, force evaluations = 178 356

MPI task timing breakdown:
Section |  min time  |  avg time  |  max time  |%varavg| %total
---------------------------------------------------------------
Pair    | 0.53266    | 1.4914     | 1.939      |  33.1 | 72.68
Neigh   | 0          | 0          | 0          |   0.0 |  0.00
Comm    | 0.03061    | 0.3344     | 1.0122     |  49.0 | 16.30
Output  | 0          | 0          | 0          |   0.0 |  0.00
Modify  | 2.1963e-05 | 0.0029318  | 0.0062896  |   2.6 |  0.14
Other   |            | 0.2231     |            |       | 10.88

Nlocal:        2776.45 ave        3961 max           0 min
Histogram: 8 4 4 0 6 10 8 4 26 34
Nghost:        3879.07 ave        5424 max         232 min
Histogram: 8 0 8 0 16 0 8 8 16 40
Neighs:        79213.3 ave      115492 max           0 min
Histogram: 8 4 4 0 10 6 8 8 24 32

Total # of neighbors = 8238184
Ave neighs/atom = 28.530409
Neighbor list builds = 0
Dangerous builds = 0
The dot product: 1.5211236977681e-06
The angle: 87.6570259976363
Setting atom values ...
  1 settings made for x
  1 settings made for y
  1 settings made for z
Setting up cg style minimization ...
  Unit style    : metal
  Current step  : 2251
Per MPI rank memory allocation (min/avg/max) = 5.441 | 5.816 | 6.074 Mbytes
Step PotEng KinEng TotEng v_fx v_fy v_fz 
    2251   -1152449.2            0   -1152449.2  0.038037259   0.01041317  0.060154443 
    2420   -1152449.2            0   -1152449.2 -5.5219936e-05 -1.584738e-05 8.539996e-05 
Loop time of 1.97176 on 104 procs for 169 steps with 288751 atoms

99.9% CPU use with 104 MPI tasks x 1 OpenMP threads

Minimization stats:
  Stopping criterion = energy tolerance
  Energy initial, next-to-last, final = 
     -1152449.21139878  -1152449.21444359  -1152449.21444359
  Force two-norm initial, final = 0.25766299 0.00028238133
  Force max component initial, final = 0.22397494 8.5399960e-05
  Final line search alpha, max atom move = 1.0000000 8.5399960e-05
  Iterations, force evaluations = 169 338

MPI task timing breakdown:
Section |  min time  |  avg time  |  max time  |%varavg| %total
---------------------------------------------------------------
Pair    | 0.51342    | 1.4256     | 1.8484     |  32.1 | 72.30
Neigh   | 0          | 0          | 0          |   0.0 |  0.00
Comm    | 0.029036   | 0.32268    | 0.97295    |  47.6 | 16.36
Output  | 0          | 0          | 0          |   0.0 |  0.00
Modify  | 2.0295e-05 | 0.0027843  | 0.0060035  |   2.5 |  0.14
Other   |            | 0.2207     |            |       | 11.19

Nlocal:        2776.45 ave        3961 max           0 min
Histogram: 8 4 4 0 6 10 8 4 26 34
Nghost:        3879.07 ave        5424 max         232 min
Histogram: 8 0 8 0 16 0 8 8 16 40
Neighs:        79213.3 ave      115489 max           0 min
Histogram: 8 4 4 0 10 6 8 8 24 32

Total # of neighbors = 8238181
Ave neighs/atom = 28.530398
Neighbor list builds = 0
Dangerous builds = 0
The dot product: 1.13289522100769e-06
The angle: 89.3693321146059
Setting atom values ...
  1 settings made for x
  1 settings made for y
  1 settings made for z
Setting up cg style minimization ...
  Unit style    : metal
  Current step  : 2420
Per MPI rank memory allocation (min/avg/max) = 5.441 | 5.816 | 6.074 Mbytes
Step PotEng KinEng TotEng v_fx v_fy v_fz 
    2420   -1152449.2            0   -1152449.2  0.039703154 0.0082948205  0.051745951 
    2617   -1152449.2            0   -1152449.2 -2.846414e-05 -7.8010906e-06 1.6149202e-05 
Loop time of 2.32602 on 104 procs for 197 steps with 288751 atoms

99.9% CPU use with 104 MPI tasks x 1 OpenMP threads

Minimization stats:
  Stopping criterion = energy tolerance
  Energy initial, next-to-last, final = 
     -1152449.17310209  -1152449.17617277  -1152449.17617277
  Force two-norm initial, final = 0.26166799 0.00010722062
  Force max component initial, final = 0.23108341 2.8464140e-05
  Final line search alpha, max atom move = 1.0000000 2.8464140e-05
  Iterations, force evaluations = 197 394

MPI task timing breakdown:
Section |  min time  |  avg time  |  max time  |%varavg| %total
---------------------------------------------------------------
Pair    | 0.59765    | 1.6618     | 2.1856     |  35.0 | 71.44
Neigh   | 0          | 0          | 0          |   0.0 |  0.00
Comm    | 0.036598   | 0.37979    | 1.1379     |  50.7 | 16.33
Output  | 0          | 0          | 0          |   0.0 |  0.00
Modify  | 2.3712e-05 | 0.0032471  | 0.0070085  |   2.7 |  0.14
Other   |            | 0.2812     |            |       | 12.09

Nlocal:        2776.45 ave        3961 max           0 min
Histogram: 8 4 4 0 6 10 8 4 26 34
Nghost:        3879.11 ave        5426 max         232 min
Histogram: 8 0 8 0 16 0 8 8 16 40
Neighs:        79213.3 ave      115490 max           0 min
Histogram: 8 4 4 0 10 6 8 8 24 32

Total # of neighbors = 8238182
Ave neighs/atom = 28.530402
Neighbor list builds = 0
Dangerous builds = 0
The dot product: -3.45652464968253e-07
The angle: 90.5886720084874
Setting atom values ...
  1 settings made for x
  1 settings made for y
  1 settings made for z
Setting up cg style minimization ...
  Unit style    : metal
  Current step  : 2617
Per MPI rank memory allocation (min/avg/max) = 5.441 | 5.816 | 6.074 Mbytes
Step PotEng KinEng TotEng v_fx v_fy v_fz 
    2617   -1152449.1            0   -1152449.1  0.038745928 0.0064301666  0.041290856 
    2839   -1152449.1            0   -1152449.1 -8.1949353e-07 -1.7564378e-07 -1.9638054e-07 
Loop time of 2.56792 on 104 procs for 222 steps with 288751 atoms

99.9% CPU use with 104 MPI tasks x 1 OpenMP threads

Minimization stats:
  Stopping criterion = energy tolerance
  Energy initial, next-to-last, final = 
     -1152449.13193338  -1152449.13503397  -1152449.13503397
  Force two-norm initial, final = 0.26627676 3.7174390e-05
  Force max component initial, final = 0.23804466 3.2169565e-06
  Final line search alpha, max atom move = 1.0000000 3.2169565e-06
  Iterations, force evaluations = 222 444

MPI task timing breakdown:
Section |  min time  |  avg time  |  max time  |%varavg| %total
---------------------------------------------------------------
Pair    | 0.67641    | 1.8653     | 2.4238     |  36.8 | 72.64
Neigh   | 0          | 0          | 0          |   0.0 |  0.00
Comm    | 0.038855   | 0.42113    | 1.2745     |  54.7 | 16.40
Output  | 0          | 0          | 0          |   0.0 |  0.00
Modify  | 2.6937e-05 | 0.0036627  | 0.0079384  |   2.9 |  0.14
Other   |            | 0.2778     |            |       | 10.82

Nlocal:        2776.45 ave        3962 max           0 min
Histogram: 8 4 4 0 6 10 8 4 26 34
Nghost:        3879.09 ave        5424 max         232 min
Histogram: 8 0 8 0 16 0 8 8 16 40
Neighs:        79213.3 ave      115524 max           0 min
Histogram: 8 4 4 0 10 6 8 8 24 32

Total # of neighbors = 8238181
Ave neighs/atom = 28.530398
Neighbor list builds = 0
Dangerous builds = 0
The dot product: -2.23789694203823e-08
The angle: 91.4897271680013
Setting atom values ...
  1 settings made for x
  1 settings made for y
  1 settings made for z
Setting up cg style minimization ...
  Unit style    : metal
  Current step  : 2839
Per MPI rank memory allocation (min/avg/max) = 5.441 | 5.816 | 6.074 Mbytes
Step PotEng KinEng TotEng v_fx v_fy v_fz 
    2839   -1152449.1            0   -1152449.1  0.031874669 0.0056026153  0.012127771 
    3000   -1152449.1            0   -1152449.1 -5.585312e-05 -1.7027295e-05 7.4433731e-05 
    3054   -1152449.1            0   -1152449.1 -1.0465269e-05 -2.6111428e-06 6.2589843e-06 
Loop time of 2.50026 on 104 procs for 215 steps with 288751 atoms

99.9% CPU use with 104 MPI tasks x 1 OpenMP threads

Minimization stats:
  Stopping criterion = energy tolerance
  Energy initial, next-to-last, final = 
     -1152449.08746303  -1152449.09058116  -1152449.09058116
  Force two-norm initial, final = 0.26913881 5.4896086e-05
  Force max component initial, final = 0.24488394 1.1763555e-05
  Final line search alpha, max atom move = 1.0000000 1.1763555e-05
  Iterations, force evaluations = 215 430

MPI task timing breakdown:
Section |  min time  |  avg time  |  max time  |%varavg| %total
---------------------------------------------------------------
Pair    | 0.65556    | 1.8054     | 2.3554     |  36.1 | 72.21
Neigh   | 0          | 0          | 0          |   0.0 |  0.00
Comm    | 0.036852   | 0.40866    | 1.2532     |  53.5 | 16.34
Output  | 0.00018433 | 0.00019055 | 0.00034988 |   0.0 |  0.01
Modify  | 2.583e-05  | 0.0035482  | 0.0076338  |   2.8 |  0.14
Other   |            | 0.2824     |            |       | 11.30

Nlocal:        2776.45 ave        3962 max           0 min
Histogram: 8 4 4 0 6 10 8 4 26 34
Nghost:        3879.09 ave        5424 max         232 min
Histogram: 8 0 8 0 16 0 8 8 16 40
Neighs:        79213.3 ave      115524 max           0 min
Histogram: 8 4 4 0 10 6 8 8 24 32

Total # of neighbors = 8238182
Ave neighs/atom = 28.530402
Neighbor list builds = 0
Dangerous builds = 0
The dot product: -1.70835669771241e-07
The angle: 90.7849263523149
Setting atom values ...
  1 settings made for x
  1 settings made for y
  1 settings made for z
Setting up cg style minimization ...
  Unit style    : metal
  Current step  : 3054
Per MPI rank memory allocation (min/avg/max) = 5.441 | 5.816 | 6.074 Mbytes
Step PotEng KinEng TotEng v_fx v_fy v_fz 
    3054     -1152449            0     -1152449  0.025502561 0.0059891491 -0.015885057 
    3213     -1152449            0     -1152449 -1.2122074e-05 -3.9805036e-06 2.1672294e-05 
Loop time of 1.85152 on 104 procs for 159 steps with 288751 atoms

99.9% CPU use with 104 MPI tasks x 1 OpenMP threads

Minimization stats:
  Stopping criterion = energy tolerance
  Energy initial, next-to-last, final = 
     -1152449.03922709  -1152449.04247956  -1152449.04247956
  Force two-norm initial, final = 0.27592216 0.00019322957
  Force max component initial, final = 0.25185193 2.1845308e-05
  Final line search alpha, max atom move = 1.0000000 2.1845308e-05
  Iterations, force evaluations = 159 318

MPI task timing breakdown:
Section |  min time  |  avg time  |  max time  |%varavg| %total
---------------------------------------------------------------
Pair    | 0.47964    | 1.3364     | 1.7507     |  31.3 | 72.18
Neigh   | 0          | 0          | 0          |   0.0 |  0.00
Comm    | 0.029959   | 0.3013     | 0.90883    |  46.1 | 16.27
Output  | 0          | 0          | 0          |   0.0 |  0.00
Modify  | 1.9441e-05 | 0.0026175  | 0.0056261  |   2.4 |  0.14
Other   |            | 0.2112     |            |       | 11.41

Nlocal:        2776.45 ave        3962 max           0 min
Histogram: 8 4 4 0 6 10 8 4 26 34
Nghost:        3879.09 ave        5424 max         232 min
Histogram: 8 0 8 0 16 0 8 8 16 40
Neighs:        79213.2 ave      115522 max           0 min
Histogram: 8 4 4 0 10 6 8 8 24 32

Total # of neighbors = 8238178
Ave neighs/atom = 28.530388
Neighbor list builds = 0
Dangerous builds = 0
The dot product: -3.64647686329363e-07
The angle: 90.8307853015885
Setting atom values ...
  1 settings made for x
  1 settings made for y
  1 settings made for z
Setting up cg style minimization ...
  Unit style    : metal
  Current step  : 3213
Per MPI rank memory allocation (min/avg/max) = 5.441 | 5.816 | 6.074 Mbytes
Step PotEng KinEng TotEng v_fx v_fy v_fz 
    3213     -1152449            0     -1152449  0.023128425 0.0067979887 -0.040118438 
    3346     -1152449            0     -1152449 1.3980006e-05 4.4680058e-06 -2.919631e-05 
Loop time of 1.55272 on 104 procs for 133 steps with 288751 atoms

99.9% CPU use with 104 MPI tasks x 1 OpenMP threads

Minimization stats:
  Stopping criterion = linesearch alpha is zero
  Energy initial, next-to-last, final = 
     -1152448.98757128   -1152448.9910277   -1152448.9910277
  Force two-norm initial, final = 0.28451501 0.00011957511
  Force max component initial, final = 0.25948726 2.9196310e-05
  Final line search alpha, max atom move = 0.5 1.4598155e-05
  Iterations, force evaluations = 133 267

MPI task timing breakdown:
Section |  min time  |  avg time  |  max time  |%varavg| %total
---------------------------------------------------------------
Pair    | 0.40772    | 1.1227     | 1.4591     |  28.5 | 72.30
Neigh   | 0          | 0          | 0          |   0.0 |  0.00
Comm    | 0.02572    | 0.2523     | 0.76387    |  42.3 | 16.25
Output  | 0          | 0          | 0          |   0.0 |  0.00
Modify  | 1.6591e-05 | 0.0022071  | 0.0047929  |   2.2 |  0.14
Other   |            | 0.1755     |            |       | 11.31

Nlocal:        2776.45 ave        3962 max           0 min
Histogram: 8 4 4 0 6 10 8 4 26 34
Nghost:        3879.09 ave        5424 max         232 min
Histogram: 8 0 8 0 16 0 8 8 16 40
Neighs:        79213.2 ave      115523 max           0 min
Histogram: 8 4 4 0 10 6 8 8 24 32

Total # of neighbors = 8238176
Ave neighs/atom = 28.530381
Neighbor list builds = 0
Dangerous builds = 0
The dot product: 7.21997618121306e-07
The angle: 88.7339727621652
Setting atom values ...
  1 settings made for x
  1 settings made for y
  1 settings made for z
Setting up cg style minimization ...
  Unit style    : metal
  Current step  : 3346
Per MPI rank memory allocation (min/avg/max) = 5.441 | 5.816 | 6.074 Mbytes
Step PotEng KinEng TotEng v_fx v_fy v_fz 
    3346   -1152448.9            0   -1152448.9  0.025975658  0.007367456 -0.061950184 
    3636     -1152449            0     -1152449 3.0765748e-06 5.8147968e-07 -2.0568214e-06 
Loop time of 3.36585 on 104 procs for 290 steps with 288751 atoms

99.9% CPU use with 104 MPI tasks x 1 OpenMP threads

Minimization stats:
  Stopping criterion = energy tolerance
  Energy initial, next-to-last, final = 
     -1152448.93306052  -1152448.97221991  -1152448.97221991
  Force two-norm initial, final = 0.29599143 2.2849211e-05
  Force max component initial, final = 0.26785388 4.9296249e-06
  Final line search alpha, max atom move = 1.0000000 4.9296249e-06
  Iterations, force evaluations = 290 579

MPI task timing breakdown:
Section |  min time  |  avg time  |  max time  |%varavg| %total
---------------------------------------------------------------
Pair    | 0.878      | 2.4338     | 3.1748     |  42.1 | 72.31
Neigh   | 1.0399e-05 | 0.0029328  | 0.0042191  |   2.2 |  0.09
Comm    | 0.053673   | 0.54729    | 1.6476     |  62.3 | 16.26
Output  | 0          | 0          | 0          |   0.0 |  0.00
Modify  | 3.4302e-05 | 0.004767   | 0.010279   |   3.3 |  0.14
Other   |            | 0.377      |            |       | 11.20

Nlocal:        2776.45 ave        3962 max           0 min
Histogram: 8 4 4 0 6 10 8 4 26 34
Nghost:        3879.11 ave        5424 max         232 min
Histogram: 8 0 8 0 16 0 8 8 16 40
Neighs:        79213.3 ave      115521 max           0 min
Histogram: 8 4 4 0 10 6 8 8 24 32

Total # of neighbors = 8238187
Ave neighs/atom = 28.530419
Neighbor list builds = 1
Dangerous builds = 0
The dot product: 4.52113071686502e-07
The angle: 83.0683002236039
Setting atom values ...
  1 settings made for x
  1 settings made for y
  1 settings made for z
Setting up cg style minimization ...
  Unit style    : metal
  Current step  : 3636
Per MPI rank memory allocation (min/avg/max) = 5.441 | 5.816 | 6.074 Mbytes
Step PotEng KinEng TotEng v_fx v_fy v_fz 
    3636   -1152448.9            0   -1152448.9   0.07060417 -0.002285434  -0.13993814 
    3838   -1152448.9            0   -1152448.9 1.6273362e-05 7.8784865e-07 -8.8351648e-06 
Loop time of 2.3347 on 104 procs for 202 steps with 288751 atoms

99.9% CPU use with 104 MPI tasks x 1 OpenMP threads

Minimization stats:
  Stopping criterion = energy tolerance
  Energy initial, next-to-last, final = 
     -1152448.93670472  -1152448.94359288  -1152448.94359288
  Force two-norm initial, final = 0.35199987 0.00017115761
  Force max component initial, final = 0.28921697 4.5727731e-05
  Final line search alpha, max atom move = 1.0000000 4.5727731e-05
  Iterations, force evaluations = 202 404

MPI task timing breakdown:
Section |  min time  |  avg time  |  max time  |%varavg| %total
---------------------------------------------------------------
Pair    | 0.61301    | 1.6942     | 2.2019     |  35.1 | 72.57
Neigh   | 0          | 0          | 0          |   0.0 |  0.00
Comm    | 0.038082   | 0.38108    | 1.1517     |  52.0 | 16.32
Output  | 0          | 0          | 0          |   0.0 |  0.00
Modify  | 2.4196e-05 | 0.0033284  | 0.0071108  |   2.7 |  0.14
Other   |            | 0.2561     |            |       | 10.97

Nlocal:        2776.45 ave        3962 max           0 min
Histogram: 8 4 4 0 6 10 8 4 26 34
Nghost:        3879.07 ave        5424 max         232 min
Histogram: 8 0 8 0 16 0 8 8 16 40
Neighs:        79213.3 ave      115518 max           0 min
Histogram: 8 4 4 0 10 6 8 8 24 32

Total # of neighbors = 8238183
Ave neighs/atom = 28.530405
Neighbor list builds = 0
Dangerous builds = 0
The dot product: 9.8993995281437e-07
The angle: 86.938228023079
Setting atom values ...
  1 settings made for x
  1 settings made for y
  1 settings made for z
Setting up cg style minimization ...
  Unit style    : metal
  Current step  : 3838
Per MPI rank memory allocation (min/avg/max) = 5.441 | 5.816 | 6.074 Mbytes
Step PotEng KinEng TotEng v_fx v_fy v_fz 
    3838   -1152448.9            0   -1152448.9  0.029351193 -0.0074079304 -0.080860576 
    4000   -1152448.9            0   -1152448.9 7.7604707e-07 9.3031077e-07 8.2611306e-06 
    4014   -1152448.9            0   -1152448.9 6.4053626e-06 -2.1943719e-06 -2.2981055e-05 
Loop time of 2.0366 on 104 procs for 176 steps with 288751 atoms

99.9% CPU use with 104 MPI tasks x 1 OpenMP threads

Minimization stats:
  Stopping criterion = energy tolerance
  Energy initial, next-to-last, final = 
     -1152448.90806007  -1152448.91362907  -1152448.91362907
  Force two-norm initial, final = 0.33922063 0.00018166269
  Force max component initial, final = 0.29689633 5.5455643e-05
  Final line search alpha, max atom move = 1.0000000 5.5455643e-05
  Iterations, force evaluations = 176 352

MPI task timing breakdown:
Section |  min time  |  avg time  |  max time  |%varavg| %total
---------------------------------------------------------------
Pair    | 0.5349     | 1.482      | 1.9236     |  32.8 | 72.77
Neigh   | 0          | 0          | 0          |   0.0 |  0.00
Comm    | 0.03062    | 0.33338    | 1.0146     |  48.9 | 16.37
Output  | 0.00010208 | 0.00011115 | 0.00026453 |   0.0 |  0.01
Modify  | 2.1125e-05 | 0.0029049  | 0.0062841  |   2.6 |  0.14
Other   |            | 0.2182     |            |       | 10.72

Nlocal:        2776.45 ave        3961 max           0 min
Histogram: 8 4 4 0 6 10 8 4 26 34
Nghost:        3879.07 ave        5424 max         232 min
Histogram: 8 0 8 0 16 0 8 8 16 40
Neighs:        79213.3 ave      115494 max           0 min
Histogram: 8 4 4 0 10 6 8 8 24 32

Total # of neighbors = 8238180
Ave neighs/atom = 28.530395
Neighbor list builds = 0
Dangerous builds = 0
The dot product: 7.22594811705944e-07
The angle: 88.2716261958076
Setting atom values ...
  1 settings made for x
  1 settings made for y
  1 settings made for z
Setting up cg style minimization ...
  Unit style    : metal
  Current step  : 4014
Per MPI rank memory allocation (min/avg/max) = 5.441 | 5.816 | 6.074 Mbytes
Step PotEng KinEng TotEng v_fx v_fy v_fz 
    4014   -1152448.9            0   -1152448.9  0.008018104 -0.0064895239 -0.049503283 
    4194   -1152448.9            0   -1152448.9 6.153255e-06 -6.1344455e-07 -5.985228e-06 
Loop time of 2.09559 on 104 procs for 180 steps with 288751 atoms

99.9% CPU use with 104 MPI tasks x 1 OpenMP threads

Minimization stats:
  Stopping criterion = energy tolerance
  Energy initial, next-to-last, final = 
     -1152448.87788841  -1152448.88211001  -1152448.88211001
  Force two-norm initial, final = 0.33368071 0.00018665259
  Force max component initial, final = 0.3031176 4.2864335e-05
  Final line search alpha, max atom move = 1.0000000 4.2864335e-05
  Iterations, force evaluations = 180 360

[...]

Total # of neighbors = 8238204
Ave neighs/atom = 28.530478
Neighbor list builds = 0
Dangerous builds = 0
The dot product: -3.44506301903471e-06
The angle: 93.6368159455703
Setting atom values ...
  1 settings made for x
  1 settings made for y
  1 settings made for z
Setting up cg style minimization ...
  Unit style    : metal
  Current step  : 1205
Per MPI rank memory allocation (min/avg/max) = 5.441 | 5.816 | 6.074 Mbytes
Step PotEng KinEng TotEng v_fx v_fy v_fz 
    1205   -1152449.4            0   -1152449.4  0.045980988 -0.024054166  -0.12492469 
    1404   -1152449.4            0   -1152449.4 -1.8329711e-05 4.117548e-06 -7.5262808e-06 
Loop time of 2.32864 on 104 procs for 199 steps with 288751 atoms

99.9% CPU use with 104 MPI tasks x 1 OpenMP threads

Minimization stats:
  Stopping criterion = energy tolerance
  Energy initial, next-to-last, final = 
     -1152449.37837877  -1152449.38287881  -1152449.38287881
  Force two-norm initial, final = 0.26309798 0.00011391814
  Force max component initial, final = 0.16589013 2.3703863e-05
  Final line search alpha, max atom move = 1.0000000 2.3703863e-05
  Iterations, force evaluations = 199 398

MPI task timing breakdown:
Section |  min time  |  avg time  |  max time  |%varavg| %total
---------------------------------------------------------------
Pair    | 0.60714    | 1.6805     | 2.2017     |  34.9 | 72.17
Neigh   | 0          | 0          | 0          |   0.0 |  0.00
Comm    | 0.036888   | 0.38204    | 1.1518     |  51.3 | 16.41
Output  | 0          | 0          | 0          |   0.0 |  0.00
Modify  | 2.3929e-05 | 0.0032911  | 0.0070667  |   2.7 |  0.14
Other   |            | 0.2628     |            |       | 11.29

Nlocal:        2776.45 ave        3940 max           0 min
Histogram: 8 4 4 0 4 12 8 2 26 36
Nghost:        3879.11 ave        5424 max         232 min
Histogram: 8 0 8 0 16 0 8 8 16 40
Neighs:        79213.5 ave      114810 max           0 min
Histogram: 8 4 4 0 10 6 8 8 22 34

Total # of neighbors = 8238200
Ave neighs/atom = 28.530464
Neighbor list builds = 0
Dangerous builds = 0
The dot product: 1.125896528035e-07
The angle: 89.6812462089357
Setting atom values ...
  1 settings made for x
  1 settings made for y
  1 settings made for z
Setting up cg style minimization ...
  Unit style    : metal
  Current step  : 1404
Per MPI rank memory allocation (min/avg/max) = 5.441 | 5.816 | 6.074 Mbytes
Step PotEng KinEng TotEng v_fx v_fy v_fz 
    1404   -1152449.4            0   -1152449.4  0.077903331 0.0027655147   -0.1758519 
    1600   -1152449.4            0   -1152449.4 9.8011438e-06 9.7219575e-07 -2.8375546e-05 
Loop time of 2.30229 on 104 procs for 196 steps with 288751 atoms

99.9% CPU use with 104 MPI tasks x 1 OpenMP threads

Minimization stats:
  Stopping criterion = energy tolerance
  Energy initial, next-to-last, final = 
     -1152449.36350977  -1152449.37007539  -1152449.37007539
  Force two-norm initial, final = 0.28888904 0.00015900312
  Force max component initial, final = 0.1758519 3.3991789e-05
  Final line search alpha, max atom move = 1.0000000 3.3991789e-05
  Iterations, force evaluations = 196 392

MPI task timing breakdown:
Section |  min time  |  avg time  |  max time  |%varavg| %total
---------------------------------------------------------------
Pair    | 0.60295    | 1.6619     | 2.1709     |  34.5 | 72.18
Neigh   | 0          | 0          | 0          |   0.0 |  0.00
Comm    | 0.035841   | 0.37699    | 1.141      |  50.9 | 16.37
Output  | 0          | 0          | 0          |   0.0 |  0.00
Modify  | 2.3744e-05 | 0.0032443  | 0.0069388  |   2.7 |  0.14
Other   |            | 0.2602     |            |       | 11.30

Nlocal:        2776.45 ave        3943 max           0 min
Histogram: 8 4 4 0 4 12 8 1 27 36
Nghost:        3879.07 ave        5424 max         232 min
Histogram: 8 0 8 0 16 0 8 8 16 40
Neighs:        79213.5 ave      114895 max           0 min
Histogram: 8 4 4 0 10 6 8 8 22 34

Total # of neighbors = 8238203
Ave neighs/atom = 28.530474
Neighbor list builds = 0
Dangerous builds = 0
The dot product: 5.42644602763486e-06
The angle: 79.5916232222276
Setting atom values ...
  1 settings made for x
  1 settings made for y
  1 settings made for z
Setting up cg style minimization ...
  Unit style    : metal
  Current step  : 1600
Per MPI rank memory allocation (min/avg/max) = 5.441 | 5.816 | 6.074 Mbytes
Step PotEng KinEng TotEng v_fx v_fy v_fz 
    1600   -1152449.4            0   -1152449.4  0.058004229  0.022363117  -0.10628483 
    1772   -1152449.4            0   -1152449.4 -4.2594418e-05 2.2247495e-06 1.0034046e-05 
Loop time of 1.99824 on 104 procs for 172 steps with 288751 atoms

99.9% CPU use with 104 MPI tasks x 1 OpenMP threads

Minimization stats:
  Stopping criterion = energy tolerance
  Energy initial, next-to-last, final = 
     -1152449.35244551   -1152449.3563748   -1152449.3563748
  Force two-norm initial, final = 0.23900993 0.00019315427
  Force max component initial, final = 0.13860382 4.5945851e-05
  Final line search alpha, max atom move = 1.0000000 4.5945851e-05
  Iterations, force evaluations = 172 344

MPI task timing breakdown:
Section |  min time  |  avg time  |  max time  |%varavg| %total
---------------------------------------------------------------
Pair    | 0.5247     | 1.4527     | 1.8887     |  32.5 | 72.70
Neigh   | 0          | 0          | 0          |   0.0 |  0.00
Comm    | 0.033596   | 0.3307     | 1.0089     |  47.9 | 16.55
Output  | 0          | 0          | 0          |   0.0 |  0.00
Modify  | 2.0755e-05 | 0.0028451  | 0.0061348  |   2.5 |  0.14
Other   |            | 0.212      |            |       | 10.61

Nlocal:        2776.45 ave        3945 max           0 min
Histogram: 8 4 4 0 4 12 8 0 28 36
Nghost:        3879.03 ave        5424 max         232 min
Histogram: 8 0 8 0 16 0 8 8 16 40
Neighs:        79213.5 ave      114963 max           0 min
Histogram: 8 4 4 0 10 6 8 8 24 32

Total # of neighbors = 8238200
Ave neighs/atom = 28.530464
Neighbor list builds = 0
Dangerous builds = 0
The dot product: -2.53067491568296e-06
The angle: 93.3110033481947
Setting atom values ...
  1 settings made for x
  1 settings made for y
  1 settings made for z
Setting up cg style minimization ...
  Unit style    : metal
  Current step  : 1772
Per MPI rank memory allocation (min/avg/max) = 5.441 | 5.816 | 6.074 Mbytes
Step PotEng KinEng TotEng v_fx v_fy v_fz 
    1772   -1152449.3            0   -1152449.3   0.03274657  0.018465546 -0.056756637 
    1923   -1152449.3            0   -1152449.3 9.6378113e-06 5.1414497e-06 -1.5909659e-05 
Loop time of 1.79277 on 104 procs for 151 steps with 288751 atoms

99.9% CPU use with 104 MPI tasks x 1 OpenMP threads

Minimization stats:
  Stopping criterion = energy tolerance
  Energy initial, next-to-last, final = 
     -1152449.33867445  -1152449.34262504  -1152449.34262504
  Force two-norm initial, final = 0.21644262 7.0155831e-05
  Force max component initial, final = 0.12623317 1.5909659e-05
  Final line search alpha, max atom move = 1.0000000 1.5909659e-05
  Iterations, force evaluations = 151 302

MPI task timing breakdown:
Section |  min time  |  avg time  |  max time  |%varavg| %total
---------------------------------------------------------------
Pair    | 0.46172    | 1.2806     | 1.6765     |  30.4 | 71.43
Neigh   | 0          | 0          | 0          |   0.0 |  0.00
Comm    | 0.027464   | 0.29354    | 0.88647    |  44.4 | 16.37
Output  | 0          | 0          | 0          |   0.0 |  0.00
Modify  | 1.7715e-05 | 0.0024985  | 0.0053337  |   2.4 |  0.14
Other   |            | 0.2161     |            |       | 12.05

Nlocal:        2776.45 ave        3945 max           0 min
Histogram: 8 4 4 0 4 12 8 0 28 36
Nghost:        3879.03 ave        5424 max         232 min
Histogram: 8 0 8 0 16 0 8 8 16 40
Neighs:        79213.5 ave      114953 max           0 min
Histogram: 8 4 4 0 10 6 8 8 22 34

Total # of neighbors = 8238199
Ave neighs/atom = 28.530461
Neighbor list builds = 0
Dangerous builds = 0
The dot product: 1.4902120228126e-06
The angle: 85.571307146837
Setting atom values ...
  1 settings made for x
  1 settings made for y
  1 settings made for z
Setting up cg style minimization ...
  Unit style    : metal
  Current step  : 1923
Per MPI rank memory allocation (min/avg/max) = 5.441 | 5.816 | 6.074 Mbytes
Step PotEng KinEng TotEng v_fx v_fy v_fz 
    1923   -1152449.3            0   -1152449.3  0.018049266  0.021438293 -0.048822053 
    2000   -1152449.3            0   -1152449.3 0.0013043253 -0.00037044537 0.00065342226 
    2194   -1152449.3            0   -1152449.3 -1.9881481e-06 6.1841914e-07 -1.1130949e-06 
Loop time of 3.13816 on 104 procs for 271 steps with 288751 atoms

99.9% CPU use with 104 MPI tasks x 1 OpenMP threads

Minimization stats:
  Stopping criterion = energy tolerance
  Energy initial, next-to-last, final = 
     -1152449.32958101  -1152449.34765015  -1152449.34765015
  Force two-norm initial, final = 0.23013536 2.2391736e-05
  Force max component initial, final = 0.10996512 4.6068428e-06
  Final line search alpha, max atom move = 1.0000000 4.6068428e-06
  Iterations, force evaluations = 271 542

MPI task timing breakdown:
Section |  min time  |  avg time  |  max time  |%varavg| %total
---------------------------------------------------------------
Pair    | 0.82985    | 2.2843     | 2.9568     |  40.4 | 72.79
Neigh   | 1.0113e-05 | 0.0029638  | 0.0042881  |   2.2 |  0.09
Comm    | 0.050534   | 0.50993    | 1.5464     |  60.3 | 16.25
Output  | 0.00010833 | 0.0001194  | 0.00028093 |   0.0 |  0.00
Modify  | 3.1724e-05 | 0.0044726  | 0.0095933  |   3.2 |  0.14
Other   |            | 0.3364     |            |       | 10.72

Nlocal:        2776.45 ave        3951 max           0 min
Histogram: 8 4 4 0 4 12 8 0 30 34
Nghost:        3879.03 ave        5424 max         232 min
Histogram: 8 0 8 0 16 0 8 8 16 40
Neighs:        79213.4 ave      115124 max           0 min
Histogram: 8 4 4 0 10 6 8 8 24 32

Total # of neighbors = 8238197
Ave neighs/atom = 28.530454
Neighbor list builds = 1
Dangerous builds = 0
The dot product: 1.33659432924846e-07
The angle: 86.7546244191586
Setting atom values ...
  1 settings made for x
  1 settings made for y
  1 settings made for z
Setting up cg style minimization ...
  Unit style    : metal
  Current step  : 2194
Per MPI rank memory allocation (min/avg/max) = 5.441 | 5.816 | 6.074 Mbytes
Step PotEng KinEng TotEng v_fx v_fy v_fz 
    2194   -1152449.3            0   -1152449.3 -8.6612183e-05 -0.027170684  0.045155937 
    2376   -1152449.4            0   -1152449.4 5.5885966e-07 6.2934672e-06 -1.050649e-05 
Loop time of 2.14539 on 104 procs for 182 steps with 288751 atoms

99.9% CPU use with 104 MPI tasks x 1 OpenMP threads

Minimization stats:
  Stopping criterion = energy tolerance
  Energy initial, next-to-last, final = 
     -1152449.34885942  -1152449.35093556  -1152449.35093556
  Force two-norm initial, final = 0.19198346 0.00014071456
  Force max component initial, final = 0.078681118 1.0506490e-05
  Final line search alpha, max atom move = 1.0000000 1.0506490e-05
  Iterations, force evaluations = 182 364

MPI task timing breakdown:
Section |  min time  |  avg time  |  max time  |%varavg| %total
---------------------------------------------------------------
Pair    | 0.56885    | 1.5461     | 2.0237     |  33.2 | 72.07
Neigh   | 0          | 0          | 0          |   0.0 |  0.00
Comm    | 0.034998   | 0.35404    | 1.0694     |  48.7 | 16.50
Output  | 0          | 0          | 0          |   0.0 |  0.00
Modify  | 2.121e-05  | 0.0030046  | 0.0064042  |   2.6 |  0.14
Other   |            | 0.2422     |            |       | 11.29

Nlocal:        2776.45 ave        3960 max           0 min
Histogram: 8 4 4 0 4 12 8 2 28 34
Nghost:        3879.03 ave        5424 max         232 min
Histogram: 8 0 8 0 16 0 8 8 16 40
Neighs:        79213.4 ave      115440 max           0 min
Histogram: 8 4 4 0 10 6 8 8 24 32

Total # of neighbors = 8238191
Ave neighs/atom = 28.530433
Neighbor list builds = 0
Dangerous builds = 0
The dot product: -1.28291311363628e-07
The angle: 90.5995688950595
Setting atom values ...
  1 settings made for x
  1 settings made for y
  1 settings made for z
Setting up cg style minimization ...
  Unit style    : metal
  Current step  : 2376
Per MPI rank memory allocation (min/avg/max) = 5.441 | 5.816 | 6.074 Mbytes
Step PotEng KinEng TotEng v_fx v_fy v_fz 
    2376   -1152449.3            0   -1152449.3  0.001433508 -0.016954624  0.028728454 
    2574   -1152449.4            0   -1152449.4 -8.6489931e-06 5.087677e-06 -7.8965302e-06 
Loop time of 2.32545 on 104 procs for 198 steps with 288751 atoms

99.9% CPU use with 104 MPI tasks x 1 OpenMP threads

Minimization stats:
  Stopping criterion = energy tolerance
  Energy initial, next-to-last, final = 
     -1152449.34937675  -1152449.35139526  -1152449.35139526
  Force two-norm initial, final = 0.18750434 0.00013188386
  Force max component initial, final = 0.079442714 3.3348909e-05
  Final line search alpha, max atom move = 1.0000000 3.3348909e-05
  Iterations, force evaluations = 198 396

MPI task timing breakdown:
Section |  min time  |  avg time  |  max time  |%varavg| %total
---------------------------------------------------------------
Pair    | 0.607      | 1.6725     | 2.1989     |  34.8 | 71.92
Neigh   | 0          | 0          | 0          |   0.0 |  0.00
Comm    | 0.034957   | 0.38269    | 1.1529     |  50.8 | 16.46
Output  | 0          | 0          | 0          |   0.0 |  0.00
Modify  | 2.3562e-05 | 0.0032679  | 0.0069969  |   2.7 |  0.14
Other   |            | 0.267      |            |       | 11.48

Nlocal:        2776.45 ave        3959 max           0 min
Histogram: 8 4 4 0 4 12 8 2 28 34
Nghost:        3879.03 ave        5424 max         232 min
Histogram: 8 0 8 0 16 0 8 8 16 40
Neighs:        79213.4 ave      115408 max           0 min
Histogram: 8 4 4 0 10 6 8 8 24 32

Total # of neighbors = 8238190
Ave neighs/atom = 28.530429
Neighbor list builds = 0
Dangerous builds = 0
The dot product: -2.30277937633435e-08
The angle: 90.1033289030922
Setting atom values ...
  1 settings made for x
  1 settings made for y
  1 settings made for z
Setting up cg style minimization ...
  Unit style    : metal
  Current step  : 2574
Per MPI rank memory allocation (min/avg/max) = 5.441 | 5.816 | 6.074 Mbytes
Step PotEng KinEng TotEng v_fx v_fy v_fz 
    2574   -1152449.3            0   -1152449.3 0.0021940609  -0.01546061   0.02622697 
    2762   -1152449.3            0   -1152449.3 -5.1686928e-06 -3.5481856e-06 6.5116648e-06 
Loop time of 2.22114 on 104 procs for 188 steps with 288751 atoms

99.9% CPU use with 104 MPI tasks x 1 OpenMP threads

Minimization stats:
  Stopping criterion = energy tolerance
  Energy initial, next-to-last, final = 
     -1152449.34685252  -1152449.34883488  -1152449.34883488
  Force two-norm initial, final = 0.1858535 0.00015760604
  Force max component initial, final = 0.079066617 3.0729253e-05
  Final line search alpha, max atom move = 1.0000000 3.0729253e-05
  Iterations, force evaluations = 188 376

MPI task timing breakdown:
Section |  min time  |  avg time  |  max time  |%varavg| %total
---------------------------------------------------------------
Pair    | 0.57108    | 1.5897     | 2.0944     |  34.0 | 71.57
Neigh   | 0          | 0          | 0          |   0.0 |  0.00
Comm    | 0.035372   | 0.35823    | 1.0689     |  49.7 | 16.13
Output  | 0          | 0          | 0          |   0.0 |  0.00
Modify  | 2.2804e-05 | 0.0031026  | 0.0066523  |   2.6 |  0.14
Other   |            | 0.2701     |            |       | 12.16

Nlocal:        2776.45 ave        3960 max           0 min
Histogram: 8 4 4 0 4 12 8 2 28 34
Nghost:        3879.03 ave        5424 max         232 min
Histogram: 8 0 8 0 16 0 8 8 16 40
Neighs:        79213.4 ave      115429 max           0 min
Histogram: 8 4 4 0 10 6 8 8 24 32

Total # of neighbors = 8238191
Ave neighs/atom = 28.530433
Neighbor list builds = 0
Dangerous builds = 0
The dot product: 7.91031109726965e-09
The angle: 89.9498596695147
Setting atom values ...
  1 settings made for x
  1 settings made for y
  1 settings made for z
Setting up cg style minimization ...
  Unit style    : metal
  Current step  : 2762
Per MPI rank memory allocation (min/avg/max) = 5.441 | 5.816 | 6.074 Mbytes
Step PotEng KinEng TotEng v_fx v_fy v_fz 
    2762   -1152449.3            0   -1152449.3 0.0022592989 -0.013155233  0.022375467 
    2992   -1152449.3            0   -1152449.3 8.9757219e-06 2.4013106e-06 -4.8843048e-06 
Loop time of 2.73159 on 104 procs for 230 steps with 288751 atoms

99.9% CPU use with 104 MPI tasks x 1 OpenMP threads

Minimization stats:
  Stopping criterion = energy tolerance
  Energy initial, next-to-last, final = 
       -1152449.341281  -1152449.34321842  -1152449.34321842
  Force two-norm initial, final = 0.1838467 3.3928230e-05
  Force max component initial, final = 0.07871418 8.9757219e-06
  Final line search alpha, max atom move = 1.0000000 8.9757219e-06
  Iterations, force evaluations = 230 460

MPI task timing breakdown:
Section |  min time  |  avg time  |  max time  |%varavg| %total
---------------------------------------------------------------
Pair    | 0.7132     | 1.9473     | 2.566      |  37.5 | 71.29
Neigh   | 0          | 0          | 0          |   0.0 |  0.00
Comm    | 0.044047   | 0.45075    | 1.3457     |  54.2 | 16.50
Output  | 0          | 0          | 0          |   0.0 |  0.00
Modify  | 2.8116e-05 | 0.0037968  | 0.0080855  |   2.9 |  0.14
Other   |            | 0.3297     |            |       | 12.07

Nlocal:        2776.45 ave        3958 max           0 min
Histogram: 8 4 4 0 4 12 8 2 28 34
Nghost:        3879.03 ave        5424 max         232 min
Histogram: 8 0 8 0 16 0 8 8 16 40
Neighs:        79213.4 ave      115371 max           0 min
Histogram: 8 4 4 0 10 6 8 8 24 32

Total # of neighbors = 8238190
Ave neighs/atom = 28.530429
Neighbor list builds = 0
Dangerous builds = 0
The dot product: 3.59716394953265e-10
The angle: 89.9980365536155
Setting up cg style minimization ...
  Unit style    : metal
  Current step  : 2992
Per MPI rank memory allocation (min/avg/max) = 5.441 | 5.816 | 6.074 Mbytes
Step PotEng KinEng TotEng v_fx v_fy v_fz 
    2992   -1152449.3            0   -1152449.3  0.010229594   0.20577114   0.11994096 
    3000   -1152449.4            0   -1152449.4 -0.0044988211 -0.0042164774 0.0057994769 
    3224   -1152449.4            0   -1152449.4 -1.3585349e-05 -5.5229246e-06 1.851713e-05 
Loop time of 2.73841 on 104 procs for 232 steps with 288751 atoms

99.9% CPU use with 104 MPI tasks x 1 OpenMP threads

Minimization stats:
  Stopping criterion = energy tolerance
  Energy initial, next-to-last, final = 
     -1152449.34321842  -1152449.35157347  -1152449.35157347
  Force two-norm initial, final = 0.23839514 7.1154413e-05
  Force max component initial, final = 0.20577114 1.8517130e-05
  Final line search alpha, max atom move = 1.0000000 1.8517130e-05
  Iterations, force evaluations = 232 464

MPI task timing breakdown:
Section |  min time  |  avg time  |  max time  |%varavg| %total
---------------------------------------------------------------
Pair    | 0.71894    | 1.9671     | 2.5752     |  37.6 | 71.83
Neigh   | 0          | 0          | 0          |   0.0 |  0.00
Comm    | 0.04662    | 0.45017    | 1.3591     |  54.9 | 16.44
Output  | 9.0808e-05 | 9.99e-05   | 0.00018152 |   0.0 |  0.00
Modify  | 2.8569e-05 | 0.0024955  | 0.0064148  |   3.1 |  0.09
Other   |            | 0.3185     |            |       | 11.63

Nlocal:        2776.45 ave        3956 max           0 min
Histogram: 8 4 4 0 4 12 8 0 30 34
Nghost:        3879.03 ave        5424 max         232 min
Histogram: 8 0 8 0 16 0 8 8 16 40
Neighs:        79213.4 ave      115309 max           0 min
Histogram: 8 4 4 0 10 6 8 8 24 32

Total # of neighbors = 8238192
Ave neighs/atom = 28.530436
Neighbor list builds = 0
Dangerous builds = 0
