LAMMPS (29 Oct 2020)
OMP_NUM_THREADS environment is not set. Defaulting to 1 thread. (../comm.cpp:94)
  using 1 OpenMP thread(s) per MPI task
OMP_NUM_THREADS environment is not set. Defaulting to 1 thread. (../comm.cpp:94)
  using 1 OpenMP thread(s) per MPI task
Reading data file ...
  orthogonal box = (-122.39241 -121.13707 -37.090501) to (122.39241 121.13707 37.090501)
  13 by 4 by 2 MPI processor grid
  reading atoms ...
  288751 atoms
  read_data CPU = 0.506 seconds
199981 atoms in group inner
88770 atoms in group outer
1 atoms in group carbon
Neighbor list info ...
  update every 1 steps, delay 0 steps, check yes
  max neighbors/atom: 2000, page size: 100000
  master list distance cutoff = 5.6
  ghost atom cutoff = 5.6
  binsize = 2.8, bins = 88 87 27
  1 neighbor lists, perpetual/occasional/extra = 1 0 0
  (1) pair eam/alloy, perpetual
      attributes: half, newton on
      pair build: half/bin/atomonly/newton
      stencil: half/bin/3d/newton
      bin: standard
Setting up cg style minimization ...
  Unit style    : metal
  Current step  : 0
Per MPI rank memory allocation (min/avg/max) = 5.441 | 5.816 | 6.074 Mbytes
Step v_fx v_fy v_fz PotEng KinEng TotEng 
       0   -13.809406   -22.690813   -7.8707033   -1152441.8            0   -1152441.8 
     230 -1.5595869e-06 -3.884992e-06 -5.6770809e-06     -1152449            0     -1152449 
Loop time of 2.82273 on 104 procs for 230 steps with 288751 atoms

99.8% CPU use with 104 MPI tasks x 1 OpenMP threads

Minimization stats:
  Stopping criterion = energy tolerance
  Energy initial, next-to-last, final = 
     -1152441.77096183   -1152448.9721877   -1152448.9721877
  Force two-norm initial, final = 45.384899 0.00013505237
  Force max component initial, final = 29.581283 6.7250552e-06
  Final line search alpha, max atom move = 1.0000000 6.7250552e-06
  Iterations, force evaluations = 230 456

MPI task timing breakdown:
Section |  min time  |  avg time  |  max time  |%varavg| %total
---------------------------------------------------------------
Pair    | 0.74473    | 1.9489     | 2.5425     |  36.7 | 69.04
Neigh   | 9.5894e-05 | 0.027602   | 0.041522   |   7.0 |  0.98
Comm    | 0.062974   | 0.46195    | 1.3178     |  52.0 | 16.37
Output  | 0          | 0          | 0          |   0.0 |  0.00
Modify  | 2.6544e-05 | 0.0025008  | 0.0064286  |   3.1 |  0.09
Other   |            | 0.3818     |            |       | 13.53

Nlocal:        2776.45 ave        3955 max           0 min
Histogram: 8 4 4 0 4 12 8 0 30 34
Nghost:        3879.09 ave        5424 max         232 min
Histogram: 8 0 8 0 16 0 8 8 16 40
Neighs:        79213.6 ave      115207 max           0 min
Histogram: 8 4 4 0 10 6 8 8 24 32

Total # of neighbors = 8238214
Ave neighs/atom = 28.530512
Neighbor list builds = 9
Dangerous builds = 0
Setting atom values ...
  1 settings made for x
  1 settings made for y
  1 settings made for z
Setting up cg style minimization ...
  Unit style    : metal
  Current step  : 230
Per MPI rank memory allocation (min/avg/max) = 5.441 | 5.816 | 6.074 Mbytes
Step PotEng KinEng TotEng v_fx v_fy v_fz 
     230     -1152449            0     -1152449 -0.0044202779  0.012433495  0.028675949 
     355     -1152449            0     -1152449 1.1801822e-05 7.9632766e-06 5.4850533e-05 
Loop time of 1.51886 on 104 procs for 125 steps with 288751 atoms

99.8% CPU use with 104 MPI tasks x 1 OpenMP threads

Minimization stats:
  Stopping criterion = energy tolerance
  Energy initial, next-to-last, final = 
     -1152448.97139455  -1152448.97198512  -1152448.97198512
  Force two-norm initial, final = 0.10905399 0.00017913721
  Force max component initial, final = 0.041022386 5.4850533e-05
  Final line search alpha, max atom move = 1.0000000 5.4850533e-05
  Iterations, force evaluations = 125 250

MPI task timing breakdown:
Section |  min time  |  avg time  |  max time  |%varavg| %total
---------------------------------------------------------------
Pair    | 0.38192    | 1.0619     | 1.3782     |  27.8 | 69.91
Neigh   | 0          | 0          | 0          |   0.0 |  0.00
Comm    | 0.026485   | 0.24271    | 0.72776    |  40.4 | 15.98
Output  | 0          | 0          | 0          |   0.0 |  0.00
Modify  | 1.5562e-05 | 0.0020782  | 0.0044223  |   2.1 |  0.14
Other   |            | 0.2122     |            |       | 13.97

Nlocal:        2776.45 ave        3953 max           0 min
Histogram: 8 4 4 0 4 12 8 0 30 34
Nghost:        3879.22 ave        5423 max         232 min
Histogram: 8 0 8 0 16 0 8 8 16 40
Neighs:        79213.5 ave      115170 max           0 min
Histogram: 8 4 4 0 10 6 8 8 24 32

Total # of neighbors = 8238206
Ave neighs/atom = 28.530485
Neighbor list builds = 0
Dangerous builds = 0
Setting atom values ...
  1 settings made for x
  1 settings made for y
  1 settings made for z
Setting up cg style minimization ...
  Unit style    : metal
  Current step  : 355
Per MPI rank memory allocation (min/avg/max) = 5.441 | 5.816 | 6.074 Mbytes
Step PotEng KinEng TotEng v_fx v_fy v_fz 
     355     -1152449            0     -1152449 -0.0072818226  0.025754981  0.026324334 
     541     -1152449            0     -1152449 2.0664017e-05 3.1697792e-05 6.4424556e-05 
Loop time of 2.23981 on 104 procs for 186 steps with 288751 atoms

99.8% CPU use with 104 MPI tasks x 1 OpenMP threads

Minimization stats:
  Stopping criterion = energy tolerance
  Energy initial, next-to-last, final = 
     -1152448.96938129  -1152448.97101804  -1152448.97101804
  Force two-norm initial, final = 0.163161 0.00023712762
  Force max component initial, final = 0.081121057 6.6557686e-05
  Final line search alpha, max atom move = 1.0000000 6.6557686e-05
  Iterations, force evaluations = 186 372

MPI task timing breakdown:
Section |  min time  |  avg time  |  max time  |%varavg| %total
---------------------------------------------------------------
Pair    | 0.57012    | 1.5695     | 2.0648     |  33.9 | 70.07
Neigh   | 0          | 0          | 0          |   0.0 |  0.00
Comm    | 0.03919    | 0.3622     | 1.0506     |  48.1 | 16.17
Output  | 0          | 0          | 0          |   0.0 |  0.00
Modify  | 2.2553e-05 | 0.0030968  | 0.0072367  |   2.6 |  0.14
Other   |            | 0.305      |            |       | 13.62

Nlocal:        2776.45 ave        3953 max           0 min
Histogram: 8 4 4 0 4 12 8 0 30 34
Nghost:        3879.22 ave        5423 max         232 min
Histogram: 8 0 8 0 16 0 8 8 16 40
Neighs:        79213.5 ave      115169 max           0 min
Histogram: 8 4 4 0 10 6 8 8 24 32

Total # of neighbors = 8238203
Ave neighs/atom = 28.530474
Neighbor list builds = 0
Dangerous builds = 0
The dot product: 7.04697090166365e-07
Setting atom values ...
  1 settings made for x
  1 settings made for y
  1 settings made for z
Setting up cg style minimization ...
  Unit style    : metal
  Current step  : 541
Per MPI rank memory allocation (min/avg/max) = 5.441 | 5.816 | 6.074 Mbytes
Step PotEng KinEng TotEng v_fx v_fy v_fz 
     541     -1152449            0     -1152449 -0.010835803  0.011807085 0.0026238189 
     755     -1152449            0     -1152449 1.4884967e-05 2.1934138e-05 2.5110669e-05 
Loop time of 2.54023 on 104 procs for 214 steps with 288751 atoms

99.9% CPU use with 104 MPI tasks x 1 OpenMP threads

Minimization stats:
  Stopping criterion = energy tolerance
  Energy initial, next-to-last, final = 
     -1152448.96769532   -1152448.9700709   -1152448.9700709
  Force two-norm initial, final = 0.15647461 9.2913864e-05
  Force max component initial, final = 0.08838457 2.5110669e-05
  Final line search alpha, max atom move = 1.0000000 2.5110669e-05
  Iterations, force evaluations = 214 428

MPI task timing breakdown:
Section |  min time  |  avg time  |  max time  |%varavg| %total
---------------------------------------------------------------
Pair    | 0.65345    | 1.8146     | 2.3581     |  36.5 | 71.43
Neigh   | 0          | 0          | 0          |   0.0 |  0.00
Comm    | 0.04201    | 0.41233    | 1.2276     |  52.9 | 16.23
Output  | 0          | 0          | 0          |   0.0 |  0.00
Modify  | 2.6218e-05 | 0.0035689  | 0.0075534  |   2.8 |  0.14
Other   |            | 0.3097     |            |       | 12.19

Nlocal:        2776.45 ave        3951 max           0 min
Histogram: 8 4 4 0 4 12 8 0 30 34
Nghost:        3879.21 ave        5423 max         232 min
Histogram: 8 0 8 0 16 0 8 8 16 40
Neighs:        79213.5 ave      115123 max           0 min
Histogram: 8 4 4 0 10 6 8 8 24 32

Total # of neighbors = 8238200
Ave neighs/atom = 28.530464
Neighbor list builds = 0
Dangerous builds = 0
The dot product: 5.85066913294888e-07
Setting atom values ...
  1 settings made for x
  1 settings made for y
  1 settings made for z
Setting up cg style minimization ...
  Unit style    : metal
  Current step  : 755
Per MPI rank memory allocation (min/avg/max) = 5.441 | 5.816 | 6.074 Mbytes
Step PotEng KinEng TotEng v_fx v_fy v_fz 
     755     -1152449            0     -1152449 -0.018268491 -0.014926405 -0.010990105 
     935     -1152449            0     -1152449 -2.0821928e-05 -2.9416597e-05 -1.8275197e-05 
Loop time of 2.17434 on 104 procs for 180 steps with 288751 atoms

99.8% CPU use with 104 MPI tasks x 1 OpenMP threads

Minimization stats:
  Stopping criterion = energy tolerance
  Energy initial, next-to-last, final = 
     -1152448.96672731  -1152448.96890222  -1152448.96890222
  Force two-norm initial, final = 0.16872822 0.0002721805
  Force max component initial, final = 0.089072615 5.9505628e-05
  Final line search alpha, max atom move = 1.0000000 5.9505628e-05
  Iterations, force evaluations = 180 360

MPI task timing breakdown:
Section |  min time  |  avg time  |  max time  |%varavg| %total
---------------------------------------------------------------
Pair    | 0.55332    | 1.5192     | 2.0004     |  33.2 | 69.87
Neigh   | 0          | 0          | 0          |   0.0 |  0.00
Comm    | 0.039203   | 0.35194    | 1.0184     |  47.1 | 16.19
Output  | 0          | 0          | 0          |   0.0 |  0.00
Modify  | 2.2038e-05 | 0.0029959  | 0.0064665  |   2.6 |  0.14
Other   |            | 0.3002     |            |       | 13.81

Nlocal:        2776.45 ave        3950 max           0 min
Histogram: 8 4 4 0 4 12 8 0 28 36
Nghost:        3879.16 ave        5422 max         232 min
Histogram: 8 0 8 0 16 0 8 8 16 40
Neighs:        79213.5 ave      115078 max           0 min
Histogram: 8 4 4 0 10 6 8 8 24 32

Total # of neighbors = 8238209
Ave neighs/atom = 28.530495
Neighbor list builds = 0
Dangerous builds = 0
The dot product: -3.79337713307548e-07
Setting atom values ...
  1 settings made for x
  1 settings made for y
  1 settings made for z
Setting up cg style minimization ...
  Unit style    : metal
  Current step  : 935
Per MPI rank memory allocation (min/avg/max) = 5.441 | 5.816 | 6.074 Mbytes
Step PotEng KinEng TotEng v_fx v_fy v_fz 
     935     -1152449            0     -1152449 -0.022717634 -0.027846066 -0.012679429 
    1000     -1152449            0     -1152449 0.0053416767 -0.0020972926 -0.00012619828 
    1294   -1152449.2            0   -1152449.2 7.8310156e-06 8.8308857e-06 4.0946799e-06 
Loop time of 4.22019 on 104 procs for 359 steps with 288751 atoms

99.9% CPU use with 104 MPI tasks x 1 OpenMP threads

Minimization stats:
  Stopping criterion = energy tolerance
  Energy initial, next-to-last, final = 
     -1152448.96482885  -1152449.19762209  -1152449.19762209
  Force two-norm initial, final = 0.17790068 9.5496238e-05
  Force max component initial, final = 0.087178019 2.1467846e-05
  Final line search alpha, max atom move = 1.0000000 2.1467846e-05
  Iterations, force evaluations = 359 718

MPI task timing breakdown:
Section |  min time  |  avg time  |  max time  |%varavg| %total
---------------------------------------------------------------
Pair    | 1.1045     | 3.036      | 3.9325     |  46.8 | 71.94
Neigh   | 4.1964e-05 | 0.011705   | 0.016927   |   4.5 |  0.28
Comm    | 0.071168   | 0.68384    | 2.0468     |  68.5 | 16.20
Output  | 0.00025157 | 0.00025489 | 0.00038334 |   0.0 |  0.01
Modify  | 4.3053e-05 | 0.0059494  | 0.012689   |   3.6 |  0.14
Other   |            | 0.4824     |            |       | 11.43

Nlocal:        2776.45 ave        3946 max           0 min
Histogram: 8 4 4 0 4 12 8 0 28 36
Nghost:        3879.36 ave        5423 max         232 min
Histogram: 8 0 8 0 16 0 8 8 16 40
Neighs:        79214.2 ave      114909 max           0 min
Histogram: 8 4 4 0 10 6 8 8 22 34

Total # of neighbors = 8238281
Ave neighs/atom = 28.530744
Neighbor list builds = 4
Dangerous builds = 0
The dot product: 4.36149840699336e-07
Setting atom values ...
  1 settings made for x
  1 settings made for y
  1 settings made for z
Setting up cg style minimization ...
  Unit style    : metal
  Current step  : 1294
Per MPI rank memory allocation (min/avg/max) = 5.441 | 5.816 | 6.074 Mbytes
Step PotEng KinEng TotEng v_fx v_fy v_fz 
    1294   -1152449.2            0   -1152449.2 -0.046739797 -0.060240145  0.000457465 
    1541   -1152449.2            0   -1152449.2 -1.5747384e-06 -3.5362474e-06 -6.6948822e-08 
Loop time of 2.91524 on 104 procs for 247 steps with 288751 atoms

99.9% CPU use with 104 MPI tasks x 1 OpenMP threads

Minimization stats:
  Stopping criterion = energy tolerance
  Energy initial, next-to-last, final = 
       -1152449.196776   -1152449.1994673   -1152449.1994673
  Force two-norm initial, final = 0.20929641 2.0319407e-05
  Force max component initial, final = 0.081669051 4.0936872e-06
  Final line search alpha, max atom move = 1.0000000 4.0936872e-06
  Iterations, force evaluations = 247 494

MPI task timing breakdown:
Section |  min time  |  avg time  |  max time  |%varavg| %total
---------------------------------------------------------------
Pair    | 0.7479     | 2.0754     | 2.7263     |  39.0 | 71.19
Neigh   | 0          | 0          | 0          |   0.0 |  0.00
Comm    | 0.053107   | 0.47318    | 1.3926     |  56.3 | 16.23
Output  | 0          | 0          | 0          |   0.0 |  0.00
Modify  | 3.1127e-05 | 0.0040917  | 0.0087183  |   3.0 |  0.14
Other   |            | 0.3626     |            |       | 12.44

Nlocal:        2776.45 ave        3945 max           0 min
Histogram: 8 4 4 0 4 12 8 0 28 36
Nghost:        3879.14 ave        5422 max         232 min
Histogram: 8 0 8 0 16 0 8 8 16 40
Neighs:        79214.8 ave      114924 max           0 min
Histogram: 8 4 4 0 10 6 8 8 22 34

Total # of neighbors = 8238334
Ave neighs/atom = 28.530928
Neighbor list builds = 0
Dangerous builds = 0
The dot product: 4.53244862477342e-08
Setting atom values ...
  1 settings made for x
  1 settings made for y
  1 settings made for z
Setting up cg style minimization ...
  Unit style    : metal
  Current step  : 1541
Per MPI rank memory allocation (min/avg/max) = 5.441 | 5.816 | 6.074 Mbytes
Step PotEng KinEng TotEng v_fx v_fy v_fz 
    1541   -1152449.2            0   -1152449.2  -0.02329152 -0.030670536 -0.0037495216 
    1870   -1152449.2            0   -1152449.2 2.0640652e-05 2.4466962e-05 2.9856513e-06 
Loop time of 3.87239 on 104 procs for 329 steps with 288751 atoms

99.9% CPU use with 104 MPI tasks x 1 OpenMP threads

Minimization stats:
  Stopping criterion = energy tolerance
  Energy initial, next-to-last, final = 
     -1152449.19782703  -1152449.20018316  -1152449.20018316
  Force two-norm initial, final = 0.19498768 0.00024317304
  Force max component initial, final = 0.085843291 6.8911882e-05
  Final line search alpha, max atom move = 1.0000000 6.8911882e-05
  Iterations, force evaluations = 329 658

MPI task timing breakdown:
Section |  min time  |  avg time  |  max time  |%varavg| %total
---------------------------------------------------------------
Pair    | 0.99566    | 2.7781     | 3.6178     |  45.0 | 71.74
Neigh   | 0          | 0          | 0          |   0.0 |  0.00
Comm    | 0.06153    | 0.63045    | 1.87       |  65.5 | 16.28
Output  | 0          | 0          | 0          |   0.0 |  0.00
Modify  | 3.935e-05  | 0.0054565  | 0.011697   |   3.5 |  0.14
Other   |            | 0.4584     |            |       | 11.84

Nlocal:        2776.45 ave        3944 max           0 min
Histogram: 8 4 4 0 4 12 8 0 28 36
Nghost:        3879.14 ave        5422 max         232 min
Histogram: 8 0 8 0 16 0 8 8 16 40
Neighs:        79214.6 ave      114885 max           0 min
Histogram: 8 4 4 0 10 6 8 8 22 34

Total # of neighbors = 8238323
Ave neighs/atom = 28.530890
Neighbor list builds = 0
Dangerous builds = 0
The dot product: 4.13058434858783e-08
Setting atom values ...
  1 settings made for x
  1 settings made for y
  1 settings made for z
Setting up cg style minimization ...
  Unit style    : metal
  Current step  : 1870
Per MPI rank memory allocation (min/avg/max) = 5.441 | 5.816 | 6.074 Mbytes
Step PotEng KinEng TotEng v_fx v_fy v_fz 
    1870   -1152449.2            0   -1152449.2 -0.022293329 -0.037092106 -0.0039778575 
    2000   -1152449.2            0   -1152449.2 0.0070033589   0.01098983 0.0011835155 
    2295   -1152449.4            0   -1152449.4 -4.7928924e-06 -3.72976e-06 -4.3161858e-07 
Loop time of 5.07402 on 104 procs for 425 steps with 288751 atoms

99.9% CPU use with 104 MPI tasks x 1 OpenMP threads

Minimization stats:
  Stopping criterion = energy tolerance
  Energy initial, next-to-last, final = 
     -1152449.19791673  -1152449.40581979  -1152449.40581979
  Force two-norm initial, final = 0.19757529 6.7689547e-05
  Force max component initial, final = 0.086032473 1.5758041e-05
  Final line search alpha, max atom move = 1.0000000 1.5758041e-05
  Iterations, force evaluations = 425 850

MPI task timing breakdown:
Section |  min time  |  avg time  |  max time  |%varavg| %total
---------------------------------------------------------------
Pair    | 1.3279     | 3.5808     | 4.7069     |  50.5 | 70.57
Neigh   | 9.3855e-05 | 0.026387   | 0.039269   |   6.7 |  0.52
Comm    | 0.086585   | 0.8162     | 2.394      |  73.7 | 16.09
Output  | 0.00024327 | 0.00024975 | 0.00040396 |   0.0 |  0.00
Modify  | 5.4374e-05 | 0.0070249  | 0.014986   |   3.9 |  0.14
Other   |            | 0.6434     |            |       | 12.68

Nlocal:        2776.45 ave        3958 max           0 min
Histogram: 8 4 4 0 4 12 8 2 28 34
Nghost:        3879.17 ave        5424 max         232 min
Histogram: 8 0 8 0 16 0 8 8 16 40
Neighs:        79213.2 ave      115292 max           0 min
Histogram: 8 4 4 0 10 6 8 8 24 32

Total # of neighbors = 8238170
Ave neighs/atom = 28.530360
Neighbor list builds = 9
Dangerous builds = 0
The dot product: 4.37517501684984e-07
Setting atom values ...
  1 settings made for x
  1 settings made for y
  1 settings made for z
Setting up cg style minimization ...
  Unit style    : metal
  Current step  : 2295
Per MPI rank memory allocation (min/avg/max) = 5.441 | 5.816 | 6.074 Mbytes
Step PotEng KinEng TotEng v_fx v_fy v_fz 
    2295   -1152449.4            0   -1152449.4  0.097629495   0.16747322   0.11360097 
    2518   -1152449.4            0   -1152449.4 2.870278e-06 3.4193532e-06 2.5545324e-06 
Loop time of 2.63291 on 104 procs for 223 steps with 288751 atoms

99.9% CPU use with 104 MPI tasks x 1 OpenMP threads

Minimization stats:
  Stopping criterion = energy tolerance
  Energy initial, next-to-last, final = 
     -1152449.41355463  -1152449.42202083  -1152449.42202083
  Force two-norm initial, final = 0.29696656 7.9147674e-05
  Force max component initial, final = 0.16747322 1.2601900e-05
  Final line search alpha, max atom move = 1.0000000 1.2601900e-05
  Iterations, force evaluations = 223 446

MPI task timing breakdown:
Section |  min time  |  avg time  |  max time  |%varavg| %total
---------------------------------------------------------------
Pair    | 0.68013    | 1.889      | 2.4678     |  37.1 | 71.74
Neigh   | 0          | 0          | 0          |   0.0 |  0.00
Comm    | 0.040819   | 0.42992    | 1.2779     |  54.1 | 16.33
Output  | 0          | 0          | 0          |   0.0 |  0.00
Modify  | 2.749e-05  | 0.0036973  | 0.0078565  |   2.8 |  0.14
Other   |            | 0.3103     |            |       | 11.79

Nlocal:        2776.45 ave        3959 max           0 min
Histogram: 8 4 4 0 4 12 8 2 28 34
Nghost:        3879.18 ave        5424 max         232 min
Histogram: 8 0 8 0 16 0 8 8 16 40
Neighs:        79213.4 ave      115329 max           0 min
Histogram: 8 4 4 0 10 6 8 8 24 32

Total # of neighbors = 8238194
Ave neighs/atom = 28.530443
Neighbor list builds = 0
Dangerous builds = 0
The dot product: 2.8825272234082e-07
Setting atom values ...
  1 settings made for x
  1 settings made for y
  1 settings made for z
Setting up cg style minimization ...
  Unit style    : metal
  Current step  : 2518
Per MPI rank memory allocation (min/avg/max) = 5.441 | 5.816 | 6.074 Mbytes
Step PotEng KinEng TotEng v_fx v_fy v_fz 
    2518   -1152449.4            0   -1152449.4 -0.072875123  -0.11781418 -0.035836479 
    2755   -1152449.4            0   -1152449.4 -3.4949782e-06 -6.7341104e-06 -1.9681314e-06 
Loop time of 2.83195 on 104 procs for 237 steps with 288751 atoms

99.9% CPU use with 104 MPI tasks x 1 OpenMP threads

Minimization stats:
  Stopping criterion = energy tolerance
  Energy initial, next-to-last, final = 
      -1152449.4271336  -1152449.43103499  -1152449.43103499
  Force two-norm initial, final = 0.24800957 2.6860133e-05
  Force max component initial, final = 0.11781418 6.7341104e-06
  Final line search alpha, max atom move = 1.0000000 6.7341104e-06
  Iterations, force evaluations = 237 474

MPI task timing breakdown:
Section |  min time  |  avg time  |  max time  |%varavg| %total
---------------------------------------------------------------
Pair    | 0.71986    | 1.9985     | 2.6523     |  38.3 | 70.57
Neigh   | 0          | 0          | 0          |   0.0 |  0.00
Comm    | 0.043967   | 0.45957    | 1.3379     |  54.8 | 16.23
Output  | 0          | 0          | 0          |   0.0 |  0.00
Modify  | 2.9327e-05 | 0.0039311  | 0.0083865  |   2.9 |  0.14
Other   |            | 0.37       |            |       | 13.07

Nlocal:        2776.45 ave        3959 max           0 min
Histogram: 8 4 4 0 4 12 8 2 28 34
Nghost:        3879.09 ave        5423 max         232 min
Histogram: 8 0 8 0 16 0 8 8 16 40
Neighs:        79213.5 ave      115328 max           0 min
Histogram: 8 4 4 0 10 6 8 8 24 32

Total # of neighbors = 8238200
Ave neighs/atom = 28.530464
Neighbor list builds = 0
Dangerous builds = 0
The dot product: 2.37535072467871e-07
Setting atom values ...
  1 settings made for x
  1 settings made for y
  1 settings made for z
Setting up cg style minimization ...
  Unit style    : metal
  Current step  : 2755
Per MPI rank memory allocation (min/avg/max) = 5.441 | 5.816 | 6.074 Mbytes
Step PotEng KinEng TotEng v_fx v_fy v_fz 
    2755   -1152449.4            0   -1152449.4 -0.002086978  0.018359223 0.0062681377 
    2975   -1152449.4            0   -1152449.4 -1.5304921e-06 -1.7012217e-06 -8.9566654e-07 
Loop time of 2.59074 on 104 procs for 220 steps with 288751 atoms

99.9% CPU use with 104 MPI tasks x 1 OpenMP threads

Minimization stats:
  Stopping criterion = energy tolerance
  Energy initial, next-to-last, final = 
     -1152449.43447991  -1152449.43658068  -1152449.43658068
  Force two-norm initial, final = 0.19981612 1.9362814e-05
  Force max component initial, final = 0.10349866 4.7648171e-06
  Final line search alpha, max atom move = 1.0000000 4.7648171e-06
  Iterations, force evaluations = 220 440

MPI task timing breakdown:
Section |  min time  |  avg time  |  max time  |%varavg| %total
---------------------------------------------------------------
Pair    | 0.66654    | 1.8599     | 2.4254     |  36.8 | 71.79
Neigh   | 0          | 0          | 0          |   0.0 |  0.00
Comm    | 0.038594   | 0.42325    | 1.2685     |  53.7 | 16.34
Output  | 0          | 0          | 0          |   0.0 |  0.00
Modify  | 2.6269e-05 | 0.0036499  | 0.0077827  |   2.8 |  0.14
Other   |            | 0.304      |            |       | 11.73

Nlocal:        2776.45 ave        3959 max           0 min
Histogram: 8 4 4 0 4 12 8 2 28 34
Nghost:        3879.09 ave        5423 max         232 min
Histogram: 8 0 8 0 16 0 8 8 16 40
Neighs:        79213.5 ave      115346 max           0 min
Histogram: 8 4 4 0 10 6 8 8 24 32

Total # of neighbors = 8238199
Ave neighs/atom = 28.530461
Neighbor list builds = 0
Dangerous builds = 0
The dot product: -2.02718202430387e-08
Setting atom values ...
  1 settings made for x
  1 settings made for y
  1 settings made for z
Setting up cg style minimization ...
  Unit style    : metal
  Current step  : 2975
Per MPI rank memory allocation (min/avg/max) = 5.441 | 5.816 | 6.074 Mbytes
Step PotEng KinEng TotEng v_fx v_fy v_fz 
    2975   -1152449.4            0   -1152449.4 -0.017661884 -0.030217153 -0.012746038 
    3000   -1152449.4            0   -1152449.4 -0.00030793491 -0.00048602607 -0.00020911522 
    3165   -1152449.4            0   -1152449.4 3.8874669e-07 6.1324756e-06 2.0371769e-06 
Loop time of 2.24505 on 104 procs for 190 steps with 288751 atoms

99.9% CPU use with 104 MPI tasks x 1 OpenMP threads

Minimization stats:
  Stopping criterion = energy tolerance
  Energy initial, next-to-last, final = 
     -1152449.43810559  -1152449.44006758  -1152449.44006758
  Force two-norm initial, final = 0.20336173 0.00011785681
  Force max component initial, final = 0.10140921 2.3762324e-05
  Final line search alpha, max atom move = 1.0000000 2.3762324e-05
  Iterations, force evaluations = 190 380

MPI task timing breakdown:
Section |  min time  |  avg time  |  max time  |%varavg| %total
---------------------------------------------------------------
Pair    | 0.57819    | 1.5983     | 2.1069     |  34.2 | 71.19
Neigh   | 0          | 0          | 0          |   0.0 |  0.00
Comm    | 0.036409   | 0.36405    | 1.0646     |  49.2 | 16.22
Output  | 0.00014345 | 0.00015167 | 0.00023764 |   0.0 |  0.01
Modify  | 2.259e-05  | 0.0031481  | 0.0067216  |   2.6 |  0.14
Other   |            | 0.2794     |            |       | 12.45

Nlocal:        2776.45 ave        3959 max           0 min
Histogram: 8 4 4 0 4 12 8 2 28 34
Nghost:        3879.09 ave        5423 max         232 min
Histogram: 8 0 8 0 16 0 8 8 16 40
Neighs:        79213.4 ave      115346 max           0 min
Histogram: 8 4 4 0 10 6 8 8 24 32

Total # of neighbors = 8238196
Ave neighs/atom = 28.530450
Neighbor list builds = 0
Dangerous builds = 0
The dot product: -1.78993946484886e-08
Setting atom values ...
  1 settings made for x
  1 settings made for y
  1 settings made for z
Setting up cg style minimization ...
  Unit style    : metal
  Current step  : 3165
Per MPI rank memory allocation (min/avg/max) = 5.441 | 5.816 | 6.074 Mbytes
Step PotEng KinEng TotEng v_fx v_fy v_fz 
    3165   -1152449.4            0   -1152449.4 -0.014322529 -0.025792325 -0.011112364 
    3336   -1152449.4            0   -1152449.4 1.4326848e-05 2.3217719e-05 1.0257173e-05 
Loop time of 2.00662 on 104 procs for 171 steps with 288751 atoms

99.9% CPU use with 104 MPI tasks x 1 OpenMP threads

Minimization stats:
  Stopping criterion = energy tolerance
  Energy initial, next-to-last, final = 
     -1152449.43963489  -1152449.44158733  -1152449.44158733
  Force two-norm initial, final = 0.20220585 0.00015333762
  Force max component initial, final = 0.099829993 3.6095190e-05
  Final line search alpha, max atom move = 1.0000000 3.6095190e-05
  Iterations, force evaluations = 171 342

MPI task timing breakdown:
Section |  min time  |  avg time  |  max time  |%varavg| %total
---------------------------------------------------------------
Pair    | 0.51464    | 1.4432     | 1.8865     |  32.6 | 71.92
Neigh   | 0          | 0          | 0          |   0.0 |  0.00
Comm    | 0.032019   | 0.3248     | 0.97051    |  47.5 | 16.19
Output  | 0          | 0          | 0          |   0.0 |  0.00
Modify  | 2.0457e-05 | 0.0028432  | 0.0060747  |   2.5 |  0.14
Other   |            | 0.2358     |            |       | 11.75

Nlocal:        2776.45 ave        3959 max           0 min
Histogram: 8 4 4 0 4 12 8 2 28 34
Nghost:        3879.09 ave        5423 max         232 min
Histogram: 8 0 8 0 16 0 8 8 16 40
Neighs:        79213.5 ave      115348 max           0 min
Histogram: 8 4 4 0 10 6 8 8 24 32

Total # of neighbors = 8238199
Ave neighs/atom = 28.530461
Neighbor list builds = 0
Dangerous builds = 0
The dot product: -3.85233546584579e-08
Setting atom values ...
  1 settings made for x
  1 settings made for y
  1 settings made for z
Setting up cg style minimization ...
  Unit style    : metal
  Current step  : 3336
Per MPI rank memory allocation (min/avg/max) = 5.441 | 5.816 | 6.074 Mbytes
Step PotEng KinEng TotEng v_fx v_fy v_fz 
    3336   -1152449.4            0   -1152449.4 -0.014914923 -0.029780222 -0.012717017 
    3577   -1152449.4            0   -1152449.4 1.5264252e-06 2.9094849e-06 1.2548583e-06 
Loop time of 2.83517 on 104 procs for 241 steps with 288751 atoms

99.9% CPU use with 104 MPI tasks x 1 OpenMP threads

Minimization stats:
  Stopping criterion = energy tolerance
  Energy initial, next-to-last, final = 
     -1152449.43913264  -1152449.44109723  -1152449.44109723
  Force two-norm initial, final = 0.20287743 1.1160046e-05
  Force max component initial, final = 0.097980138 2.9094849e-06
  Final line search alpha, max atom move = 1.0000000 2.9094849e-06
  Iterations, force evaluations = 241 482

MPI task timing breakdown:
Section |  min time  |  avg time  |  max time  |%varavg| %total
---------------------------------------------------------------
Pair    | 0.73272    | 2.0249     | 2.6622     |  38.5 | 71.42
Neigh   | 0          | 0          | 0          |   0.0 |  0.00
Comm    | 0.046232   | 0.45865    | 1.3576     |  55.9 | 16.18
Output  | 0          | 0          | 0          |   0.0 |  0.00
Modify  | 2.8744e-05 | 0.0039847  | 0.0085185  |   3.0 |  0.14
Other   |            | 0.3476     |            |       | 12.26

Nlocal:        2776.45 ave        3958 max           0 min
Histogram: 8 4 4 0 4 12 8 2 28 34
Nghost:        3879.11 ave        5424 max         232 min
Histogram: 8 0 8 0 16 0 8 8 16 40
Neighs:        79213.4 ave      115326 max           0 min
Histogram: 8 4 4 0 10 6 8 8 24 32

Total # of neighbors = 8238198
Ave neighs/atom = 28.530457
Neighbor list builds = 0
Dangerous builds = 0
The dot product: -7.3381843726714e-09
Setting atom values ...
  1 settings made for x
  1 settings made for y
  1 settings made for z
Setting up cg style minimization ...
  Unit style    : metal
  Current step  : 3577
Per MPI rank memory allocation (min/avg/max) = 5.441 | 5.816 | 6.074 Mbytes
Step PotEng KinEng TotEng v_fx v_fy v_fz 
    3577   -1152449.4            0   -1152449.4 -0.017128224 -0.030675319 -0.013685805 
    3729   -1152449.4            0   -1152449.4 -3.9871365e-05 -8.5775059e-05 -3.6804423e-05 
Loop time of 1.7801 on 104 procs for 152 steps with 288751 atoms

99.9% CPU use with 104 MPI tasks x 1 OpenMP threads

Minimization stats:
  Stopping criterion = energy tolerance
  Energy initial, next-to-last, final = 
     -1152449.43663032  -1152449.43858972  -1152449.43858972
  Force two-norm initial, final = 0.2029948 0.00026504405
  Force max component initial, final = 0.096102237 8.5775059e-05
  Final line search alpha, max atom move = 1.0000000 8.5775059e-05
  Iterations, force evaluations = 152 304

MPI task timing breakdown:
Section |  min time  |  avg time  |  max time  |%varavg| %total
---------------------------------------------------------------
Pair    | 0.4603     | 1.2835     | 1.6779     |  30.7 | 72.10
Neigh   | 0          | 0          | 0          |   0.0 |  0.00
Comm    | 0.026116   | 0.28868    | 0.85606    |  44.7 | 16.22
Output  | 0          | 0          | 0          |   0.0 |  0.00
Modify  | 1.8375e-05 | 0.002519   | 0.0053604  |   2.4 |  0.14
Other   |            | 0.2054     |            |       | 11.54

Nlocal:        2776.45 ave        3958 max           0 min
Histogram: 8 4 4 0 4 12 8 4 26 34
Nghost:        3879.11 ave        5424 max         232 min
Histogram: 8 0 8 0 16 0 8 8 16 40
Neighs:        79213.5 ave      115327 max           0 min
Histogram: 8 4 4 0 10 6 8 8 24 32

Total # of neighbors = 8238200
Ave neighs/atom = 28.530464
Neighbor list builds = 0
Dangerous builds = 0
The dot product: 2.65877292200277e-07
Setting atom values ...
  1 settings made for x
  1 settings made for y
  1 settings made for z
Setting up cg style minimization ...
  Unit style    : metal
  Current step  : 3729
Per MPI rank memory allocation (min/avg/max) = 5.441 | 5.816 | 6.074 Mbytes
Step PotEng KinEng TotEng v_fx v_fy v_fz 
    3729   -1152449.4            0   -1152449.4 -0.018211434 -0.030615527 -0.014191358 
    3926   -1152449.4            0   -1152449.4 2.465975e-06 4.7709988e-06 2.1417537e-06 
Loop time of 2.3205 on 104 procs for 197 steps with 288751 atoms

99.9% CPU use with 104 MPI tasks x 1 OpenMP threads

Minimization stats:
  Stopping criterion = energy tolerance
  Energy initial, next-to-last, final = 
     -1152449.43212042  -1152449.43407038  -1152449.43407038
  Force two-norm initial, final = 0.20271252 8.4626499e-05
  Force max component initial, final = 0.098357938 1.2406471e-05
  Final line search alpha, max atom move = 1.0000000 1.2406471e-05
  Iterations, force evaluations = 197 394

MPI task timing breakdown:
Section |  min time  |  avg time  |  max time  |%varavg| %total
---------------------------------------------------------------
Pair    | 0.59696    | 1.6541     | 2.1806     |  34.8 | 71.28
Neigh   | 0          | 0          | 0          |   0.0 |  0.00
Comm    | 0.035938   | 0.37531    | 1.1096     |  50.5 | 16.17
Output  | 0          | 0          | 0          |   0.0 |  0.00
Modify  | 2.3683e-05 | 0.0032625  | 0.0069353  |   2.7 |  0.14
Other   |            | 0.2878     |            |       | 12.40

Nlocal:        2776.45 ave        3957 max           0 min
Histogram: 8 4 4 0 4 12 8 4 26 34
Nghost:        3879.18 ave        5425 max         232 min
Histogram: 8 0 8 0 16 0 8 8 16 40
Neighs:        79213.4 ave      115296 max           0 min
Histogram: 8 4 4 0 10 6 8 8 24 32

Total # of neighbors = 8238198
Ave neighs/atom = 28.530457
Neighbor list builds = 0
Dangerous builds = 0
The dot product: -1.58973402349581e-08
Setting atom values ...
  1 settings made for x
  1 settings made for y
  1 settings made for z
Setting up cg style minimization ...
  Unit style    : metal
  Current step  : 3926
Per MPI rank memory allocation (min/avg/max) = 5.441 | 5.816 | 6.074 Mbytes
Step PotEng KinEng TotEng v_fx v_fy v_fz 
    3926   -1152449.4            0   -1152449.4 -0.019109484 -0.029853572 -0.014416409 
    4000   -1152449.4            0   -1152449.4 -0.00023122152 -0.00048982508 -0.00022067437 
    4111   -1152449.4            0   -1152449.4 4.3179285e-06 3.9611857e-06 2.2563571e-06 
Loop time of 2.17317 on 104 procs for 185 steps with 288751 atoms

99.9% CPU use with 104 MPI tasks x 1 OpenMP threads

Minimization stats:
  Stopping criterion = energy tolerance
  Energy initial, next-to-last, final = 
     -1152449.42560132  -1152449.42754084  -1152449.42754084
  Force two-norm initial, final = 0.20220777 0.00012725113
  Force max component initial, final = 0.10080871 1.0706935e-05
  Final line search alpha, max atom move = 1.0000000 1.0706935e-05
  Iterations, force evaluations = 185 370

MPI task timing breakdown:
Section |  min time  |  avg time  |  max time  |%varavg| %total
---------------------------------------------------------------
Pair    | 0.56565    | 1.5666     | 2.0439     |  33.8 | 72.09
Neigh   | 0          | 0          | 0          |   0.0 |  0.00
Comm    | 0.031915   | 0.35554    | 1.0609     |  49.4 | 16.36
Output  | 0.0001476  | 0.00016298 | 0.00028073 |   0.0 |  0.01
Modify  | 2.2955e-05 | 0.0030648  | 0.0065248  |   2.6 |  0.14
Other   |            | 0.2479     |            |       | 11.41

Nlocal:        2776.45 ave        3957 max           0 min
Histogram: 8 4 4 0 4 12 8 4 26 34
Nghost:        3879.18 ave        5424 max         232 min
Histogram: 8 0 8 0 16 0 8 8 16 40
Neighs:        79213.5 ave      115293 max           0 min
Histogram: 8 4 4 0 10 6 8 8 24 32

Total # of neighbors = 8238200
Ave neighs/atom = 28.530464
Neighbor list builds = 0
Dangerous builds = 0
The dot product: -1.76219704702506e-08
Setting atom values ...
  1 settings made for x
  1 settings made for y
  1 settings made for z
Setting up cg style minimization ...
  Unit style    : metal
  Current step  : 4111
Per MPI rank memory allocation (min/avg/max) = 5.441 | 5.816 | 6.074 Mbytes
Step PotEng KinEng TotEng v_fx v_fy v_fz 
    4111   -1152449.4            0   -1152449.4 -0.020230193 -0.028772291 -0.014560043 
    4298   -1152449.4            0   -1152449.4 1.0249683e-05 2.1141916e-05 9.785627e-06 
Loop time of 2.2364 on 104 procs for 187 steps with 288751 atoms

99.9% CPU use with 104 MPI tasks x 1 OpenMP threads

Minimization stats:
  Stopping criterion = energy tolerance
  Energy initial, next-to-last, final = 
     -1152449.41707985  -1152449.41900857  -1152449.41900857
  Force two-norm initial, final = 0.20169967 0.00012564492
  Force max component initial, final = 0.10320622 2.8115294e-05
  Final line search alpha, max atom move = 1.0000000 2.8115294e-05
  Iterations, force evaluations = 187 374

MPI task timing breakdown:
Section |  min time  |  avg time  |  max time  |%varavg| %total
---------------------------------------------------------------
Pair    | 0.56697    | 1.5739     | 2.0923     |  34.0 | 70.38
Neigh   | 0          | 0          | 0          |   0.0 |  0.00
Comm    | 0.035237   | 0.36266    | 1.0527     |  48.6 | 16.22
Output  | 0          | 0          | 0          |   0.0 |  0.00
Modify  | 2.3401e-05 | 0.0031016  | 0.0066153  |   2.6 |  0.14
Other   |            | 0.2967     |            |       | 13.27

Nlocal:        2776.45 ave        3954 max           0 min
Histogram: 8 4 4 0 4 12 8 0 30 34
Nghost:        3879.16 ave        5424 max         232 min
Histogram: 8 0 8 0 16 0 8 8 16 40
Neighs:        79213.5 ave      115204 max           0 min
Histogram: 8 4 4 0 10 6 8 8 24 32

Total # of neighbors = 8238208
Ave neighs/atom = 28.530492
Neighbor list builds = 0
Dangerous builds = 0
The dot product: -7.25309327630049e-08
Setting atom values ...
  1 settings made for x
  1 settings made for y
  1 settings made for z
Setting up cg style minimization ...
  Unit style    : metal
  Current step  : 4298
Per MPI rank memory allocation (min/avg/max) = 5.441 | 5.816 | 6.074 Mbytes
Step PotEng KinEng TotEng v_fx v_fy v_fz 
    4298   -1152449.4            0   -1152449.4 -0.021530217 -0.027222777 -0.014549943 
    4509   -1152449.4            0   -1152449.4 2.2606978e-06 3.8024526e-06 1.880855e-06 
Loop time of 2.503 on 104 procs for 211 steps with 288751 atoms

99.9% CPU use with 104 MPI tasks x 1 OpenMP threads

Minimization stats:
  Stopping criterion = energy tolerance
  Energy initial, next-to-last, final = 
     -1152449.40656921  -1152449.40848576  -1152449.40848576
  Force two-norm initial, final = 0.20116642 4.1711551e-05
  Force max component initial, final = 0.10558978 6.2541409e-06
  Final line search alpha, max atom move = 1.0000000 6.2541409e-06
  Iterations, force evaluations = 211 422

MPI task timing breakdown:
Section |  min time  |  avg time  |  max time  |%varavg| %total
---------------------------------------------------------------
Pair    | 0.64307    | 1.7869     | 2.3276     |  36.1 | 71.39
Neigh   | 0          | 0          | 0          |   0.0 |  0.00
Comm    | 0.037832   | 0.40611    | 1.2207     |  52.7 | 16.23
Output  | 0          | 0          | 0          |   0.0 |  0.00
Modify  | 2.5341e-05 | 0.0034999  | 0.0074267  |   2.8 |  0.14
Other   |            | 0.3065     |            |       | 12.25

Nlocal:        2776.45 ave        3954 max           0 min
Histogram: 8 4 4 0 4 12 8 0 30 34
Nghost:        3879.16 ave        5424 max         232 min
Histogram: 8 0 8 0 16 0 8 8 16 40
Neighs:        79213.6 ave      115214 max           0 min
Histogram: 8 4 4 0 10 6 8 8 24 32

Total # of neighbors = 8238211
Ave neighs/atom = 28.530502
Neighbor list builds = 0
Dangerous builds = 0
The dot product: -1.38237966649364e-08
Setting atom values ...
  1 settings made for x
  1 settings made for y
  1 settings made for z
Setting up cg style minimization ...
  Unit style    : metal
  Current step  : 4509
Per MPI rank memory allocation (min/avg/max) = 5.441 | 5.816 | 6.074 Mbytes
Step PotEng KinEng TotEng v_fx v_fy v_fz 
    4509   -1152449.4            0   -1152449.4 -0.023058328 -0.025245643 -0.014403854 
    4680   -1152449.4            0   -1152449.4 2.8536801e-05 5.3207631e-05 2.6187539e-05 
Loop time of 2.0485 on 104 procs for 171 steps with 288751 atoms

99.9% CPU use with 104 MPI tasks x 1 OpenMP threads

Minimization stats:
  Stopping criterion = energy tolerance
  Energy initial, next-to-last, final = 
     -1152449.39408523  -1152449.39598923  -1152449.39598923
  Force two-norm initial, final = 0.20066759 0.00019404212
  Force max component initial, final = 0.10790702 5.4543799e-05
  Final line search alpha, max atom move = 1.0000000 5.4543799e-05
  Iterations, force evaluations = 171 342

MPI task timing breakdown:
Section |  min time  |  avg time  |  max time  |%varavg| %total
---------------------------------------------------------------
Pair    | 0.51949    | 1.4484     | 1.9057     |  32.7 | 70.71
Neigh   | 0          | 0          | 0          |   0.0 |  0.00
Comm    | 0.031024   | 0.33238    | 0.96994    |  46.6 | 16.23
Output  | 0          | 0          | 0          |   0.0 |  0.00
Modify  | 2.0371e-05 | 0.0028366  | 0.006028   |   2.5 |  0.14
Other   |            | 0.2649     |            |       | 12.93

Nlocal:        2776.45 ave        3953 max           0 min
Histogram: 8 4 4 0 4 12 8 0 30 34
Nghost:        3879.20 ave        5424 max         232 min
Histogram: 8 0 8 0 16 0 8 8 16 40
Neighs:        79213.6 ave      115188 max           0 min
Histogram: 8 4 4 0 10 6 8 8 24 32

Total # of neighbors = 8238211
Ave neighs/atom = 28.530502
Neighbor list builds = 0
Dangerous builds = 0
The dot product: -1.86886197708112e-07
Setting atom values ...
  1 settings made for x
  1 settings made for y
  1 settings made for z
Setting up cg style minimization ...
  Unit style    : metal
  Current step  : 4680
Per MPI rank memory allocation (min/avg/max) = 5.441 | 5.816 | 6.074 Mbytes
Step PotEng KinEng TotEng v_fx v_fy v_fz 
    4680   -1152449.4            0   -1152449.4 -0.024815876 -0.022744812 -0.014083702 
    4828   -1152449.4            0   -1152449.4 -3.1547698e-05 -5.9076536e-05 -2.9572788e-05 
Loop time of 1.7418 on 104 procs for 148 steps with 288751 atoms

99.9% CPU use with 104 MPI tasks x 1 OpenMP threads

Minimization stats:
  Stopping criterion = energy tolerance
  Energy initial, next-to-last, final = 
     -1152449.37965061   -1152449.3815427   -1152449.3815427
  Force two-norm initial, final = 0.20021395 0.00028987125
  Force max component initial, final = 0.1102196 5.9076536e-05
  Final line search alpha, max atom move = 1.0000000 5.9076536e-05
  Iterations, force evaluations = 148 296

MPI task timing breakdown:
Section |  min time  |  avg time  |  max time  |%varavg| %total
---------------------------------------------------------------
Pair    | 0.44834    | 1.2476     | 1.6274     |  30.1 | 71.63
Neigh   | 0          | 0          | 0          |   0.0 |  0.00
Comm    | 0.026572   | 0.28287    | 0.83689    |  43.7 | 16.24
Output  | 0          | 0          | 0          |   0.0 |  0.00
Modify  | 1.7823e-05 | 0.0024554  | 0.005241   |   2.3 |  0.14
Other   |            | 0.2088     |            |       | 11.99

Nlocal:        2776.45 ave        3953 max           0 min
Histogram: 8 4 4 0 4 12 8 0 30 34
Nghost:        3879.19 ave        5424 max         232 min
Histogram: 8 0 8 0 16 0 8 8 16 40
Neighs:        79213.6 ave      115196 max           0 min
Histogram: 8 4 4 0 10 6 8 8 24 32

Total # of neighbors = 8238211
Ave neighs/atom = 28.530502
Neighbor list builds = 0
Dangerous builds = 0
The dot product: 2.01166617483872e-07
Setting atom values ...
  1 settings made for x
  1 settings made for y
  1 settings made for z
Setting up cg style minimization ...
  Unit style    : metal
  Current step  : 4828
Per MPI rank memory allocation (min/avg/max) = 5.441 | 5.816 | 6.074 Mbytes
Step PotEng KinEng TotEng v_fx v_fy v_fz 
    4828   -1152449.4            0   -1152449.4 -0.026863123 -0.019992578 -0.013705724 
    4993   -1152449.4            0   -1152449.4 3.0426502e-06 6.3905648e-06 3.1711166e-06 
Loop time of 1.93062 on 104 procs for 165 steps with 288751 atoms

99.9% CPU use with 104 MPI tasks x 1 OpenMP threads

Minimization stats:
  Stopping criterion = energy tolerance
  Energy initial, next-to-last, final = 
      -1152449.3632944  -1152449.36517322  -1152449.36517322
  Force two-norm initial, final = 0.19993608 0.00018595853
  Force max component initial, final = 0.11240045 9.5293097e-06
  Final line search alpha, max atom move = 1.0000000 9.5293097e-06
  Iterations, force evaluations = 165 330

MPI task timing breakdown:
Section |  min time  |  avg time  |  max time  |%varavg| %total
---------------------------------------------------------------
Pair    | 0.49877    | 1.3861     | 1.8201     |  31.9 | 71.80
Neigh   | 0          | 0          | 0          |   0.0 |  0.00
Comm    | 0.031019   | 0.31302    | 0.92813    |  46.5 | 16.21
Output  | 0          | 0          | 0          |   0.0 |  0.00
Modify  | 2.0065e-05 | 0.0027446  | 0.0064054  |   2.5 |  0.14
Other   |            | 0.2288     |            |       | 11.85

Nlocal:        2776.45 ave        3952 max           0 min
Histogram: 8 4 4 0 4 12 8 0 30 34
Nghost:        3879.18 ave        5424 max         232 min
Histogram: 8 0 8 0 16 0 8 8 16 40
Neighs:        79213.6 ave      115172 max           0 min
Histogram: 8 4 4 0 10 6 8 8 24 32

Total # of neighbors = 8238210
Ave neighs/atom = 28.530499
Neighbor list builds = 0
Dangerous builds = 0
The dot product: -1.95658694045905e-08
Setting atom values ...
  1 settings made for x
  1 settings made for y
  1 settings made for z
Setting up cg style minimization ...
  Unit style    : metal
  Current step  : 4993
Per MPI rank memory allocation (min/avg/max) = 5.441 | 5.816 | 6.074 Mbytes
Step PotEng KinEng TotEng v_fx v_fy v_fz 
    4993   -1152449.3            0   -1152449.3 -0.028824405 -0.017927729  -0.01356576 
    5000   -1152449.3            0   -1152449.3 0.0016998086 -0.00012344419 0.00033153129 
    5171   -1152449.3            0   -1152449.3 -1.5369025e-06 -1.0334457e-06 -7.540886e-07 
Loop time of 2.09577 on 104 procs for 178 steps with 288751 atoms

99.9% CPU use with 104 MPI tasks x 1 OpenMP threads

Minimization stats:
  Stopping criterion = energy tolerance
  Energy initial, next-to-last, final = 
      -1152449.3450581  -1152449.34691467  -1152449.34691467
  Force two-norm initial, final = 0.19977096 0.00013840367
  Force max component initial, final = 0.11457692 5.2800855e-06
  Final line search alpha, max atom move = 1.0000000 5.2800855e-06
  Iterations, force evaluations = 178 356

MPI task timing breakdown:
Section |  min time  |  avg time  |  max time  |%varavg| %total
---------------------------------------------------------------
Pair    | 0.54015    | 1.5056     | 1.9679     |  33.2 | 71.84
Neigh   | 0          | 0          | 0          |   0.0 |  0.00
Comm    | 0.032802   | 0.33977    | 1.0225     |  48.4 | 16.21
Output  | 0.00023487 | 0.00024462 | 0.0003053  |   0.0 |  0.01
Modify  | 2.147e-05  | 0.0029602  | 0.0062973  |   2.6 |  0.14
Other   |            | 0.2472     |            |       | 11.80

Nlocal:        2776.45 ave        3952 max           0 min
Histogram: 8 4 4 0 4 12 8 0 30 34
Nghost:        3879.18 ave        5424 max         232 min
Histogram: 8 0 8 0 16 0 8 8 16 40
Neighs:        79213.6 ave      115172 max           0 min
Histogram: 8 4 4 0 10 6 8 8 24 32

Total # of neighbors = 8238214
Ave neighs/atom = 28.530512
Neighbor list builds = 0
Dangerous builds = 0
The dot product: 6.08094574264593e-09
Setting atom values ...
  1 settings made for x
  1 settings made for y
  1 settings made for z
Setting up cg style minimization ...
  Unit style    : metal
  Current step  : 5171
Per MPI rank memory allocation (min/avg/max) = 5.441 | 5.816 | 6.074 Mbytes
Step PotEng KinEng TotEng v_fx v_fy v_fz 
    5171   -1152449.3            0   -1152449.3 -0.031995733 -0.015255604 -0.013473332 
    5374   -1152449.3            0   -1152449.3 3.5868408e-06 5.1469378e-06 2.8882494e-06 
Loop time of 2.40045 on 104 procs for 203 steps with 288751 atoms

99.9% CPU use with 104 MPI tasks x 1 OpenMP threads

Minimization stats:
  Stopping criterion = energy tolerance
  Energy initial, next-to-last, final = 
     -1152449.32500177  -1152449.32683532  -1152449.32683532
  Force two-norm initial, final = 0.20002785 6.0761158e-05
  Force max component initial, final = 0.1167524 5.1469378e-06
  Final line search alpha, max atom move = 1.0000000 5.1469378e-06
  Iterations, force evaluations = 203 406

MPI task timing breakdown:
Section |  min time  |  avg time  |  max time  |%varavg| %total
---------------------------------------------------------------
Pair    | 0.61773    | 1.7072     | 2.2447     |  35.3 | 71.12
Neigh   | 0          | 0          | 0          |   0.0 |  0.00
Comm    | 0.038186   | 0.38823    | 1.147      |  51.3 | 16.17
Output  | 0          | 0          | 0          |   0.0 |  0.00
Modify  | 2.3972e-05 | 0.0033569  | 0.0071678  |   2.7 |  0.14
Other   |            | 0.3016     |            |       | 12.57

Nlocal:        2776.45 ave        3951 max           0 min
Histogram: 8 4 4 0 4 12 8 0 30 34
Nghost:        3879.13 ave        5424 max         232 min
Histogram: 8 0 8 0 16 0 8 8 16 40
Neighs:        79213.6 ave      115137 max           0 min
Histogram: 8 4 4 0 10 6 8 8 24 32

Total # of neighbors = 8238215
Ave neighs/atom = 28.530516
Neighbor list builds = 0
Dangerous builds = 0
The dot product: -2.05040393795228e-08
Setting atom values ...
  1 settings made for x
  1 settings made for y
  1 settings made for z
Setting up cg style minimization ...
  Unit style    : metal
  Current step  : 5374
Per MPI rank memory allocation (min/avg/max) = 5.441 | 5.816 | 6.074 Mbytes
Step PotEng KinEng TotEng v_fx v_fy v_fz 
    5374   -1152449.3            0   -1152449.3  -0.03788215 -0.0099961119 -0.013057902 
    5552   -1152449.3            0   -1152449.3 8.4206021e-06 1.037174e-05 6.1934482e-06 
Loop time of 2.09215 on 104 procs for 178 steps with 288751 atoms

99.9% CPU use with 104 MPI tasks x 1 OpenMP threads

Minimization stats:
  Stopping criterion = energy tolerance
  Energy initial, next-to-last, final = 
     -1152449.30322701  -1152449.30652914  -1152449.30652914
  Force two-norm initial, final = 0.20120227 0.00024284387
  Force max component initial, final = 0.11895933 1.3831474e-05
  Final line search alpha, max atom move = 1.0000000 1.3831474e-05
  Iterations, force evaluations = 178 356

MPI task timing breakdown:
Section |  min time  |  avg time  |  max time  |%varavg| %total
---------------------------------------------------------------
Pair    | 0.54168    | 1.5095     | 1.9657     |  33.2 | 72.15
Neigh   | 0          | 0          | 0          |   0.0 |  0.00
Comm    | 0.031156   | 0.33983    | 1.0203     |  48.8 | 16.24
Output  | 0          | 0          | 0          |   0.0 |  0.00
Modify  | 2.1268e-05 | 0.0029471  | 0.0062842  |   2.5 |  0.14
Other   |            | 0.2399     |            |       | 11.47

Nlocal:        2776.45 ave        3951 max           0 min
Histogram: 8 4 4 0 4 12 8 0 30 34
Nghost:        3879.07 ave        5423 max         232 min
Histogram: 8 0 8 0 16 0 8 8 16 40
Neighs:        79213.6 ave      115144 max           0 min
Histogram: 8 4 4 0 10 6 8 8 24 32

Total # of neighbors = 8238218
Ave neighs/atom = 28.530526
Neighbor list builds = 0
Dangerous builds = 0
The dot product: 1.96136575697403e-08
Setting atom values ...
  1 settings made for x
  1 settings made for y
  1 settings made for z
Setting up cg style minimization ...
  Unit style    : metal
  Current step  : 5552
Per MPI rank memory allocation (min/avg/max) = 5.441 | 5.816 | 6.074 Mbytes
Step PotEng KinEng TotEng v_fx v_fy v_fz 
    5552   -1152449.3            0   -1152449.3  -0.16227037   0.12401537 -0.022913052 
    5798   -1152449.3            0   -1152449.3 -7.8837203e-06 -5.4468675e-06 -4.5015346e-06 
Loop time of 2.91913 on 104 procs for 246 steps with 288751 atoms

99.9% CPU use with 104 MPI tasks x 1 OpenMP threads

Minimization stats:
  Stopping criterion = energy tolerance
  Energy initial, next-to-last, final = 
     -1152449.28502485  -1152449.33958412  -1152449.33958412
  Force two-norm initial, final = 0.2815963 0.00012034489
  Force max component initial, final = 0.16227037 7.8837203e-06
  Final line search alpha, max atom move = 1.0000000 7.8837203e-06
  Iterations, force evaluations = 246 494

MPI task timing breakdown:
Section |  min time  |  avg time  |  max time  |%varavg| %total
---------------------------------------------------------------
Pair    | 0.75431    | 2.0759     | 2.7441     |  38.8 | 71.11
Neigh   | 2.0319e-05 | 0.0058865  | 0.0085554  |   3.2 |  0.20
Comm    | 0.04565    | 0.47322    | 1.3948     |  56.1 | 16.21
Output  | 0          | 0          | 0          |   0.0 |  0.00
Modify  | 2.9683e-05 | 0.0040871  | 0.0086952  |   3.0 |  0.14
Other   |            | 0.36       |            |       | 12.33

Nlocal:        2776.45 ave        3951 max           0 min
Histogram: 8 4 4 0 4 12 8 0 30 34
Nghost:        3879.17 ave        5424 max         232 min
Histogram: 8 0 8 0 16 0 8 8 16 40
Neighs:        79213.4 ave      115094 max           0 min
Histogram: 8 4 4 0 10 6 8 8 24 32

Total # of neighbors = 8238197
Ave neighs/atom = 28.530454
Neighbor list builds = 2
Dangerous builds = 0
The dot product: 3.08312584993806e-07
Setting atom values ...
  1 settings made for x
  1 settings made for y
  1 settings made for z
Setting up cg style minimization ...
  Unit style    : metal
  Current step  : 5798
Per MPI rank memory allocation (min/avg/max) = 5.441 | 5.816 | 6.074 Mbytes
Step PotEng KinEng TotEng v_fx v_fy v_fz 
    5798   -1152449.3            0   -1152449.3 -0.074602171  0.088010306  -0.06196441 
    5961   -1152449.3            0   -1152449.3 1.2186009e-05 -3.5420126e-05 1.2161314e-05 
Loop time of 1.92105 on 104 procs for 163 steps with 288751 atoms

99.9% CPU use with 104 MPI tasks x 1 OpenMP threads

Minimization stats:
  Stopping criterion = energy tolerance
  Energy initial, next-to-last, final = 
     -1152449.33459166  -1152449.33659737  -1152449.33659737
  Force two-norm initial, final = 0.19517487 0.00022752026
  Force max component initial, final = 0.088010306 4.0182536e-05
  Final line search alpha, max atom move = 1.0000000 4.0182536e-05
  Iterations, force evaluations = 163 326

MPI task timing breakdown:
Section |  min time  |  avg time  |  max time  |%varavg| %total
---------------------------------------------------------------
Pair    | 0.49805    | 1.3797     | 1.7947     |  31.7 | 71.82
Neigh   | 0          | 0          | 0          |   0.0 |  0.00
Comm    | 0.029648   | 0.31369    | 0.93069    |  46.4 | 16.33
Output  | 0          | 0          | 0          |   0.0 |  0.00
Modify  | 1.9343e-05 | 0.0027013  | 0.0057547  |   2.4 |  0.14
Other   |            | 0.225      |            |       | 11.71

Nlocal:        2776.45 ave        3957 max           0 min
Histogram: 8 4 4 0 4 12 8 4 26 34
Nghost:        3879.16 ave        5424 max         232 min
Histogram: 8 0 8 0 16 0 8 8 16 40
Neighs:        79213.4 ave      115272 max           0 min
Histogram: 8 4 4 0 10 6 8 8 24 32

Total # of neighbors = 8238189
Ave neighs/atom = 28.530426
Neighbor list builds = 0
Dangerous builds = 0
The dot product: -7.27418702413469e-07
Setting atom values ...
  1 settings made for x
  1 settings made for y
  1 settings made for z
Setting up cg style minimization ...
  Unit style    : metal
  Current step  : 5961
Per MPI rank memory allocation (min/avg/max) = 5.441 | 5.816 | 6.074 Mbytes
Step PotEng KinEng TotEng v_fx v_fy v_fz 
    5961   -1152449.3            0   -1152449.3 -0.042365663  0.035268896 -0.036036461 
    6000   -1152449.3            0   -1152449.3 0.00044606837 0.00014015837 0.00031410562 
    6191   -1152449.3            0   -1152449.3 -2.8913838e-06 4.520906e-07 -2.2097665e-06 
Loop time of 2.71219 on 104 procs for 230 steps with 288751 atoms

99.9% CPU use with 104 MPI tasks x 1 OpenMP threads

Minimization stats:
  Stopping criterion = energy tolerance
  Energy initial, next-to-last, final = 
     -1152449.33041912   -1152449.3315919   -1152449.3315919
  Force two-norm initial, final = 0.15578216 1.7372064e-05
  Force max component initial, final = 0.061856065 2.8913838e-06
  Final line search alpha, max atom move = 1.0000000 2.8913838e-06
  Iterations, force evaluations = 230 460

MPI task timing breakdown:
Section |  min time  |  avg time  |  max time  |%varavg| %total
---------------------------------------------------------------
Pair    | 0.69752    | 1.9369     | 2.5589     |  37.8 | 71.42
Neigh   | 0          | 0          | 0          |   0.0 |  0.00
Comm    | 0.043121   | 0.44065    | 1.2966     |  54.8 | 16.25
Output  | 0.00016276 | 0.00016459 | 0.00025178 |   0.0 |  0.01
Modify  | 2.746e-05  | 0.0038066  | 0.0081098  |   2.9 |  0.14
Other   |            | 0.3306     |            |       | 12.19

Nlocal:        2776.45 ave        3957 max           0 min
Histogram: 8 4 4 0 4 12 8 4 26 34
Nghost:        3879.16 ave        5424 max         232 min
Histogram: 8 0 8 0 16 0 8 8 16 40
Neighs:        79213.3 ave      115280 max           0 min
Histogram: 8 4 4 0 10 6 8 8 24 32

Total # of neighbors = 8238187
Ave neighs/atom = 28.530419
Neighbor list builds = 0
Dangerous builds = 0
The dot product: 1.37342595119946e-08
Setting atom values ...
  1 settings made for x
  1 settings made for y
  1 settings made for z
Setting up cg style minimization ...
  Unit style    : metal
  Current step  : 6191
Per MPI rank memory allocation (min/avg/max) = 5.441 | 5.816 | 6.074 Mbytes
Step PotEng KinEng TotEng v_fx v_fy v_fz 
    6191   -1152449.3            0   -1152449.3 -0.039428563  0.031490922 -0.033900794 
    6426   -1152449.3            0   -1152449.3 3.0712763e-06 8.3880085e-07 2.1977162e-06 
Loop time of 2.7564 on 104 procs for 235 steps with 288751 atoms

99.9% CPU use with 104 MPI tasks x 1 OpenMP threads

Minimization stats:
  Stopping criterion = energy tolerance
  Energy initial, next-to-last, final = 
     -1152449.32396984  -1152449.32509634  -1152449.32509634
  Force two-norm initial, final = 0.15218364 1.2642453e-05
  Force max component initial, final = 0.059939532 3.0712763e-06
  Final line search alpha, max atom move = 1.0000000 3.0712763e-06
  Iterations, force evaluations = 235 470

MPI task timing breakdown:
Section |  min time  |  avg time  |  max time  |%varavg| %total
---------------------------------------------------------------
Pair    | 0.71315    | 1.9847     | 2.5908     |  38.0 | 72.00
Neigh   | 0          | 0          | 0          |   0.0 |  0.00
Comm    | 0.041456   | 0.44907    | 1.3549     |  55.6 | 16.29
Output  | 0          | 0          | 0          |   0.0 |  0.00
Modify  | 2.7925e-05 | 0.0038869  | 0.0083379  |   2.9 |  0.14
Other   |            | 0.3187     |            |       | 11.56

Nlocal:        2776.45 ave        3957 max           0 min
Histogram: 8 4 4 0 4 12 8 4 26 34
Nghost:        3879.20 ave        5426 max         232 min
Histogram: 8 0 8 0 16 0 8 8 16 40
Neighs:        79213.3 ave      115292 max           0 min
Histogram: 8 4 4 0 10 6 8 8 24 32

Total # of neighbors = 8238188
Ave neighs/atom = 28.530422
Neighbor list builds = 0
Dangerous builds = 0
The dot product: -8.48602030764735e-09
Setting atom values ...
  1 settings made for x
  1 settings made for y
  1 settings made for z
Setting up cg style minimization ...
  Unit style    : metal
  Current step  : 6426
Per MPI rank memory allocation (min/avg/max) = 5.441 | 5.816 | 6.074 Mbytes
Step PotEng KinEng TotEng v_fx v_fy v_fz 
    6426   -1152449.3            0   -1152449.3  -0.03844282   0.03067366 -0.033455405 
    6606   -1152449.3            0   -1152449.3 -1.8034067e-06 -8.7767612e-06 -1.4312616e-07 
Loop time of 2.1275 on 104 procs for 180 steps with 288751 atoms

99.9% CPU use with 104 MPI tasks x 1 OpenMP threads

Minimization stats:
  Stopping criterion = energy tolerance
  Energy initial, next-to-last, final = 
     -1152449.31599855  -1152449.31710308  -1152449.31710308
  Force two-norm initial, final = 0.15046244 0.00013090231
  Force max component initial, final = 0.057992588 8.7767612e-06
  Final line search alpha, max atom move = 1.0000000 8.7767612e-06
  Iterations, force evaluations = 180 360

MPI task timing breakdown:
Section |  min time  |  avg time  |  max time  |%varavg| %total
---------------------------------------------------------------
Pair    | 0.54682    | 1.5154     | 1.9951     |  33.3 | 71.23
Neigh   | 0          | 0          | 0          |   0.0 |  0.00
Comm    | 0.036709   | 0.34289    | 1.0263     |  48.6 | 16.12
Output  | 0          | 0          | 0          |   0.0 |  0.00
Modify  | 2.2406e-05 | 0.0029897  | 0.0063559  |   2.6 |  0.14
Other   |            | 0.2663     |            |       | 12.52

Nlocal:        2776.45 ave        3957 max           0 min
Histogram: 8 4 4 0 4 12 8 4 26 34
Nghost:        3879.20 ave        5425 max         232 min
Histogram: 8 0 8 0 16 0 8 8 16 40
Neighs:        79213.4 ave      115285 max           0 min
Histogram: 8 4 4 0 10 6 8 8 24 32

Total # of neighbors = 8238189
Ave neighs/atom = 28.530426
Neighbor list builds = 0
Dangerous builds = 0
The dot product: -1.62911936292278e-08
Setting atom values ...
  1 settings made for x
  1 settings made for y
  1 settings made for z
Setting up cg style minimization ...
  Unit style    : metal
  Current step  : 6606
Per MPI rank memory allocation (min/avg/max) = 5.441 | 5.816 | 6.074 Mbytes
Step PotEng KinEng TotEng v_fx v_fy v_fz 
    6606   -1152449.3            0   -1152449.3  -0.03775667  0.029597927 -0.033157456 
    6800   -1152449.3            0   -1152449.3 -2.2003434e-05 -1.2663072e-05 -1.5007582e-05 
Loop time of 2.28428 on 104 procs for 194 steps with 288751 atoms

99.9% CPU use with 104 MPI tasks x 1 OpenMP threads

Minimization stats:
  Stopping criterion = energy tolerance
  Energy initial, next-to-last, final = 
     -1152449.30650336  -1152449.30759234  -1152449.30759234
  Force two-norm initial, final = 0.14907242 9.4311737e-05
  Force max component initial, final = 0.056032558 2.2003434e-05
  Final line search alpha, max atom move = 1.0000000 2.2003434e-05
  Iterations, force evaluations = 194 388

MPI task timing breakdown:
Section |  min time  |  avg time  |  max time  |%varavg| %total
---------------------------------------------------------------
Pair    | 0.58981    | 1.6375     | 2.1411     |  34.5 | 71.68
Neigh   | 0          | 0          | 0          |   0.0 |  0.00
Comm    | 0.03532    | 0.36978    | 1.1036     |  50.5 | 16.19
Output  | 0          | 0          | 0          |   0.0 |  0.00
Modify  | 2.3132e-05 | 0.003216   | 0.0068515  |   2.7 |  0.14
Other   |            | 0.2738     |            |       | 11.99

Nlocal:        2776.45 ave        3957 max           0 min
Histogram: 8 4 4 0 4 12 8 4 26 34
Nghost:        3879.18 ave        5424 max         232 min
Histogram: 8 0 8 0 16 0 8 8 16 40
Neighs:        79213.4 ave      115286 max           0 min
Histogram: 8 4 4 0 10 6 8 8 24 32

Total # of neighbors = 8238189
Ave neighs/atom = 28.530426
Neighbor list builds = 0
Dangerous builds = 0
The dot product: 4.33377669448111e-08
Setting atom values ...
  1 settings made for x
  1 settings made for y
  1 settings made for z
Setting up cg style minimization ...
  Unit style    : metal
  Current step  : 6800
Per MPI rank memory allocation (min/avg/max) = 5.441 | 5.816 | 6.074 Mbytes
Step PotEng KinEng TotEng v_fx v_fy v_fz 
    6800   -1152449.3            0   -1152449.3 -0.037269229  0.028123176 -0.032915097 
    7000   -1152449.3            0   -1152449.3 -1.853031e-06 -2.7930944e-06 -1.0138075e-06 
    7028   -1152449.3            0   -1152449.3 3.7207488e-06 3.8153202e-06 2.3020465e-06 
Loop time of 2.67218 on 104 procs for 228 steps with 288751 atoms

99.9% CPU use with 104 MPI tasks x 1 OpenMP threads

Minimization stats:
  Stopping criterion = energy tolerance
  Energy initial, next-to-last, final = 
     -1152449.29546347  -1152449.29653943  -1152449.29653943
  Force two-norm initial, final = 0.14792079 2.0677663e-05
  Force max component initial, final = 0.055640123 4.9734148e-06
  Final line search alpha, max atom move = 1.0000000 4.9734148e-06
  Iterations, force evaluations = 228 456

MPI task timing breakdown:
Section |  min time  |  avg time  |  max time  |%varavg| %total
---------------------------------------------------------------
Pair    | 0.69099    | 1.9134     | 2.5179     |  37.4 | 71.61
Neigh   | 0          | 0          | 0          |   0.0 |  0.00
Comm    | 0.042675   | 0.43317    | 1.2787     |  54.1 | 16.21
Output  | 0.00023118 | 0.0002343  | 0.00038943 |   0.0 |  0.01
Modify  | 2.7509e-05 | 0.0037699  | 0.0080577  |   2.9 |  0.14
Other   |            | 0.3216     |            |       | 12.03

Nlocal:        2776.45 ave        3957 max           0 min
Histogram: 8 4 4 0 4 12 8 4 26 34
Nghost:        3879.22 ave        5424 max         232 min
Histogram: 8 0 8 0 16 0 8 8 16 40
Neighs:        79213.4 ave      115286 max           0 min
Histogram: 8 4 4 0 10 6 8 8 24 32

Total # of neighbors = 8238189
Ave neighs/atom = 28.530426
Neighbor list builds = 0
Dangerous builds = 0
The dot product: -3.78876913384528e-09
Setting atom values ...
  1 settings made for x
  1 settings made for y
  1 settings made for z
Setting up cg style minimization ...
  Unit style    : metal
  Current step  : 7028
Per MPI rank memory allocation (min/avg/max) = 5.441 | 5.816 | 6.074 Mbytes
Step PotEng KinEng TotEng v_fx v_fy v_fz 
    7028   -1152449.3            0   -1152449.3 -0.036990058  0.026324391  -0.03274961 
    7211   -1152449.3            0   -1152449.3 -9.7315414e-06 2.7472911e-05 -1.1749291e-05 
Loop time of 2.14949 on 104 procs for 183 steps with 288751 atoms

99.9% CPU use with 104 MPI tasks x 1 OpenMP threads

Minimization stats:
  Stopping criterion = energy tolerance
  Energy initial, next-to-last, final = 
     -1152449.28285596  -1152449.28392026  -1152449.28392026
  Force two-norm initial, final = 0.14695122 0.00013865587
  Force max component initial, final = 0.055569639 3.0189007e-05
  Final line search alpha, max atom move = 1.0000000 3.0189007e-05
  Iterations, force evaluations = 183 366

MPI task timing breakdown:
Section |  min time  |  avg time  |  max time  |%varavg| %total
---------------------------------------------------------------
Pair    | 0.55662    | 1.5513     | 2.0245     |  33.7 | 72.17
Neigh   | 0          | 0          | 0          |   0.0 |  0.00
Comm    | 0.033229   | 0.35154    | 1.0618     |  49.2 | 16.35
Output  | 0          | 0          | 0          |   0.0 |  0.00
Modify  | 2.2282e-05 | 0.0030301  | 0.0064564  |   2.6 |  0.14
Other   |            | 0.2436     |            |       | 11.33

Nlocal:        2776.45 ave        3957 max           0 min
Histogram: 8 4 4 0 4 12 8 4 26 34
Nghost:        3879.16 ave        5424 max         232 min
Histogram: 8 0 8 0 16 0 8 8 16 40
Neighs:        79213.3 ave      115286 max           0 min
Histogram: 8 4 4 0 10 6 8 8 24 32

Total # of neighbors = 8238188
Ave neighs/atom = 28.530422
Neighbor list builds = 0
Dangerous builds = 0
The dot product: 8.99350250493965e-08
Setting atom values ...
  1 settings made for x
  1 settings made for y
  1 settings made for z
Setting up cg style minimization ...
  Unit style    : metal
  Current step  : 7211
Per MPI rank memory allocation (min/avg/max) = 5.441 | 5.816 | 6.074 Mbytes
Step PotEng KinEng TotEng v_fx v_fy v_fz 
    7211   -1152449.3            0   -1152449.3 -0.037091042  0.024277683 -0.032811467 
    7390   -1152449.3            0   -1152449.3 3.9947582e-05 3.088072e-05 2.6440552e-05 
Loop time of 2.15256 on 104 procs for 179 steps with 288751 atoms

99.9% CPU use with 104 MPI tasks x 1 OpenMP threads

Minimization stats:
  Stopping criterion = energy tolerance
  Energy initial, next-to-last, final = 
     -1152449.26866156   -1152449.2697156   -1152449.2697156
  Force two-norm initial, final = 0.14626843 0.00016534161
  Force max component initial, final = 0.055535871 4.1816180e-05
  Final line search alpha, max atom move = 1.0000000 4.1816180e-05
  Iterations, force evaluations = 179 358

MPI task timing breakdown:
Section |  min time  |  avg time  |  max time  |%varavg| %total
---------------------------------------------------------------
Pair    | 0.54104    | 1.5063     | 1.998      |  33.3 | 69.98
Neigh   | 0          | 0          | 0          |   0.0 |  0.00
Comm    | 0.032755   | 0.3474     | 1.0167     |  47.6 | 16.14
Output  | 0          | 0          | 0          |   0.0 |  0.00
Modify  | 2.2024e-05 | 0.0029631  | 0.0063276  |   2.6 |  0.14
Other   |            | 0.2959     |            |       | 13.75

Nlocal:        2776.45 ave        3957 max           0 min
Histogram: 8 4 4 0 4 12 8 4 26 34
Nghost:        3879.12 ave        5424 max         232 min
Histogram: 8 0 8 0 16 0 8 8 16 40
Neighs:        79213.4 ave      115285 max           0 min
Histogram: 8 4 4 0 10 6 8 8 24 32

Total # of neighbors = 8238190
Ave neighs/atom = 28.530429
Neighbor list builds = 0
Dangerous builds = 0
The dot product: -7.64600506532739e-08
Setting atom values ...
  1 settings made for x
  1 settings made for y
  1 settings made for z
Setting up cg style minimization ...
  Unit style    : metal
  Current step  : 7390
Per MPI rank memory allocation (min/avg/max) = 5.441 | 5.816 | 6.074 Mbytes
Step PotEng KinEng TotEng v_fx v_fy v_fz 
    7390   -1152449.3            0   -1152449.3 -0.037498008   0.02213216 -0.033074461 
    7626   -1152449.3            0   -1152449.3 -7.9738732e-08 3.5714153e-06 -6.3130302e-07 
Loop time of 2.76521 on 104 procs for 236 steps with 288751 atoms

99.9% CPU use with 104 MPI tasks x 1 OpenMP threads

Minimization stats:
  Stopping criterion = energy tolerance
  Energy initial, next-to-last, final = 
     -1152449.25286933  -1152449.25391142  -1152449.25391142
  Force two-norm initial, final = 0.1457607 1.7442192e-05
  Force max component initial, final = 0.055480171 3.5714153e-06
  Final line search alpha, max atom move = 1.0000000 3.5714153e-06
  Iterations, force evaluations = 236 472

MPI task timing breakdown:
Section |  min time  |  avg time  |  max time  |%varavg| %total
---------------------------------------------------------------
Pair    | 0.71478    | 1.9978     | 2.5977     |  38.3 | 72.25
Neigh   | 0          | 0          | 0          |   0.0 |  0.00
Comm    | 0.043053   | 0.45026    | 1.3451     |  55.8 | 16.28
Output  | 0          | 0          | 0          |   0.0 |  0.00
Modify  | 2.8229e-05 | 0.0039058  | 0.0083553  |   2.9 |  0.14
Other   |            | 0.3132     |            |       | 11.33

Nlocal:        2776.45 ave        3958 max           0 min
Histogram: 8 4 4 0 4 12 8 4 26 34
Nghost:        3879.12 ave        5424 max         232 min
Histogram: 8 0 8 0 16 0 8 8 16 40
Neighs:        79213.4 ave      115337 max           0 min
Histogram: 8 4 4 0 10 6 8 8 24 32

Total # of neighbors = 8238189
Ave neighs/atom = 28.530426
Neighbor list builds = 0
Dangerous builds = 0
The dot product: 6.55909570121789e-09
Setting atom values ...
  1 settings made for x
  1 settings made for y
  1 settings made for z
Setting up cg style minimization ...
  Unit style    : metal
  Current step  : 7626
Per MPI rank memory allocation (min/avg/max) = 5.441 | 5.816 | 6.074 Mbytes
Step PotEng KinEng TotEng v_fx v_fy v_fz 
    7626   -1152449.2            0   -1152449.2 -0.038566952  0.020023583 -0.033852475 
    7811   -1152449.2            0   -1152449.2 -1.984613e-06 -2.138554e-05 1.8896561e-06 
Loop time of 2.17335 on 104 procs for 185 steps with 288751 atoms

99.9% CPU use with 104 MPI tasks x 1 OpenMP threads

Minimization stats:
  Stopping criterion = energy tolerance
  Energy initial, next-to-last, final = 
     -1152449.23546957  -1152449.23649756  -1152449.23649756
  Force two-norm initial, final = 0.14567284 0.00014518679
  Force max component initial, final = 0.055458147 2.1385540e-05
  Final line search alpha, max atom move = 1.0000000 2.1385540e-05
  Iterations, force evaluations = 185 370

MPI task timing breakdown:
Section |  min time  |  avg time  |  max time  |%varavg| %total
---------------------------------------------------------------
Pair    | 0.56421    | 1.5579     | 2.0487     |  33.8 | 71.68
Neigh   | 0          | 0          | 0          |   0.0 |  0.00
Comm    | 0.035922   | 0.35178    | 1.0445     |  49.1 | 16.19
Output  | 0          | 0          | 0          |   0.0 |  0.00
Modify  | 2.2427e-05 | 0.0030625  | 0.006556   |   2.6 |  0.14
Other   |            | 0.2606     |            |       | 11.99

Nlocal:        2776.45 ave        3958 max           0 min
Histogram: 8 4 4 0 4 12 8 4 26 34
Nghost:        3879.14 ave        5424 max         232 min
Histogram: 8 0 8 0 16 0 8 8 16 40
Neighs:        79213.3 ave      115338 max           0 min
Histogram: 8 4 4 0 10 6 8 8 24 32

Total # of neighbors = 8238188
Ave neighs/atom = 28.530422
Neighbor list builds = 0
Dangerous builds = 0
The dot product: -2.85973713090282e-08
Setting atom values ...
  1 settings made for x
  1 settings made for y
  1 settings made for z
Setting up cg style minimization ...
  Unit style    : metal
  Current step  : 7811
Per MPI rank memory allocation (min/avg/max) = 5.441 | 5.816 | 6.074 Mbytes
Step PotEng KinEng TotEng v_fx v_fy v_fz 
    7811   -1152449.2            0   -1152449.2 -0.040515656  0.018106059 -0.035369055 
    7991   -1152449.2            0   -1152449.2 -4.5798853e-05 -3.306248e-05 -3.1166989e-05 
Loop time of 2.11749 on 104 procs for 180 steps with 288751 atoms

99.9% CPU use with 104 MPI tasks x 1 OpenMP threads

Minimization stats:
  Stopping criterion = energy tolerance
  Energy initial, next-to-last, final = 
     -1152449.21646665  -1152449.21747959  -1152449.21747959
  Force two-norm initial, final = 0.14604746 0.0001852059
  Force max component initial, final = 0.05538747 5.3455129e-05
  Final line search alpha, max atom move = 1.0000000 5.3455129e-05
  Iterations, force evaluations = 180 360

MPI task timing breakdown:
Section |  min time  |  avg time  |  max time  |%varavg| %total
---------------------------------------------------------------
Pair    | 0.54409    | 1.5199     | 1.9842     |  33.3 | 71.78
Neigh   | 0          | 0          | 0          |   0.0 |  0.00
Comm    | 0.035837   | 0.34399    | 1.0234     |  48.6 | 16.25
Output  | 0          | 0          | 0          |   0.0 |  0.00
Modify  | 2.1968e-05 | 0.0029809  | 0.0063391  |   2.6 |  0.14
Other   |            | 0.2506     |            |       | 11.84

Nlocal:        2776.45 ave        3958 max           0 min
Histogram: 8 4 4 0 4 12 8 4 26 34
Nghost:        3879.18 ave        5424 max         232 min
Histogram: 8 0 8 0 16 0 8 8 16 40
Neighs:        79213.4 ave      115338 max           0 min
Histogram: 8 4 4 0 10 6 8 8 24 32

Total # of neighbors = 8238189
Ave neighs/atom = 28.530426
Neighbor list builds = 0
Dangerous builds = 0
The dot product: 1.30412939275646e-07
Setting atom values ...
  1 settings made for x
  1 settings made for y
  1 settings made for z
Setting up cg style minimization ...
  Unit style    : metal
  Current step  : 7991
Per MPI rank memory allocation (min/avg/max) = 5.441 | 5.816 | 6.074 Mbytes
Step PotEng KinEng TotEng v_fx v_fy v_fz 
    7991   -1152449.2            0   -1152449.2 -0.043754833  0.016599135 -0.038024338 
    8000   -1152449.2            0   -1152449.2 0.00085460466 0.00018904473 0.00065687548 
    8155   -1152449.2            0   -1152449.2 -6.1632725e-05 -3.0150534e-05 -4.4611595e-05 
Loop time of 1.93767 on 104 procs for 164 steps with 288751 atoms

99.9% CPU use with 104 MPI tasks x 1 OpenMP threads

Minimization stats:
  Stopping criterion = energy tolerance
  Energy initial, next-to-last, final = 
     -1152449.19589145  -1152449.19689126  -1152449.19689126
  Force two-norm initial, final = 0.14727463 0.00027594631
  Force max component initial, final = 0.055329444 6.1632725e-05
  Final line search alpha, max atom move = 1.0000000 6.1632725e-05
  Iterations, force evaluations = 164 328

MPI task timing breakdown:
Section |  min time  |  avg time  |  max time  |%varavg| %total
---------------------------------------------------------------
Pair    | 0.49884    | 1.381      | 1.8234     |  31.8 | 71.27
Neigh   | 0          | 0          | 0          |   0.0 |  0.00
Comm    | 0.030852   | 0.31327    | 0.92673    |  46.2 | 16.17
Output  | 0.00015355 | 0.00016158 | 0.00022057 |   0.0 |  0.01
Modify  | 1.9681e-05 | 0.0027148  | 0.0057717  |   2.4 |  0.14
Other   |            | 0.2406     |            |       | 12.42

Nlocal:        2776.45 ave        3958 max           0 min
Histogram: 8 4 4 0 4 12 8 4 26 34
Nghost:        3879.18 ave        5424 max         232 min
Histogram: 8 0 8 0 16 0 8 8 16 40
Neighs:        79213.4 ave      115351 max           0 min
Histogram: 8 4 4 0 10 6 8 8 24 32

Total # of neighbors = 8238191
Ave neighs/atom = 28.530433
Neighbor list builds = 0
Dangerous builds = 0
The dot product: 2.49162839905745e-07
Setting atom values ...
  1 settings made for x
  1 settings made for y
  1 settings made for z
Setting up cg style minimization ...
  Unit style    : metal
  Current step  : 8155
Per MPI rank memory allocation (min/avg/max) = 5.441 | 5.816 | 6.074 Mbytes
Step PotEng KinEng TotEng v_fx v_fy v_fz 
    8155   -1152449.2            0   -1152449.2 -0.048857842  0.015918068 -0.042422504 
    8337   -1152449.2            0   -1152449.2 -2.96754e-05 -3.6460964e-05 -1.7937719e-05 
Loop time of 2.15702 on 104 procs for 182 steps with 288751 atoms

99.9% CPU use with 104 MPI tasks x 1 OpenMP threads

Minimization stats:
  Stopping criterion = energy tolerance
  Energy initial, next-to-last, final = 
     -1152449.17382367  -1152449.17482708  -1152449.17482708
  Force two-norm initial, final = 0.1499581 0.00015741454
  Force max component initial, final = 0.056323033 4.1921212e-05
  Final line search alpha, max atom move = 1.0000000 4.1921212e-05
  Iterations, force evaluations = 182 364

MPI task timing breakdown:
Section |  min time  |  avg time  |  max time  |%varavg| %total
---------------------------------------------------------------
Pair    | 0.55376    | 1.5403     | 2.0146     |  33.5 | 71.41
Neigh   | 0          | 0          | 0          |   0.0 |  0.00
Comm    | 0.031666   | 0.35158    | 1.0626     |  48.6 | 16.30
Output  | 0          | 0          | 0          |   0.0 |  0.00
Modify  | 2.1823e-05 | 0.0030137  | 0.0064173  |   2.6 |  0.14
Other   |            | 0.2621     |            |       | 12.15

Nlocal:        2776.45 ave        3958 max           0 min
Histogram: 8 4 4 0 4 12 8 4 26 34
Nghost:        3879.16 ave        5424 max         232 min
Histogram: 8 0 8 0 16 0 8 8 16 40
Neighs:        79213.4 ave      115351 max           0 min
Histogram: 8 4 4 0 10 6 8 8 24 32

Total # of neighbors = 8238194
Ave neighs/atom = 28.530443
Neighbor list builds = 0
Dangerous builds = 0
The dot product: 1.25622483224752e-07
Setting atom values ...
  1 settings made for x
  1 settings made for y
  1 settings made for z
Setting up cg style minimization ...
  Unit style    : metal
  Current step  : 8337
Per MPI rank memory allocation (min/avg/max) = 5.441 | 5.816 | 6.074 Mbytes
Step PotEng KinEng TotEng v_fx v_fy v_fz 
    8337   -1152449.2            0   -1152449.2 -0.058030722  0.016302861 -0.050580731 
[...]
Histogram: 8 0 8 0 16 0 8 8 16 40
Neighs:        79213.4 ave      115299 max           0 min
Histogram: 8 4 4 0 10 6 8 8 24 32

Total # of neighbors = 8238196
Ave neighs/atom = 28.530450
Neighbor list builds = 0
Dangerous builds = 0
The dot product: -3.70334486210808e-07
Setting atom values ...
  1 settings made for x
  1 settings made for y
  1 settings made for z
Setting up cg style minimization ...
  Unit style    : metal
  Current step  : 28338
Per MPI rank memory allocation (min/avg/max) = 5.441 | 5.816 | 6.074 Mbytes
Step PotEng KinEng TotEng v_fx v_fy v_fz 
   28338   -1152449.4            0   -1152449.4 -0.028035616  0.014204191 -0.033848461 
   28505   -1152449.4            0   -1152449.4 -1.1529977e-05 -1.8593535e-05 -1.5119147e-05 
Loop time of 1.96719 on 104 procs for 167 steps with 288751 atoms

99.9% CPU use with 104 MPI tasks x 1 OpenMP threads

Minimization stats:
  Stopping criterion = energy tolerance
  Energy initial, next-to-last, final = 
     -1152449.40855036  -1152449.41002475  -1152449.41002475
  Force two-norm initial, final = 0.17735305 0.00023069789
  Force max component initial, final = 0.082292371 5.2843572e-05
  Final line search alpha, max atom move = 1.0000000 5.2843572e-05
  Iterations, force evaluations = 167 334

MPI task timing breakdown:
Section |  min time  |  avg time  |  max time  |%varavg| %total
---------------------------------------------------------------
Pair    | 0.50088    | 1.407      | 1.8335     |  32.1 | 71.52
Neigh   | 0          | 0          | 0          |   0.0 |  0.00
Comm    | 0.028802   | 0.32263    | 0.96247    |  46.5 | 16.40
Output  | 0          | 0          | 0          |   0.0 |  0.00
Modify  | 1.985e-05  | 0.0027708  | 0.0059385  |   2.5 |  0.14
Other   |            | 0.2348     |            |       | 11.94

Nlocal:        2776.45 ave        3957 max           0 min
Histogram: 8 4 4 0 4 12 8 4 24 36
Nghost:        3879.16 ave        5430 max         232 min
Histogram: 8 0 8 0 16 0 8 8 16 40
Neighs:        79213.4 ave      115297 max           0 min
Histogram: 8 4 4 0 10 6 8 8 24 32

Total # of neighbors = 8238194
Ave neighs/atom = 28.530443
Neighbor list builds = 0
Dangerous builds = 0
The dot product: 3.13893680316187e-08
Setting atom values ...
  1 settings made for x
  1 settings made for y
  1 settings made for z
Setting up cg style minimization ...
  Unit style    : metal
  Current step  : 28505
Per MPI rank memory allocation (min/avg/max) = 5.441 | 5.816 | 6.074 Mbytes
Step PotEng KinEng TotEng v_fx v_fy v_fz 
   28505   -1152449.4            0   -1152449.4 -0.025553188  0.016626023 -0.030712659 
   28712   -1152449.4            0   -1152449.4 1.0763698e-05 4.9132576e-06 1.3520463e-05 
Loop time of 2.4323 on 104 procs for 207 steps with 288751 atoms

99.9% CPU use with 104 MPI tasks x 1 OpenMP threads

Minimization stats:
  Stopping criterion = energy tolerance
  Energy initial, next-to-last, final = 
     -1152449.41181849  -1152449.41332122  -1152449.41332122
  Force two-norm initial, final = 0.177601 6.4008395e-05
  Force max component initial, final = 0.081693502 1.3520463e-05
  Final line search alpha, max atom move = 1.0000000 1.3520463e-05
  Iterations, force evaluations = 207 414

MPI task timing breakdown:
Section |  min time  |  avg time  |  max time  |%varavg| %total
---------------------------------------------------------------
Pair    | 0.62362    | 1.7436     | 2.2905     |  35.8 | 71.68
Neigh   | 0          | 0          | 0          |   0.0 |  0.00
Comm    | 0.035698   | 0.4072     | 1.2125     |  51.6 | 16.74
Output  | 0          | 0          | 0          |   0.0 |  0.00
Modify  | 2.4323e-05 | 0.0034183  | 0.0073313  |   2.8 |  0.14
Other   |            | 0.2781     |            |       | 11.43

Nlocal:        2776.45 ave        3957 max           0 min
Histogram: 8 4 4 0 4 12 8 4 24 36
Nghost:        3879.16 ave        5430 max         232 min
Histogram: 8 0 8 0 16 0 8 8 16 40
Neighs:        79213.4 ave      115300 max           0 min
Histogram: 8 4 4 0 10 6 8 8 24 32

Total # of neighbors = 8238197
Ave neighs/atom = 28.530454
Neighbor list builds = 0
Dangerous builds = 0
The dot product: -1.44099000702632e-08
Setting atom values ...
  1 settings made for x
  1 settings made for y
  1 settings made for z
Setting up cg style minimization ...
  Unit style    : metal
  Current step  : 28712
Per MPI rank memory allocation (min/avg/max) = 5.441 | 5.816 | 6.074 Mbytes
Step PotEng KinEng TotEng v_fx v_fy v_fz 
   28712   -1152449.4            0   -1152449.4 -0.029100756  0.010192311 -0.035436517 
   28931   -1152449.4            0   -1152449.4 -1.6224789e-06 3.1390537e-06 -1.8511204e-06 
Loop time of 2.56194 on 104 procs for 219 steps with 288751 atoms

99.9% CPU use with 104 MPI tasks x 1 OpenMP threads

Minimization stats:
  Stopping criterion = energy tolerance
  Energy initial, next-to-last, final = 
     -1152449.41333636  -1152449.41486321  -1152449.41486321
  Force two-norm initial, final = 0.17863625 3.6059478e-05
  Force max component initial, final = 0.081147069 4.8065684e-06
  Final line search alpha, max atom move = 1.0000000 4.8065684e-06
  Iterations, force evaluations = 219 438

MPI task timing breakdown:
Section |  min time  |  avg time  |  max time  |%varavg| %total
---------------------------------------------------------------
Pair    | 0.65911    | 1.8394     | 2.4083     |  36.7 | 71.80
Neigh   | 0          | 0          | 0          |   0.0 |  0.00
Comm    | 0.03998    | 0.41886    | 1.2508     |  53.4 | 16.35
Output  | 0          | 0          | 0          |   0.0 |  0.00
Modify  | 2.5319e-05 | 0.003623   | 0.007757   |   2.8 |  0.14
Other   |            | 0.3001     |            |       | 11.71

Nlocal:        2776.45 ave        3957 max           0 min
Histogram: 8 4 4 0 4 12 8 4 24 36
Nghost:        3879.16 ave        5430 max         232 min
Histogram: 8 0 8 0 16 0 8 8 16 40
Neighs:        79213.4 ave      115296 max           0 min
Histogram: 8 4 4 0 10 6 8 8 24 32

Total # of neighbors = 8238197
Ave neighs/atom = 28.530454
Neighbor list builds = 0
Dangerous builds = 0
The dot product: 4.58503764220022e-09
Setting atom values ...
  1 settings made for x
  1 settings made for y
  1 settings made for z
Setting up cg style minimization ...
  Unit style    : metal
  Current step  : 28931
Per MPI rank memory allocation (min/avg/max) = 5.441 | 5.816 | 6.074 Mbytes
Step PotEng KinEng TotEng v_fx v_fy v_fz 
   28931   -1152449.4            0   -1152449.4 -0.034049655 0.0039032278 -0.041903617 
   29000   -1152449.4            0   -1152449.4 0.00015216191 -0.00018730114 0.00017902216 
   29167   -1152449.4            0   -1152449.4 -3.788453e-06 -3.8449911e-06 -4.8698396e-06 
Loop time of 2.7749 on 104 procs for 236 steps with 288751 atoms

99.9% CPU use with 104 MPI tasks x 1 OpenMP threads

Minimization stats:
  Stopping criterion = energy tolerance
  Energy initial, next-to-last, final = 
     -1152449.41305219  -1152449.41460913  -1152449.41460913
  Force two-norm initial, final = 0.18086888 1.8967319e-05
  Force max component initial, final = 0.080384226 5.4291278e-06
  Final line search alpha, max atom move = 1.0000000 5.4291278e-06
  Iterations, force evaluations = 236 472

MPI task timing breakdown:
Section |  min time  |  avg time  |  max time  |%varavg| %total
---------------------------------------------------------------
Pair    | 0.71036    | 1.9866     | 2.5891     |  38.1 | 71.59
Neigh   | 0          | 0          | 0          |   0.0 |  0.00
Comm    | 0.039279   | 0.46097    | 1.3977     |  55.8 | 16.61
Output  | 0.00016653 | 0.00016956 | 0.00030789 |   0.0 |  0.01
Modify  | 2.7048e-05 | 0.0039064  | 0.008376   |   2.9 |  0.14
Other   |            | 0.3232     |            |       | 11.65

Nlocal:        2776.45 ave        3957 max           0 min
Histogram: 8 4 4 0 4 12 8 4 24 36
Nghost:        3879.20 ave        5430 max         232 min
Histogram: 8 0 8 0 16 0 8 8 16 40
Neighs:        79213.5 ave      115290 max           0 min
Histogram: 8 4 4 0 10 6 8 8 24 32

Total # of neighbors = 8238199
Ave neighs/atom = 28.530461
Neighbor list builds = 0
Dangerous builds = 0
The dot product: 2.51621467957348e-08
Setting atom values ...
  1 settings made for x
  1 settings made for y
  1 settings made for z
Setting up cg style minimization ...
  Unit style    : metal
  Current step  : 29167
Per MPI rank memory allocation (min/avg/max) = 5.441 | 5.816 | 6.074 Mbytes
Step PotEng KinEng TotEng v_fx v_fy v_fz 
   29167   -1152449.4            0   -1152449.4 -0.035384999  0.003523877 -0.043668759 
   29401   -1152449.4            0   -1152449.4 -4.1603663e-06 -3.3490933e-06 -5.319295e-06 
Loop time of 2.74338 on 104 procs for 234 steps with 288751 atoms

99.9% CPU use with 104 MPI tasks x 1 OpenMP threads

Minimization stats:
  Stopping criterion = energy tolerance
  Energy initial, next-to-last, final = 
     -1152449.41111904   -1152449.4126712   -1152449.4126712
  Force two-norm initial, final = 0.18077401 2.0049301e-05
  Force max component initial, final = 0.079468563 5.3192950e-06
  Final line search alpha, max atom move = 1.0000000 5.3192950e-06
  Iterations, force evaluations = 234 468

MPI task timing breakdown:
Section |  min time  |  avg time  |  max time  |%varavg| %total
---------------------------------------------------------------
Pair    | 0.70771    | 1.9689     | 2.5677     |  37.8 | 71.77
Neigh   | 0          | 0          | 0          |   0.0 |  0.00
Comm    | 0.045921   | 0.44745    | 1.3414     |  55.7 | 16.31
Output  | 0          | 0          | 0          |   0.0 |  0.00
Modify  | 2.7318e-05 | 0.0038716  | 0.0082991  |   2.9 |  0.14
Other   |            | 0.3232     |            |       | 11.78

Nlocal:        2776.45 ave        3957 max           0 min
Histogram: 8 4 4 0 4 12 8 4 24 36
Nghost:        3879.20 ave        5430 max         232 min
Histogram: 8 0 8 0 16 0 8 8 16 40
Neighs:        79213.5 ave      115293 max           0 min
Histogram: 8 4 4 0 10 6 8 8 24 32

Total # of neighbors = 8238203
Ave neighs/atom = 28.530474
Neighbor list builds = 0
Dangerous builds = 0
The dot product: 3.08145162237144e-08
Setting atom values ...
  1 settings made for x
  1 settings made for y
  1 settings made for z
Setting up cg style minimization ...
  Unit style    : metal
  Current step  : 29401
Per MPI rank memory allocation (min/avg/max) = 5.441 | 5.816 | 6.074 Mbytes
Step PotEng KinEng TotEng v_fx v_fy v_fz 
   29401   -1152449.4            0   -1152449.4 -0.034558346 0.0061980172 -0.042618989 
   29623   -1152449.4            0   -1152449.4 -3.4021768e-06 -6.3401093e-06 -4.5426443e-06 
Loop time of 2.61497 on 104 procs for 222 steps with 288751 atoms

99.9% CPU use with 104 MPI tasks x 1 OpenMP threads

Minimization stats:
  Stopping criterion = energy tolerance
  Energy initial, next-to-last, final = 
     -1152449.40754001  -1152449.40905637  -1152449.40905637
  Force two-norm initial, final = 0.17871237 3.1898694e-05
  Force max component initial, final = 0.078490769 6.7782649e-06
  Final line search alpha, max atom move = 1.0000000 6.7782649e-06
  Iterations, force evaluations = 222 444

MPI task timing breakdown:
Section |  min time  |  avg time  |  max time  |%varavg| %total
---------------------------------------------------------------
Pair    | 0.67354    | 1.8701     | 2.4535     |  36.9 | 71.52
Neigh   | 0          | 0          | 0          |   0.0 |  0.00
Comm    | 0.038505   | 0.43522    | 1.2942     |  53.6 | 16.64
Output  | 0          | 0          | 0          |   0.0 |  0.00
Modify  | 2.553e-05  | 0.0036683  | 0.0078514  |   2.9 |  0.14
Other   |            | 0.306      |            |       | 11.70

Nlocal:        2776.45 ave        3957 max           0 min
Histogram: 8 4 4 0 4 12 8 4 24 36
Nghost:        3879.20 ave        5430 max         232 min
Histogram: 8 0 8 0 16 0 8 8 16 40
Neighs:        79213.5 ave      115293 max           0 min
Histogram: 8 4 4 0 10 6 8 8 24 32

Total # of neighbors = 8238200
Ave neighs/atom = 28.530464
Neighbor list builds = 0
Dangerous builds = 0
The dot product: 2.75555285464176e-08
Setting atom values ...
  1 settings made for x
  1 settings made for y
  1 settings made for z
Setting up cg style minimization ...
  Unit style    : metal
  Current step  : 29623
Per MPI rank memory allocation (min/avg/max) = 5.441 | 5.816 | 6.074 Mbytes
Step PotEng KinEng TotEng v_fx v_fy v_fz 
   29623   -1152449.4            0   -1152449.4 -0.033552966 0.0098141594 -0.041285332 
   29834   -1152449.4            0   -1152449.4 3.1684584e-06 2.6746837e-06 4.0805726e-06 
Loop time of 2.47172 on 104 procs for 211 steps with 288751 atoms

99.9% CPU use with 104 MPI tasks x 1 OpenMP threads

Minimization stats:
  Stopping criterion = energy tolerance
  Energy initial, next-to-last, final = 
     -1152449.40229289  -1152449.40376298  -1152449.40376298
  Force two-norm initial, final = 0.17624962 5.3024019e-05
  Force max component initial, final = 0.07749385 4.0805726e-06
  Final line search alpha, max atom move = 1.0000000 4.0805726e-06
  Iterations, force evaluations = 211 422

MPI task timing breakdown:
Section |  min time  |  avg time  |  max time  |%varavg| %total
---------------------------------------------------------------
Pair    | 0.63416    | 1.7742     | 2.3129     |  36.1 | 71.78
Neigh   | 0          | 0          | 0          |   0.0 |  0.00
Comm    | 0.036596   | 0.40559    | 1.2146     |  52.5 | 16.41
Output  | 0          | 0          | 0          |   0.0 |  0.00
Modify  | 2.5171e-05 | 0.0034948  | 0.0074753  |   2.8 |  0.14
Other   |            | 0.2885     |            |       | 11.67

Nlocal:        2776.45 ave        3957 max           0 min
Histogram: 8 4 4 0 4 12 8 4 24 36
Nghost:        3879.20 ave        5430 max         232 min
Histogram: 8 0 8 0 16 0 8 8 16 40
Neighs:        79213.5 ave      115297 max           0 min
Histogram: 8 4 4 0 10 6 8 8 24 32

Total # of neighbors = 8238203
Ave neighs/atom = 28.530474
Neighbor list builds = 0
Dangerous builds = 0
The dot product: -1.9938934435499e-08
Setting atom values ...
  1 settings made for x
  1 settings made for y
  1 settings made for z
Setting up cg style minimization ...
  Unit style    : metal
  Current step  : 29834
Per MPI rank memory allocation (min/avg/max) = 5.441 | 5.816 | 6.074 Mbytes
Step PotEng KinEng TotEng v_fx v_fy v_fz 
   29834   -1152449.4            0   -1152449.4 -0.032368557  0.014384241 -0.039666568 
   29994   -1152449.4            0   -1152449.4   9.3586e-06 -3.3906313e-05 9.953799e-06 
Loop time of 1.88451 on 104 procs for 160 steps with 288751 atoms

99.9% CPU use with 104 MPI tasks x 1 OpenMP threads

Minimization stats:
  Stopping criterion = energy tolerance
  Energy initial, next-to-last, final = 
     -1152449.39540268  -1152449.39681971  -1152449.39681971
  Force two-norm initial, final = 0.17371946 0.00030257576
  Force max component initial, final = 0.076482111 5.4210542e-05
  Final line search alpha, max atom move = 1.0000000 5.4210542e-05
  Iterations, force evaluations = 160 320

MPI task timing breakdown:
Section |  min time  |  avg time  |  max time  |%varavg| %total
---------------------------------------------------------------
Pair    | 0.48246    | 1.3468     | 1.7721     |  31.4 | 71.46
Neigh   | 0          | 0          | 0          |   0.0 |  0.00
Comm    | 0.029283   | 0.31005    | 0.90858    |  45.3 | 16.45
Output  | 0          | 0          | 0          |   0.0 |  0.00
Modify  | 1.8722e-05 | 0.0026422  | 0.0056489  |   2.4 |  0.14
Other   |            | 0.2251     |            |       | 11.94

Nlocal:        2776.45 ave        3957 max           0 min
Histogram: 8 4 4 0 4 12 8 4 24 36
Nghost:        3879.18 ave        5430 max         232 min
Histogram: 8 0 8 0 16 0 8 8 16 40
Neighs:        79213.5 ave      115298 max           0 min
Histogram: 8 4 4 0 10 6 8 8 24 32

Total # of neighbors = 8238201
Ave neighs/atom = 28.530467
Neighbor list builds = 0
Dangerous builds = 0
The dot product: -4.05662411582062e-08
Setting atom values ...
  1 settings made for x
  1 settings made for y
  1 settings made for z
Setting up cg style minimization ...
  Unit style    : metal
  Current step  : 29994
Per MPI rank memory allocation (min/avg/max) = 5.441 | 5.816 | 6.074 Mbytes
Step PotEng KinEng TotEng v_fx v_fy v_fz 
   29994   -1152449.4            0   -1152449.4 -0.030973369  0.020063649 -0.037717789 
   30000   -1152449.4            0   -1152449.4 0.00051604523 0.0010296819 0.00069807291 
   30171   -1152449.4            0   -1152449.4 2.0890108e-05 2.5216825e-05 2.7417863e-05 
Loop time of 2.06355 on 104 procs for 177 steps with 288751 atoms

99.9% CPU use with 104 MPI tasks x 1 OpenMP threads

Minimization stats:
  Stopping criterion = energy tolerance
  Energy initial, next-to-last, final = 
     -1152449.38692841  -1152449.38829096  -1152449.38829096
  Force two-norm initial, final = 0.17146316 0.00017069407
  Force max component initial, final = 0.076790325 2.7417863e-05
  Final line search alpha, max atom move = 1.0000000 2.7417863e-05
  Iterations, force evaluations = 177 354

MPI task timing breakdown:
Section |  min time  |  avg time  |  max time  |%varavg| %total
---------------------------------------------------------------
Pair    | 0.53207    | 1.4889     | 1.9381     |  33.0 | 72.15
Neigh   | 0          | 0          | 0          |   0.0 |  0.00
Comm    | 0.033685   | 0.33908    | 1.0239     |  48.4 | 16.43
Output  | 0.00013849 | 0.00014928 | 0.00023306 |   0.0 |  0.01
Modify  | 2.0668e-05 | 0.0029332  | 0.0063292  |   2.6 |  0.14
Other   |            | 0.2325     |            |       | 11.27

Nlocal:        2776.45 ave        3957 max           0 min
Histogram: 8 4 4 0 4 12 8 4 24 36
Nghost:        3879.18 ave        5430 max         232 min
Histogram: 8 0 8 0 16 0 8 8 16 40
Neighs:        79213.5 ave      115300 max           0 min
Histogram: 8 4 4 0 10 6 8 8 24 32

Total # of neighbors = 8238201
Ave neighs/atom = 28.530467
Neighbor list builds = 0
Dangerous builds = 0
The dot product: -9.47308318589887e-08
Setting atom values ...
  1 settings made for x
  1 settings made for y
  1 settings made for z
Setting up cg style minimization ...
  Unit style    : metal
  Current step  : 30171
Per MPI rank memory allocation (min/avg/max) = 5.441 | 5.816 | 6.074 Mbytes
Step PotEng KinEng TotEng v_fx v_fy v_fz 
   30171   -1152449.4            0   -1152449.4 -0.028878875  0.029009358 -0.034721176 
   30338   -1152449.4            0   -1152449.4 1.705375e-05 9.9502838e-06 2.1880927e-05 
Loop time of 1.96155 on 104 procs for 167 steps with 288751 atoms

99.9% CPU use with 104 MPI tasks x 1 OpenMP threads

Minimization stats:
  Stopping criterion = energy tolerance
  Energy initial, next-to-last, final = 
     -1152449.37701642  -1152449.37833232  -1152449.37833232
  Force two-norm initial, final = 0.17019075 0.00021281368
  Force max component initial, final = 0.077209195 4.0138079e-05
  Final line search alpha, max atom move = 1.0000000 4.0138079e-05
  Iterations, force evaluations = 167 334

MPI task timing breakdown:
Section |  min time  |  avg time  |  max time  |%varavg| %total
---------------------------------------------------------------
Pair    | 0.50296    | 1.4059     | 1.8501     |  32.1 | 71.68
Neigh   | 0          | 0          | 0          |   0.0 |  0.00
Comm    | 0.028654   | 0.32835    | 0.98242    |  46.4 | 16.74
Output  | 0          | 0          | 0          |   0.0 |  0.00
Modify  | 1.9474e-05 | 0.0027591  | 0.0059808  |   2.5 |  0.14
Other   |            | 0.2245     |            |       | 11.45

Nlocal:        2776.45 ave        3957 max           0 min
Histogram: 8 4 4 0 4 12 8 4 24 36
Nghost:        3879.17 ave        5431 max         232 min
Histogram: 8 0 8 0 16 0 8 8 16 40
Neighs:        79213.5 ave      115300 max           0 min
Histogram: 8 4 4 0 10 6 8 8 24 32

Total # of neighbors = 8238199
Ave neighs/atom = 28.530461
Neighbor list builds = 0
Dangerous builds = 0
The dot product: -5.79220418019959e-08
