LAMMPS (29 Oct 2020)
OMP_NUM_THREADS environment is not set. Defaulting to 1 thread. (../comm.cpp:94)
  using 1 OpenMP thread(s) per MPI task
OMP_NUM_THREADS environment is not set. Defaulting to 1 thread. (../comm.cpp:94)
  using 1 OpenMP thread(s) per MPI task
Reading data file ...
  orthogonal box = (-122.39241 -121.13707 -37.090501) to (122.39241 121.13707 37.090501)
  13 by 4 by 2 MPI processor grid
  reading atoms ...
  288751 atoms
  read_data CPU = 0.370 seconds
199981 atoms in group inner
88770 atoms in group outer
1 atoms in group carbon
Neighbor list info ...
  update every 1 steps, delay 0 steps, check yes
  max neighbors/atom: 2000, page size: 100000
  master list distance cutoff = 5.6
  ghost atom cutoff = 5.6
  binsize = 2.8, bins = 88 87 27
  1 neighbor lists, perpetual/occasional/extra = 1 0 0
  (1) pair eam/alloy, perpetual
      attributes: half, newton on
      pair build: half/bin/atomonly/newton
      stencil: half/bin/3d/newton
      bin: standard
Setting up cg style minimization ...
  Unit style    : metal
  Current step  : 0
Per MPI rank memory allocation (min/avg/max) = 5.441 | 5.816 | 6.074 Mbytes
Step v_fx v_fy v_fz PotEng KinEng TotEng 
       0   -25.850106  -0.40798869    13.106056   -1152441.8            0   -1152441.8 
     286 1.5435127e-05 2.6897265e-06 -1.6277768e-05     -1152449            0     -1152449 
Loop time of 3.33893 on 104 procs for 286 steps with 288751 atoms

99.9% CPU use with 104 MPI tasks x 1 OpenMP threads

Minimization stats:
  Stopping criterion = energy tolerance
  Energy initial, next-to-last, final = 
     -1152441.81545692  -1152448.97218901  -1152448.97218901
  Force two-norm initial, final = 47.262358 7.4025143e-05
  Force max component initial, final = 32.875860 1.6277768e-05
  Final line search alpha, max atom move = 1.0000000 1.6277768e-05
  Iterations, force evaluations = 286 568

MPI task timing breakdown:
Section |  min time  |  avg time  |  max time  |%varavg| %total
---------------------------------------------------------------
Pair    | 0.89398    | 2.3864     | 3.108      |  40.9 | 71.47
Neigh   | 8.2092e-05 | 0.023534   | 0.03422    |   6.3 |  0.70
Comm    | 0.05633    | 0.5368     | 1.6107     |  61.0 | 16.08
Output  | 0          | 0          | 0          |   0.0 |  0.00
Modify  | 3.388e-05  | 0.0030471  | 0.0078323  |   3.5 |  0.09
Other   |            | 0.3892     |            |       | 11.66

Nlocal:        2776.45 ave        3956 max           0 min
Histogram: 8 4 4 0 4 12 8 0 30 34
Nghost:        3879.11 ave        5424 max         232 min
Histogram: 8 0 8 0 16 0 8 8 16 40
Neighs:        79213.5 ave      115269 max           0 min
Histogram: 8 4 4 0 10 6 8 8 24 32

Total # of neighbors = 8238208
Ave neighs/atom = 28.530492
Neighbor list builds = 8
Dangerous builds = 0
Setting atom values ...
  1 settings made for x
  1 settings made for y
  1 settings made for z
Setting up cg style minimization ...
  Unit style    : metal
  Current step  : 286
Per MPI rank memory allocation (min/avg/max) = 5.441 | 5.816 | 6.074 Mbytes
Step PotEng KinEng TotEng v_fx v_fy v_fz 
     286     -1152449            0     -1152449  0.011456707 -0.020184311 -0.035878341 
     419     -1152449            0     -1152449 -2.2329288e-06 2.5446714e-06 2.5571082e-06 
Loop time of 1.54634 on 104 procs for 133 steps with 288751 atoms

99.9% CPU use with 104 MPI tasks x 1 OpenMP threads

Minimization stats:
  Stopping criterion = energy tolerance
  Energy initial, next-to-last, final = 
     -1152448.97135091  -1152448.97194173  -1152448.97194173
  Force two-norm initial, final = 0.11492361 0.00010069238
  Force max component initial, final = 0.049598669 4.6369729e-06
  Final line search alpha, max atom move = 1.0000000 4.6369729e-06
  Iterations, force evaluations = 133 266

MPI task timing breakdown:
Section |  min time  |  avg time  |  max time  |%varavg| %total
---------------------------------------------------------------
Pair    | 0.40709    | 1.1223     | 1.4572     |  28.5 | 72.58
Neigh   | 0          | 0          | 0          |   0.0 |  0.00
Comm    | 0.023585   | 0.25022    | 0.75942    |  42.4 | 16.18
Output  | 0          | 0          | 0          |   0.0 |  0.00
Modify  | 1.5971e-05 | 0.0021935  | 0.0047029  |   2.2 |  0.14
Other   |            | 0.1716     |            |       | 11.10

Nlocal:        2776.45 ave        3955 max           0 min
Histogram: 8 4 4 0 4 12 8 0 30 34
Nghost:        3879.16 ave        5424 max         232 min
Histogram: 8 0 8 0 16 0 8 8 16 40
Neighs:        79213.5 ave      115247 max           0 min
Histogram: 8 4 4 0 10 6 8 8 24 32

Total # of neighbors = 8238206
Ave neighs/atom = 28.530485
Neighbor list builds = 0
Dangerous builds = 0
Setting atom values ...
  1 settings made for x
  1 settings made for y
  1 settings made for z
Setting up cg style minimization ...
  Unit style    : metal
  Current step  : 419
Per MPI rank memory allocation (min/avg/max) = 5.441 | 5.816 | 6.074 Mbytes
Step PotEng KinEng TotEng v_fx v_fy v_fz 
     419     -1152449            0     -1152449  0.017169212 -0.031851305 -0.060261547 
     682     -1152449            0     -1152449 -1.7579214e-06 2.0849395e-06 2.1577958e-06 
Loop time of 3.07284 on 104 procs for 263 steps with 288751 atoms

99.9% CPU use with 104 MPI tasks x 1 OpenMP threads

Minimization stats:
  Stopping criterion = energy tolerance
  Energy initial, next-to-last, final = 
     -1152448.96883939  -1152448.97056713  -1152448.97056713
  Force two-norm initial, final = 0.19137892 5.0157717e-05
  Force max component initial, final = 0.083028582 9.9991106e-06
  Final line search alpha, max atom move = 1.0000000 9.9991106e-06
  Iterations, force evaluations = 263 526

MPI task timing breakdown:
Section |  min time  |  avg time  |  max time  |%varavg| %total
---------------------------------------------------------------
Pair    | 0.79807    | 2.1999     | 2.883      |  40.0 | 71.59
Neigh   | 0          | 0          | 0          |   0.0 |  0.00
Comm    | 0.048725   | 0.49258    | 1.5044     |  59.2 | 16.03
Output  | 0          | 0          | 0          |   0.0 |  0.00
Modify  | 3.1288e-05 | 0.0043264  | 0.0092277  |   3.1 |  0.14
Other   |            | 0.376      |            |       | 12.24

Nlocal:        2776.45 ave        3955 max           0 min
Histogram: 8 4 4 0 4 12 8 0 30 34
Nghost:        3879.16 ave        5424 max         232 min
Histogram: 8 0 8 0 16 0 8 8 16 40
Neighs:        79213.5 ave      115247 max           0 min
Histogram: 8 4 4 0 10 6 8 8 24 32

Total # of neighbors = 8238205
Ave neighs/atom = 28.530481
Neighbor list builds = 0
Dangerous builds = 0
The dot product: 1.80929158635654e-08
Setting atom values ...
  1 settings made for x
  1 settings made for y
  1 settings made for z
Setting up cg style minimization ...
  Unit style    : metal
  Current step  : 682
Per MPI rank memory allocation (min/avg/max) = 5.441 | 5.816 | 6.074 Mbytes
Step PotEng KinEng TotEng v_fx v_fy v_fz 
     682     -1152449            0     -1152449  0.012346217 -0.033934066 -0.038193932 
     865     -1152449            0     -1152449 -1.8690614e-05 3.1410826e-05  2.37417e-05 
Loop time of 2.14474 on 104 procs for 183 steps with 288751 atoms

99.9% CPU use with 104 MPI tasks x 1 OpenMP threads

Minimization stats:
  Stopping criterion = energy tolerance
  Energy initial, next-to-last, final = 
     -1152448.96613608  -1152448.96836623  -1152448.96836623
  Force two-norm initial, final = 0.19967555 0.00023455435
  Force max component initial, final = 0.094366318 5.6316370e-05
  Final line search alpha, max atom move = 1.0000000 5.6316370e-05
  Iterations, force evaluations = 183 366

MPI task timing breakdown:
Section |  min time  |  avg time  |  max time  |%varavg| %total
---------------------------------------------------------------
Pair    | 0.55831    | 1.5431     | 2.0212     |  33.4 | 71.95
Neigh   | 0          | 0          | 0          |   0.0 |  0.00
Comm    | 0.032014   | 0.34888    | 1.0473     |  49.0 | 16.27
Output  | 0          | 0          | 0          |   0.0 |  0.00
Modify  | 2.1413e-05 | 0.0030166  | 0.0064723  |   2.6 |  0.14
Other   |            | 0.2498     |            |       | 11.64

Nlocal:        2776.45 ave        3956 max           0 min
Histogram: 8 4 4 0 4 12 8 0 30 34
Nghost:        3879.16 ave        5424 max         232 min
Histogram: 8 0 8 0 16 0 8 8 16 40
Neighs:        79213.5 ave      115268 max           0 min
Histogram: 8 4 4 0 10 6 8 8 24 32

Total # of neighbors = 8238203
Ave neighs/atom = 28.530474
Neighbor list builds = 0
Dangerous builds = 0
The dot product: 5.68058020107498e-07
Setting atom values ...
  1 settings made for x
  1 settings made for y
  1 settings made for z
Setting up cg style minimization ...
  Unit style    : metal
  Current step  : 865
Per MPI rank memory allocation (min/avg/max) = 5.441 | 5.816 | 6.074 Mbytes
Step PotEng KinEng TotEng v_fx v_fy v_fz 
     865     -1152449            0     -1152449   0.01564196 -0.017507271 0.00078904702 
    1000     -1152449            0     -1152449 -2.6327957e-05 4.4172705e-05 1.0347615e-05 
    1052     -1152449            0     -1152449 3.4443933e-06 -1.8190901e-06 1.7903502e-06 
Loop time of 2.17496 on 104 procs for 187 steps with 288751 atoms

99.9% CPU use with 104 MPI tasks x 1 OpenMP threads

Minimization stats:
  Stopping criterion = energy tolerance
  Energy initial, next-to-last, final = 
     -1152448.96293187  -1152448.96680049  -1152448.96680049
  Force two-norm initial, final = 0.21120052 8.4424506e-05
  Force max component initial, final = 0.11366478 1.3719262e-05
  Final line search alpha, max atom move = 1.0000000 1.3719262e-05
  Iterations, force evaluations = 187 374

MPI task timing breakdown:
Section |  min time  |  avg time  |  max time  |%varavg| %total
---------------------------------------------------------------
Pair    | 0.56605    | 1.5638     | 2.0471     |  33.7 | 71.90
Neigh   | 0          | 0          | 0          |   0.0 |  0.00
Comm    | 0.034937   | 0.35121    | 1.0647     |  49.8 | 16.15
Output  | 0.00016918 | 0.00018129 | 0.00031497 |   0.0 |  0.01
Modify  | 2.2541e-05 | 0.0030714  | 0.0065682  |   2.6 |  0.14
Other   |            | 0.2567     |            |       | 11.80

Nlocal:        2776.45 ave        3956 max           0 min
Histogram: 8 4 4 0 4 12 8 0 30 34
Nghost:        3879.18 ave        5424 max         232 min
Histogram: 8 0 8 0 16 0 8 8 16 40
Neighs:        79213.6 ave      115275 max           0 min
Histogram: 8 4 4 0 10 6 8 8 24 32

Total # of neighbors = 8238210
Ave neighs/atom = 28.530499
Neighbor list builds = 0
Dangerous builds = 0
The dot product: 4.22184720794254e-08
Setting atom values ...
  1 settings made for x
  1 settings made for y
  1 settings made for z
Setting up cg style minimization ...
  Unit style    : metal
  Current step  : 1052
Per MPI rank memory allocation (min/avg/max) = 5.441 | 5.816 | 6.074 Mbytes
Step PotEng KinEng TotEng v_fx v_fy v_fz 
    1052     -1152449            0     -1152449  0.054402275  0.032062596  0.032840014 
    1201     -1152449            0     -1152449 9.0401155e-06 -1.7371078e-06 3.8710453e-06 
Loop time of 1.73175 on 104 procs for 149 steps with 288751 atoms

99.9% CPU use with 104 MPI tasks x 1 OpenMP threads

Minimization stats:
  Stopping criterion = energy tolerance
  Energy initial, next-to-last, final = 
     -1152448.96180134  -1152448.96538316  -1152448.96538316
  Force two-norm initial, final = 0.22696436 0.00013441713
  Force max component initial, final = 0.12055429 1.3818425e-05
  Final line search alpha, max atom move = 1.0000000 1.3818425e-05
  Iterations, force evaluations = 149 298

MPI task timing breakdown:
Section |  min time  |  avg time  |  max time  |%varavg| %total
---------------------------------------------------------------
Pair    | 0.45131    | 1.2525     | 1.644      |  30.2 | 72.33
Neigh   | 0          | 0          | 0          |   0.0 |  0.00
Comm    | 0.027516   | 0.28011    | 0.84385    |  44.5 | 16.18
Output  | 0          | 0          | 0          |   0.0 |  0.00
Modify  | 1.7618e-05 | 0.0024544  | 0.0052929  |   2.3 |  0.14
Other   |            | 0.1966     |            |       | 11.35

Nlocal:        2776.45 ave        3958 max           0 min
Histogram: 8 4 4 0 4 12 8 2 28 34
Nghost:        3879.18 ave        5424 max         232 min
Histogram: 8 0 8 0 16 0 8 8 16 40
Neighs:        79213.6 ave      115350 max           0 min
Histogram: 8 4 4 0 10 6 8 8 24 32

Total # of neighbors = 8238218
Ave neighs/atom = 28.530526
Neighbor list builds = 0
Dangerous builds = 0
The dot product: 1.07522780306083e-07
Setting atom values ...
  1 settings made for x
  1 settings made for y
  1 settings made for z
Setting up cg style minimization ...
  Unit style    : metal
  Current step  : 1201
Per MPI rank memory allocation (min/avg/max) = 5.441 | 5.816 | 6.074 Mbytes
Step PotEng KinEng TotEng v_fx v_fy v_fz 
    1201     -1152449            0     -1152449  0.060898746  0.036129913  0.020578001 
    1363     -1152449            0     -1152449 3.4119224e-06 -4.3794083e-07 1.0638856e-06 
Loop time of 1.86562 on 104 procs for 162 steps with 288751 atoms

99.9% CPU use with 104 MPI tasks x 1 OpenMP threads

Minimization stats:
  Stopping criterion = energy tolerance
  Energy initial, next-to-last, final = 
     -1152448.96091758  -1152448.96409379  -1152448.96409379
  Force two-norm initial, final = 0.22203439 9.0841074e-05
  Force max component initial, final = 0.1144193 7.1367027e-06
  Final line search alpha, max atom move = 1.0000000 7.1367027e-06
  Iterations, force evaluations = 162 324

MPI task timing breakdown:
Section |  min time  |  avg time  |  max time  |%varavg| %total
---------------------------------------------------------------
Pair    | 0.49067    | 1.3543     | 1.7694     |  31.4 | 72.59
Neigh   | 0          | 0          | 0          |   0.0 |  0.00
Comm    | 0.028313   | 0.3013     | 0.91354    |  46.6 | 16.15
Output  | 0          | 0          | 0          |   0.0 |  0.00
Modify  | 1.9258e-05 | 0.0026623  | 0.0057281  |   2.4 |  0.14
Other   |            | 0.2074     |            |       | 11.11

Nlocal:        2776.45 ave        3959 max           0 min
Histogram: 8 4 4 0 4 12 8 2 28 34
Nghost:        3879.14 ave        5424 max         232 min
Histogram: 8 0 8 0 16 0 8 8 16 40
Neighs:        79213.6 ave      115390 max           0 min
Histogram: 8 4 4 0 10 6 8 8 24 32

Total # of neighbors = 8238218
Ave neighs/atom = 28.530526
Neighbor list builds = 0
Dangerous builds = 0
The dot product: 1.14284583988731e-08
Setting atom values ...
  1 settings made for x
  1 settings made for y
  1 settings made for z
Setting up cg style minimization ...
  Unit style    : metal
  Current step  : 1363
Per MPI rank memory allocation (min/avg/max) = 5.441 | 5.816 | 6.074 Mbytes
Step PotEng KinEng TotEng v_fx v_fy v_fz 
    1363     -1152449            0     -1152449  0.059666559  0.032530973   0.01641685 
    1574     -1152449            0     -1152449 -3.3983948e-06 3.2914171e-08 -9.5997632e-07 
Loop time of 2.44445 on 104 procs for 211 steps with 288751 atoms

99.9% CPU use with 104 MPI tasks x 1 OpenMP threads

Minimization stats:
  Stopping criterion = energy tolerance
  Energy initial, next-to-last, final = 
     -1152448.95984648   -1152448.9624037   -1152448.9624037
  Force two-norm initial, final = 0.21910798 7.4828398e-05
  Force max component initial, final = 0.11249031 1.7861207e-05
  Final line search alpha, max atom move = 1.0000000 1.7861207e-05
  Iterations, force evaluations = 211 422

MPI task timing breakdown:
Section |  min time  |  avg time  |  max time  |%varavg| %total
---------------------------------------------------------------
Pair    | 0.64615    | 1.7759     | 2.3046     |  35.8 | 72.65
Neigh   | 0          | 0          | 0          |   0.0 |  0.00
Comm    | 0.038616   | 0.39535    | 1.1933     |  53.0 | 16.17
Output  | 0          | 0          | 0          |   0.0 |  0.00
Modify  | 2.5241e-05 | 0.0034781  | 0.0074335  |   2.8 |  0.14
Other   |            | 0.2697     |            |       | 11.03

Nlocal:        2776.45 ave        3959 max           0 min
Histogram: 8 4 4 0 4 12 8 2 28 34
Nghost:        3879.09 ave        5424 max         232 min
Histogram: 8 0 8 0 16 0 8 8 16 40
Neighs:        79213.6 ave      115383 max           0 min
Histogram: 8 4 4 0 10 6 8 8 24 32

Total # of neighbors = 8238211
Ave neighs/atom = 28.530502
Neighbor list builds = 0
Dangerous builds = 0
The dot product: -1.80039983730762e-08
Setting atom values ...
  1 settings made for x
  1 settings made for y
  1 settings made for z
Setting up cg style minimization ...
  Unit style    : metal
  Current step  : 1574
Per MPI rank memory allocation (min/avg/max) = 5.441 | 5.816 | 6.074 Mbytes
Step PotEng KinEng TotEng v_fx v_fy v_fz 
    1574     -1152449            0     -1152449   0.06582234  0.033898126  0.014978228 
    1774     -1152449            0     -1152449 -1.3063786e-05 -9.9695059e-07 -3.1629476e-06 
Loop time of 2.32522 on 104 procs for 200 steps with 288751 atoms

99.9% CPU use with 104 MPI tasks x 1 OpenMP threads

Minimization stats:
  Stopping criterion = energy tolerance
  Energy initial, next-to-last, final = 
     -1152448.95756561  -1152448.96006828  -1152448.96006828
  Force two-norm initial, final = 0.21831053 9.5430747e-05
  Force max component initial, final = 0.11004968 2.9828138e-05
  Final line search alpha, max atom move = 1.0000000 2.9828138e-05
  Iterations, force evaluations = 200 400

MPI task timing breakdown:
Section |  min time  |  avg time  |  max time  |%varavg| %total
---------------------------------------------------------------
Pair    | 0.60597    | 1.6757     | 2.1985     |  35.0 | 72.07
Neigh   | 0          | 0          | 0          |   0.0 |  0.00
Comm    | 0.034703   | 0.37573    | 1.1369     |  51.5 | 16.16
Output  | 0          | 0          | 0          |   0.0 |  0.00
Modify  | 2.4058e-05 | 0.0032818  | 0.0070426  |   2.7 |  0.14
Other   |            | 0.2705     |            |       | 11.63

Nlocal:        2776.45 ave        3960 max           0 min
Histogram: 8 4 4 0 4 12 8 2 28 34
Nghost:        3879.12 ave        5424 max         232 min
Histogram: 8 0 8 0 16 0 8 8 16 40
Neighs:        79213.6 ave      115410 max           0 min
Histogram: 8 4 4 0 10 6 8 8 24 32

Total # of neighbors = 8238210
Ave neighs/atom = 28.530499
Neighbor list builds = 0
Dangerous builds = 0
The dot product: -7.88055075477583e-08
Setting atom values ...
  1 settings made for x
  1 settings made for y
  1 settings made for z
Setting up cg style minimization ...
  Unit style    : metal
  Current step  : 1774
Per MPI rank memory allocation (min/avg/max) = 5.441 | 5.816 | 6.074 Mbytes
Step PotEng KinEng TotEng v_fx v_fy v_fz 
    1774     -1152449            0     -1152449  0.070924921  0.035724924  0.013074601 
    1924     -1152449            0     -1152449 -1.5214827e-06 1.8965585e-06 -4.0832262e-07 
Loop time of 1.73504 on 104 procs for 150 steps with 288751 atoms

99.9% CPU use with 104 MPI tasks x 1 OpenMP threads

Minimization stats:
  Stopping criterion = energy tolerance
  Energy initial, next-to-last, final = 
     -1152448.95475056  -1152448.95733515  -1152448.95733515
  Force two-norm initial, final = 0.21728476 0.00018456376
  Force max component initial, final = 0.1071751 3.6263080e-05
  Final line search alpha, max atom move = 1.0000000 3.6263080e-05
  Iterations, force evaluations = 150 300

MPI task timing breakdown:
Section |  min time  |  avg time  |  max time  |%varavg| %total
---------------------------------------------------------------
Pair    | 0.45435    | 1.2646     | 1.6429     |  30.3 | 72.89
Neigh   | 0          | 0          | 0          |   0.0 |  0.00
Comm    | 0.033763   | 0.2817     | 0.85774    |  44.8 | 16.24
Output  | 0          | 0          | 0          |   0.0 |  0.00
Modify  | 1.7899e-05 | 0.0024752  | 0.0052776  |   2.3 |  0.14
Other   |            | 0.1862     |            |       | 10.73

Nlocal:        2776.45 ave        3960 max           0 min
Histogram: 8 4 4 0 4 12 8 2 28 34
Nghost:        3879.14 ave        5424 max         232 min
Histogram: 8 0 8 0 16 0 8 8 16 40
Neighs:        79213.5 ave      115412 max           0 min
Histogram: 8 4 4 0 10 6 8 8 24 32

Total # of neighbors = 8238208
Ave neighs/atom = 28.530492
Neighbor list builds = 0
Dangerous builds = 0
The dot product: -2.79311693090301e-09
Setting atom values ...
  1 settings made for x
  1 settings made for y
  1 settings made for z
Setting up cg style minimization ...
  Unit style    : metal
  Current step  : 1924
Per MPI rank memory allocation (min/avg/max) = 5.441 | 5.816 | 6.074 Mbytes
Step PotEng KinEng TotEng v_fx v_fy v_fz 
    1924     -1152449            0     -1152449  0.073867227  0.037448619  0.011097841 
    2000     -1152449            0     -1152449 -0.0002036613 -1.8184054e-05 -3.584063e-05 
    2147     -1152449            0     -1152449 -7.2842888e-06 -1.251882e-06 -1.2448313e-06 
Loop time of 2.57579 on 104 procs for 223 steps with 288751 atoms

99.9% CPU use with 104 MPI tasks x 1 OpenMP threads

Minimization stats:
  Stopping criterion = energy tolerance
  Energy initial, next-to-last, final = 
     -1152448.95162791  -1152448.95390998  -1152448.95390998
  Force two-norm initial, final = 0.21616757 5.0611966e-05
  Force max component initial, final = 0.10482781 1.3930307e-05
  Final line search alpha, max atom move = 1.0000000 1.3930307e-05
  Iterations, force evaluations = 223 446

MPI task timing breakdown:
Section |  min time  |  avg time  |  max time  |%varavg| %total
---------------------------------------------------------------
Pair    | 0.67491    | 1.8694     | 2.4443     |  37.0 | 72.57
Neigh   | 0          | 0          | 0          |   0.0 |  0.00
Comm    | 0.041337   | 0.41627    | 1.2566     |  54.9 | 16.16
Output  | 9.851e-05  | 0.00010193 | 0.00021892 |   0.0 |  0.00
Modify  | 2.6238e-05 | 0.0036654  | 0.0078371  |   2.9 |  0.14
Other   |            | 0.2864     |            |       | 11.12

Nlocal:        2776.45 ave        3960 max           0 min
Histogram: 8 4 4 0 4 12 8 2 28 34
Nghost:        3879.14 ave        5424 max         232 min
Histogram: 8 0 8 0 16 0 8 8 16 40
Neighs:        79213.5 ave      115413 max           0 min
Histogram: 8 4 4 0 10 6 8 8 24 32

Total # of neighbors = 8238202
Ave neighs/atom = 28.530471
Neighbor list builds = 0
Dangerous builds = 0
The dot product: -5.26380669716419e-08
Setting atom values ...
  1 settings made for x
  1 settings made for y
  1 settings made for z
Setting up cg style minimization ...
  Unit style    : metal
  Current step  : 2147
Per MPI rank memory allocation (min/avg/max) = 5.441 | 5.816 | 6.074 Mbytes
Step PotEng KinEng TotEng v_fx v_fy v_fz 
    2147   -1152448.9            0   -1152448.9  0.078712227  0.039249344 0.0087076469 
    2309   -1152448.9            0   -1152448.9 -5.4887503e-06 -1.3065296e-06 -7.1519153e-07 
Loop time of 1.87139 on 104 procs for 162 steps with 288751 atoms

99.9% CPU use with 104 MPI tasks x 1 OpenMP threads

Minimization stats:
  Stopping criterion = energy tolerance
  Energy initial, next-to-last, final = 
     -1152448.94746787  -1152448.94969802  -1152448.94969802
  Force two-norm initial, final = 0.21502065 0.00021694154
  Force max component initial, final = 0.1015198 3.2031542e-05
  Final line search alpha, max atom move = 1.0000000 3.2031542e-05
  Iterations, force evaluations = 162 324

MPI task timing breakdown:
Section |  min time  |  avg time  |  max time  |%varavg| %total
---------------------------------------------------------------
Pair    | 0.49298    | 1.3628     | 1.7704     |  31.5 | 72.82
Neigh   | 0          | 0          | 0          |   0.0 |  0.00
Comm    | 0.028957   | 0.30539    | 0.92287    |  46.7 | 16.32
Output  | 0          | 0          | 0          |   0.0 |  0.00
Modify  | 1.9045e-05 | 0.0026627  | 0.005725   |   2.4 |  0.14
Other   |            | 0.2006     |            |       | 10.72

Nlocal:        2776.45 ave        3960 max           0 min
Histogram: 8 4 4 0 4 12 8 2 28 34
Nghost:        3879.12 ave        5424 max         232 min
Histogram: 8 0 8 0 16 0 8 8 16 40
Neighs:        79213.5 ave      115425 max           0 min
Histogram: 8 4 4 0 10 6 8 8 24 32

Total # of neighbors = 8238201
Ave neighs/atom = 28.530467
Neighbor list builds = 0
Dangerous builds = 0
The dot product: -4.7637758080266e-08
Setting atom values ...
  1 settings made for x
  1 settings made for y
  1 settings made for z
Setting up cg style minimization ...
  Unit style    : metal
  Current step  : 2309
Per MPI rank memory allocation (min/avg/max) = 5.441 | 5.816 | 6.074 Mbytes
Step PotEng KinEng TotEng v_fx v_fy v_fz 
    2309   -1152448.9            0   -1152448.9  0.082639377  0.040251673 0.0057462525 
    2490   -1152448.9            0   -1152448.9 -2.8970373e-05 -4.3023155e-06 -2.8795967e-06 
Loop time of 2.11041 on 104 procs for 181 steps with 288751 atoms

99.9% CPU use with 104 MPI tasks x 1 OpenMP threads

Minimization stats:
  Stopping criterion = energy tolerance
  Energy initial, next-to-last, final = 
     -1152448.94256751  -1152448.94474993  -1152448.94474993
  Force two-norm initial, final = 0.21323448 0.00012012272
  Force max component initial, final = 0.097334923 3.7273908e-05
  Final line search alpha, max atom move = 1.0000000 3.7273908e-05
  Iterations, force evaluations = 181 362

MPI task timing breakdown:
Section |  min time  |  avg time  |  max time  |%varavg| %total
---------------------------------------------------------------
Pair    | 0.54788    | 1.5181     | 1.9815     |  33.1 | 71.93
Neigh   | 0          | 0          | 0          |   0.0 |  0.00
Comm    | 0.033575   | 0.34115    | 1.0267     |  48.8 | 16.17
Output  | 0          | 0          | 0          |   0.0 |  0.00
Modify  | 2.1374e-05 | 0.0029828  | 0.0063722  |   2.6 |  0.14
Other   |            | 0.2482     |            |       | 11.76

Nlocal:        2776.45 ave        3961 max           0 min
Histogram: 8 4 4 0 6 10 8 2 28 34
Nghost:        3879.12 ave        5424 max         232 min
Histogram: 8 0 8 0 16 0 8 8 16 40
Neighs:        79213.5 ave      115473 max           0 min
Histogram: 8 4 4 0 10 6 8 8 24 32

Total # of neighbors = 8238208
Ave neighs/atom = 28.530492
Neighbor list builds = 0
Dangerous builds = 0
The dot product: -2.475902889901e-07
Setting atom values ...
  1 settings made for x
  1 settings made for y
  1 settings made for z
Setting up cg style minimization ...
  Unit style    : metal
  Current step  : 2490
Per MPI rank memory allocation (min/avg/max) = 5.441 | 5.816 | 6.074 Mbytes
Step PotEng KinEng TotEng v_fx v_fy v_fz 
    2490   -1152448.9            0   -1152448.9  0.084519037  0.041072308 0.0025662704 
    2659   -1152448.9            0   -1152448.9 1.8380972e-05 1.6832375e-06 1.2890297e-06 
Loop time of 1.97649 on 104 procs for 169 steps with 288751 atoms

99.9% CPU use with 104 MPI tasks x 1 OpenMP threads

Minimization stats:
  Stopping criterion = energy tolerance
  Energy initial, next-to-last, final = 
     -1152448.93693557  -1152448.93900127  -1152448.93900127
  Force two-norm initial, final = 0.21092098 0.00015106315
  Force max component initial, final = 0.09303628 3.4706789e-05
  Final line search alpha, max atom move = 1.0000000 3.4706789e-05
  Iterations, force evaluations = 169 338

MPI task timing breakdown:
Section |  min time  |  avg time  |  max time  |%varavg| %total
---------------------------------------------------------------
Pair    | 0.51264    | 1.4209     | 1.8676     |  32.1 | 71.89
Neigh   | 0          | 0          | 0          |   0.0 |  0.00
Comm    | 0.03088    | 0.31948    | 0.95553    |  47.1 | 16.16
Output  | 0          | 0          | 0          |   0.0 |  0.00
Modify  | 2.0337e-05 | 0.0027798  | 0.0059607  |   2.5 |  0.14
Other   |            | 0.2334     |            |       | 11.81

Nlocal:        2776.45 ave        3961 max           0 min
Histogram: 8 4 4 0 6 10 8 2 28 34
Nghost:        3879.14 ave        5424 max         232 min
Histogram: 8 0 8 0 16 0 8 8 16 40
Neighs:        79213.5 ave      115471 max           0 min
Histogram: 8 4 4 0 10 6 8 8 24 32

Total # of neighbors = 8238203
Ave neighs/atom = 28.530474
Neighbor list builds = 0
Dangerous builds = 0
The dot product: 1.32781275177898e-07
Setting atom values ...
  1 settings made for x
  1 settings made for y
  1 settings made for z
Setting up cg style minimization ...
  Unit style    : metal
  Current step  : 2659
Per MPI rank memory allocation (min/avg/max) = 5.441 | 5.816 | 6.074 Mbytes
Step PotEng KinEng TotEng v_fx v_fy v_fz 
    2659   -1152448.9            0   -1152448.9  0.084208011  0.041968193 -0.00033499176 
    2878   -1152448.9            0   -1152448.9 8.1057463e-06 9.6500683e-07 3.2114544e-07 
Loop time of 2.52723 on 104 procs for 219 steps with 288751 atoms

99.9% CPU use with 104 MPI tasks x 1 OpenMP threads

Minimization stats:
  Stopping criterion = energy tolerance
  Energy initial, next-to-last, final = 
     -1152448.93042941  -1152448.93240415  -1152448.93240415
  Force two-norm initial, final = 0.20863053 3.5362696e-05
  Force max component initial, final = 0.089374256 9.7848177e-06
  Final line search alpha, max atom move = 1.0000000 9.7848177e-06
  Iterations, force evaluations = 219 438

MPI task timing breakdown:
Section |  min time  |  avg time  |  max time  |%varavg| %total
---------------------------------------------------------------
Pair    | 0.66394    | 1.8303     | 2.3957     |  36.5 | 72.42
Neigh   | 0          | 0          | 0          |   0.0 |  0.00
Comm    | 0.039543   | 0.40854    | 1.2357     |  54.1 | 16.17
Output  | 0          | 0          | 0          |   0.0 |  0.00
Modify  | 2.6182e-05 | 0.0036057  | 0.0077083  |   2.8 |  0.14
Other   |            | 0.2848     |            |       | 11.27

Nlocal:        2776.45 ave        3961 max           0 min
Histogram: 8 4 4 0 6 10 8 2 28 34
Nghost:        3879.12 ave        5424 max         232 min
Histogram: 8 0 8 0 16 0 8 8 16 40
Neighs:        79213.5 ave      115471 max           0 min
Histogram: 8 4 4 0 10 6 8 8 24 32

Total # of neighbors = 8238199
Ave neighs/atom = 28.530461
Neighbor list builds = 0
Dangerous builds = 0
The dot product: 5.35155675291599e-08
Setting atom values ...
  1 settings made for x
  1 settings made for y
  1 settings made for z
Setting up cg style minimization ...
  Unit style    : metal
  Current step  : 2878
Per MPI rank memory allocation (min/avg/max) = 5.441 | 5.816 | 6.074 Mbytes
Step PotEng KinEng TotEng v_fx v_fy v_fz 
    2878   -1152448.9            0   -1152448.9  0.083397124  0.035606551 -0.001966985 
    3000   -1152448.9            0   -1152448.9 -2.5530471e-06 -3.0803267e-08 -7.719141e-08 
    3040   -1152448.9            0   -1152448.9 -1.5503578e-05 -2.8549285e-06 -1.2266338e-07 
Loop time of 1.89923 on 104 procs for 162 steps with 288751 atoms

99.9% CPU use with 104 MPI tasks x 1 OpenMP threads

Minimization stats:
  Stopping criterion = energy tolerance
  Energy initial, next-to-last, final = 
     -1152448.92290469  -1152448.92479392  -1152448.92479392
  Force two-norm initial, final = 0.20484475 0.00016296862
  Force max component initial, final = 0.085996619 3.9227089e-05
  Final line search alpha, max atom move = 1.0000000 3.9227089e-05
  Iterations, force evaluations = 162 324

MPI task timing breakdown:
Section |  min time  |  avg time  |  max time  |%varavg| %total
---------------------------------------------------------------
Pair    | 0.49007    | 1.3628     | 1.7906     |  31.5 | 71.75
Neigh   | 0          | 0          | 0          |   0.0 |  0.00
Comm    | 0.029783   | 0.30729    | 0.91933    |  46.1 | 16.18
Output  | 0.00015309 | 0.00016113 | 0.0002891  |   0.0 |  0.01
Modify  | 1.9582e-05 | 0.002669   | 0.0057197  |   2.4 |  0.14
Other   |            | 0.2263     |            |       | 11.92

Nlocal:        2776.45 ave        3961 max           0 min
Histogram: 8 4 4 0 6 10 8 2 28 34
Nghost:        3879.14 ave        5424 max         232 min
Histogram: 8 0 8 0 16 0 8 8 16 40
Neighs:        79213.5 ave      115476 max           0 min
Histogram: 8 4 4 0 10 6 8 8 24 32

Total # of neighbors = 8238199
Ave neighs/atom = 28.530461
Neighbor list builds = 0
Dangerous builds = 0
The dot product: -9.11323618027937e-08
Setting atom values ...
  1 settings made for x
  1 settings made for y
  1 settings made for z
Setting up cg style minimization ...
  Unit style    : metal
  Current step  : 3040
Per MPI rank memory allocation (min/avg/max) = 5.441 | 5.816 | 6.074 Mbytes
Step PotEng KinEng TotEng v_fx v_fy v_fz 
    3040   -1152448.9            0   -1152448.9  0.082717536  0.025762247 -0.002406982 
    3201   -1152448.9            0   -1152448.9 4.0364531e-05 5.8782952e-06 -2.4710549e-07 
Loop time of 1.86587 on 104 procs for 161 steps with 288751 atoms

99.9% CPU use with 104 MPI tasks x 1 OpenMP threads

Minimization stats:
  Stopping criterion = energy tolerance
  Energy initial, next-to-last, final = 
     -1152448.91405795   -1152448.9159284   -1152448.9159284
  Force two-norm initial, final = 0.20192286 0.00016704809
  Force max component initial, final = 0.083814175 6.6399117e-05
  Final line search alpha, max atom move = 1.0000000 6.6399117e-05
  Iterations, force evaluations = 161 322

MPI task timing breakdown:
Section |  min time  |  avg time  |  max time  |%varavg| %total
---------------------------------------------------------------
Pair    | 0.48757    | 1.3463     | 1.7638     |  31.3 | 72.16
Neigh   | 0          | 0          | 0          |   0.0 |  0.00
Comm    | 0.031268   | 0.30067    | 0.90786    |  46.3 | 16.11
Output  | 0          | 0          | 0          |   0.0 |  0.00
Modify  | 1.9458e-05 | 0.0026477  | 0.0056831  |   2.4 |  0.14
Other   |            | 0.2162     |            |       | 11.59

Nlocal:        2776.45 ave        3961 max           0 min
Histogram: 8 4 4 0 6 10 8 2 28 34
Nghost:        3879.14 ave        5424 max         232 min
Histogram: 8 0 8 0 16 0 8 8 16 40
Neighs:        79213.4 ave      115476 max           0 min
Histogram: 8 4 4 0 10 6 8 8 24 32

Total # of neighbors = 8238198
Ave neighs/atom = 28.530457
Neighbor list builds = 0
Dangerous builds = 0
The dot product: 1.96419852702271e-07
Setting atom values ...
  1 settings made for x
  1 settings made for y
  1 settings made for z
Setting up cg style minimization ...
  Unit style    : metal
  Current step  : 3201
Per MPI rank memory allocation (min/avg/max) = 5.441 | 5.816 | 6.074 Mbytes
Step PotEng KinEng TotEng v_fx v_fy v_fz 
    3201   -1152448.9            0   -1152448.9  0.082419816    0.0202831 -0.0029152861 
    3374   -1152448.9            0   -1152448.9 -1.0661686e-05 -2.6896252e-06 3.8641795e-07 
Loop time of 2.00055 on 104 procs for 173 steps with 288751 atoms

99.9% CPU use with 104 MPI tasks x 1 OpenMP threads

Minimization stats:
  Stopping criterion = energy tolerance
  Energy initial, next-to-last, final = 
     -1152448.90384345  -1152448.90570712  -1152448.90570712
  Force two-norm initial, final = 0.20045879 0.00011273512
  Force max component initial, final = 0.08256622 1.5161209e-05
  Final line search alpha, max atom move = 1.0000000 1.5161209e-05
  Iterations, force evaluations = 173 346

MPI task timing breakdown:
Section |  min time  |  avg time  |  max time  |%varavg| %total
---------------------------------------------------------------
Pair    | 0.52492    | 1.4562     | 1.8929     |  32.5 | 72.79
Neigh   | 0          | 0          | 0          |   0.0 |  0.00
Comm    | 0.034604   | 0.32338    | 0.99275    |  48.3 | 16.16
Output  | 0          | 0          | 0          |   0.0 |  0.00
Modify  | 2.0639e-05 | 0.0028494  | 0.0060955  |   2.5 |  0.14
Other   |            | 0.2181     |            |       | 10.90

Nlocal:        2776.45 ave        3961 max           0 min
Histogram: 8 4 4 0 6 10 8 2 28 34
Nghost:        3879.12 ave        5424 max         232 min
Histogram: 8 0 8 0 16 0 8 8 16 40
Neighs:        79213.5 ave      115476 max           0 min
Histogram: 8 4 4 0 10 6 8 8 24 32

Total # of neighbors = 8238199
Ave neighs/atom = 28.530461
Neighbor list builds = 0
Dangerous builds = 0
The dot product: -4.40218101664616e-08
Setting atom values ...
  1 settings made for x
  1 settings made for y
  1 settings made for z
Setting up cg style minimization ...
  Unit style    : metal
  Current step  : 3374
Per MPI rank memory allocation (min/avg/max) = 5.441 | 5.816 | 6.074 Mbytes
Step PotEng KinEng TotEng v_fx v_fy v_fz 
    3374   -1152448.9            0   -1152448.9  0.081883647   0.01689289 -0.0034217098 
    3540   -1152448.9            0   -1152448.9 3.7053041e-05 7.7071698e-06 -1.5572517e-06 
Loop time of 1.92009 on 104 procs for 166 steps with 288751 atoms

99.9% CPU use with 104 MPI tasks x 1 OpenMP threads

Minimization stats:
  Stopping criterion = energy tolerance
  Energy initial, next-to-last, final = 
     -1152448.89226779  -1152448.89414025  -1152448.89414025
  Force two-norm initial, final = 0.19943601 0.00015794702
  Force max component initial, final = 0.084243755 3.7053041e-05
  Final line search alpha, max atom move = 1.0000000 3.7053041e-05
  Iterations, force evaluations = 166 332

MPI task timing breakdown:
Section |  min time  |  avg time  |  max time  |%varavg| %total
---------------------------------------------------------------
Pair    | 0.50353    | 1.3916     | 1.8217     |  31.9 | 72.48
Neigh   | 0          | 0          | 0          |   0.0 |  0.00
Comm    | 0.030853   | 0.31017    | 0.93556    |  47.4 | 16.15
Output  | 0          | 0          | 0          |   0.0 |  0.00
Modify  | 1.9817e-05 | 0.0027299  | 0.0058607  |   2.5 |  0.14
Other   |            | 0.2156     |            |       | 11.23

Nlocal:        2776.45 ave        3961 max           0 min
Histogram: 8 4 4 0 6 10 8 2 28 34
Nghost:        3879.11 ave        5424 max         232 min
Histogram: 8 0 8 0 16 0 8 8 16 40
Neighs:        79213.5 ave      115485 max           0 min
Histogram: 8 4 4 0 10 6 8 8 24 32

Total # of neighbors = 8238200
Ave neighs/atom = 28.530464
Neighbor list builds = 0
Dangerous builds = 0
The dot product: 1.07182906482094e-07
Setting atom values ...
  1 settings made for x
  1 settings made for y
  1 settings made for z
Setting up cg style minimization ...
  Unit style    : metal
  Current step  : 3540
Per MPI rank memory allocation (min/avg/max) = 5.441 | 5.816 | 6.074 Mbytes
Step PotEng KinEng TotEng v_fx v_fy v_fz 
    3540   -1152448.9            0   -1152448.9   0.08038856  0.014423422 -0.0036972339 
    3741   -1152448.9            0   -1152448.9 -2.6197631e-05 -6.1354318e-06 1.4061221e-06 
Loop time of 2.31892 on 104 procs for 201 steps with 288751 atoms

99.9% CPU use with 104 MPI tasks x 1 OpenMP threads

Minimization stats:
  Stopping criterion = energy tolerance
  Energy initial, next-to-last, final = 
     -1152448.87938567  -1152448.88137729  -1152448.88137729
  Force two-norm initial, final = 0.19859892 0.0001385982
  Force max component initial, final = 0.085643679 2.6685309e-05
  Final line search alpha, max atom move = 1.0000000 2.6685309e-05
  Iterations, force evaluations = 201 402

MPI task timing breakdown:
Section |  min time  |  avg time  |  max time  |%varavg| %total
---------------------------------------------------------------
Pair    | 0.60993    | 1.6929     | 2.1995     |  35.1 | 73.00
Neigh   | 0          | 0          | 0          |   0.0 |  0.00
Comm    | 0.035945   | 0.37642    | 1.1419     |  52.1 | 16.23
Output  | 0          | 0          | 0          |   0.0 |  0.00
Modify  | 2.3921e-05 | 0.0033082  | 0.0070873  |   2.7 |  0.14
Other   |            | 0.2463     |            |       | 10.62

Nlocal:        2776.45 ave        3961 max           0 min
Histogram: 8 4 4 0 6 10 8 2 28 34
Nghost:        3879.11 ave        5425 max         232 min
Histogram: 8 0 8 0 16 0 8 8 16 40
Neighs:        79213.4 ave      115484 max           0 min
Histogram: 8 4 4 0 10 6 8 8 24 32

Total # of neighbors = 8238198
Ave neighs/atom = 28.530457
Neighbor list builds = 0
Dangerous builds = 0
The dot product: 1.62993375830174e-07
Setting atom values ...
  1 settings made for x
  1 settings made for y
  1 settings made for z
Setting up cg style minimization ...
  Unit style    : metal
  Current step  : 3741
Per MPI rank memory allocation (min/avg/max) = 5.441 | 5.816 | 6.074 Mbytes
Step PotEng KinEng TotEng v_fx v_fy v_fz 
    3741   -1152448.9            0   -1152448.9  0.066584049  0.013735372 -0.0022337087 
    3966   -1152448.9            0   -1152448.9 7.7418464e-06 2.0655343e-06 -3.2475094e-07 
Loop time of 2.63927 on 104 procs for 225 steps with 288751 atoms

99.9% CPU use with 104 MPI tasks x 1 OpenMP threads

Minimization stats:
  Stopping criterion = energy tolerance
  Energy initial, next-to-last, final = 
     -1152448.86588802   -1152448.8684873   -1152448.8684873
  Force two-norm initial, final = 0.19514242 4.1859606e-05
  Force max component initial, final = 0.084605601 1.2222101e-05
  Final line search alpha, max atom move = 1.0000000 1.2222101e-05
  Iterations, force evaluations = 225 450

MPI task timing breakdown:
Section |  min time  |  avg time  |  max time  |%varavg| %total
---------------------------------------------------------------
Pair    | 0.6828     | 1.8926     | 2.474      |  37.3 | 71.71
Neigh   | 0          | 0          | 0          |   0.0 |  0.00
Comm    | 0.040478   | 0.42699    | 1.2793     |  54.6 | 16.18
Output  | 0          | 0          | 0          |   0.0 |  0.00
Modify  | 2.6898e-05 | 0.0036963  | 0.0079529  |   2.9 |  0.14
Other   |            | 0.316      |            |       | 11.97

Nlocal:        2776.45 ave        3961 max           0 min
Histogram: 8 4 4 0 6 10 8 2 28 34
Nghost:        3879.12 ave        5425 max         232 min
Histogram: 8 0 8 0 16 0 8 8 16 40
Neighs:        79213.4 ave      115480 max           0 min
Histogram: 8 4 4 0 10 6 8 8 24 32

Total # of neighbors = 8238191
Ave neighs/atom = 28.530433
Neighbor list builds = 0
Dangerous builds = 0
The dot product: -1.38895999996959e-07
Setting atom values ...
  1 settings made for x
  1 settings made for y
  1 settings made for z
Setting up cg style minimization ...
  Unit style    : metal
  Current step  : 3966
Per MPI rank memory allocation (min/avg/max) = 5.441 | 5.816 | 6.074 Mbytes
Step PotEng KinEng TotEng v_fx v_fy v_fz 
    3966   -1152448.9            0   -1152448.9  0.050070239  0.013187099 0.00015271128 
    4000   -1152448.9            0   -1152448.9 0.00040871402 6.1553153e-05 7.5098509e-06 
    4171   -1152448.9            0   -1152448.9 1.1514618e-05 1.5168161e-06 2.4110372e-07 
Loop time of 2.36377 on 104 procs for 205 steps with 288751 atoms

99.9% CPU use with 104 MPI tasks x 1 OpenMP threads

Minimization stats:
  Stopping criterion = energy tolerance
  Energy initial, next-to-last, final = 
     -1152448.85252613  -1152448.85466825  -1152448.85466825
  Force two-norm initial, final = 0.19405893 0.00010577851
  Force max component initial, final = 0.08670587 1.8724717e-05
  Final line search alpha, max atom move = 1.0000000 1.8724717e-05
  Iterations, force evaluations = 205 410

MPI task timing breakdown:
Section |  min time  |  avg time  |  max time  |%varavg| %total
---------------------------------------------------------------
Pair    | 0.62359    | 1.7188     | 2.2432     |  35.3 | 72.71
Neigh   | 0          | 0          | 0          |   0.0 |  0.00
Comm    | 0.037052   | 0.38107    | 1.1562     |  52.2 | 16.12
Output  | 0.000102   | 0.00011529 | 0.00020764 |   0.0 |  0.00
Modify  | 2.4095e-05 | 0.0033696  | 0.007198   |   2.7 |  0.14
Other   |            | 0.2604     |            |       | 11.02

Nlocal:        2776.45 ave        3961 max           0 min
Histogram: 8 4 4 0 6 10 8 2 28 34
Nghost:        3879.12 ave        5425 max         232 min
Histogram: 8 0 8 0 16 0 8 8 16 40
Neighs:        79213.4 ave      115476 max           0 min
Histogram: 8 4 4 0 10 6 8 8 24 32

Total # of neighbors = 8238193
Ave neighs/atom = 28.530440
Neighbor list builds = 0
Dangerous builds = 0
The dot product: -1.39513238589404e-07
Setting atom values ...
  1 settings made for x
  1 settings made for y
  1 settings made for z
Setting up cg style minimization ...
  Unit style    : metal
  Current step  : 4171
Per MPI rank memory allocation (min/avg/max) = 5.441 | 5.816 | 6.074 Mbytes
Step PotEng KinEng TotEng v_fx v_fy v_fz 
    4171   -1152448.8            0   -1152448.8  0.059043976  0.011348592 0.0024591376 
    4392   -1152448.8            0   -1152448.8 -1.4461767e-05 -2.6273692e-06 -6.2238706e-07 
Loop time of 2.56763 on 104 procs for 221 steps with 288751 atoms

99.9% CPU use with 104 MPI tasks x 1 OpenMP threads

Minimization stats:
  Stopping criterion = energy tolerance
  Energy initial, next-to-last, final = 
     -1152448.83736351  -1152448.83945019  -1152448.83945019
  Force two-norm initial, final = 0.19884636 6.0199581e-05
  Force max component initial, final = 0.091526457 1.4461767e-05
  Final line search alpha, max atom move = 1.0000000 1.4461767e-05
  Iterations, force evaluations = 221 442

MPI task timing breakdown:
Section |  min time  |  avg time  |  max time  |%varavg| %total
---------------------------------------------------------------
Pair    | 0.6681     | 1.8512     | 2.4235     |  36.7 | 72.10
Neigh   | 0          | 0          | 0          |   0.0 |  0.00
Comm    | 0.038799   | 0.41545    | 1.2436     |  54.1 | 16.18
Output  | 0          | 0          | 0          |   0.0 |  0.00
Modify  | 2.6452e-05 | 0.0036394  | 0.0078156  |   2.9 |  0.14
Other   |            | 0.2974     |            |       | 11.58

Nlocal:        2776.45 ave        3961 max           0 min
Histogram: 8 4 4 0 6 10 8 2 28 34
Nghost:        3879.20 ave        5425 max         232 min
Histogram: 8 0 8 0 16 0 8 8 16 40
Neighs:        79213.4 ave      115473 max           0 min
Histogram: 8 4 4 0 10 6 8 8 24 32

Total # of neighbors = 8238190
Ave neighs/atom = 28.530429
Neighbor list builds = 0
Dangerous builds = 0
The dot product: 1.67214398319658e-07
Setting atom values ...
  1 settings made for x
  1 settings made for y
  1 settings made for z
Setting up cg style minimization ...
  Unit style    : metal
  Current step  : 4392
Per MPI rank memory allocation (min/avg/max) = 5.441 | 5.816 | 6.074 Mbytes
Step PotEng KinEng TotEng v_fx v_fy v_fz 
    4392   -1152448.8            0   -1152448.8  0.060272087  0.008358568 0.0044959791 
    4560   -1152448.8            0   -1152448.8 1.5811988e-05  3.82682e-06 9.7458186e-07 
Loop time of 1.95818 on 104 procs for 168 steps with 288751 atoms

99.9% CPU use with 104 MPI tasks x 1 OpenMP threads

Minimization stats:
  Stopping criterion = energy tolerance
  Energy initial, next-to-last, final = 
     -1152448.82087307  -1152448.82295456  -1152448.82295456
  Force two-norm initial, final = 0.20116832 0.00020709615
  Force max component initial, final = 0.096116016 5.7316618e-05
  Final line search alpha, max atom move = 1.0000000 5.7316618e-05
  Iterations, force evaluations = 168 336

MPI task timing breakdown:
Section |  min time  |  avg time  |  max time  |%varavg| %total
---------------------------------------------------------------
Pair    | 0.50895    | 1.4129     | 1.8562     |  32.1 | 72.16
Neigh   | 0          | 0          | 0          |   0.0 |  0.00
Comm    | 0.029915   | 0.31746    | 0.95263    |  47.1 | 16.21
Output  | 0          | 0          | 0          |   0.0 |  0.00
Modify  | 1.9693e-05 | 0.0027682  | 0.0059488  |   2.5 |  0.14
Other   |            | 0.225      |            |       | 11.49

Nlocal:        2776.45 ave        3961 max           0 min
Histogram: 8 4 4 0 6 10 8 2 28 34
Nghost:        3879.20 ave        5425 max         232 min
Histogram: 8 0 8 0 16 0 8 8 16 40
Neighs:        79213.4 ave      115473 max           0 min
Histogram: 8 4 4 0 10 6 8 8 24 32

Total # of neighbors = 8238191
Ave neighs/atom = 28.530433
Neighbor list builds = 0
Dangerous builds = 0
The dot product: -1.22033712756131e-07
Setting atom values ...
  1 settings made for x
  1 settings made for y
  1 settings made for z
Setting up cg style minimization ...
  Unit style    : metal
  Current step  : 4560
Per MPI rank memory allocation (min/avg/max) = 5.441 | 5.816 | 6.074 Mbytes
Step PotEng KinEng TotEng v_fx v_fy v_fz 
    4560   -1152448.8            0   -1152448.8  0.067624571  0.008397349 0.0062580752 
    4754   -1152448.8            0   -1152448.8 2.0847174e-05 3.5888218e-06 1.8089274e-06 
Loop time of 2.24514 on 104 procs for 194 steps with 288751 atoms

99.9% CPU use with 104 MPI tasks x 1 OpenMP threads

Minimization stats:
  Stopping criterion = energy tolerance
  Energy initial, next-to-last, final = 
     -1152448.80301709  -1152448.80502077  -1152448.80502077
  Force two-norm initial, final = 0.2048047 8.2229757e-05
  Force max component initial, final = 0.099095664 2.6856710e-05
  Final line search alpha, max atom move = 1.0000000 2.6856710e-05
  Iterations, force evaluations = 194 388

MPI task timing breakdown:
Section |  min time  |  avg time  |  max time  |%varavg| %total
---------------------------------------------------------------
Pair    | 0.58776    | 1.6223     | 2.1312     |  34.4 | 72.26
Neigh   | 0          | 0          | 0          |   0.0 |  0.00
Comm    | 0.033707   | 0.36286    | 1.0934     |  50.7 | 16.16
Output  | 0          | 0          | 0          |   0.0 |  0.00
Modify  | 2.2828e-05 | 0.003186   | 0.0068383  |   2.7 |  0.14
Other   |            | 0.2568     |            |       | 11.44

Nlocal:        2776.45 ave        3961 max           0 min
Histogram: 8 4 4 0 6 10 8 2 28 34
Nghost:        3879.12 ave        5425 max         232 min
Histogram: 8 0 8 0 16 0 8 8 16 40
Neighs:        79213.4 ave      115466 max           0 min
Histogram: 8 4 4 0 10 6 8 8 24 32

Total # of neighbors = 8238191
Ave neighs/atom = 28.530433
Neighbor list builds = 0
Dangerous builds = 0
The dot product: -8.21108515188361e-08
Setting atom values ...
  1 settings made for x
  1 settings made for y
  1 settings made for z
Setting up cg style minimization ...
  Unit style    : metal
  Current step  : 4754
Per MPI rank memory allocation (min/avg/max) = 5.441 | 5.816 | 6.074 Mbytes
Step PotEng KinEng TotEng v_fx v_fy v_fz 
    4754   -1152448.8            0   -1152448.8  0.074587971 0.0087199571 0.0075626951 
    4965   -1152448.8            0   -1152448.8 -1.2562764e-05 -2.6474518e-06 -1.1365366e-06 
Loop time of 2.48128 on 104 procs for 211 steps with 288751 atoms

99.9% CPU use with 104 MPI tasks x 1 OpenMP threads

Minimization stats:
  Stopping criterion = energy tolerance
  Energy initial, next-to-last, final = 
     -1152448.78370337  -1152448.78564209  -1152448.78564209
  Force two-norm initial, final = 0.20772494 5.3537813e-05
  Force max component initial, final = 0.10050725 1.5637853e-05
  Final line search alpha, max atom move = 1.0000000 1.5637853e-05
  Iterations, force evaluations = 211 422

MPI task timing breakdown:
Section |  min time  |  avg time  |  max time  |%varavg| %total
---------------------------------------------------------------
Pair    | 0.64086    | 1.7807     | 2.3367     |  35.9 | 71.76
Neigh   | 0          | 0          | 0          |   0.0 |  0.00
Comm    | 0.057485   | 0.40388    | 1.2128     |  52.7 | 16.28
Output  | 0          | 0          | 0          |   0.0 |  0.00
Modify  | 2.5069e-05 | 0.0034892  | 0.0074561  |   2.8 |  0.14
Other   |            | 0.2932     |            |       | 11.82

Nlocal:        2776.45 ave        3960 max           0 min
Histogram: 8 4 4 0 4 12 8 2 28 34
Nghost:        3879.12 ave        5424 max         232 min
Histogram: 8 0 8 0 16 0 8 8 16 40
Neighs:        79213.4 ave      115434 max           0 min
Histogram: 8 4 4 0 10 6 8 8 24 32

Total # of neighbors = 8238189
Ave neighs/atom = 28.530426
Neighbor list builds = 0
Dangerous builds = 0
The dot product: 5.09440115572762e-09
Setting atom values ...
  1 settings made for x
  1 settings made for y
  1 settings made for z
Setting up cg style minimization ...
  Unit style    : metal
  Current step  : 4965
Per MPI rank memory allocation (min/avg/max) = 5.441 | 5.816 | 6.074 Mbytes
Step PotEng KinEng TotEng v_fx v_fy v_fz 
    4965   -1152448.8            0   -1152448.8  0.081462995 0.0086062157 0.0084028377 
    5000   -1152448.8            0   -1152448.8 0.00047396288 0.00012143428 4.0828121e-05 
    5117   -1152448.8            0   -1152448.8 2.8815979e-07 -1.7321485e-06 2.2881772e-07 
Loop time of 1.77633 on 104 procs for 152 steps with 288751 atoms

99.9% CPU use with 104 MPI tasks x 1 OpenMP threads

Minimization stats:
  Stopping criterion = energy tolerance
  Energy initial, next-to-last, final = 
     -1152448.76286221  -1152448.76474143  -1152448.76474143
  Force two-norm initial, final = 0.20997924 0.00016632614
  Force max component initial, final = 0.10051476 2.3619078e-05
  Final line search alpha, max atom move = 1.0000000 2.3619078e-05
  Iterations, force evaluations = 152 304

MPI task timing breakdown:
Section |  min time  |  avg time  |  max time  |%varavg| %total
---------------------------------------------------------------
Pair    | 0.46133    | 1.2724     | 1.677      |  30.5 | 71.63
Neigh   | 0          | 0          | 0          |   0.0 |  0.00
Comm    | 0.027711   | 0.28605    | 0.8602     |  44.7 | 16.10
Output  | 0.00014098 | 0.00014325 | 0.00022006 |   0.0 |  0.01
Modify  | 1.7905e-05 | 0.0025175  | 0.0053601  |   2.4 |  0.14
Other   |            | 0.2152     |            |       | 12.11

Nlocal:        2776.45 ave        3960 max           0 min
Histogram: 8 4 4 0 4 12 8 2 28 34
Nghost:        3879.05 ave        5423 max         232 min
Histogram: 8 0 8 0 16 0 8 8 16 40
Neighs:        79213.3 ave      115434 max           0 min
Histogram: 8 4 4 0 10 6 8 8 24 32

Total # of neighbors = 8238188
Ave neighs/atom = 28.530422
Neighbor list builds = 0
Dangerous builds = 0
The dot product: 4.12095369158622e-09
Setting atom values ...
  1 settings made for x
  1 settings made for y
  1 settings made for z
Setting up cg style minimization ...
  Unit style    : metal
  Current step  : 5117
Per MPI rank memory allocation (min/avg/max) = 5.441 | 5.816 | 6.074 Mbytes
Step PotEng KinEng TotEng v_fx v_fy v_fz 
    5117   -1152448.7            0   -1152448.7  0.086973424  0.008250147 0.0086218627 
    5317   -1152448.7            0   -1152448.7 -5.4664127e-06 -1.5940101e-06 -4.2432818e-07 
Loop time of 2.31065 on 104 procs for 200 steps with 288751 atoms

99.9% CPU use with 104 MPI tasks x 1 OpenMP threads

Minimization stats:
  Stopping criterion = energy tolerance
  Energy initial, next-to-last, final = 
     -1152448.74045975  -1152448.74231534  -1152448.74231534
  Force two-norm initial, final = 0.21128096 3.9732689e-05
  Force max component initial, final = 0.099481149 1.0466233e-05
  Final line search alpha, max atom move = 1.0000000 1.0466233e-05
  Iterations, force evaluations = 200 400

MPI task timing breakdown:
Section |  min time  |  avg time  |  max time  |%varavg| %total
---------------------------------------------------------------
Pair    | 0.60699    | 1.6835     | 2.1924     |  35.0 | 72.86
Neigh   | 0          | 0          | 0          |   0.0 |  0.00
Comm    | 0.039081   | 0.37697    | 1.1375     |  51.6 | 16.31
Output  | 0          | 0          | 0          |   0.0 |  0.00
Modify  | 2.436e-05  | 0.003291   | 0.0070949  |   2.7 |  0.14
Other   |            | 0.2469     |            |       | 10.68

Nlocal:        2776.45 ave        3960 max           0 min
Histogram: 8 4 4 0 4 12 8 2 28 34
Nghost:        3879.05 ave        5423 max         232 min
Histogram: 8 0 8 0 16 0 8 8 16 40
Neighs:        79213.3 ave      115427 max           0 min
Histogram: 8 4 4 0 10 6 8 8 24 32

Total # of neighbors = 8238187
Ave neighs/atom = 28.530419
Neighbor list builds = 0
Dangerous builds = 0
The dot product: -2.28828291618116e-08
Setting atom values ...
  1 settings made for x
  1 settings made for y
  1 settings made for z
Setting up cg style minimization ...
  Unit style    : metal
  Current step  : 5317
Per MPI rank memory allocation (min/avg/max) = 5.441 | 5.816 | 6.074 Mbytes
Step PotEng KinEng TotEng v_fx v_fy v_fz 
    5317   -1152448.7            0   -1152448.7  0.090190334 0.0083925499 0.0081945707 
    5476   -1152448.7            0   -1152448.7 -7.8655053e-06 8.1776157e-07 -8.7826993e-07 
Loop time of 1.83923 on 104 procs for 159 steps with 288751 atoms

99.9% CPU use with 104 MPI tasks x 1 OpenMP threads

Minimization stats:
  Stopping criterion = energy tolerance
  Energy initial, next-to-last, final = 
     -1152448.71654352  -1152448.71837446  -1152448.71837446
  Force two-norm initial, final = 0.21135542 0.00013487726
  Force max component initial, final = 0.097655949 4.0330835e-05
  Final line search alpha, max atom move = 1.0000000 4.0330835e-05
  Iterations, force evaluations = 159 318

MPI task timing breakdown:
Section |  min time  |  avg time  |  max time  |%varavg| %total
---------------------------------------------------------------
Pair    | 0.48214    | 1.335      | 1.7455     |  31.3 | 72.59
Neigh   | 0          | 0          | 0          |   0.0 |  0.00
Comm    | 0.029699   | 0.29841    | 0.90452    |  46.4 | 16.22
Output  | 0          | 0          | 0          |   0.0 |  0.00
Modify  | 1.9159e-05 | 0.0026227  | 0.0057078  |   2.4 |  0.14
Other   |            | 0.2032     |            |       | 11.05

Nlocal:        2776.45 ave        3960 max           0 min
Histogram: 8 4 4 0 4 12 8 2 28 34
Nghost:        3878.99 ave        5423 max         232 min
Histogram: 8 0 8 0 16 0 8 8 16 40
Neighs:        79213.3 ave      115427 max           0 min
Histogram: 8 4 4 0 10 6 8 8 24 32

Total # of neighbors = 8238186
Ave neighs/atom = 28.530415
Neighbor list builds = 0
Dangerous builds = 0
The dot product: -4.84703522797532e-08
Setting atom values ...
  1 settings made for x
  1 settings made for y
  1 settings made for z
Setting up cg style minimization ...
  Unit style    : metal
  Current step  : 5476
Per MPI rank memory allocation (min/avg/max) = 5.441 | 5.816 | 6.074 Mbytes
Step PotEng KinEng TotEng v_fx v_fy v_fz 
    5476   -1152448.7            0   -1152448.7  0.091734133 0.0093216197 0.0073153055 
    5634   -1152448.7            0   -1152448.7 -4.7925818e-05 -7.773018e-06 -3.5259318e-06 
Loop time of 1.83533 on 104 procs for 158 steps with 288751 atoms

99.9% CPU use with 104 MPI tasks x 1 OpenMP threads

Minimization stats:
  Stopping criterion = energy tolerance
  Energy initial, next-to-last, final = 
     -1152448.69113709  -1152448.69293638  -1152448.69293638
  Force two-norm initial, final = 0.21057727 0.00014848847
  Force max component initial, final = 0.095315183 6.1395233e-05
  Final line search alpha, max atom move = 1.0000000 6.1395233e-05
  Iterations, force evaluations = 158 316

MPI task timing breakdown:
Section |  min time  |  avg time  |  max time  |%varavg| %total
---------------------------------------------------------------
Pair    | 0.47955    | 1.3289     | 1.7324     |  31.1 | 72.41
Neigh   | 0          | 0          | 0          |   0.0 |  0.00
Comm    | 0.027332   | 0.29797    | 0.89761    |  45.8 | 16.24
Output  | 0          | 0          | 0          |   0.0 |  0.00
Modify  | 1.8665e-05 | 0.0026126  | 0.0055886  |   2.4 |  0.14
Other   |            | 0.2059     |            |       | 11.22

Nlocal:        2776.45 ave        3960 max           0 min
Histogram: 8 4 4 0 4 12 8 2 28 34
Nghost:        3878.97 ave        5423 max         232 min
Histogram: 8 0 8 0 16 0 8 8 16 40
Neighs:        79213.3 ave      115427 max           0 min
Histogram: 8 4 4 0 10 6 8 8 24 32

Total # of neighbors = 8238188
Ave neighs/atom = 28.530422
Neighbor list builds = 0
Dangerous builds = 0
The dot product: -3.07092873743223e-07
Setting atom values ...
  1 settings made for x
  1 settings made for y
  1 settings made for z
Setting up cg style minimization ...
  Unit style    : metal
  Current step  : 5634
Per MPI rank memory allocation (min/avg/max) = 5.441 | 5.816 | 6.074 Mbytes
Step PotEng KinEng TotEng v_fx v_fy v_fz 
    5634   -1152448.7            0   -1152448.7  0.091961967  0.011184593 0.0061222553 
    5810   -1152448.7            0   -1152448.7 1.2154093e-05 2.4192809e-06 7.1639363e-07 
Loop time of 2.05806 on 104 procs for 176 steps with 288751 atoms

99.9% CPU use with 104 MPI tasks x 1 OpenMP threads

Minimization stats:
  Stopping criterion = energy tolerance
  Energy initial, next-to-last, final = 
     -1152448.66426444  -1152448.66602516  -1152448.66602516
  Force two-norm initial, final = 0.20920848 7.4926255e-05
  Force max component initial, final = 0.092642791 1.6621737e-05
  Final line search alpha, max atom move = 1.0000000 1.6621737e-05
  Iterations, force evaluations = 176 352

MPI task timing breakdown:
Section |  min time  |  avg time  |  max time  |%varavg| %total
---------------------------------------------------------------
Pair    | 0.53438    | 1.475      | 1.9291     |  32.7 | 71.67
Neigh   | 0          | 0          | 0          |   0.0 |  0.00
Comm    | 0.035926   | 0.33048    | 1.0177     |  48.8 | 16.06
Output  | 0          | 0          | 0          |   0.0 |  0.00
Modify  | 2.1082e-05 | 0.0028966  | 0.0062213  |   2.5 |  0.14
Other   |            | 0.2497     |            |       | 12.13

Nlocal:        2776.45 ave        3960 max           0 min
Histogram: 8 4 4 0 4 12 8 2 28 34
Nghost:        3878.99 ave        5423 max         232 min
Histogram: 8 0 8 0 16 0 8 8 16 40
Neighs:        79213.3 ave      115427 max           0 min
Histogram: 8 4 4 0 10 6 8 8 24 32

Total # of neighbors = 8238186
Ave neighs/atom = 28.530415
Neighbor list builds = 0
Dangerous builds = 0
The dot product: 8.39303590026734e-08
Setting atom values ...
  1 settings made for x
  1 settings made for y
  1 settings made for z
Setting up cg style minimization ...
  Unit style    : metal
  Current step  : 5810
Per MPI rank memory allocation (min/avg/max) = 5.441 | 5.816 | 6.074 Mbytes
Step PotEng KinEng TotEng v_fx v_fy v_fz 
    5810   -1152448.6            0   -1152448.6  0.091116215    0.0142082 0.0047038984 
    5968   -1152448.6            0   -1152448.6 -5.1902135e-05 -6.6777225e-06 -2.8149967e-06 
Loop time of 1.8283 on 104 procs for 158 steps with 288751 atoms

99.9% CPU use with 104 MPI tasks x 1 OpenMP threads

Minimization stats:
  Stopping criterion = energy tolerance
  Energy initial, next-to-last, final = 
     -1152448.63595298  -1152448.63767107  -1152448.63767107
  Force two-norm initial, final = 0.20755812 0.00015767247
  Force max component initial, final = 0.091116215 7.0477370e-05
  Final line search alpha, max atom move = 1.0000000 7.0477370e-05
  Iterations, force evaluations = 158 316

MPI task timing breakdown:
Section |  min time  |  avg time  |  max time  |%varavg| %total
---------------------------------------------------------------
Pair    | 0.47747    | 1.3272     | 1.7296     |  31.1 | 72.59
Neigh   | 0          | 0          | 0          |   0.0 |  0.00
Comm    | 0.028418   | 0.29466    | 0.90046    |  46.1 | 16.12
Output  | 0          | 0          | 0          |   0.0 |  0.00
Modify  | 1.8936e-05 | 0.0025992  | 0.0055564  |   2.4 |  0.14
Other   |            | 0.2039     |            |       | 11.15

Nlocal:        2776.45 ave        3960 max           0 min
Histogram: 8 4 4 0 4 12 8 2 28 34
Nghost:        3878.99 ave        5423 max         232 min
Histogram: 8 0 8 0 16 0 8 8 16 40
Neighs:        79213.3 ave      115420 max           0 min
Histogram: 8 4 4 0 10 6 8 8 24 32

Total # of neighbors = 8238188
Ave neighs/atom = 28.530422
Neighbor list builds = 0
Dangerous builds = 0
The dot product: -3.87584475955193e-07
Setting atom values ...
  1 settings made for x
  1 settings made for y
  1 settings made for z
Setting up cg style minimization ...
  Unit style    : metal
  Current step  : 5968
Per MPI rank memory allocation (min/avg/max) = 5.441 | 5.816 | 6.074 Mbytes
Step PotEng KinEng TotEng v_fx v_fy v_fz 
    5968   -1152448.6            0   -1152448.6  0.089030001  0.018686586 0.0030839685 
    6000   -1152448.6            0   -1152448.6 0.0010315625 0.0001504651 4.193405e-05 
    6152   -1152448.6            0   -1152448.6 -7.9564005e-06 -5.1622178e-07 -3.8392605e-07 
Loop time of 2.12508 on 104 procs for 184 steps with 288751 atoms

99.9% CPU use with 104 MPI tasks x 1 OpenMP threads

Minimization stats:
  Stopping criterion = energy tolerance
  Energy initial, next-to-last, final = 
     -1152448.60624029  -1152448.60791408  -1152448.60791408
  Force two-norm initial, final = 0.20561293 6.0369921e-05
  Force max component initial, final = 0.089030001 1.2807020e-05
  Final line search alpha, max atom move = 1.0000000 1.2807020e-05
  Iterations, force evaluations = 184 368

MPI task timing breakdown:
Section |  min time  |  avg time  |  max time  |%varavg| %total
---------------------------------------------------------------
Pair    | 0.55741    | 1.5366     | 2.0166     |  33.4 | 72.31
Neigh   | 0          | 0          | 0          |   0.0 |  0.00
Comm    | 0.032948   | 0.34298    | 1.0353     |  49.4 | 16.14
Output  | 9.1402e-05 | 0.00010003 | 0.00018317 |   0.0 |  0.00
Modify  | 2.2198e-05 | 0.0030351  | 0.0064607  |   2.6 |  0.14
Other   |            | 0.2424     |            |       | 11.40

Nlocal:        2776.45 ave        3960 max           0 min
Histogram: 8 4 4 0 4 12 8 2 28 34
Nghost:        3878.99 ave        5423 max         232 min
Histogram: 8 0 8 0 16 0 8 8 16 40
Neighs:        79213.3 ave      115420 max           0 min
Histogram: 8 4 4 0 10 6 8 8 24 32

Total # of neighbors = 8238188
Ave neighs/atom = 28.530422
Neighbor list builds = 0
Dangerous builds = 0
The dot product: -6.26586964716328e-08
Setting atom values ...
  1 settings made for x
  1 settings made for y
  1 settings made for z
Setting up cg style minimization ...
  Unit style    : metal
  Current step  : 6152
Per MPI rank memory allocation (min/avg/max) = 5.441 | 5.816 | 6.074 Mbytes
Step PotEng KinEng TotEng v_fx v_fy v_fz 
    6152   -1152448.6            0   -1152448.6  0.085987386   0.02383019 0.0013892015 
    6430   -1152448.6            0   -1152448.6 2.1689046e-07 4.3379247e-08 5.0702695e-09 
Loop time of 3.25001 on 104 procs for 278 steps with 288751 atoms

99.9% CPU use with 104 MPI tasks x 1 OpenMP threads

Minimization stats:
  Stopping criterion = energy tolerance
  Energy initial, next-to-last, final = 
     -1152448.57518385  -1152448.57681538  -1152448.57681538
  Force two-norm initial, final = 0.2036134 2.1457160e-06
  Force max component initial, final = 0.086619139 4.9938761e-07
  Final line search alpha, max atom move = 1.0000000 4.9938761e-07
  Iterations, force evaluations = 278 556

MPI task timing breakdown:
Section |  min time  |  avg time  |  max time  |%varavg| %total
---------------------------------------------------------------
Pair    | 0.84151    | 2.3406     | 3.072      |  41.4 | 72.02
Neigh   | 0          | 0          | 0          |   0.0 |  0.00
Comm    | 0.049103   | 0.52579    | 1.5789     |  60.7 | 16.18
Output  | 0          | 0          | 0          |   0.0 |  0.00
Modify  | 3.2358e-05 | 0.004577   | 0.0098034  |   3.2 |  0.14
Other   |            | 0.3791     |            |       | 11.66

Nlocal:        2776.45 ave        3960 max           0 min
Histogram: 8 4 4 0 4 12 8 2 28 34
Nghost:        3879.03 ave        5423 max         232 min
Histogram: 8 0 8 0 16 0 8 8 16 40
Neighs:        79213.4 ave      115420 max           0 min
Histogram: 8 4 4 0 10 6 8 8 24 32

Total # of neighbors = 8238189
Ave neighs/atom = 28.530426
Neighbor list builds = 0
Dangerous builds = 0
The dot product: 1.83846799140755e-09
Setting atom values ...
  1 settings made for x
  1 settings made for y
  1 settings made for z
Setting up cg style minimization ...
  Unit style    : metal
  Current step  : 6430
Per MPI rank memory allocation (min/avg/max) = 5.441 | 5.816 | 6.074 Mbytes
Step PotEng KinEng TotEng v_fx v_fy v_fz 
    6430   -1152448.5            0   -1152448.5  0.081861926  0.032399771 -0.00066986274 
    6696   -1152448.6            0   -1152448.6 -0.00010000872 -1.8508673e-05 -1.2050896e-06 
Loop time of 3.0933 on 104 procs for 266 steps with 288751 atoms

99.9% CPU use with 104 MPI tasks x 1 OpenMP threads

Minimization stats:
  Stopping criterion = energy tolerance
  Energy initial, next-to-last, final = 
     -1152448.54293725  -1152448.61699798  -1152448.61699798
  Force two-norm initial, final = 0.2019576 0.00031655444
  Force max component initial, final = 0.088443146 0.00011126535
  Final line search alpha, max atom move = 1.0000000 0.00011126535
  Iterations, force evaluations = 266 532

MPI task timing breakdown:
Section |  min time  |  avg time  |  max time  |%varavg| %total
---------------------------------------------------------------
Pair    | 0.81102    | 2.2255     | 2.9232     |  40.1 | 71.94
Neigh   | 2.0374e-05 | 0.0059398  | 0.0086037  |   3.2 |  0.19
Comm    | 0.05376    | 0.49786    | 1.4958     |  59.4 | 16.09
Output  | 0          | 0          | 0          |   0.0 |  0.00
Modify  | 3.1715e-05 | 0.0043684  | 0.0093832  |   3.1 |  0.14
Other   |            | 0.3597     |            |       | 11.63

Nlocal:        2776.45 ave        3960 max           0 min
Histogram: 8 4 4 0 4 12 8 2 28 34
Nghost:        3879.01 ave        5423 max         232 min
Histogram: 8 0 8 0 16 0 8 8 16 40
Neighs:        79213.4 ave      115408 max           0 min
Histogram: 8 4 4 0 10 6 8 8 24 32

Total # of neighbors = 8238194
Ave neighs/atom = 28.530443
Neighbor list builds = 2
Dangerous builds = 0
The dot product: -9.83581180291001e-06
Setting atom values ...
  1 settings made for x
  1 settings made for y
  1 settings made for z
Setting up cg style minimization ...
  Unit style    : metal
  Current step  : 6696
Per MPI rank memory allocation (min/avg/max) = 5.441 | 5.816 | 6.074 Mbytes
Step PotEng KinEng TotEng v_fx v_fy v_fz 
    6696   -1152448.6            0   -1152448.6  0.077148143   0.14614735 -0.088000721 
    6885   -1152448.6            0   -1152448.6 -1.7559701e-05 -1.0287441e-05 6.5536352e-06 
Loop time of 2.21728 on 104 procs for 189 steps with 288751 atoms

99.9% CPU use with 104 MPI tasks x 1 OpenMP threads

Minimization stats:
  Stopping criterion = energy tolerance
  Energy initial, next-to-last, final = 
      -1152448.6102501  -1152448.61330998  -1152448.61330998
  Force two-norm initial, final = 0.23186806 0.00023813568
  Force max component initial, final = 0.14614735 5.2642305e-05
  Final line search alpha, max atom move = 1.0000000 5.2642305e-05
  Iterations, force evaluations = 189 378

MPI task timing breakdown:
Section |  min time  |  avg time  |  max time  |%varavg| %total
---------------------------------------------------------------
Pair    | 0.57246    | 1.5949     | 2.085      |  34.1 | 71.93
Neigh   | 0          | 0          | 0          |   0.0 |  0.00
Comm    | 0.034184   | 0.36229    | 1.076      |  49.8 | 16.34
Output  | 0          | 0          | 0          |   0.0 |  0.00
Modify  | 2.1961e-05 | 0.003137   | 0.0066898  |   2.7 |  0.14
Other   |            | 0.2569     |            |       | 11.59

Nlocal:        2776.45 ave        3961 max           0 min
Histogram: 8 4 4 0 6 10 8 2 28 34
Nghost:        3879.11 ave        5424 max         232 min
Histogram: 8 0 8 0 16 0 8 8 16 40
Neighs:        79213.3 ave      115465 max           0 min
Histogram: 8 4 4 0 10 6 8 8 24 32

Total # of neighbors = 8238185
Ave neighs/atom = 28.530412
Neighbor list builds = 0
Dangerous builds = 0
The dot product: -4.206196891018e-07
Setting atom values ...
  1 settings made for x
  1 settings made for y
  1 settings made for z
Setting up cg style minimization ...
  Unit style    : metal
  Current step  : 6885
Per MPI rank memory allocation (min/avg/max) = 5.441 | 5.816 | 6.074 Mbytes
Step PotEng KinEng TotEng v_fx v_fy v_fz 
    6885   -1152448.6            0   -1152448.6  0.066692084  0.034322337 -0.024287137 
    7000     -1152449            0     -1152449 -0.00095482221 0.0045470069 -0.0028727685 
    7183     -1152449            0     -1152449 1.0327097e-06 -1.2700126e-05 8.0814054e-06 
Loop time of 3.46166 on 104 procs for 298 steps with 288751 atoms

99.9% CPU use with 104 MPI tasks x 1 OpenMP threads

Minimization stats:
  Stopping criterion = energy tolerance
  Energy initial, next-to-last, final = 
     -1152448.60654574  -1152448.99287232  -1152448.99287232
  Force two-norm initial, final = 0.15854702 0.00010673297
  Force max component initial, final = 0.07434903 1.5933604e-05
  Final line search alpha, max atom move = 1.0000000 1.5933604e-05
  Iterations, force evaluations = 298 595

MPI task timing breakdown:
Section |  min time  |  avg time  |  max time  |%varavg| %total
---------------------------------------------------------------
Pair    | 0.93312    | 2.4961     | 3.2519     |  42.0 | 72.11
Neigh   | 7.0199e-05 | 0.020764   | 0.030208   |   5.9 |  0.60
Comm    | 0.055808   | 0.55662    | 1.6863     |  63.0 | 16.08
Output  | 0.00010894 | 0.00011429 | 0.00026813 |   0.0 |  0.00
Modify  | 3.5795e-05 | 0.0048902  | 0.010454   |   3.3 |  0.14
Other   |            | 0.3832     |            |       | 11.07

Nlocal:        2776.45 ave        3959 max           0 min
Histogram: 8 4 4 0 4 12 8 2 28 34
Nghost:        3879.12 ave        5424 max         232 min
Histogram: 8 0 8 0 16 0 8 8 16 40
Neighs:        79213.6 ave      115403 max           0 min
Histogram: 8 4 4 0 10 6 8 8 24 32

Total # of neighbors = 8238219
Ave neighs/atom = 28.530530
Neighbor list builds = 7
Dangerous builds = 0
The dot product: -4.72274405331455e-06
Setting atom values ...
  1 settings made for x
  1 settings made for y
  1 settings made for z
Setting up cg style minimization ...
  Unit style    : metal
  Current step  : 7183
Per MPI rank memory allocation (min/avg/max) = 5.441 | 5.816 | 6.074 Mbytes
Step PotEng KinEng TotEng v_fx v_fy v_fz 
    7183     -1152449            0     -1152449  -0.61433921 -0.060287852   0.76136947 
    7450   -1152449.2            0   -1152449.2 -9.7622544e-06 -1.3834375e-05 3.1534267e-05 
Loop time of 3.08593 on 104 procs for 267 steps with 288751 atoms

99.9% CPU use with 104 MPI tasks x 1 OpenMP threads

Minimization stats:
  Stopping criterion = energy tolerance
  Energy initial, next-to-last, final = 
     -1152449.01711727  -1152449.17356083  -1152449.17356083
  Force two-norm initial, final = 0.99217088 0.00011590213
  Force max component initial, final = 0.76136947 3.1727110e-05
  Final line search alpha, max atom move = 1.0000000 3.1727110e-05
  Iterations, force evaluations = 267 534

MPI task timing breakdown:
Section |  min time  |  avg time  |  max time  |%varavg| %total
---------------------------------------------------------------
Pair    | 0.81947    | 2.245      | 2.9064     |  40.2 | 72.75
Neigh   | 2.0181e-05 | 0.0059188  | 0.008561   |   3.2 |  0.19
Comm    | 0.053761   | 0.49864    | 1.514      |  59.7 | 16.16
Output  | 0          | 0          | 0          |   0.0 |  0.00
Modify  | 3.1664e-05 | 0.0043866  | 0.0094178  |   3.1 |  0.14
Other   |            | 0.332      |            |       | 10.76

Nlocal:        2776.45 ave        3939 max           0 min
Histogram: 8 4 4 0 4 12 8 0 28 36
Nghost:        3879.18 ave        5425 max         232 min
Histogram: 8 0 8 0 16 0 8 8 16 40
Neighs:        79213.5 ave      114718 max           0 min
Histogram: 8 4 4 0 9 7 8 8 22 34

Total # of neighbors = 8238204
Ave neighs/atom = 28.530478
Neighbor list builds = 2
Dangerous builds = 0
The dot product: 9.14644898245196e-06
Setting atom values ...
  1 settings made for x
  1 settings made for y
  1 settings made for z
Setting up cg style minimization ...
  Unit style    : metal
  Current step  : 7450
Per MPI rank memory allocation (min/avg/max) = 5.441 | 5.816 | 6.074 Mbytes
Step PotEng KinEng TotEng v_fx v_fy v_fz 
    7450   -1152449.2            0   -1152449.2   0.37927309  0.076076008  -0.23880099 
    7696   -1152449.2            0   -1152449.2 5.735537e-06 5.0883104e-06 -7.7556416e-06 
Loop time of 2.8394 on 104 procs for 246 steps with 288751 atoms

99.9% CPU use with 104 MPI tasks x 1 OpenMP threads

Minimization stats:
  Stopping criterion = energy tolerance
  Energy initial, next-to-last, final = 
     -1152449.19791329  -1152449.22528728  -1152449.22528728
  Force two-norm initial, final = 0.48491051 6.3263083e-05
  Force max component initial, final = 0.37927309 1.1096423e-05
  Final line search alpha, max atom move = 1.0000000 1.1096423e-05
  Iterations, force evaluations = 246 492

MPI task timing breakdown:
Section |  min time  |  avg time  |  max time  |%varavg| %total
---------------------------------------------------------------
Pair    | 0.75151    | 2.0624     | 2.6831     |  38.6 | 72.64
Neigh   | 1.0038e-05 | 0.0029563  | 0.0042663  |   2.2 |  0.10
Comm    | 0.044145   | 0.46019    | 1.3896     |  57.5 | 16.21
Output  | 0          | 0          | 0          |   0.0 |  0.00
Modify  | 2.8935e-05 | 0.0040415  | 0.0086306  |   3.0 |  0.14
Other   |            | 0.3098     |            |       | 10.91

Nlocal:        2776.45 ave        3934 max           0 min
Histogram: 8 4 4 0 4 12 8 0 28 36
Nghost:        3879.15 ave        5426 max         232 min
Histogram: 8 0 8 0 16 0 8 8 16 40
Neighs:        79213.4 ave      114590 max           0 min
Histogram: 8 4 4 0 8 8 8 8 20 36

Total # of neighbors = 8238197
Ave neighs/atom = 28.530454
Neighbor list builds = 1
Dangerous builds = 0
The dot product: 1.13946122838281e-06
Setting atom values ...
  1 settings made for x
  1 settings made for y
  1 settings made for z
Setting up cg style minimization ...
  Unit style    : metal
  Current step  : 7696
Per MPI rank memory allocation (min/avg/max) = 5.441 | 5.816 | 6.074 Mbytes
Step PotEng KinEng TotEng v_fx v_fy v_fz 
    7696   -1152449.2            0   -1152449.2 -0.090381432 0.0011929817  0.054577552 
    7960   -1152449.3            0   -1152449.3 9.6581403e-07 3.3873806e-07 -9.920744e-07 
Loop time of 3.03867 on 104 procs for 264 steps with 288751 atoms

99.9% CPU use with 104 MPI tasks x 1 OpenMP threads

Minimization stats:
  Stopping criterion = energy tolerance
  Energy initial, next-to-last, final = 
     -1152449.24704805  -1152449.25184055  -1152449.25184055
  Force two-norm initial, final = 0.19054226 1.4858208e-05
  Force max component initial, final = 0.090381432 2.8160897e-06
  Final line search alpha, max atom move = 1.0000000 2.8160897e-06
  Iterations, force evaluations = 264 528

MPI task timing breakdown:
Section |  min time  |  avg time  |  max time  |%varavg| %total
---------------------------------------------------------------
Pair    | 0.80263    | 2.2201     | 2.8799     |  40.2 | 73.06
Neigh   | 0          | 0          | 0          |   0.0 |  0.00
Comm    | 0.046527   | 0.49546    | 1.5035     |  59.5 | 16.31
Output  | 0          | 0          | 0          |   0.0 |  0.00
Modify  | 3.3399e-05 | 0.0043517  | 0.0093659  |   3.1 |  0.14
Other   |            | 0.3188     |            |       | 10.49

Nlocal:        2776.45 ave        3933 max           0 min
Histogram: 8 4 4 0 4 12 8 0 26 38
Nghost:        3879.16 ave        5426 max         232 min
Histogram: 8 0 8 0 16 0 8 8 16 40
Neighs:        79213.5 ave      114562 max           0 min
Histogram: 8 4 4 0 8 8 8 8 20 36

Total # of neighbors = 8238205
Ave neighs/atom = 28.530481
Neighbor list builds = 0
Dangerous builds = 0
The dot product: -6.02283062873821e-08
Setting atom values ...
  1 settings made for x
  1 settings made for y
  1 settings made for z
Setting up cg style minimization ...
  Unit style    : metal
  Current step  : 7960
Per MPI rank memory allocation (min/avg/max) = 5.441 | 5.816 | 6.074 Mbytes
Step PotEng KinEng TotEng v_fx v_fy v_fz 
    7960   -1152449.3            0   -1152449.3  0.067596769 0.0062776551 -0.043778918 
    8000   -1152449.3            0   -1152449.3 0.0002180868 0.00018169006 -0.0003230601 
[...]
Histogram: 8 0 8 0 16 0 8 8 16 40
Neighs:        79213.5 ave      115510 max           0 min
Histogram: 8 4 4 0 10 6 8 8 24 32

Total # of neighbors = 8238207
Ave neighs/atom = 28.530488
Neighbor list builds = 0
Dangerous builds = 0
The dot product: -3.70937516539375e-07
Setting atom values ...
  1 settings made for x
  1 settings made for y
  1 settings made for z
Setting up cg style minimization ...
  Unit style    : metal
  Current step  : 26723
Per MPI rank memory allocation (min/avg/max) = 5.441 | 5.816 | 6.074 Mbytes
Step PotEng KinEng TotEng v_fx v_fy v_fz 
   26723     -1152449            0     -1152449  0.010748903 0.0067785407 -0.018161116 
   26908     -1152449            0     -1152449 -3.9829019e-05 1.5238791e-05 9.3114232e-06 
Loop time of 2.13165 on 104 procs for 185 steps with 288751 atoms

99.9% CPU use with 104 MPI tasks x 1 OpenMP threads

Minimization stats:
  Stopping criterion = energy tolerance
  Energy initial, next-to-last, final = 
     -1152448.98338471  -1152448.98494642  -1152448.98494642
  Force two-norm initial, final = 0.16118999 0.00017768087
  Force max component initial, final = 0.09003408 3.9829019e-05
  Final line search alpha, max atom move = 1.0000000 3.9829019e-05
  Iterations, force evaluations = 185 370

MPI task timing breakdown:
Section |  min time  |  avg time  |  max time  |%varavg| %total
---------------------------------------------------------------
Pair    | 0.56072    | 1.5447     | 2.0219     |  33.6 | 72.47
Neigh   | 0          | 0          | 0          |   0.0 |  0.00
Comm    | 0.033084   | 0.34605    | 1.043      |  49.0 | 16.23
Output  | 0          | 0          | 0          |   0.0 |  0.00
Modify  | 2.1935e-05 | 0.0030431  | 0.006497   |   2.6 |  0.14
Other   |            | 0.2378     |            |       | 11.16

Nlocal:        2776.45 ave        3961 max           0 min
Histogram: 8 4 4 0 6 10 8 4 26 34
Nghost:        3879.01 ave        5424 max         232 min
Histogram: 8 0 8 0 16 0 8 8 16 40
Neighs:        79213.5 ave      115520 max           0 min
Histogram: 8 4 4 0 10 6 8 8 24 32

Total # of neighbors = 8238209
Ave neighs/atom = 28.530495
Neighbor list builds = 0
Dangerous builds = 0
The dot product: -2.61707506105571e-07
Setting atom values ...
  1 settings made for x
  1 settings made for y
  1 settings made for z
Setting up cg style minimization ...
  Unit style    : metal
  Current step  : 26908
Per MPI rank memory allocation (min/avg/max) = 5.441 | 5.816 | 6.074 Mbytes
Step PotEng KinEng TotEng v_fx v_fy v_fz 
   26908   -1152448.9            0   -1152448.9   0.01362862 0.0065141465 -0.019993978 
   27000   -1152448.9            0   -1152448.9 0.00013939236 4.560397e-05 -0.0001744672 
   27121   -1152448.9            0   -1152448.9 -3.4552779e-06 -1.828663e-06 5.3221108e-06 
Loop time of 2.49003 on 104 procs for 213 steps with 288751 atoms

99.9% CPU use with 104 MPI tasks x 1 OpenMP threads

Minimization stats:
  Stopping criterion = energy tolerance
  Energy initial, next-to-last, final = 
     -1152448.94618327  -1152448.94756138  -1152448.94756138
  Force two-norm initial, final = 0.15842771 7.9002688e-05
  Force max component initial, final = 0.088846663 9.0136029e-06
  Final line search alpha, max atom move = 1.0000000 9.0136029e-06
  Iterations, force evaluations = 213 426

MPI task timing breakdown:
Section |  min time  |  avg time  |  max time  |%varavg| %total
---------------------------------------------------------------
Pair    | 0.64611    | 1.7806     | 2.3484     |  36.0 | 71.51
Neigh   | 0          | 0          | 0          |   0.0 |  0.00
Comm    | 0.037103   | 0.40395    | 1.2201     |  52.1 | 16.22
Output  | 0.00011085 | 0.00011514 | 0.00024432 |   0.0 |  0.00
Modify  | 2.5432e-05 | 0.0035027  | 0.0074921  |   2.8 |  0.14
Other   |            | 0.3019     |            |       | 12.12

Nlocal:        2776.45 ave        3961 max           0 min
Histogram: 8 4 4 0 6 10 8 4 26 34
Nghost:        3879.00 ave        5424 max         232 min
Histogram: 8 0 8 0 16 0 8 8 16 40
Neighs:        79213.5 ave      115522 max           0 min
Histogram: 8 4 4 0 10 6 8 8 24 32

Total # of neighbors = 8238207
Ave neighs/atom = 28.530488
Neighbor list builds = 0
Dangerous builds = 0
The dot product: 9.37248906722383e-09
Setting atom values ...
  1 settings made for x
  1 settings made for y
  1 settings made for z
Setting up cg style minimization ...
  Unit style    : metal
  Current step  : 27121
Per MPI rank memory allocation (min/avg/max) = 5.441 | 5.816 | 6.074 Mbytes
Step PotEng KinEng TotEng v_fx v_fy v_fz 
   27121   -1152448.9            0   -1152448.9  0.016419125 0.0068431569 -0.022635277 
   27343   -1152448.9            0   -1152448.9 3.3197308e-06 8.9864574e-07 -3.886287e-06 
Loop time of 2.56085 on 104 procs for 222 steps with 288751 atoms

99.9% CPU use with 104 MPI tasks x 1 OpenMP threads

Minimization stats:
  Stopping criterion = energy tolerance
  Energy initial, next-to-last, final = 
     -1152448.90741337  -1152448.90869492  -1152448.90869492
  Force two-norm initial, final = 0.15594195 5.1494950e-05
  Force max component initial, final = 0.088123116 7.8874210e-06
  Final line search alpha, max atom move = 1.0000000 7.8874210e-06
  Iterations, force evaluations = 222 444

MPI task timing breakdown:
Section |  min time  |  avg time  |  max time  |%varavg| %total
---------------------------------------------------------------
Pair    | 0.67286    | 1.8541     | 2.4286     |  36.7 | 72.40
Neigh   | 0          | 0          | 0          |   0.0 |  0.00
Comm    | 0.038777   | 0.4168     | 1.2505     |  53.5 | 16.28
Output  | 0          | 0          | 0          |   0.0 |  0.00
Modify  | 2.6607e-05 | 0.0036477  | 0.0077894  |   2.8 |  0.14
Other   |            | 0.2863     |            |       | 11.18

Nlocal:        2776.45 ave        3961 max           0 min
Histogram: 8 4 4 0 6 10 8 4 26 34
Nghost:        3878.93 ave        5424 max         232 min
Histogram: 8 0 8 0 16 0 8 8 16 40
Neighs:        79213.6 ave      115526 max           0 min
Histogram: 8 4 4 0 10 6 8 8 24 32

Total # of neighbors = 8238210
Ave neighs/atom = 28.530499
Neighbor list builds = 0
Dangerous builds = 0
The dot product: 2.5619106922672e-09
Setting atom values ...
  1 settings made for x
  1 settings made for y
  1 settings made for z
Setting up cg style minimization ...
  Unit style    : metal
  Current step  : 27343
Per MPI rank memory allocation (min/avg/max) = 5.441 | 5.816 | 6.074 Mbytes
Step PotEng KinEng TotEng v_fx v_fy v_fz 
   27343   -1152448.9            0   -1152448.9  0.021630143 0.0064549403 -0.026182814 
   27544   -1152448.9            0   -1152448.9 -3.5763421e-06 2.0635014e-06 -1.1515939e-07 
Loop time of 2.34833 on 104 procs for 201 steps with 288751 atoms

99.9% CPU use with 104 MPI tasks x 1 OpenMP threads

Minimization stats:
  Stopping criterion = energy tolerance
  Energy initial, next-to-last, final = 
     -1152448.86729255  -1152448.86846506  -1152448.86846506
  Force two-norm initial, final = 0.15399948 8.5404898e-05
  Force max component initial, final = 0.087477086 1.6416251e-05
  Final line search alpha, max atom move = 1.0000000 1.6416251e-05
  Iterations, force evaluations = 201 402

MPI task timing breakdown:
Section |  min time  |  avg time  |  max time  |%varavg| %total
---------------------------------------------------------------
Pair    | 0.60914    | 1.6856     | 2.2226     |  35.1 | 71.78
Neigh   | 0          | 0          | 0          |   0.0 |  0.00
Comm    | 0.036702   | 0.37994    | 1.1356     |  50.6 | 16.18
Output  | 0          | 0          | 0          |   0.0 |  0.00
Modify  | 2.423e-05  | 0.0033056  | 0.0071036  |   2.7 |  0.14
Other   |            | 0.2795     |            |       | 11.90

Nlocal:        2776.45 ave        3961 max           0 min
Histogram: 8 4 4 0 6 10 8 4 26 34
Nghost:        3878.85 ave        5423 max         232 min
Histogram: 8 0 8 0 16 0 8 8 16 40
Neighs:        79213.6 ave      115528 max           0 min
Histogram: 8 4 4 0 10 6 8 8 24 32

Total # of neighbors = 8238211
Ave neighs/atom = 28.530502
Neighbor list builds = 0
Dangerous builds = 0
The dot product: -2.19454882664851e-08
Setting atom values ...
  1 settings made for x
  1 settings made for y
  1 settings made for z
Setting up cg style minimization ...
  Unit style    : metal
  Current step  : 27544
Per MPI rank memory allocation (min/avg/max) = 5.441 | 5.816 | 6.074 Mbytes
Step PotEng KinEng TotEng v_fx v_fy v_fz 
   27544   -1152448.8            0   -1152448.8  0.029983491 0.0063849842 -0.032724616 
   27660   -1152448.8            0   -1152448.8 2.0038648e-05 -1.9963388e-05 1.2484483e-05 
Loop time of 1.34108 on 104 procs for 116 steps with 288751 atoms

99.9% CPU use with 104 MPI tasks x 1 OpenMP threads

Minimization stats:
  Stopping criterion = energy tolerance
  Energy initial, next-to-last, final = 
     -1152448.82605427  -1152448.82731241  -1152448.82731241
  Force two-norm initial, final = 0.15507111 0.00015897924
  Force max component initial, final = 0.086909139 5.0910905e-05
  Final line search alpha, max atom move = 1.0000000 5.0910905e-05
  Iterations, force evaluations = 116 232

MPI task timing breakdown:
Section |  min time  |  avg time  |  max time  |%varavg| %total
---------------------------------------------------------------
Pair    | 0.35042    | 0.9711     | 1.272      |  26.6 | 72.41
Neigh   | 0          | 0          | 0          |   0.0 |  0.00
Comm    | 0.020809   | 0.21991    | 0.65836    |  38.5 | 16.40
Output  | 0          | 0          | 0          |   0.0 |  0.00
Modify  | 1.3822e-05 | 0.0019196  | 0.004072   |   2.1 |  0.14
Other   |            | 0.1482     |            |       | 11.05

Nlocal:        2776.45 ave        3961 max           0 min
Histogram: 8 4 4 0 6 10 8 4 26 34
Nghost:        3878.83 ave        5423 max         232 min
Histogram: 8 0 8 0 16 0 8 8 16 40
Neighs:        79213.6 ave      115529 max           0 min
Histogram: 8 4 4 0 10 6 8 8 24 32

Total # of neighbors = 8238211
Ave neighs/atom = 28.530502
Neighbor list builds = 0
Dangerous builds = 0
The dot product: 1.76150953900025e-07
Setting atom values ...
  1 settings made for x
  1 settings made for y
  1 settings made for z
Setting up cg style minimization ...
  Unit style    : metal
  Current step  : 27660
Per MPI rank memory allocation (min/avg/max) = 5.441 | 5.816 | 6.074 Mbytes
Step PotEng KinEng TotEng v_fx v_fy v_fz 
   27660   -1152448.8            0   -1152448.8  0.044679806 0.0060415144 -0.044249487 
   27919   -1152448.8            0   -1152448.8 -3.7129437e-07 7.2037255e-08 1.9396672e-07 
Loop time of 3.00604 on 104 procs for 259 steps with 288751 atoms

99.9% CPU use with 104 MPI tasks x 1 OpenMP threads

Minimization stats:
  Stopping criterion = energy tolerance
  Energy initial, next-to-last, final = 
     -1152448.78490171  -1152448.78766832  -1152448.78766832
  Force two-norm initial, final = 0.1631474 1.4321339e-05
  Force max component initial, final = 0.08614197 2.8924278e-06
  Final line search alpha, max atom move = 1.0000000 2.8924278e-06
  Iterations, force evaluations = 259 518

MPI task timing breakdown:
Section |  min time  |  avg time  |  max time  |%varavg| %total
---------------------------------------------------------------
Pair    | 0.78598    | 2.165      | 2.8479     |  39.7 | 72.02
Neigh   | 0          | 0          | 0          |   0.0 |  0.00
Comm    | 0.053128   | 0.4885     | 1.479      |  57.5 | 16.25
Output  | 0          | 0          | 0          |   0.0 |  0.00
Modify  | 3.0289e-05 | 0.0042648  | 0.0090832  |   3.1 |  0.14
Other   |            | 0.3482     |            |       | 11.58

Nlocal:        2776.45 ave        3961 max           0 min
Histogram: 8 4 4 0 6 10 8 4 26 34
Nghost:        3878.83 ave        5423 max         232 min
Histogram: 8 0 8 0 16 0 8 8 16 40
Neighs:        79213.6 ave      115530 max           0 min
Histogram: 8 4 4 0 10 6 8 8 24 32

Total # of neighbors = 8238211
Ave neighs/atom = 28.530502
Neighbor list builds = 0
Dangerous builds = 0
The dot product: -1.40674098550496e-08
Setting atom values ...
  1 settings made for x
  1 settings made for y
  1 settings made for z
Setting up cg style minimization ...
  Unit style    : metal
  Current step  : 27919
Per MPI rank memory allocation (min/avg/max) = 5.441 | 5.816 | 6.074 Mbytes
Step PotEng KinEng TotEng v_fx v_fy v_fz 
   27919   -1152448.7            0   -1152448.7  0.055937513 0.0048226771 -0.053011687 
   28000   -1152448.7            0   -1152448.7 3.383108e-05 -3.3315734e-05 2.002837e-05 
   28068   -1152448.7            0   -1152448.7 1.423716e-05 -7.5186251e-06 -9.1860594e-07 
Loop time of 1.72252 on 104 procs for 149 steps with 288751 atoms

99.9% CPU use with 104 MPI tasks x 1 OpenMP threads

Minimization stats:
  Stopping criterion = energy tolerance
  Energy initial, next-to-last, final = 
     -1152448.74754326  -1152448.74938366  -1152448.74938366
  Force two-norm initial, final = 0.16569013 0.00020316675
  Force max component initial, final = 0.084287276 5.4671868e-05
  Final line search alpha, max atom move = 1.0000000 5.4671868e-05
  Iterations, force evaluations = 149 298

MPI task timing breakdown:
Section |  min time  |  avg time  |  max time  |%varavg| %total
---------------------------------------------------------------
Pair    | 0.45261    | 1.2464     | 1.6335     |  30.2 | 72.36
Neigh   | 0          | 0          | 0          |   0.0 |  0.00
Comm    | 0.027343   | 0.28153    | 0.84602    |  43.7 | 16.34
Output  | 9.9265e-05 | 0.00010662 | 0.00023832 |   0.0 |  0.01
Modify  | 1.7902e-05 | 0.0024614  | 0.0052429  |   2.3 |  0.14
Other   |            | 0.192      |            |       | 11.15

Nlocal:        2776.45 ave        3961 max           0 min
Histogram: 8 4 4 0 6 10 8 4 26 34
Nghost:        3878.88 ave        5424 max         232 min
Histogram: 8 0 8 0 16 0 8 8 16 40
Neighs:        79213.6 ave      115533 max           0 min
Histogram: 8 4 4 0 10 6 8 8 24 32

Total # of neighbors = 8238212
Ave neighs/atom = 28.530506
Neighbor list builds = 0
Dangerous builds = 0
The dot product: 2.68269959286774e-07
Setting atom values ...
  1 settings made for x
  1 settings made for y
  1 settings made for z
Setting up cg style minimization ...
  Unit style    : metal
  Current step  : 28068
Per MPI rank memory allocation (min/avg/max) = 5.441 | 5.816 | 6.074 Mbytes
Step PotEng KinEng TotEng v_fx v_fy v_fz 
   28068   -1152448.7            0   -1152448.7  0.048908979 0.0032562223 -0.045788509 
   28180   -1152448.7            0   -1152448.7 3.0258187e-05 -4.7116555e-07 -2.4730803e-05 
Loop time of 1.30364 on 104 procs for 112 steps with 288751 atoms

99.9% CPU use with 104 MPI tasks x 1 OpenMP threads

Minimization stats:
  Stopping criterion = energy tolerance
  Energy initial, next-to-last, final = 
     -1152448.70975139  -1152448.71115228  -1152448.71115228
  Force two-norm initial, final = 0.1583718 0.00019654279
  Force max component initial, final = 0.082866475 5.1510567e-05
  Final line search alpha, max atom move = 1.0000000 5.1510567e-05
  Iterations, force evaluations = 112 224

MPI task timing breakdown:
Section |  min time  |  avg time  |  max time  |%varavg| %total
---------------------------------------------------------------
Pair    | 0.34153    | 0.93878    | 1.2369     |  26.1 | 72.01
Neigh   | 0          | 0          | 0          |   0.0 |  0.00
Comm    | 0.019279   | 0.21324    | 0.6369     |  37.6 | 16.36
Output  | 0          | 0          | 0          |   0.0 |  0.00
Modify  | 1.3384e-05 | 0.0018477  | 0.0039471  |   2.0 |  0.14
Other   |            | 0.1498     |            |       | 11.49

Nlocal:        2776.45 ave        3961 max           0 min
Histogram: 8 4 4 0 6 10 8 4 26 34
Nghost:        3878.91 ave        5424 max         232 min
Histogram: 8 0 8 0 16 0 8 8 16 40
Neighs:        79213.5 ave      115525 max           0 min
Histogram: 8 4 4 0 10 6 8 8 24 32

Total # of neighbors = 8238209
Ave neighs/atom = 28.530495
Neighbor list builds = 0
Dangerous builds = 0
The dot product: 5.89547683437363e-07
Setting atom values ...
  1 settings made for x
  1 settings made for y
  1 settings made for z
Setting up cg style minimization ...
  Unit style    : metal
  Current step  : 28180
Per MPI rank memory allocation (min/avg/max) = 5.441 | 5.816 | 6.074 Mbytes
Step PotEng KinEng TotEng v_fx v_fy v_fz 
   28180   -1152448.7            0   -1152448.7  0.047836587 0.0019116409 -0.043509229 
   28403   -1152448.7            0   -1152448.7 -2.8547838e-06 -2.1634065e-06 5.5742179e-06 
Loop time of 2.61522 on 104 procs for 223 steps with 288751 atoms

99.9% CPU use with 104 MPI tasks x 1 OpenMP threads

Minimization stats:
  Stopping criterion = energy tolerance
  Energy initial, next-to-last, final = 
     -1152448.67161743  -1152448.67316589  -1152448.67316589
  Force two-norm initial, final = 0.15576922 5.5437397e-05
  Force max component initial, final = 0.081369954 1.1772599e-05
  Final line search alpha, max atom move = 1.0000000 1.1772599e-05
  Iterations, force evaluations = 223 446

MPI task timing breakdown:
Section |  min time  |  avg time  |  max time  |%varavg| %total
---------------------------------------------------------------
Pair    | 0.68174    | 1.8656     | 2.4423     |  36.7 | 71.34
Neigh   | 0          | 0          | 0          |   0.0 |  0.00
Comm    | 0.042437   | 0.42173    | 1.2609     |  53.4 | 16.13
Output  | 0          | 0          | 0          |   0.0 |  0.00
Modify  | 2.6294e-05 | 0.0036726  | 0.0078162  |   2.9 |  0.14
Other   |            | 0.3242     |            |       | 12.40

Nlocal:        2776.45 ave        3961 max           0 min
Histogram: 8 4 4 0 6 10 8 4 26 34
Nghost:        3878.91 ave        5424 max         232 min
Histogram: 8 0 8 0 16 0 8 8 16 40
Neighs:        79213.6 ave      115528 max           0 min
Histogram: 8 4 4 0 10 6 8 8 24 32

Total # of neighbors = 8238212
Ave neighs/atom = 28.530506
Neighbor list builds = 0
Dangerous builds = 0
The dot product: -1.24231070635253e-07
Setting atom values ...
  1 settings made for x
  1 settings made for y
  1 settings made for z
Setting up cg style minimization ...
  Unit style    : metal
  Current step  : 28403
Per MPI rank memory allocation (min/avg/max) = 5.441 | 5.816 | 6.074 Mbytes
Step PotEng KinEng TotEng v_fx v_fy v_fz 
   28403   -1152448.6            0   -1152448.6   0.06557263 0.00014611275 -0.057238378 
   28634   -1152448.7            0   -1152448.7 -8.3884072e-06 -1.2356401e-05 2.5372985e-05 
Loop time of 2.68437 on 104 procs for 231 steps with 288751 atoms

99.9% CPU use with 104 MPI tasks x 1 OpenMP threads

Minimization stats:
  Stopping criterion = energy tolerance
  Energy initial, next-to-last, final = 
     -1152448.63518782   -1152448.6649302   -1152448.6649302
  Force two-norm initial, final = 0.16923114 0.00016547857
  Force max component initial, final = 0.078966345 2.5372985e-05
  Final line search alpha, max atom move = 1.0000000 2.5372985e-05
  Iterations, force evaluations = 231 462

MPI task timing breakdown:
Section |  min time  |  avg time  |  max time  |%varavg| %total
---------------------------------------------------------------
Pair    | 0.70816    | 1.9341     | 2.5367     |  37.4 | 72.05
Neigh   | 1.0097e-05 | 0.0029577  | 0.0042952  |   2.2 |  0.11
Comm    | 0.046695   | 0.4375     | 1.3122     |  54.2 | 16.30
Output  | 0          | 0          | 0          |   0.0 |  0.00
Modify  | 2.7382e-05 | 0.0037967  | 0.0081394  |   2.9 |  0.14
Other   |            | 0.3061     |            |       | 11.40

Nlocal:        2776.45 ave        3961 max           0 min
Histogram: 8 4 4 0 6 10 8 4 26 34
Nghost:        3878.97 ave        5424 max         232 min
Histogram: 8 0 8 0 16 0 8 8 16 40
Neighs:        79213.6 ave      115534 max           0 min
Histogram: 8 4 4 0 10 6 8 8 24 32

Total # of neighbors = 8238214
Ave neighs/atom = 28.530512
Neighbor list builds = 1
Dangerous builds = 0
The dot product: -1.97559058003352e-06
