LAMMPS (29 Oct 2020)
OMP_NUM_THREADS environment is not set. Defaulting to 1 thread. (../comm.cpp:94)
  using 1 OpenMP thread(s) per MPI task
OMP_NUM_THREADS environment is not set. Defaulting to 1 thread. (../comm.cpp:94)
  using 1 OpenMP thread(s) per MPI task
Reading data file ...
  orthogonal box = (-122.39241 -121.13707 -37.090501) to (122.39241 121.13707 37.090501)
  13 by 4 by 1 MPI processor grid
  reading atoms ...
  288751 atoms
  read_data CPU = 0.435 seconds
199981 atoms in group inner
88770 atoms in group outer
1 atoms in group carbon
Neighbor list info ...
  update every 1 steps, delay 0 steps, check yes
  max neighbors/atom: 2000, page size: 100000
  master list distance cutoff = 5.6
  ghost atom cutoff = 5.6
  binsize = 2.8, bins = 88 87 27
  1 neighbor lists, perpetual/occasional/extra = 1 0 0
  (1) pair eam/alloy, perpetual
      attributes: half, newton on
      pair build: half/bin/atomonly/newton
      stencil: half/bin/3d/newton
      bin: standard
Setting up cg style minimization ...
  Unit style    : metal
  Current step  : 0
Per MPI rank memory allocation (min/avg/max) = 5.465 | 6.344 | 6.728 Mbytes
Step v_fx v_fy v_fz PotEng KinEng TotEng 
       0    25.713276    15.281601   -50.644842   -1152433.2            0   -1152433.2 
     163 1.758095e-05 2.455951e-05 1.2955556e-05   -1152449.5            0   -1152449.5 
Loop time of 3.52357 on 52 procs for 163 steps with 288751 atoms

99.9% CPU use with 52 MPI tasks x 1 OpenMP threads

Minimization stats:
  Stopping criterion = energy tolerance
  Energy initial, next-to-last, final = 
     -1152433.24353108  -1152449.45035259  -1152449.45035259
  Force two-norm initial, final = 88.144329 0.00014559363
  Force max component initial, final = 57.823541 2.4559510e-05
  Final line search alpha, max atom move = 1.0000000 2.4559510e-05
  Iterations, force evaluations = 163 317

MPI task timing breakdown:
Section |  min time  |  avg time  |  max time  |%varavg| %total
---------------------------------------------------------------
Pair    | 0.9516     | 2.5489     | 3.3218     |  43.0 | 72.34
Neigh   | 0.00010892 | 0.03244    | 0.045066   |   7.6 |  0.92
Comm    | 0.048614   | 0.56587    | 1.7939     |  67.3 | 16.06
Output  | 0          | 0          | 0          |   0.0 |  0.00
Modify  | 5.5151e-05 | 0.0035009  | 0.0087589  |   3.6 |  0.10
Other   |            | 0.3729     |            |       | 10.58

Nlocal:        5552.90 ave        7911 max           0 min
Histogram: 4 2 2 0 2 6 4 0 15 17
Nghost:        6213.54 ave        8769 max         412 min
Histogram: 4 0 4 0 8 0 4 5 7 20
Neighs:       158427.0 ave      230575 max           0 min
Histogram: 4 2 2 0 5 3 4 4 12 16

Total # of neighbors = 8238207
Ave neighs/atom = 28.530488
Neighbor list builds = 5
Dangerous builds = 0
Setting atom values ...
  1 settings made for x
  1 settings made for y
  1 settings made for z
Setting up cg style minimization ...
  Unit style    : metal
  Current step  : 163
Per MPI rank memory allocation (min/avg/max) = 5.465 | 6.344 | 6.728 Mbytes
Step PotEng KinEng TotEng v_fx v_fy v_fz 
     163   -1152449.4            0   -1152449.4 0.0074250046 -0.015038692 -0.024549333 
     276   -1152449.5            0   -1152449.5 -3.725173e-05 3.4553978e-06 6.1577509e-05 
Loop time of 2.49253 on 52 procs for 113 steps with 288751 atoms

99.9% CPU use with 52 MPI tasks x 1 OpenMP threads

Minimization stats:
  Stopping criterion = energy tolerance
  Energy initial, next-to-last, final = 
     -1152449.44965292  -1152449.45007903  -1152449.45007903
  Force two-norm initial, final = 0.094074862 0.00035255151
  Force max component initial, final = 0.043962984 7.7621870e-05
  Final line search alpha, max atom move = 1.0000000 7.7621870e-05
  Iterations, force evaluations = 113 226

MPI task timing breakdown:
Section |  min time  |  avg time  |  max time  |%varavg| %total
---------------------------------------------------------------
Pair    | 0.63878    | 1.8036     | 2.3833     |  37.4 | 72.36
Neigh   | 0          | 0          | 0          |   0.0 |  0.00
Comm    | 0.032695   | 0.40207    | 1.2567     |  56.5 | 16.13
Output  | 0          | 0          | 0          |   0.0 |  0.00
Modify  | 4.6094e-05 | 0.0037923  | 0.0079947  |   2.9 |  0.15
Other   |            | 0.2831     |            |       | 11.36

Nlocal:        5552.90 ave        7910 max           0 min
Histogram: 4 2 2 0 2 6 4 0 15 17
Nghost:        6213.54 ave        8769 max         412 min
Histogram: 4 0 4 0 8 0 4 5 7 20
Neighs:       158427.0 ave      230571 max           0 min
Histogram: 4 2 2 0 5 3 4 4 12 16

Total # of neighbors = 8238197
Ave neighs/atom = 28.530454
Neighbor list builds = 0
Dangerous builds = 0
Setting atom values ...
  1 settings made for x
  1 settings made for y
  1 settings made for z
Setting up cg style minimization ...
  Unit style    : metal
  Current step  : 276
Per MPI rank memory allocation (min/avg/max) = 5.465 | 6.344 | 6.728 Mbytes
Step PotEng KinEng TotEng v_fx v_fy v_fz 
     276   -1152449.4            0   -1152449.4 0.0083024928  -0.01686544 -0.038749937 
     450   -1152449.4            0   -1152449.4 -2.983261e-05 -1.5807922e-05 4.1011705e-05 
Loop time of 3.83177 on 52 procs for 174 steps with 288751 atoms

99.9% CPU use with 52 MPI tasks x 1 OpenMP threads

Minimization stats:
  Stopping criterion = linesearch alpha is zero
  Energy initial, next-to-last, final = 
     -1152449.44696488  -1152449.44825619  -1152449.44825619
  Force two-norm initial, final = 0.16084481 0.00018831102
  Force max component initial, final = 0.087380636 4.1011705e-05
  Final line search alpha, max atom move = 0.25 1.0252926e-05
  Iterations, force evaluations = 174 351

MPI task timing breakdown:
Section |  min time  |  avg time  |  max time  |%varavg| %total
---------------------------------------------------------------
Pair    | 0.99668    | 2.7925     | 3.6703     |  46.3 | 72.88
Neigh   | 0          | 0          | 0          |   0.0 |  0.00
Comm    | 0.049348   | 0.61629    | 1.9457     |  70.8 | 16.08
Output  | 0          | 0          | 0          |   0.0 |  0.00
Modify  | 7.3541e-05 | 0.005881   | 0.012355   |   3.6 |  0.15
Other   |            | 0.4171     |            |       | 10.88

Nlocal:        5552.90 ave        7910 max           0 min
Histogram: 4 2 2 0 2 6 4 0 15 17
Nghost:        6213.54 ave        8769 max         412 min
Histogram: 4 0 4 0 8 0 4 5 7 20
Neighs:       158427.0 ave      230571 max           0 min
Histogram: 4 2 2 0 5 3 4 4 12 16

Total # of neighbors = 8238196
Ave neighs/atom = 28.530450
Neighbor list builds = 0
Dangerous builds = 0
The dot product: -8.57443235590693e-08
Setting atom values ...
  1 settings made for x
  1 settings made for y
  1 settings made for z
Setting up cg style minimization ...
  Unit style    : metal
  Current step  : 450
Per MPI rank memory allocation (min/avg/max) = 5.465 | 6.344 | 6.728 Mbytes
Step PotEng KinEng TotEng v_fx v_fy v_fz 
     450   -1152449.4            0   -1152449.4 0.0057205853 -0.0095111028 -0.031037723 
     588   -1152449.4            0   -1152449.4 -1.8210131e-06 1.6676774e-05 3.3233598e-05 
Loop time of 3.04439 on 52 procs for 138 steps with 288751 atoms

99.8% CPU use with 52 MPI tasks x 1 OpenMP threads

Minimization stats:
  Stopping criterion = linesearch alpha is zero
  Energy initial, next-to-last, final = 
     -1152449.44359035  -1152449.44482324  -1152449.44482324
  Force two-norm initial, final = 0.15504576 0.00015666776
  Force max component initial, final = 0.092443696 3.3233598e-05
  Final line search alpha, max atom move = 0.5 1.6616799e-05
  Iterations, force evaluations = 138 277

MPI task timing breakdown:
Section |  min time  |  avg time  |  max time  |%varavg| %total
---------------------------------------------------------------
Pair    | 0.78486    | 2.2153     | 2.897      |  41.3 | 72.77
Neigh   | 0          | 0          | 0          |   0.0 |  0.00
Comm    | 0.037428   | 0.48859    | 1.5405     |  63.0 | 16.05
Output  | 0          | 0          | 0          |   0.0 |  0.00
Modify  | 5.3845e-05 | 0.0046468  | 0.0097787  |   3.2 |  0.15
Other   |            | 0.3358     |            |       | 11.03

Nlocal:        5552.90 ave        7909 max           0 min
Histogram: 4 2 2 0 2 6 4 0 15 17
Nghost:        6213.54 ave        8769 max         412 min
Histogram: 4 0 4 0 8 0 4 5 7 20
Neighs:       158427.0 ave      230537 max           0 min
Histogram: 4 2 2 0 5 3 4 4 12 16

Total # of neighbors = 8238193
Ave neighs/atom = 28.530440
Neighbor list builds = 0
Dangerous builds = 0
The dot product: -8.18393462649255e-08
Setting atom values ...
  1 settings made for x
  1 settings made for y
  1 settings made for z
Setting up cg style minimization ...
  Unit style    : metal
  Current step  : 588
Per MPI rank memory allocation (min/avg/max) = 5.465 | 6.344 | 6.728 Mbytes
Step PotEng KinEng TotEng v_fx v_fy v_fz 
     588   -1152449.4            0   -1152449.4 0.0022037539 -0.0088837649 -0.024623483 
     763   -1152449.4            0   -1152449.4 5.5033578e-06 1.6908521e-05 1.7640159e-05 
Loop time of 3.8448 on 52 procs for 175 steps with 288751 atoms

99.9% CPU use with 52 MPI tasks x 1 OpenMP threads

Minimization stats:
  Stopping criterion = energy tolerance
  Energy initial, next-to-last, final = 
     -1152449.43869647   -1152449.4398811   -1152449.4398811
  Force two-norm initial, final = 0.15156387 0.00012516468
  Force max component initial, final = 0.096121605 1.9197834e-05
  Final line search alpha, max atom move = 1.0000000 1.9197834e-05
  Iterations, force evaluations = 175 352

MPI task timing breakdown:
Section |  min time  |  avg time  |  max time  |%varavg| %total
---------------------------------------------------------------
Pair    | 0.99711    | 2.7964     | 3.685      |  46.4 | 72.73
Neigh   | 0          | 0          | 0          |   0.0 |  0.00
Comm    | 0.049124   | 0.61832    | 1.9476     |  70.9 | 16.08
Output  | 0          | 0          | 0          |   0.0 |  0.00
Modify  | 7.1678e-05 | 0.0059183  | 0.012623   |   3.6 |  0.15
Other   |            | 0.4242     |            |       | 11.03

Nlocal:        5552.90 ave        7907 max           0 min
Histogram: 4 2 2 0 2 6 4 0 15 17
Nghost:        6213.54 ave        8769 max         412 min
Histogram: 4 0 4 0 8 0 4 5 7 20
Neighs:       158427.0 ave      230486 max           0 min
Histogram: 4 2 2 0 5 3 4 4 12 16

Total # of neighbors = 8238194
Ave neighs/atom = 28.530443
Neighbor list builds = 0
Dangerous builds = 0
The dot product: -4.44845944694889e-08
Setting atom values ...
  1 settings made for x
  1 settings made for y
  1 settings made for z
Setting up cg style minimization ...
  Unit style    : metal
  Current step  : 763
Per MPI rank memory allocation (min/avg/max) = 5.465 | 6.344 | 6.728 Mbytes
Step PotEng KinEng TotEng v_fx v_fy v_fz 
     763   -1152449.4            0   -1152449.4 -0.0029780551 -0.012719453 -0.019062561 
     870   -1152449.4            0   -1152449.4 -6.0454511e-06 2.3875132e-05 7.4328525e-05 
Loop time of 2.34072 on 52 procs for 107 steps with 288751 atoms

99.9% CPU use with 52 MPI tasks x 1 OpenMP threads

Minimization stats:
  Stopping criterion = energy tolerance
  Energy initial, next-to-last, final = 
     -1152449.43236658  -1152449.43353207  -1152449.43353207
  Force two-norm initial, final = 0.15000616 0.00023668664
  Force max component initial, final = 0.099113947 7.4328525e-05
  Final line search alpha, max atom move = 1.0000000 7.4328525e-05
  Iterations, force evaluations = 107 214

MPI task timing breakdown:
Section |  min time  |  avg time  |  max time  |%varavg| %total
---------------------------------------------------------------
Pair    | 0.60535    | 1.7039     | 2.2506     |  36.3 | 72.79
Neigh   | 0          | 0          | 0          |   0.0 |  0.00
Comm    | 0.028273   | 0.37617    | 1.1852     |  55.4 | 16.07
Output  | 0          | 0          | 0          |   0.0 |  0.00
Modify  | 3.9925e-05 | 0.0035772  | 0.0074814  |   2.8 |  0.15
Other   |            | 0.2571     |            |       | 10.98

Nlocal:        5552.90 ave        7906 max           0 min
Histogram: 4 2 2 0 2 6 4 0 15 17
Nghost:        6213.54 ave        8769 max         412 min
Histogram: 4 0 4 0 8 0 4 5 7 20
Neighs:       158427.0 ave      230452 max           0 min
Histogram: 4 2 2 0 5 3 4 4 12 16

Total # of neighbors = 8238194
Ave neighs/atom = 28.530443
Neighbor list builds = 0
Dangerous builds = 0
The dot product: -1.52520609434763e-07
Setting atom values ...
  1 settings made for x
  1 settings made for y
  1 settings made for z
Setting up cg style minimization ...
  Unit style    : metal
  Current step  : 870
Per MPI rank memory allocation (min/avg/max) = 5.465 | 6.344 | 6.728 Mbytes
Step PotEng KinEng TotEng v_fx v_fy v_fz 
     870   -1152449.4            0   -1152449.4 -0.0079369236 -0.016415982 -0.014154003 
     975   -1152449.4            0   -1152449.4 -3.1524244e-06 -4.3089375e-05 -9.8595718e-05 
Loop time of 2.34854 on 52 procs for 105 steps with 288751 atoms

99.9% CPU use with 52 MPI tasks x 1 OpenMP threads

Minimization stats:
  Stopping criterion = linesearch alpha is zero
  Energy initial, next-to-last, final = 
     -1152449.42472312  -1152449.42589667  -1152449.42589667
  Force two-norm initial, final = 0.14943556 0.00027341972
  Force max component initial, final = 0.10171966 9.8595718e-05
  Final line search alpha, max atom move = 0.125 1.2324465e-05
  Iterations, force evaluations = 105 215

MPI task timing breakdown:
Section |  min time  |  avg time  |  max time  |%varavg| %total
---------------------------------------------------------------
Pair    | 0.60974    | 1.7105     | 2.2508     |  36.2 | 72.83
Neigh   | 0          | 0          | 0          |   0.0 |  0.00
Comm    | 0.028091   | 0.37669    | 1.1941     |  55.5 | 16.04
Output  | 0          | 0          | 0          |   0.0 |  0.00
Modify  | 3.9646e-05 | 0.0035906  | 0.007581   |   2.8 |  0.15
Other   |            | 0.2577     |            |       | 10.97

Nlocal:        5552.90 ave        7903 max           0 min
Histogram: 4 2 2 0 2 6 4 0 15 17
Nghost:        6213.54 ave        8769 max         412 min
Histogram: 4 0 4 0 8 0 4 5 7 20
Neighs:       158427.0 ave      230362 max           0 min
Histogram: 4 2 2 0 5 3 4 4 12 16

Total # of neighbors = 8238194
Ave neighs/atom = 28.530443
Neighbor list builds = 0
Dangerous builds = 0
The dot product: 2.82040414902102e-07
Setting atom values ...
  1 settings made for x
  1 settings made for y
  1 settings made for z
Setting up cg style minimization ...
  Unit style    : metal
  Current step  : 975
Per MPI rank memory allocation (min/avg/max) = 5.465 | 6.344 | 6.728 Mbytes
Step PotEng KinEng TotEng v_fx v_fy v_fz 
     975   -1152449.4            0   -1152449.4 -0.010925108 -0.017286794 -0.010166062 
    1000   -1152449.4            0   -1152449.4 -3.7670749e-05 4.7739438e-05 0.00026743896 
    1090   -1152449.4            0   -1152449.4 4.3653511e-06 2.9469448e-05 6.7640498e-05 
Loop time of 2.53169 on 52 procs for 115 steps with 288751 atoms

99.9% CPU use with 52 MPI tasks x 1 OpenMP threads

Minimization stats:
  Stopping criterion = energy tolerance
  Energy initial, next-to-last, final = 
     -1152449.41580123  -1152449.41698519  -1152449.41698519
  Force two-norm initial, final = 0.14931626 0.00024475357
  Force max component initial, final = 0.10387898 6.7640498e-05
  Final line search alpha, max atom move = 1.0000000 6.7640498e-05
  Iterations, force evaluations = 115 230

MPI task timing breakdown:
Section |  min time  |  avg time  |  max time  |%varavg| %total
---------------------------------------------------------------
Pair    | 0.65102    | 1.835      | 2.4242     |  37.7 | 72.48
Neigh   | 0          | 0          | 0          |   0.0 |  0.00
Comm    | 0.032512   | 0.40735    | 1.2749     |  57.2 | 16.09
Output  | 0.0001228  | 0.00012747 | 0.00030746 |   0.0 |  0.01
Modify  | 4.5185e-05 | 0.0038658  | 0.0081713  |   2.9 |  0.15
Other   |            | 0.2853     |            |       | 11.27

Nlocal:        5552.90 ave        7903 max           0 min
Histogram: 4 2 2 0 2 6 4 0 15 17
Nghost:        6213.54 ave        8769 max         412 min
Histogram: 4 0 4 0 8 0 4 5 7 20
Neighs:       158427.0 ave      230362 max           0 min
Histogram: 4 2 2 0 5 3 4 4 12 16

Total # of neighbors = 8238193
Ave neighs/atom = 28.530440
Neighbor list builds = 0
Dangerous builds = 0
The dot product: -2.10523418978696e-07
Setting atom values ...
  1 settings made for x
  1 settings made for y
  1 settings made for z
Setting up cg style minimization ...
  Unit style    : metal
  Current step  : 1090
Per MPI rank memory allocation (min/avg/max) = 5.465 | 6.344 | 6.728 Mbytes
Step PotEng KinEng TotEng v_fx v_fy v_fz 
    1090   -1152449.4            0   -1152449.4 -0.011688437 -0.015566931 -0.0067486666 
    1265   -1152449.4            0   -1152449.4 -4.0135117e-06 8.0938538e-06 3.9023718e-05 
Loop time of 3.80105 on 52 procs for 175 steps with 288751 atoms

99.9% CPU use with 52 MPI tasks x 1 OpenMP threads

Minimization stats:
  Stopping criterion = energy tolerance
  Energy initial, next-to-last, final = 
     -1152449.40558752  -1152449.40677334  -1152449.40677334
  Force two-norm initial, final = 0.14940416 0.00012114331
  Force max component initial, final = 0.10566503 3.9023718e-05
  Final line search alpha, max atom move = 1.0000000 3.9023718e-05
  Iterations, force evaluations = 175 350

MPI task timing breakdown:
Section |  min time  |  avg time  |  max time  |%varavg| %total
---------------------------------------------------------------
Pair    | 0.98978    | 2.78       | 3.654      |  46.2 | 73.14
Neigh   | 0          | 0          | 0          |   0.0 |  0.00
Comm    | 0.045869   | 0.61069    | 1.9372     |  71.1 | 16.07
Output  | 0          | 0          | 0          |   0.0 |  0.00
Modify  | 6.583e-05  | 0.0058425  | 0.01228    |   3.6 |  0.15
Other   |            | 0.4046     |            |       | 10.64

Nlocal:        5552.90 ave        7899 max           0 min
Histogram: 4 2 2 0 2 6 4 0 14 18
Nghost:        6213.54 ave        8769 max         412 min
Histogram: 4 0 4 0 8 0 4 5 7 20
Neighs:       158427.0 ave      230206 max           0 min
Histogram: 4 2 2 0 5 3 4 4 12 16

Total # of neighbors = 8238195
Ave neighs/atom = 28.530447
Neighbor list builds = 0
Dangerous builds = 0
The dot product: -5.08064539571561e-08
Setting atom values ...
  1 settings made for x
  1 settings made for y
  1 settings made for z
Setting up cg style minimization ...
  Unit style    : metal
  Current step  : 1265
Per MPI rank memory allocation (min/avg/max) = 5.465 | 6.344 | 6.728 Mbytes
Step PotEng KinEng TotEng v_fx v_fy v_fz 
    1265   -1152449.4            0   -1152449.4 -0.010557314 -0.012405699 -0.0041855385 
    1426   -1152449.4            0   -1152449.4 -2.3755886e-05 -2.7263651e-05 -7.2693872e-06 
Loop time of 3.54028 on 52 procs for 161 steps with 288751 atoms

99.9% CPU use with 52 MPI tasks x 1 OpenMP threads

Minimization stats:
  Stopping criterion = linesearch alpha is zero
  Energy initial, next-to-last, final = 
     -1152449.39404791   -1152449.3952258   -1152449.3952258
  Force two-norm initial, final = 0.14969895 0.00013632889
  Force max component initial, final = 0.10711764 2.7263651e-05
  Final line search alpha, max atom move = 0.5 1.3631825e-05
  Iterations, force evaluations = 161 323

MPI task timing breakdown:
Section |  min time  |  avg time  |  max time  |%varavg| %total
---------------------------------------------------------------
Pair    | 0.91153    | 2.5742     | 3.3906     |  44.6 | 72.71
Neigh   | 0          | 0          | 0          |   0.0 |  0.00
Comm    | 0.042016   | 0.5692     | 1.7925     |  68.2 | 16.08
Output  | 0          | 0          | 0          |   0.0 |  0.00
Modify  | 6.6287e-05 | 0.0053944  | 0.011388   |   3.4 |  0.15
Other   |            | 0.3914     |            |       | 11.06

Nlocal:        5552.90 ave        7897 max           0 min
Histogram: 4 2 2 0 2 6 4 0 14 18
Nghost:        6213.54 ave        8769 max         412 min
Histogram: 4 0 4 0 8 0 4 5 7 20
Neighs:       158427.0 ave      230141 max           0 min
Histogram: 4 2 2 0 5 3 4 4 12 16

Total # of neighbors = 8238196
Ave neighs/atom = 28.530450
Neighbor list builds = 0
Dangerous builds = 0
The dot product: 2.09914741024391e-07
Setting atom values ...
  1 settings made for x
  1 settings made for y
  1 settings made for z
Setting up cg style minimization ...
  Unit style    : metal
  Current step  : 1426
Per MPI rank memory allocation (min/avg/max) = 5.465 | 6.344 | 6.728 Mbytes
Step PotEng KinEng TotEng v_fx v_fy v_fz 
    1426   -1152449.4            0   -1152449.4 -0.0080141985 -0.0086230718 -0.0025096427 
    1598   -1152449.4            0   -1152449.4 -5.1553288e-06 -3.2243449e-06 6.4898465e-06 
Loop time of 3.77689 on 52 procs for 172 steps with 288751 atoms

99.9% CPU use with 52 MPI tasks x 1 OpenMP threads

Minimization stats:
  Stopping criterion = linesearch alpha is zero
  Energy initial, next-to-last, final = 
     -1152449.38114492  -1152449.38231179  -1152449.38231179
  Force two-norm initial, final = 0.15019534 0.0001377054
  Force max component initial, final = 0.10847795 2.8881064e-05
  Final line search alpha, max atom move = 0.5 1.4440532e-05
  Iterations, force evaluations = 172 347

MPI task timing breakdown:
Section |  min time  |  avg time  |  max time  |%varavg| %total
---------------------------------------------------------------
Pair    | 0.97732    | 2.7596     | 3.6198     |  46.2 | 73.06
Neigh   | 0          | 0          | 0          |   0.0 |  0.00
Comm    | 0.047308   | 0.60831    | 1.9246     |  71.0 | 16.11
Output  | 0          | 0          | 0          |   0.0 |  0.00
Modify  | 7.4354e-05 | 0.0057818  | 0.012142   |   3.5 |  0.15
Other   |            | 0.4032     |            |       | 10.68

Nlocal:        5552.90 ave        7889 max           0 min
Histogram: 4 2 2 0 2 6 4 0 14 18
Nghost:        6213.54 ave        8769 max         412 min
Histogram: 4 0 4 0 8 0 4 5 7 20
Neighs:       158427.0 ave      229891 max           0 min
Histogram: 4 2 2 0 5 3 4 4 11 17

Total # of neighbors = 8238193
Ave neighs/atom = 28.530440
Neighbor list builds = 0
Dangerous builds = 0
The dot product: 2.38728961610446e-08
Setting atom values ...
  1 settings made for x
  1 settings made for y
  1 settings made for z
Setting up cg style minimization ...
  Unit style    : metal
  Current step  : 1598
Per MPI rank memory allocation (min/avg/max) = 5.465 | 6.344 | 6.728 Mbytes
Step PotEng KinEng TotEng v_fx v_fy v_fz 
    1598   -1152449.4            0   -1152449.4 -0.0045586028 -0.0046249138 -0.0012997602 
    1730   -1152449.4            0   -1152449.4 -5.2523943e-06 -1.4812098e-05 -3.6126358e-05 
Loop time of 2.8808 on 52 procs for 132 steps with 288751 atoms

99.9% CPU use with 52 MPI tasks x 1 OpenMP threads

Minimization stats:
  Stopping criterion = energy tolerance
  Energy initial, next-to-last, final = 
     -1152449.36685481  -1152449.36801153  -1152449.36801153
  Force two-norm initial, final = 0.15089896 0.00013963687
  Force max component initial, final = 0.10982728 3.6126358e-05
  Final line search alpha, max atom move = 1.0000000 3.6126358e-05
  Iterations, force evaluations = 132 264

MPI task timing breakdown:
Section |  min time  |  avg time  |  max time  |%varavg| %total
---------------------------------------------------------------
Pair    | 0.74908    | 2.1038     | 2.7584     |  40.2 | 73.03
Neigh   | 0          | 0          | 0          |   0.0 |  0.00
Comm    | 0.039021   | 0.46403    | 1.4674     |  61.5 | 16.11
Output  | 0          | 0          | 0          |   0.0 |  0.00
Modify  | 5.6797e-05 | 0.0044139  | 0.0092602  |   3.1 |  0.15
Other   |            | 0.3086     |            |       | 10.71

Nlocal:        5552.90 ave        7883 max           0 min
Histogram: 4 2 2 0 2 6 4 0 14 18
Nghost:        6213.58 ave        8769 max         412 min
Histogram: 4 0 4 0 8 0 4 5 7 20
Neighs:       158427.0 ave      229696 max           0 min
Histogram: 4 2 2 0 5 3 4 4 11 17

Total # of neighbors = 8238192
Ave neighs/atom = 28.530436
Neighbor list builds = 0
Dangerous builds = 0
The dot product: 8.42726788875529e-08
Setting atom values ...
  1 settings made for x
  1 settings made for y
  1 settings made for z
Setting up cg style minimization ...
  Unit style    : metal
  Current step  : 1730
Per MPI rank memory allocation (min/avg/max) = 5.465 | 6.344 | 6.728 Mbytes
Step PotEng KinEng TotEng v_fx v_fy v_fz 
    1730   -1152449.4            0   -1152449.4 -0.00071894587 -0.0008085388 -0.00060487861 
    1905   -1152449.4            0   -1152449.4 -2.2913117e-05 -2.3420226e-05 -1.0370537e-05 
Loop time of 3.81023 on 52 procs for 175 steps with 288751 atoms

99.9% CPU use with 52 MPI tasks x 1 OpenMP threads

Minimization stats:
  Stopping criterion = linesearch alpha is zero
  Energy initial, next-to-last, final = 
     -1152449.35116213  -1152449.35230724  -1152449.35230724
  Force two-norm initial, final = 0.15187083 0.00012344526
  Force max component initial, final = 0.11136895 2.3420226e-05
  Final line search alpha, max atom move = 0.5 1.1710113e-05
  Iterations, force evaluations = 175 351

MPI task timing breakdown:
Section |  min time  |  avg time  |  max time  |%varavg| %total
---------------------------------------------------------------
Pair    | 0.98967    | 2.7857     | 3.6631     |  46.3 | 73.11
Neigh   | 0          | 0          | 0          |   0.0 |  0.00
Comm    | 0.045735   | 0.61327    | 1.9438     |  71.1 | 16.10
Output  | 0          | 0          | 0          |   0.0 |  0.00
Modify  | 6.935e-05  | 0.0058491  | 0.012259   |   3.6 |  0.15
Other   |            | 0.4054     |            |       | 10.64

Nlocal:        5552.90 ave        7878 max           0 min
Histogram: 4 2 2 0 2 6 4 0 14 18
Nghost:        6213.58 ave        8769 max         412 min
Histogram: 4 0 4 0 8 0 4 5 7 20
Neighs:       158427.0 ave      229542 max           0 min
Histogram: 4 2 2 0 5 3 4 4 11 17

Total # of neighbors = 8238192
Ave neighs/atom = 28.530436
Neighbor list builds = 0
Dangerous builds = 0
The dot product: 9.49253632740067e-08
Setting atom values ...
  1 settings made for x
  1 settings made for y
  1 settings made for z
Setting up cg style minimization ...
  Unit style    : metal
  Current step  : 1905
Per MPI rank memory allocation (min/avg/max) = 5.465 | 6.344 | 6.728 Mbytes
Step PotEng KinEng TotEng v_fx v_fy v_fz 
    1905   -1152449.3            0   -1152449.3 0.0029918552 0.0027117643 0.00028465103 
    2000   -1152449.3            0   -1152449.3 -3.2739575e-05 -9.4600415e-06 7.5861688e-05 
    2011   -1152449.3            0   -1152449.3 -2.3808122e-05 -1.8243678e-05 1.0766698e-05 
Loop time of 2.36471 on 52 procs for 106 steps with 288751 atoms

99.9% CPU use with 52 MPI tasks x 1 OpenMP threads

Minimization stats:
  Stopping criterion = linesearch alpha is zero
  Energy initial, next-to-last, final = 
     -1152449.33404345  -1152449.33517963  -1152449.33517963
  Force two-norm initial, final = 0.15307318 0.00026580632
  Force max component initial, final = 0.11309245 6.7993115e-05
  Final line search alpha, max atom move = 0.125 8.4991394e-06
  Iterations, force evaluations = 106 217

MPI task timing breakdown:
Section |  min time  |  avg time  |  max time  |%varavg| %total
---------------------------------------------------------------
Pair    | 0.61527    | 1.7283     | 2.2734     |  36.5 | 73.09
Neigh   | 0          | 0          | 0          |   0.0 |  0.00
Comm    | 0.028565   | 0.38159    | 1.205      |  55.9 | 16.14
Output  | 0.00011652 | 0.00012091 | 0.00030421 |   0.0 |  0.01
Modify  | 4.2627e-05 | 0.0036534  | 0.0077187  |   2.8 |  0.15
Other   |            | 0.251      |            |       | 10.62

Nlocal:        5552.90 ave        7872 max           0 min
Histogram: 4 2 2 0 2 6 4 0 14 18
Nghost:        6213.58 ave        8769 max         412 min
Histogram: 4 0 4 0 8 0 4 5 7 20
Neighs:       158427.0 ave      229359 max           0 min
Histogram: 4 2 2 0 4 4 4 4 11 17

Total # of neighbors = 8238191
Ave neighs/atom = 28.530433
Neighbor list builds = 0
Dangerous builds = 0
The dot product: 3.54639066314018e-08
Setting atom values ...
  1 settings made for x
  1 settings made for y
  1 settings made for z
Setting up cg style minimization ...
  Unit style    : metal
  Current step  : 2011
Per MPI rank memory allocation (min/avg/max) = 5.465 | 6.344 | 6.728 Mbytes
Step PotEng KinEng TotEng v_fx v_fy v_fz 
    2011   -1152449.3            0   -1152449.3 0.0065253747 0.0059416778 0.0010177396 
    2168   -1152449.3            0   -1152449.3 -3.3966328e-06 3.3024589e-06 2.5017099e-05 
Loop time of 3.42132 on 52 procs for 157 steps with 288751 atoms

99.9% CPU use with 52 MPI tasks x 1 OpenMP threads

Minimization stats:
  Stopping criterion = energy tolerance
  Energy initial, next-to-last, final = 
     -1152449.31547838  -1152449.31661399  -1152449.31661399
  Force two-norm initial, final = 0.15450869 0.00018631047
  Force max component initial, final = 0.11495684 3.9376369e-05
  Final line search alpha, max atom move = 1.0000000 3.9376369e-05
  Iterations, force evaluations = 157 316

MPI task timing breakdown:
Section |  min time  |  avg time  |  max time  |%varavg| %total
---------------------------------------------------------------
Pair    | 0.89058    | 2.505      | 3.2858     |  43.9 | 73.22
Neigh   | 0          | 0          | 0          |   0.0 |  0.00
Comm    | 0.041677   | 0.55029    | 1.753      |  67.6 | 16.08
Output  | 0          | 0          | 0          |   0.0 |  0.00
Modify  | 6.3041e-05 | 0.0052677  | 0.011104   |   3.4 |  0.15
Other   |            | 0.3608     |            |       | 10.54

Nlocal:        5552.90 ave        7862 max           0 min
Histogram: 4 2 2 0 2 6 4 0 13 19
Nghost:        6213.58 ave        8769 max         412 min
Histogram: 4 0 4 0 8 0 4 5 7 20
Neighs:       158427.0 ave      229030 max           0 min
Histogram: 4 2 2 0 4 4 4 4 10 18

Total # of neighbors = 8238191
Ave neighs/atom = 28.530433
Neighbor list builds = 0
Dangerous builds = 0
The dot product: -1.7050422282175e-08
Setting atom values ...
  1 settings made for x
  1 settings made for y
  1 settings made for z
Setting up cg style minimization ...
  Unit style    : metal
  Current step  : 2168
Per MPI rank memory allocation (min/avg/max) = 5.465 | 6.344 | 6.728 Mbytes
Step PotEng KinEng TotEng v_fx v_fy v_fz 
    2168   -1152449.3            0   -1152449.3 0.0098955085 0.0090367452 0.0017581644 
    2342   -1152449.3            0   -1152449.3 1.6134105e-06 -7.2028343e-07 -8.6065445e-06 
Loop time of 3.80859 on 52 procs for 174 steps with 288751 atoms

99.9% CPU use with 52 MPI tasks x 1 OpenMP threads

Minimization stats:
  Stopping criterion = energy tolerance
  Energy initial, next-to-last, final = 
     -1152449.29545716  -1152449.29659995  -1152449.29659995
  Force two-norm initial, final = 0.15629214 0.00011535302
  Force max component initial, final = 0.11707459 1.8430634e-05
  Final line search alpha, max atom move = 1.0000000 1.8430634e-05
  Iterations, force evaluations = 174 350

MPI task timing breakdown:
Section |  min time  |  avg time  |  max time  |%varavg| %total
---------------------------------------------------------------
Pair    | 0.98738    | 2.7787     | 3.6605     |  46.3 | 72.96
Neigh   | 0          | 0          | 0          |   0.0 |  0.00
Comm    | 0.046368   | 0.6138     | 1.9341     |  70.6 | 16.12
Output  | 0          | 0          | 0          |   0.0 |  0.00
Modify  | 6.5428e-05 | 0.0058525  | 0.01232    |   3.6 |  0.15
Other   |            | 0.4102     |            |       | 10.77

Nlocal:        5552.90 ave        7859 max           0 min
Histogram: 4 2 2 0 2 6 4 0 13 19
Nghost:        6213.65 ave        8769 max         412 min
Histogram: 4 0 4 0 8 0 4 5 7 20
Neighs:       158427.0 ave      228955 max           0 min
Histogram: 4 2 2 0 4 4 4 4 10 18

Total # of neighbors = 8238191
Ave neighs/atom = 28.530433
Neighbor list builds = 0
Dangerous builds = 0
The dot product: 5.52213863250522e-09
Setting atom values ...
  1 settings made for x
  1 settings made for y
  1 settings made for z
Setting up cg style minimization ...
  Unit style    : metal
  Current step  : 2342
Per MPI rank memory allocation (min/avg/max) = 5.465 | 6.344 | 6.728 Mbytes
Step PotEng KinEng TotEng v_fx v_fy v_fz 
    2342   -1152449.3            0   -1152449.3  0.013131258  0.012039489 0.0022774125 
    2451   -1152449.3            0   -1152449.3 -1.531328e-05 -1.7837747e-05 -1.8179023e-05 
Loop time of 2.36554 on 52 procs for 109 steps with 288751 atoms

99.9% CPU use with 52 MPI tasks x 1 OpenMP threads

Minimization stats:
  Stopping criterion = energy tolerance
  Energy initial, next-to-last, final = 
     -1152449.27397283  -1152449.27513239  -1152449.27513239
  Force two-norm initial, final = 0.15845442 0.00025394385
  Force max component initial, final = 0.11940547 4.9910222e-05
  Final line search alpha, max atom move = 1.0000000 4.9910222e-05
  Iterations, force evaluations = 109 218

MPI task timing breakdown:
Section |  min time  |  avg time  |  max time  |%varavg| %total
---------------------------------------------------------------
Pair    | 0.61531    | 1.7305     | 2.2738     |  36.5 | 73.15
Neigh   | 0          | 0          | 0          |   0.0 |  0.00
Comm    | 0.028658   | 0.38146    | 1.2096     |  56.0 | 16.13
Output  | 0          | 0          | 0          |   0.0 |  0.00
Modify  | 4.2873e-05 | 0.0036429  | 0.0077009  |   2.8 |  0.15
Other   |            | 0.25       |            |       | 10.57

Nlocal:        5552.90 ave        7859 max           0 min
Histogram: 4 2 2 0 2 6 4 0 13 19
Nghost:        6213.62 ave        8769 max         412 min
Histogram: 4 0 4 0 8 0 4 5 7 20
Neighs:       158427.0 ave      228953 max           0 min
Histogram: 4 2 2 0 4 4 4 4 10 18

Total # of neighbors = 8238188
Ave neighs/atom = 28.530422
Neighbor list builds = 0
Dangerous builds = 0
The dot product: -3.63392423305356e-08
Setting atom values ...
  1 settings made for x
  1 settings made for y
  1 settings made for z
Setting up cg style minimization ...
  Unit style    : metal
  Current step  : 2451
Per MPI rank memory allocation (min/avg/max) = 5.465 | 6.344 | 6.728 Mbytes
Step PotEng KinEng TotEng v_fx v_fy v_fz 
    2451   -1152449.3            0   -1152449.3  0.016235783  0.014974153 0.0024302185 
    2636   -1152449.3            0   -1152449.3 -2.4869074e-06 -2.8980423e-06 -2.8516518e-06 
Loop time of 4.03393 on 52 procs for 185 steps with 288751 atoms

99.9% CPU use with 52 MPI tasks x 1 OpenMP threads

Minimization stats:
  Stopping criterion = linesearch alpha is zero
  Energy initial, next-to-last, final = 
     -1152449.25102478  -1152449.25221153  -1152449.25221153
  Force two-norm initial, final = 0.16096229 6.4711511e-05
  Force max component initial, final = 0.1218221 3.9964660e-06
  Final line search alpha, max atom move = 0.5 1.9982330e-06
  Iterations, force evaluations = 185 371

MPI task timing breakdown:
Section |  min time  |  avg time  |  max time  |%varavg| %total
---------------------------------------------------------------
Pair    | 1.0463     | 2.9514     | 3.8781     |  47.7 | 73.16
Neigh   | 0          | 0          | 0          |   0.0 |  0.00
Comm    | 0.048395   | 0.65174    | 2.0571     |  73.0 | 16.16
Output  | 0          | 0          | 0          |   0.0 |  0.00
Modify  | 7.4381e-05 | 0.0061876  | 0.013034   |   3.7 |  0.15
Other   |            | 0.4246     |            |       | 10.53

Nlocal:        5552.90 ave        7859 max           0 min
Histogram: 4 2 2 0 2 6 4 0 13 19
Nghost:        6213.62 ave        8769 max         412 min
Histogram: 4 0 4 0 8 0 4 5 7 20
Neighs:       158427.0 ave      228953 max           0 min
Histogram: 4 2 2 0 4 4 4 4 10 18

Total # of neighbors = 8238188
Ave neighs/atom = 28.530422
Neighbor list builds = 0
Dangerous builds = 0
The dot product: -1.04191976402952e-08
Setting atom values ...
  1 settings made for x
  1 settings made for y
  1 settings made for z
Setting up cg style minimization ...
  Unit style    : metal
  Current step  : 2636
Per MPI rank memory allocation (min/avg/max) = 5.465 | 6.344 | 6.728 Mbytes
Step PotEng KinEng TotEng v_fx v_fy v_fz 
    2636   -1152449.2            0   -1152449.2  0.019143973  0.017904199  0.002540746 
    2765   -1152449.2            0   -1152449.2 -1.3117512e-07 -1.6828506e-06 -6.4126196e-06 
Loop time of 2.8108 on 52 procs for 129 steps with 288751 atoms

99.9% CPU use with 52 MPI tasks x 1 OpenMP threads

Minimization stats:
  Stopping criterion = energy tolerance
  Energy initial, next-to-last, final = 
     -1152449.22661774  -1152449.22784153  -1152449.22784153
  Force two-norm initial, final = 0.1639894 0.00014954312
  Force max component initial, final = 0.12451188 3.4846004e-05
  Final line search alpha, max atom move = 1.0000000 3.4846004e-05
  Iterations, force evaluations = 129 258

MPI task timing breakdown:
Section |  min time  |  avg time  |  max time  |%varavg| %total
---------------------------------------------------------------
Pair    | 0.72967    | 2.0515     | 2.6897     |  39.7 | 72.99
Neigh   | 0          | 0          | 0          |   0.0 |  0.00
Comm    | 0.03671    | 0.45297    | 1.4303     |  60.8 | 16.12
Output  | 0          | 0          | 0          |   0.0 |  0.00
Modify  | 6.0386e-05 | 0.0043337  | 0.0090668  |   3.0 |  0.15
Other   |            | 0.302      |            |       | 10.75

Nlocal:        5552.90 ave        7859 max           0 min
Histogram: 4 2 2 0 2 6 4 0 13 19
Nghost:        6213.62 ave        8769 max         412 min
Histogram: 4 0 4 0 8 0 4 5 7 20
Neighs:       158427.0 ave      228952 max           0 min
Histogram: 4 2 2 0 4 4 4 4 10 18

Total # of neighbors = 8238188
Ave neighs/atom = 28.530422
Neighbor list builds = 0
Dangerous builds = 0
The dot product: -1.97180124956008e-09
Setting atom values ...
  1 settings made for x
  1 settings made for y
  1 settings made for z
Setting up cg style minimization ...
  Unit style    : metal
  Current step  : 2765
Per MPI rank memory allocation (min/avg/max) = 5.465 | 6.344 | 6.728 Mbytes
Step PotEng KinEng TotEng v_fx v_fy v_fz 
    2765   -1152449.2            0   -1152449.2  0.021780414  0.020694566 0.0022324191 
    2931   -1152449.2            0   -1152449.2 4.1182403e-07 1.1670108e-05 4.6131951e-05 
Loop time of 3.63017 on 52 procs for 166 steps with 288751 atoms

99.9% CPU use with 52 MPI tasks x 1 OpenMP threads

Minimization stats:
  Stopping criterion = linesearch alpha is zero
  Energy initial, next-to-last, final = 
     -1152449.20076293  -1152449.20203438  -1152449.20203438
  Force two-norm initial, final = 0.16736848 0.00017845317
  Force max component initial, final = 0.12726949 4.6131951e-05
  Final line search alpha, max atom move = 0.25 1.1532988e-05
  Iterations, force evaluations = 166 335

MPI task timing breakdown:
Section |  min time  |  avg time  |  max time  |%varavg| %total
---------------------------------------------------------------
Pair    | 0.94417    | 2.6661     | 3.4863     |  45.3 | 73.44
Neigh   | 0          | 0          | 0          |   0.0 |  0.00
Comm    | 0.044042   | 0.58646    | 1.8578     |  69.5 | 16.16
Output  | 0          | 0          | 0          |   0.0 |  0.00
Modify  | 6.3119e-05 | 0.0055942  | 0.011735   |   3.5 |  0.15
Other   |            | 0.372      |            |       | 10.25

Nlocal:        5552.90 ave        7859 max           0 min
Histogram: 4 2 2 0 2 6 4 0 13 19
Nghost:        6213.62 ave        8769 max         412 min
Histogram: 4 0 4 0 8 0 4 5 7 20
Neighs:       158427.0 ave      228951 max           0 min
Histogram: 4 2 2 0 4 4 4 4 10 18

Total # of neighbors = 8238183
Ave neighs/atom = 28.530405
Neighbor list builds = 0
Dangerous builds = 0
The dot product: 1.78980102215153e-08
Setting atom values ...
  1 settings made for x
  1 settings made for y
  1 settings made for z
Setting up cg style minimization ...
  Unit style    : metal
  Current step  : 2931
Per MPI rank memory allocation (min/avg/max) = 5.465 | 6.344 | 6.728 Mbytes
Step PotEng KinEng TotEng v_fx v_fy v_fz 
    2931   -1152449.2            0   -1152449.2  0.025202413  0.024373408 0.0015240133 
    3000   -1152449.2            0   -1152449.2 -5.5598574e-05 1.8131109e-05 0.00028899554 
    3025   -1152449.2            0   -1152449.2 -3.8763674e-05 -5.0216891e-05 -5.4098932e-05 
Loop time of 2.04816 on 52 procs for 94 steps with 288751 atoms

99.9% CPU use with 52 MPI tasks x 1 OpenMP threads

Minimization stats:
  Stopping criterion = energy tolerance
  Energy initial, next-to-last, final = 
     -1152449.17348597  -1152449.17482698  -1152449.17482698
  Force two-norm initial, final = 0.17142621 0.00038366495
  Force max component initial, final = 0.13024142 6.8682053e-05
  Final line search alpha, max atom move = 1.0000000 6.8682053e-05
  Iterations, force evaluations = 94 188

MPI task timing breakdown:
Section |  min time  |  avg time  |  max time  |%varavg| %total
---------------------------------------------------------------
Pair    | 0.53198    | 1.499      | 1.9684     |  34.0 | 73.19
Neigh   | 0          | 0          | 0          |   0.0 |  0.00
Comm    | 0.024812   | 0.33043    | 1.0487     |  52.2 | 16.13
Output  | 0.00012081 | 0.0001251  | 0.00030386 |   0.0 |  0.01
Modify  | 4.6831e-05 | 0.0031513  | 0.006625   |   2.6 |  0.15
Other   |            | 0.2154     |            |       | 10.52

Nlocal:        5552.90 ave        7859 max           0 min
Histogram: 4 2 2 0 2 6 4 0 13 19
Nghost:        6213.62 ave        8769 max         412 min
Histogram: 4 0 4 0 8 0 4 5 7 20
Neighs:       158427.0 ave      228951 max           0 min
Histogram: 4 2 2 0 4 4 4 4 10 18

Total # of neighbors = 8238183
Ave neighs/atom = 28.530405
Neighbor list builds = 0
Dangerous builds = 0
The dot product: -3.94421033298131e-07
Setting atom values ...
  1 settings made for x
  1 settings made for y
  1 settings made for z
Setting up cg style minimization ...
  Unit style    : metal
  Current step  : 3025
Per MPI rank memory allocation (min/avg/max) = 5.465 | 6.344 | 6.728 Mbytes
Step PotEng KinEng TotEng v_fx v_fy v_fz 
    3025   -1152449.1            0   -1152449.1  0.030310716  0.029010437 -0.0037541569 
    3164   -1152449.1            0   -1152449.1 2.0991796e-06 -1.3745129e-06 -1.3955668e-05 
Loop time of 3.06106 on 52 procs for 139 steps with 288751 atoms

99.9% CPU use with 52 MPI tasks x 1 OpenMP threads

Minimization stats:
  Stopping criterion = linesearch alpha is zero
  Energy initial, next-to-last, final = 
     -1152449.14482308   -1152449.1462884   -1152449.1462884
  Force two-norm initial, final = 0.17602954 0.00016816412
  Force max component initial, final = 0.13345083 1.9789805e-05
  Final line search alpha, max atom move = 0.25 4.9474511e-06
  Iterations, force evaluations = 139 281

MPI task timing breakdown:
Section |  min time  |  avg time  |  max time  |%varavg| %total
---------------------------------------------------------------
Pair    | 0.79277    | 2.2319     | 2.9431     |  41.5 | 72.91
Neigh   | 0          | 0          | 0          |   0.0 |  0.00
Comm    | 0.037031   | 0.49453    | 1.5516     |  63.1 | 16.16
Output  | 0          | 0          | 0          |   0.0 |  0.00
Modify  | 5.8915e-05 | 0.0047119  | 0.0099678  |   3.2 |  0.15
Other   |            | 0.3299     |            |       | 10.78

Nlocal:        5552.90 ave        7858 max           0 min
Histogram: 4 2 2 0 2 6 4 0 13 19
Nghost:        6213.62 ave        8769 max         412 min
Histogram: 4 0 4 0 8 0 4 5 7 20
Neighs:       158427.0 ave      228924 max           0 min
Histogram: 4 2 2 0 4 4 4 4 10 18

Total # of neighbors = 8238185
Ave neighs/atom = 28.530412
Neighbor list builds = 0
Dangerous builds = 0
The dot product: 3.71511459527704e-08
Setting atom values ...
  1 settings made for x
  1 settings made for y
  1 settings made for z
Setting up cg style minimization ...
  Unit style    : metal
  Current step  : 3164
Per MPI rank memory allocation (min/avg/max) = 5.465 | 6.344 | 6.728 Mbytes
Step PotEng KinEng TotEng v_fx v_fy v_fz 
    3164   -1152449.1            0   -1152449.1  0.039006198  0.036301283 -0.017163296 
    3272   -1152449.1            0   -1152449.1 4.2618011e-06 -1.8924266e-05 -9.5204502e-05 
Loop time of 2.34073 on 52 procs for 108 steps with 288751 atoms

99.9% CPU use with 52 MPI tasks x 1 OpenMP threads

Minimization stats:
  Stopping criterion = energy tolerance
  Energy initial, next-to-last, final = 
     -1152449.11471627  -1152449.11645672  -1152449.11645672
  Force two-norm initial, final = 0.18324896 0.00028623837
  Force max component initial, final = 0.1370327 9.5204502e-05
  Final line search alpha, max atom move = 1.0000000 9.5204502e-05
  Iterations, force evaluations = 108 216

MPI task timing breakdown:
Section |  min time  |  avg time  |  max time  |%varavg| %total
---------------------------------------------------------------
Pair    | 0.61078    | 1.7165     | 2.2448     |  36.2 | 73.33
Neigh   | 0          | 0          | 0          |   0.0 |  0.00
Comm    | 0.028169   | 0.37698    | 1.2021     |  56.1 | 16.11
Output  | 0          | 0          | 0          |   0.0 |  0.00
Modify  | 4.2194e-05 | 0.0036095  | 0.0075566  |   2.8 |  0.15
Other   |            | 0.2436     |            |       | 10.41

Nlocal:        5552.90 ave        7858 max           0 min
Histogram: 4 2 2 0 2 6 4 0 13 19
Nghost:        6213.60 ave        8769 max         412 min
Histogram: 4 0 4 0 8 0 4 5 7 20
Neighs:       158427.0 ave      228922 max           0 min
Histogram: 4 2 2 0 4 4 4 4 10 18

Total # of neighbors = 8238183
Ave neighs/atom = 28.530405
Neighbor list builds = 0
Dangerous builds = 0
The dot product: 3.18454084244728e-07
Setting atom values ...
  1 settings made for x
  1 settings made for y
  1 settings made for z
Setting up cg style minimization ...
  Unit style    : metal
  Current step  : 3272
Per MPI rank memory allocation (min/avg/max) = 5.465 | 6.344 | 6.728 Mbytes
Step PotEng KinEng TotEng v_fx v_fy v_fz 
    3272   -1152449.1            0   -1152449.1  0.047945426  0.046370447  -0.02933405 
    3403   -1152449.1            0   -1152449.1 -9.4563327e-06 -9.1038018e-06 5.9624812e-06 
Loop time of 2.92555 on 52 procs for 131 steps with 288751 atoms

99.8% CPU use with 52 MPI tasks x 1 OpenMP threads

Minimization stats:
  Stopping criterion = linesearch alpha is zero
  Energy initial, next-to-last, final = 
     -1152449.08328234  -1152449.08534794  -1152449.08534794
  Force two-norm initial, final = 0.1929415 0.00010436505
  Force max component initial, final = 0.14122651 1.1989652e-05
  Final line search alpha, max atom move = 0.5 5.9948260e-06
  Iterations, force evaluations = 131 265

MPI task timing breakdown:
Section |  min time  |  avg time  |  max time  |%varavg| %total
---------------------------------------------------------------
Pair    | 0.74921    | 2.1195     | 2.7796     |  40.5 | 72.45
Neigh   | 0          | 0          | 0          |   0.0 |  0.00
Comm    | 0.035865   | 0.47012    | 1.4723     |  61.5 | 16.07
Output  | 0          | 0          | 0          |   0.0 |  0.00
Modify  | 5.2866e-05 | 0.0044312  | 0.0093016  |   3.1 |  0.15
Other   |            | 0.3315     |            |       | 11.33

Nlocal:        5552.90 ave        7857 max           0 min
Histogram: 4 2 2 0 2 6 4 0 13 19
Nghost:        6213.60 ave        8769 max         412 min
Histogram: 4 0 4 0 8 0 4 5 7 20
Neighs:       158427.0 ave      228883 max           0 min
Histogram: 4 2 2 0 4 4 4 4 10 18

Total # of neighbors = 8238183
Ave neighs/atom = 28.530405
Neighbor list builds = 0
Dangerous builds = 0
The dot product: -2.74145961913376e-07
Setting atom values ...
  1 settings made for x
  1 settings made for y
  1 settings made for z
Setting up cg style minimization ...
  Unit style    : metal
  Current step  : 3403
Per MPI rank memory allocation (min/avg/max) = 5.465 | 6.344 | 6.728 Mbytes
Step PotEng KinEng TotEng v_fx v_fy v_fz 
    3403   -1152449.1            0   -1152449.1  0.053126293  0.055551421 -0.037862542 
    3564   -1152449.1            0   -1152449.1 2.5900907e-05 2.5241153e-05 -2.673648e-05 
Loop time of 3.54307 on 52 procs for 161 steps with 288751 atoms

99.9% CPU use with 52 MPI tasks x 1 OpenMP threads

Minimization stats:
  Stopping criterion = energy tolerance
  Energy initial, next-to-last, final = 
     -1152449.05062915  -1152449.05296243  -1152449.05296243
  Force two-norm initial, final = 0.20169264 0.00018916002
  Force max component initial, final = 0.14560243 4.9805498e-05
  Final line search alpha, max atom move = 1.0000000 4.9805498e-05
  Iterations, force evaluations = 161 326

MPI task timing breakdown:
Section |  min time  |  avg time  |  max time  |%varavg| %total
---------------------------------------------------------------
Pair    | 0.92209    | 2.5864     | 3.3913     |  44.5 | 73.00
Neigh   | 0          | 0          | 0          |   0.0 |  0.00
Comm    | 0.043468   | 0.56793    | 1.8069     |  68.7 | 16.03
Output  | 0          | 0          | 0          |   0.0 |  0.00
Modify  | 6.3142e-05 | 0.005436   | 0.01149    |   3.4 |  0.15
Other   |            | 0.3832     |            |       | 10.82

Nlocal:        5552.90 ave        7857 max           0 min
Histogram: 4 2 2 0 2 6 4 0 13 19
Nghost:        6213.62 ave        8769 max         412 min
Histogram: 4 0 4 0 8 0 4 5 7 20
Neighs:       158427.0 ave      228883 max           0 min
Histogram: 4 2 2 0 4 4 4 4 10 18

Total # of neighbors = 8238182
Ave neighs/atom = 28.530402
Neighbor list builds = 0
Dangerous builds = 0
The dot product: 9.46857423459959e-07
Setting atom values ...
  1 settings made for x
  1 settings made for y
  1 settings made for z
Setting up cg style minimization ...
  Unit style    : metal
  Current step  : 3564
Per MPI rank memory allocation (min/avg/max) = 5.465 | 6.344 | 6.728 Mbytes
Step PotEng KinEng TotEng v_fx v_fy v_fz 
    3564     -1152449            0     -1152449   0.05511366  0.062087367 -0.050416535 
    3737     -1152449            0     -1152449 -7.8431167e-06 -1.1257708e-05 -4.8286644e-06 
Loop time of 3.76969 on 52 procs for 173 steps with 288751 atoms

99.9% CPU use with 52 MPI tasks x 1 OpenMP threads

Minimization stats:
  Stopping criterion = energy tolerance
  Energy initial, next-to-last, final = 
     -1152449.01682308  -1152449.01940848  -1152449.01940848
  Force two-norm initial, final = 0.20997464 0.00022772402
  Force max component initial, final = 0.14969208 2.9264013e-05
  Final line search alpha, max atom move = 1.0000000 2.9264013e-05
  Iterations, force evaluations = 173 346

MPI task timing breakdown:
Section |  min time  |  avg time  |  max time  |%varavg| %total
---------------------------------------------------------------
Pair    | 0.9759     | 2.7576     | 3.619      |  46.1 | 73.15
Neigh   | 0          | 0          | 0          |   0.0 |  0.00
Comm    | 0.0452     | 0.60857    | 1.9275     |  70.7 | 16.14
Output  | 0          | 0          | 0          |   0.0 |  0.00
Modify  | 6.7794e-05 | 0.0057874  | 0.012132   |   3.5 |  0.15
Other   |            | 0.3977     |            |       | 10.55

Nlocal:        5552.90 ave        7857 max           0 min
Histogram: 4 2 2 0 2 6 4 0 13 19
Nghost:        6213.62 ave        8769 max         412 min
Histogram: 4 0 4 0 8 0 4 5 7 20
Neighs:       158426.0 ave      228882 max           0 min
Histogram: 4 2 2 0 4 4 4 4 10 18

Total # of neighbors = 8238178
Ave neighs/atom = 28.530388
Neighbor list builds = 0
Dangerous builds = 0
The dot product: -2.12229476773514e-07
Setting atom values ...
  1 settings made for x
  1 settings made for y
  1 settings made for z
Setting up cg style minimization ...
  Unit style    : metal
  Current step  : 3737
Per MPI rank memory allocation (min/avg/max) = 5.465 | 6.344 | 6.728 Mbytes
Step PotEng KinEng TotEng v_fx v_fy v_fz 
    3737     -1152449            0     -1152449  0.053612529  0.065094019  -0.06862116 
    3930     -1152449            0     -1152449 -9.6692236e-06 -1.3624328e-05 1.1136736e-06 
Loop time of 4.18863 on 52 procs for 193 steps with 288751 atoms

99.9% CPU use with 52 MPI tasks x 1 OpenMP threads

Minimization stats:
  Stopping criterion = linesearch alpha is zero
  Energy initial, next-to-last, final = 
     -1152448.98211343  -1152448.98489389  -1152448.98489389
  Force two-norm initial, final = 0.2184662 0.00011978966
  Force max component initial, final = 0.15360479 1.6135465e-05
  Final line search alpha, max atom move = 0.5 8.0677324e-06
  Iterations, force evaluations = 193 387

MPI task timing breakdown:
Section |  min time  |  avg time  |  max time  |%varavg| %total
---------------------------------------------------------------
Pair    | 1.0857     | 3.0665     | 4.0262     |  48.7 | 73.21
Neigh   | 0          | 0          | 0          |   0.0 |  0.00
Comm    | 0.050555   | 0.67596    | 2.1431     |  74.7 | 16.14
Output  | 0          | 0          | 0          |   0.0 |  0.00
Modify  | 8.0405e-05 | 0.0064538  | 0.013544   |   3.7 |  0.15
Other   |            | 0.4397     |            |       | 10.50

Nlocal:        5552.90 ave        7857 max           0 min
Histogram: 4 2 2 0 2 6 4 0 13 19
Nghost:        6213.50 ave        8769 max         412 min
Histogram: 4 0 4 0 8 0 4 5 7 20
Neighs:       158426.0 ave      228878 max           0 min
Histogram: 4 2 2 0 4 4 4 4 10 18

Total # of neighbors = 8238178
Ave neighs/atom = 28.530388
Neighbor list builds = 0
Dangerous builds = 0
The dot product: -3.35515546741043e-07
Setting atom values ...
  1 settings made for x
  1 settings made for y
  1 settings made for z
Setting up cg style minimization ...
  Unit style    : metal
  Current step  : 3930
Per MPI rank memory allocation (min/avg/max) = 5.465 | 6.344 | 6.728 Mbytes
Step PotEng KinEng TotEng v_fx v_fy v_fz 
    3930   -1152448.9            0   -1152448.9  0.047395177  0.063583722 -0.081732393 
    4000   -1152448.9            0   -1152448.9 -6.9417009e-05 -8.0128784e-05 0.00022867317 
    4262     -1152449            0     -1152449 2.3218333e-06 1.3538325e-06 -1.8766466e-05 
Loop time of 7.20871 on 52 procs for 332 steps with 288751 atoms

99.9% CPU use with 52 MPI tasks x 1 OpenMP threads

Minimization stats:
  Stopping criterion = linesearch alpha is zero
  Energy initial, next-to-last, final = 
     -1152448.94673014  -1152448.98110396  -1152448.98110396
  Force two-norm initial, final = 0.2243687 0.00018953623
  Force max component initial, final = 0.15709513 5.0310784e-05
  Final line search alpha, max atom move = 0.25 1.2577696e-05
  Iterations, force evaluations = 332 665

MPI task timing breakdown:
Section |  min time  |  avg time  |  max time  |%varavg| %total
---------------------------------------------------------------
Pair    | 1.8886     | 5.2924     | 6.913      |  63.5 | 73.42
Neigh   | 1.8926e-05 | 0.0056967  | 0.0083873  |   3.2 |  0.08
Comm    | 0.088895   | 1.1655     | 3.6986     |  98.0 | 16.17
Output  | 0.00011978 | 0.00012407 | 0.0003009  |   0.0 |  0.00
Modify  | 0.00013019 | 0.011101   | 0.023339   |   4.9 |  0.15
Other   |            | 0.7339     |            |       | 10.18

Nlocal:        5552.90 ave        7872 max           0 min
Histogram: 4 2 2 0 2 6 4 0 13 19
Nghost:        6213.42 ave        8770 max         412 min
Histogram: 4 0 4 0 8 0 4 5 7 20
Neighs:       158427.0 ave      229357 max           0 min
Histogram: 4 2 2 0 4 4 4 4 11 17

Total # of neighbors = 8238180
Ave neighs/atom = 28.530395
Neighbor list builds = 1
Dangerous builds = 0
The dot product: 1.25272439452557e-06
Setting atom values ...
  1 settings made for x
  1 settings made for y
  1 settings made for z
Setting up cg style minimization ...
  Unit style    : metal
  Current step  : 4262
Per MPI rank memory allocation (min/avg/max) = 5.465 | 6.344 | 6.728 Mbytes
Step PotEng KinEng TotEng v_fx v_fy v_fz 
    4262     -1152449            0     -1152449  0.021513019  0.051696655   -0.1399784 
    4437     -1152449            0     -1152449 -2.9738585e-06 -4.7063191e-06 -3.6004304e-06 
Loop time of 3.80508 on 52 procs for 175 steps with 288751 atoms

99.9% CPU use with 52 MPI tasks x 1 OpenMP threads

Minimization stats:
  Stopping criterion = energy tolerance
  Energy initial, next-to-last, final = 
      -1152448.9587534  -1152448.96263318  -1152448.96263318
  Force two-norm initial, final = 0.25569597 0.00025494567
  Force max component initial, final = 0.1643456 7.2333556e-05
  Final line search alpha, max atom move = 1.0000000 7.2333556e-05
  Iterations, force evaluations = 175 350

MPI task timing breakdown:
Section |  min time  |  avg time  |  max time  |%varavg| %total
---------------------------------------------------------------
Pair    | 0.98894    | 2.7846     | 3.6574     |  46.3 | 73.18
Neigh   | 0          | 0          | 0          |   0.0 |  0.00
Comm    | 0.045997   | 0.61296    | 1.9444     |  71.1 | 16.11
Output  | 0          | 0          | 0          |   0.0 |  0.00
Modify  | 7.494e-05  | 0.0058775  | 0.012433   |   3.6 |  0.15
Other   |            | 0.4016     |            |       | 10.56

Nlocal:        5552.90 ave        7875 max           0 min
Histogram: 4 2 2 0 2 6 4 0 14 18
Nghost:        6213.54 ave        8769 max         412 min
Histogram: 4 0 4 0 8 0 4 5 7 20
Neighs:       158427.0 ave      229445 max           0 min
Histogram: 4 2 2 0 4 4 4 4 11 17

Total # of neighbors = 8238183
Ave neighs/atom = 28.530405
Neighbor list builds = 0
Dangerous builds = 0
The dot product: 4.42416732756767e-08
Setting atom values ...
  1 settings made for x
  1 settings made for y
  1 settings made for z
Setting up cg style minimization ...
  Unit style    : metal
  Current step  : 4437
Per MPI rank memory allocation (min/avg/max) = 5.465 | 6.344 | 6.728 Mbytes
Step PotEng KinEng TotEng v_fx v_fy v_fz 
    4437   -1152448.9            0   -1152448.9 0.0058967932  0.025034483 -0.068545301 
    4586   -1152448.9            0   -1152448.9 4.6236518e-06 9.0624634e-06 -3.8386381e-06 
Loop time of 3.27101 on 52 procs for 149 steps with 288751 atoms

99.9% CPU use with 52 MPI tasks x 1 OpenMP threads

Minimization stats:
  Stopping criterion = energy tolerance
  Energy initial, next-to-last, final = 
     -1152448.94019221  -1152448.94255557  -1152448.94255557
  Force two-norm initial, final = 0.22357881 0.00017375617
  Force max component initial, final = 0.16587012 1.3470654e-05
  Final line search alpha, max atom move = 1.0000000 1.3470654e-05
  Iterations, force evaluations = 149 298

MPI task timing breakdown:
Section |  min time  |  avg time  |  max time  |%varavg| %total
---------------------------------------------------------------
Pair    | 0.84305    | 2.3753     | 3.134      |  42.9 | 72.62
Neigh   | 0          | 0          | 0          |   0.0 |  0.00
Comm    | 0.043397   | 0.52862    | 1.6526     |  64.9 | 16.16
Output  | 0          | 0          | 0          |   0.0 |  0.00
Modify  | 6.0229e-05 | 0.0049988  | 0.010518   |   3.3 |  0.15
Other   |            | 0.3621     |            |       | 11.07

Nlocal:        5552.90 ave        7882 max           0 min
Histogram: 4 2 2 0 2 6 4 0 14 18
Nghost:        6213.58 ave        8770 max         412 min
Histogram: 4 0 4 0 8 0 4 5 7 20
Neighs:       158427.0 ave      229629 max           0 min
Histogram: 4 2 2 0 5 3 4 4 11 17

Total # of neighbors = 8238184
Ave neighs/atom = 28.530409
Neighbor list builds = 0
Dangerous builds = 0
The dot product: 9.31434464298045e-08
Setting atom values ...
  1 settings made for x
  1 settings made for y
  1 settings made for z
Setting up cg style minimization ...
  Unit style    : metal
  Current step  : 4586
Per MPI rank memory allocation (min/avg/max) = 5.465 | 6.344 | 6.728 Mbytes
Step PotEng KinEng TotEng v_fx v_fy v_fz 
    4586   -1152448.9            0   -1152448.9 0.0010473025  0.012801527 -0.041461695 
    4748   -1152448.9            0   -1152448.9 5.7041125e-06 5.1627788e-06 1.9724694e-05 
Loop time of 3.52148 on 52 procs for 162 steps with 288751 atoms

99.9% CPU use with 52 MPI tasks x 1 OpenMP threads

Minimization stats:
  Stopping criterion = energy tolerance
  Energy initial, next-to-last, final = 
     -1152448.92010826  -1152448.92239595  -1152448.92239595
  Force two-norm initial, final = 0.22080618 0.00010941335
  Force max component initial, final = 0.16765398 1.9724694e-05
  Final line search alpha, max atom move = 1.0000000 1.9724694e-05
  Iterations, force evaluations = 162 324

MPI task timing breakdown:
Section |  min time  |  avg time  |  max time  |%varavg| %total
---------------------------------------------------------------
Pair    | 0.91715    | 2.5733     | 3.3801     |  44.4 | 73.07
Neigh   | 0          | 0          | 0          |   0.0 |  0.00
Comm    | 0.042145   | 0.56747    | 1.8047     |  68.2 | 16.11
Output  | 0          | 0          | 0          |   0.0 |  0.00
Modify  | 5.9728e-05 | 0.0054114  | 0.011336   |   3.4 |  0.15
Other   |            | 0.3753     |            |       | 10.66

Nlocal:        5552.90 ave        7882 max           0 min
Histogram: 4 2 2 0 2 6 4 0 14 18
Nghost:        6213.58 ave        8770 max         412 min
Histogram: 4 0 4 0 8 0 4 5 7 20
Neighs:       158427.0 ave      229622 max           0 min
Histogram: 4 2 2 0 5 3 4 4 11 17

Total # of neighbors = 8238185
Ave neighs/atom = 28.530412
Neighbor list builds = 0
Dangerous builds = 0
The dot product: -1.50975255731094e-07
Setting atom values ...
  1 settings made for x
  1 settings made for y
  1 settings made for z
Setting up cg style minimization ...
  Unit style    : metal
  Current step  : 4748
Per MPI rank memory allocation (min/avg/max) = 5.465 | 6.344 | 6.728 Mbytes
Step PotEng KinEng TotEng v_fx v_fy v_fz 
    4748   -1152448.9            0   -1152448.9 -0.00053842172 0.0079106689 -0.030263914 
    4892   -1152448.9            0   -1152448.9 5.2482133e-06 7.6630252e-06 6.5794822e-06 
Loop time of 3.19271 on 52 procs for 144 steps with 288751 atoms

99.9% CPU use with 52 MPI tasks x 1 OpenMP threads

Minimization stats:
  Stopping criterion = linesearch alpha is zero
  Energy initial, next-to-last, final = 
     -1152448.90014103  -1152448.90213017  -1152448.90213017
  Force two-norm initial, final = 0.22079976 0.00019569211
  Force max component initial, final = 0.16967026 6.3340532e-05
  Final line search alpha, max atom move = 0.25 1.5835133e-05
  Iterations, force evaluations = 144 291

MPI task timing breakdown:
Section |  min time  |  avg time  |  max time  |%varavg| %total
---------------------------------------------------------------
Pair    | 0.82091    | 2.3158     | 3.0687     |  42.4 | 72.53
Neigh   | 0          | 0          | 0          |   0.0 |  0.00
Comm    | 0.038437   | 0.51371    | 1.6092     |  64.3 | 16.09
Output  | 0          | 0          | 0          |   0.0 |  0.00
Modify  | 5.2883e-05 | 0.0048686  | 0.010328   |   3.3 |  0.15
Other   |            | 0.3583     |            |       | 11.22

Nlocal:        5552.90 ave        7884 max           0 min
Histogram: 4 2 2 0 2 6 4 0 14 18
Nghost:        6213.58 ave        8770 max         412 min
Histogram: 4 0 4 0 8 0 4 5 7 20
Neighs:       158427.0 ave      229693 max           0 min
Histogram: 4 2 2 0 5 3 4 4 11 17

Total # of neighbors = 8238182
Ave neighs/atom = 28.530402
Neighbor list builds = 0
Dangerous builds = 0
The dot product: -2.44008559808039e-08
Setting atom values ...
  1 settings made for x
  1 settings made for y
  1 settings made for z
Setting up cg style minimization ...
  Unit style    : metal
  Current step  : 4892
Per MPI rank memory allocation (min/avg/max) = 5.465 | 6.344 | 6.728 Mbytes
Step PotEng KinEng TotEng v_fx v_fy v_fz 
    4892   -1152448.9            0   -1152448.9 -0.00043755195 0.0055188117 -0.020308206 
    5000   -1152448.9            0   -1152448.9 -4.6012788e-06 -1.862234e-06 -2.1135019e-05 
    5043   -1152448.9            0   -1152448.9 -1.8898465e-05 -1.3421094e-05 -6.8261718e-05 
Loop time of 3.28065 on 52 procs for 151 steps with 288751 atoms

99.9% CPU use with 52 MPI tasks x 1 OpenMP threads

Minimization stats:
  Stopping criterion = energy tolerance
  Energy initial, next-to-last, final = 
     -1152448.87881447  -1152448.88062163  -1152448.88062163
  Force two-norm initial, final = 0.21925871 0.00028462151
  Force max component initial, final = 0.1716903 6.8428512e-05
  Final line search alpha, max atom move = 1.0000000 6.8428512e-05
  Iterations, force evaluations = 151 302

MPI task timing breakdown:
Section |  min time  |  avg time  |  max time  |%varavg| %total
---------------------------------------------------------------
Pair    | 0.85116    | 2.3955     | 3.1532     |  43.0 | 73.02
Neigh   | 0          | 0          | 0          |   0.0 |  0.00
Comm    | 0.038841   | 0.52807    | 1.6714     |  65.8 | 16.10
Output  | 0.00012021 | 0.00012436 | 0.00029977 |   0.0 |  0.00
Modify  | 5.7187e-05 | 0.0050383  | 0.010573   |   3.3 |  0.15
Other   |            | 0.3519     |            |       | 10.73

Nlocal:        5552.90 ave        7881 max           0 min
Histogram: 4 2 2 0 2 6 4 0 14 18
Nghost:        6213.54 ave        8770 max         412 min
Histogram: 4 0 4 0 8 0 4 5 7 20
Neighs:       158427.0 ave      229600 max           0 min
Histogram: 4 2 2 0 5 3 4 4 11 17

Total # of neighbors = 8238180
Ave neighs/atom = 28.530395
Neighbor list builds = 0
Dangerous builds = 0
The dot product: 1.49580584856664e-07
Setting atom values ...
  1 settings made for x
  1 settings made for y
  1 settings made for z
Setting up cg style minimization ...
  Unit style    : metal
  Current step  : 5043
Per MPI rank memory allocation (min/avg/max) = 5.465 | 6.344 | 6.728 Mbytes
Step PotEng KinEng TotEng v_fx v_fy v_fz 
    5043   -1152448.9            0   -1152448.9 -0.00024612257 0.0038427381 -0.013487225 
    5230   -1152448.9            0   -1152448.9 9.3778989e-06 1.8210569e-05 -3.1755938e-06 
Loop time of 4.09179 on 52 procs for 187 steps with 288751 atoms

99.9% CPU use with 52 MPI tasks x 1 OpenMP threads

Minimization stats:
  Stopping criterion = linesearch alpha is zero
  Energy initial, next-to-last, final = 
     -1152448.85530734   -1152448.8572263   -1152448.8572263
  Force two-norm initial, final = 0.22311124 0.00012640654
  Force max component initial, final = 0.17385726 4.2750365e-05
  Final line search alpha, max atom move = 0.5 2.1375182e-05
  Iterations, force evaluations = 187 375

MPI task timing breakdown:
Section |  min time  |  avg time  |  max time  |%varavg| %total
---------------------------------------------------------------
Pair    | 1.058      | 2.9891     | 3.9316     |  48.2 | 73.05
Neigh   | 0          | 0          | 0          |   0.0 |  0.00
Comm    | 0.049101   | 0.65906    | 2.0869     |  73.8 | 16.11
Output  | 0          | 0          | 0          |   0.0 |  0.00
Modify  | 7.2895e-05 | 0.0062612  | 0.01319    |   3.7 |  0.15
Other   |            | 0.4374     |            |       | 10.69

Nlocal:        5552.90 ave        7879 max           0 min
Histogram: 4 2 2 0 2 6 4 0 14 18
Nghost:        6213.54 ave        8770 max         412 min
Histogram: 4 0 4 0 8 0 4 5 7 20
Neighs:       158427.0 ave      229535 max           0 min
Histogram: 4 2 2 0 5 3 4 4 11 17

Total # of neighbors = 8238179
Ave neighs/atom = 28.530391
Neighbor list builds = 0
Dangerous builds = 0
The dot product: -9.13484452025978e-09
Setting atom values ...
  1 settings made for x
  1 settings made for y
  1 settings made for z
Setting up cg style minimization ...
  Unit style    : metal
  Current step  : 5230
Per MPI rank memory allocation (min/avg/max) = 5.465 | 6.344 | 6.728 Mbytes
Step PotEng KinEng TotEng v_fx v_fy v_fz 
    5230   -1152448.8            0   -1152448.8 -0.00010696504  0.002969371 -0.0098792705 
    5372   -1152448.8            0   -1152448.8 9.8774111e-06 1.5876228e-05 6.8729132e-06 
Loop time of 3.08071 on 52 procs for 142 steps with 288751 atoms

99.9% CPU use with 52 MPI tasks x 1 OpenMP threads

Minimization stats:
  Stopping criterion = energy tolerance
  Energy initial, next-to-last, final = 
     -1152448.82967986  -1152448.83171116  -1152448.83171116
  Force two-norm initial, final = 0.22784066 0.00020114066
  Force max component initial, final = 0.17623195 6.1325474e-05
  Final line search alpha, max atom move = 1.0000000 6.1325474e-05
  Iterations, force evaluations = 142 284

MPI task timing breakdown:
Section |  min time  |  avg time  |  max time  |%varavg| %total
---------------------------------------------------------------
Pair    | 0.80065    | 2.2541     | 2.96       |  41.7 | 73.17
Neigh   | 0          | 0          | 0          |   0.0 |  0.00
Comm    | 0.037368   | 0.49553    | 1.5762     |  64.0 | 16.08
Output  | 0          | 0          | 0          |   0.0 |  0.00
Modify  | 5.4476e-05 | 0.0047472  | 0.010059   |   3.2 |  0.15
Other   |            | 0.3264     |            |       | 10.59

Nlocal:        5552.90 ave        7874 max           0 min
Histogram: 4 2 2 0 2 6 4 0 14 18
Nghost:        6213.54 ave        8770 max         412 min
Histogram: 4 0 4 0 8 0 4 5 7 20
Neighs:       158426.0 ave      229387 max           0 min
Histogram: 4 2 2 0 4 4 4 4 11 17

Total # of neighbors = 8238177
Ave neighs/atom = 28.530384
Neighbor list builds = 0
Dangerous builds = 0
The dot product: -1.55839926910391e-08
Setting atom values ...
  1 settings made for x
  1 settings made for y
  1 settings made for z
Setting up cg style minimization ...
  Unit style    : metal
  Current step  : 5372
Per MPI rank memory allocation (min/avg/max) = 5.465 | 6.344 | 6.728 Mbytes
Step PotEng KinEng TotEng v_fx v_fy v_fz 
    5372   -1152448.8            0   -1152448.8 4.8870934e-05 0.0025387166 -0.0076585778 
    5541   -1152448.8            0   -1152448.8 5.0772818e-06 5.3370731e-06 1.2284011e-05 
Loop time of 3.75055 on 52 procs for 169 steps with 288751 atoms

99.9% CPU use with 52 MPI tasks x 1 OpenMP threads

Minimization stats:
  Stopping criterion = linesearch alpha is zero
  Energy initial, next-to-last, final = 
     -1152448.80181973  -1152448.80395159  -1152448.80395159
  Force two-norm initial, final = 0.23243645 0.00028100292
  Force max component initial, final = 0.17858152 7.4777678e-05
  Final line search alpha, max atom move = 0.125 9.3472098e-06
  Iterations, force evaluations = 169 345

MPI task timing breakdown:
Section |  min time  |  avg time  |  max time  |%varavg| %total
---------------------------------------------------------------
Pair    | 0.97436    | 2.7457     | 3.5933     |  45.9 | 73.21
Neigh   | 0          | 0          | 0          |   0.0 |  0.00
Comm    | 0.048262   | 0.60289    | 1.9168     |  70.9 | 16.07
Output  | 0          | 0          | 0          |   0.0 |  0.00
Modify  | 6.5927e-05 | 0.0057445  | 0.0121     |   3.5 |  0.15
Other   |            | 0.3962     |            |       | 10.56

Nlocal:        5552.90 ave        7866 max           0 min
Histogram: 4 2 2 0 2 6 4 0 13 19
Nghost:        6213.54 ave        8770 max         412 min
Histogram: 4 0 4 0 8 0 4 5 7 20
Neighs:       158426.0 ave      229129 max           0 min
Histogram: 4 2 2 0 4 4 4 4 10 18

Total # of neighbors = 8238176
Ave neighs/atom = 28.530381
Neighbor list builds = 0
Dangerous builds = 0
The dot product: -2.79940024243411e-09
Setting atom values ...
  1 settings made for x
  1 settings made for y
  1 settings made for z
Setting up cg style minimization ...
  Unit style    : metal
  Current step  : 5541
Per MPI rank memory allocation (min/avg/max) = 5.465 | 6.344 | 6.728 Mbytes
Step PotEng KinEng TotEng v_fx v_fy v_fz 
    5541   -1152448.8            0   -1152448.8 0.00027726682 0.0025596085 -0.0064584654 
    5704   -1152448.8            0   -1152448.8 -1.3901828e-05 -2.9126264e-05 1.2046659e-05 
Loop time of 3.55672 on 52 procs for 163 steps with 288751 atoms

99.9% CPU use with 52 MPI tasks x 1 OpenMP threads

Minimization stats:
  Stopping criterion = energy tolerance
  Energy initial, next-to-last, final = 
     -1152448.77165299  -1152448.77386077  -1152448.77386077
  Force two-norm initial, final = 0.23643422 0.00025278348
  Force max component initial, final = 0.1809657 9.2022086e-05
  Final line search alpha, max atom move = 1.0000000 9.2022086e-05
  Iterations, force evaluations = 163 326

MPI task timing breakdown:
Section |  min time  |  avg time  |  max time  |%varavg| %total
---------------------------------------------------------------
Pair    | 0.9226     | 2.5894     | 3.4048     |  44.6 | 72.80
Neigh   | 0          | 0          | 0          |   0.0 |  0.00
Comm    | 0.042692   | 0.57047    | 1.8059     |  68.3 | 16.04
Output  | 0          | 0          | 0          |   0.0 |  0.00
Modify  | 6.3439e-05 | 0.0054384  | 0.011459   |   3.4 |  0.15
Other   |            | 0.3914     |            |       | 11.00

Nlocal:        5552.90 ave        7856 max           0 min
Histogram: 4 2 2 0 2 6 4 0 13 19
Nghost:        6213.54 ave        8770 max         412 min
Histogram: 4 0 4 0 8 0 4 5 7 20
Neighs:       158426.0 ave      228803 max           0 min
Histogram: 4 2 2 0 4 4 4 4 10 18

Total # of neighbors = 8238169
Ave neighs/atom = 28.530357
Neighbor list builds = 0
Dangerous builds = 0
The dot product: 3.50247710756376e-08
Setting atom values ...
  1 settings made for x
  1 settings made for y
  1 settings made for z
Setting up cg style minimization ...
  Unit style    : metal
  Current step  : 5704
Per MPI rank memory allocation (min/avg/max) = 5.465 | 6.344 | 6.728 Mbytes
Step PotEng KinEng TotEng v_fx v_fy v_fz 
    5704   -1152448.7            0   -1152448.7 0.00054894152 0.0028297251 -0.0058042637 
    5870   -1152448.7            0   -1152448.7 7.710193e-06 1.2921137e-05 3.3712592e-06 
Loop time of 3.60843 on 52 procs for 166 steps with 288751 atoms

99.9% CPU use with 52 MPI tasks x 1 OpenMP threads

Minimization stats:
  Stopping criterion = energy tolerance
  Energy initial, next-to-last, final = 
     -1152448.73912284   -1152448.7413825   -1152448.7413825
  Force two-norm initial, final = 0.23952894 0.00027269002
  Force max component initial, final = 0.18319398 0.00010822415
  Final line search alpha, max atom move = 1.0000000 0.00010822415
  Iterations, force evaluations = 166 332

MPI task timing breakdown:
Section |  min time  |  avg time  |  max time  |%varavg| %total
---------------------------------------------------------------
Pair    | 0.93891    | 2.6401     | 3.4678     |  45.1 | 73.17
Neigh   | 0          | 0          | 0          |   0.0 |  0.00
Comm    | 0.043849   | 0.58212    | 1.8345     |  68.9 | 16.13
Output  | 0          | 0          | 0          |   0.0 |  0.00
Modify  | 6.4264e-05 | 0.005548   | 0.011646   |   3.5 |  0.15
Other   |            | 0.3806     |            |       | 10.55

Nlocal:        5552.90 ave        7856 max           0 min
Histogram: 4 2 2 0 2 6 4 0 13 19
Nghost:        6213.46 ave        8770 max         412 min
Histogram: 4 0 4 0 8 0 4 5 7 20
Neighs:       158426.0 ave      228801 max           0 min
Histogram: 4 2 2 0 4 4 4 4 10 18

Total # of neighbors = 8238166
Ave neighs/atom = 28.530346
Neighbor list builds = 0
Dangerous builds = 0
The dot product: -1.04421002655749e-08
Setting atom values ...
  1 settings made for x
  1 settings made for y
  1 settings made for z
Setting up cg style minimization ...
  Unit style    : metal
  Current step  : 5870
Per MPI rank memory allocation (min/avg/max) = 5.465 | 6.344 | 6.728 Mbytes
Step PotEng KinEng TotEng v_fx v_fy v_fz 
    5870   -1152448.7            0   -1152448.7 0.00086513529 0.0033464292 -0.0056827316 
    6000   -1152448.7            0   -1152448.7 -1.2855637e-05 -1.4716464e-05 -2.7245572e-05 
    6045   -1152448.7            0   -1152448.7 -4.2637641e-06 -3.0777465e-06 -1.4788879e-05 
Loop time of 3.82204 on 52 procs for 175 steps with 288751 atoms

99.9% CPU use with 52 MPI tasks x 1 OpenMP threads

Minimization stats:
  Stopping criterion = energy tolerance
  Energy initial, next-to-last, final = 
     -1152448.70419545  -1152448.70648787  -1152448.70648787
  Force two-norm initial, final = 0.24219995 0.00027075997
  Force max component initial, final = 0.185822 0.00010214896
  Final line search alpha, max atom move = 1.0000000 0.00010214896
  Iterations, force evaluations = 175 350

MPI task timing breakdown:
Section |  min time  |  avg time  |  max time  |%varavg| %total
---------------------------------------------------------------
Pair    | 0.98719    | 2.7785     | 3.6414     |  46.3 | 72.70
Neigh   | 0          | 0          | 0          |   0.0 |  0.00
Comm    | 0.04702    | 0.61466    | 1.9406     |  70.8 | 16.08
Output  | 0.00012026 | 0.00012512 | 0.0003234  |   0.0 |  0.00
Modify  | 6.5887e-05 | 0.0058528  | 0.012313   |   3.5 |  0.15
Other   |            | 0.4229     |            |       | 11.06

Nlocal:        5552.90 ave        7856 max           0 min
Histogram: 4 2 2 0 2 6 4 0 13 19
Nghost:        6213.42 ave        8771 max         412 min
Histogram: 4 0 4 0 8 0 4 5 7 20
Neighs:       158426.0 ave      228805 max           0 min
Histogram: 4 2 2 0 4 4 4 4 10 18

Total # of neighbors = 8238166
Ave neighs/atom = 28.530346
Neighbor list builds = 0
Dangerous builds = 0
The dot product: -7.1884841868299e-09
Setting atom values ...
  1 settings made for x
  1 settings made for y
  1 settings made for z
Setting up cg style minimization ...
  Unit style    : metal
  Current step  : 6045
Per MPI rank memory allocation (min/avg/max) = 5.465 | 6.344 | 6.728 Mbytes
Step PotEng KinEng TotEng v_fx v_fy v_fz 
    6045   -1152448.7            0   -1152448.7 0.0011731635 0.0039822157 -0.0059985238 
    6208   -1152448.7            0   -1152448.7 -1.1027756e-05 -1.8633767e-05 -4.0821161e-06 
Loop time of 3.60905 on 52 procs for 163 steps with 288751 atoms

99.9% CPU use with 52 MPI tasks x 1 OpenMP threads

Minimization stats:
  Stopping criterion = linesearch alpha is zero
  Energy initial, next-to-last, final = 
     -1152448.66686677  -1152448.66917161  -1152448.66917161
  Force two-norm initial, final = 0.24399526 0.0002259637
  Force max component initial, final = 0.18805161 7.5011552e-05
  Final line search alpha, max atom move = 0.125 9.3764440e-06
  Iterations, force evaluations = 163 331

MPI task timing breakdown:
Section |  min time  |  avg time  |  max time  |%varavg| %total
---------------------------------------------------------------
Pair    | 0.93232    | 2.6346     | 3.4697     |  45.2 | 73.00
Neigh   | 0          | 0          | 0          |   0.0 |  0.00
Comm    | 0.044356   | 0.58251    | 1.832      |  68.9 | 16.14
Output  | 0          | 0          | 0          |   0.0 |  0.00
Modify  | 6.1396e-05 | 0.0055193  | 0.011571   |   3.4 |  0.15
Other   |            | 0.3864     |            |       | 10.71

Nlocal:        5552.90 ave        7856 max           0 min
Histogram: 4 2 2 0 2 6 4 0 13 19
Nghost:        6213.38 ave        8771 max         412 min
Histogram: 4 0 4 0 8 0 4 5 7 20
Neighs:       158426.0 ave      228806 max           0 min
Histogram: 4 2 2 0 4 4 4 4 10 18

Total # of neighbors = 8238163
Ave neighs/atom = 28.530336
Neighbor list builds = 0
Dangerous builds = 0
The dot product: 1.08510373440299e-08
Setting atom values ...
  1 settings made for x
  1 settings made for y
  1 settings made for z
Setting up cg style minimization ...
  Unit style    : metal
  Current step  : 6208
Per MPI rank memory allocation (min/avg/max) = 5.465 | 6.344 | 6.728 Mbytes
Step PotEng KinEng TotEng v_fx v_fy v_fz 
    6208   -1152448.6            0   -1152448.6 0.0015260164 0.0047772801 -0.0065807228 
    6403   -1152448.6            0   -1152448.6 -4.6136047e-07 -4.8220064e-07 -1.1314872e-06 
Loop time of 4.22623 on 52 procs for 195 steps with 288751 atoms

99.9% CPU use with 52 MPI tasks x 1 OpenMP threads

Minimization stats:
  Stopping criterion = linesearch alpha is zero
  Energy initial, next-to-last, final = 
     -1152448.62714256  -1152448.62944866  -1152448.62944866
[...]
Histogram: 4 0 4 0 8 0 4 5 7 20
Neighs:       158426.0 ave      230595 max           0 min
Histogram: 4 2 2 0 5 3 4 4 12 16

Total # of neighbors = 8238174
Ave neighs/atom = 28.530374
Neighbor list builds = 0
Dangerous builds = 0
The dot product: 2.72657475925886e-08
Setting atom values ...
  1 settings made for x
  1 settings made for y
  1 settings made for z
Setting up cg style minimization ...
  Unit style    : metal
  Current step  : 25270
Per MPI rank memory allocation (min/avg/max) = 5.465 | 6.344 | 6.728 Mbytes
Step PotEng KinEng TotEng v_fx v_fy v_fz 
   25270   -1152449.1            0   -1152449.1  0.006733015 -0.002834896 0.0096447859 
   25434   -1152449.1            0   -1152449.1 1.2945424e-05 3.1611953e-05 1.8605857e-05 
Loop time of 3.58762 on 52 procs for 164 steps with 288751 atoms

99.9% CPU use with 52 MPI tasks x 1 OpenMP threads

Minimization stats:
  Stopping criterion = energy tolerance
  Energy initial, next-to-last, final = 
     -1152449.10619189  -1152449.10755172  -1152449.10755172
  Force two-norm initial, final = 0.16201763 0.00017055815
  Force max component initial, final = 0.07678913 3.1611953e-05
  Final line search alpha, max atom move = 1.0000000 3.1611953e-05
  Iterations, force evaluations = 164 328

MPI task timing breakdown:
Section |  min time  |  avg time  |  max time  |%varavg| %total
---------------------------------------------------------------
Pair    | 0.92211    | 2.6062     | 3.448      |  45.0 | 72.64
Neigh   | 0          | 0          | 0          |   0.0 |  0.00
Comm    | 0.042866   | 0.58096    | 1.8205     |  68.0 | 16.19
Output  | 0          | 0          | 0          |   0.0 |  0.00
Modify  | 4.7406e-05 | 0.0054742  | 0.011618   |   3.5 |  0.15
Other   |            | 0.395      |            |       | 11.01

Nlocal:        5552.90 ave        7911 max           0 min
Histogram: 4 2 2 0 2 6 4 0 15 17
Nghost:        6213.65 ave        8772 max         412 min
Histogram: 4 0 4 0 8 0 4 5 7 20
Neighs:       158426.0 ave      230595 max           0 min
Histogram: 4 2 2 0 5 3 4 4 12 16

Total # of neighbors = 8238172
Ave neighs/atom = 28.530367
Neighbor list builds = 0
Dangerous builds = 0
The dot product: -2.72527781497962e-08
Setting atom values ...
  1 settings made for x
  1 settings made for y
  1 settings made for z
Setting up cg style minimization ...
  Unit style    : metal
  Current step  : 25434
Per MPI rank memory allocation (min/avg/max) = 5.465 | 6.344 | 6.728 Mbytes
Step PotEng KinEng TotEng v_fx v_fy v_fz 
   25434   -1152449.1            0   -1152449.1 0.0058325289 -0.0020937489 0.0083644114 
   25663   -1152449.1            0   -1152449.1 9.3217358e-07 1.4377333e-06 1.3380871e-06 
Loop time of 5.02334 on 52 procs for 229 steps with 288751 atoms

99.9% CPU use with 52 MPI tasks x 1 OpenMP threads

Minimization stats:
  Stopping criterion = linesearch alpha is zero
  Energy initial, next-to-last, final = 
      -1152449.0863666  -1152449.08776461  -1152449.08776461
  Force two-norm initial, final = 0.16178945 1.7507686e-05
  Force max component initial, final = 0.077185704 2.9411245e-06
  Final line search alpha, max atom move = 0.5 1.4705622e-06
  Iterations, force evaluations = 229 459

MPI task timing breakdown:
Section |  min time  |  avg time  |  max time  |%varavg| %total
---------------------------------------------------------------
Pair    | 1.2914     | 3.6456     | 4.8202     |  53.0 | 72.57
Neigh   | 0          | 0          | 0          |   0.0 |  0.00
Comm    | 0.060109   | 0.80821    | 2.539      |  80.4 | 16.09
Output  | 0          | 0          | 0          |   0.0 |  0.00
Modify  | 6.5403e-05 | 0.0076532  | 0.016224   |   4.1 |  0.15
Other   |            | 0.5618     |            |       | 11.18

Nlocal:        5552.90 ave        7912 max           0 min
Histogram: 4 2 2 0 2 6 4 0 15 17
Nghost:        6213.65 ave        8772 max         412 min
Histogram: 4 0 4 0 8 0 4 5 7 20
Neighs:       158426.0 ave      230620 max           0 min
Histogram: 4 2 2 0 5 3 4 4 12 16

Total # of neighbors = 8238172
Ave neighs/atom = 28.530367
Neighbor list builds = 0
Dangerous builds = 0
The dot product: -8.16447547896597e-10
Setting atom values ...
  1 settings made for x
  1 settings made for y
  1 settings made for z
Setting up cg style minimization ...
  Unit style    : metal
  Current step  : 25663
Per MPI rank memory allocation (min/avg/max) = 5.465 | 6.344 | 6.728 Mbytes
Step PotEng KinEng TotEng v_fx v_fy v_fz 
   25663   -1152449.1            0   -1152449.1 0.0050653389 -0.0015526829  0.007271839 
   25816   -1152449.1            0   -1152449.1 -2.0076055e-06 7.5305814e-06 -2.8845323e-06 
Loop time of 3.41784 on 52 procs for 153 steps with 288751 atoms

99.9% CPU use with 52 MPI tasks x 1 OpenMP threads

Minimization stats:
  Stopping criterion = linesearch alpha is zero
  Energy initial, next-to-last, final = 
     -1152449.06553447  -1152449.06691906  -1152449.06691906
  Force two-norm initial, final = 0.1618177 0.00027336827
  Force max component initial, final = 0.077526455 5.6911274e-05
  Final line search alpha, max atom move = 0.125 7.1139093e-06
  Iterations, force evaluations = 153 311

MPI task timing breakdown:
Section |  min time  |  avg time  |  max time  |%varavg| %total
---------------------------------------------------------------
Pair    | 0.87832    | 2.4761     | 3.2697     |  43.7 | 72.45
Neigh   | 0          | 0          | 0          |   0.0 |  0.00
Comm    | 0.043772   | 0.55123    | 1.7406     |  66.4 | 16.13
Output  | 0          | 0          | 0          |   0.0 |  0.00
Modify  | 4.5142e-05 | 0.0051886  | 0.011065   |   3.4 |  0.15
Other   |            | 0.3853     |            |       | 11.27

Nlocal:        5552.90 ave        7913 max           0 min
Histogram: 4 2 2 0 2 6 4 3 12 17
Nghost:        6213.73 ave        8772 max         412 min
Histogram: 4 0 4 0 8 0 4 5 7 20
Neighs:       158426.0 ave      230641 max           0 min
Histogram: 4 2 2 0 5 3 4 4 12 16

Total # of neighbors = 8238171
Ave neighs/atom = 28.530364
Neighbor list builds = 0
Dangerous builds = 0
The dot product: -1.66388159580026e-08
Setting atom values ...
  1 settings made for x
  1 settings made for y
  1 settings made for z
Setting up cg style minimization ...
  Unit style    : metal
  Current step  : 25816
Per MPI rank memory allocation (min/avg/max) = 5.465 | 6.344 | 6.728 Mbytes
Step PotEng KinEng TotEng v_fx v_fy v_fz 
   25816     -1152449            0     -1152449 0.0042826664 -0.0011289173 0.0061536464 
   25991     -1152449            0     -1152449 -1.0512638e-05 -1.5050342e-05 -1.5082501e-05 
Loop time of 3.82746 on 52 procs for 175 steps with 288751 atoms

99.9% CPU use with 52 MPI tasks x 1 OpenMP threads

Minimization stats:
  Stopping criterion = energy tolerance
  Energy initial, next-to-last, final = 
     -1152449.04353459  -1152449.04488688  -1152449.04488688
  Force two-norm initial, final = 0.16190486 0.00014792839
  Force max component initial, final = 0.077763442 2.3822252e-05
  Final line search alpha, max atom move = 1.0000000 2.3822252e-05
  Iterations, force evaluations = 175 350

MPI task timing breakdown:
Section |  min time  |  avg time  |  max time  |%varavg| %total
---------------------------------------------------------------
Pair    | 0.98363    | 2.7819     | 3.678      |  46.3 | 72.68
Neigh   | 0          | 0          | 0          |   0.0 |  0.00
Comm    | 0.046254   | 0.61725    | 1.9346     |  70.1 | 16.13
Output  | 0          | 0          | 0          |   0.0 |  0.00
Modify  | 5.2251e-05 | 0.0058445  | 0.01242    |   3.6 |  0.15
Other   |            | 0.4225     |            |       | 11.04

Nlocal:        5552.90 ave        7914 max           0 min
Histogram: 4 2 2 0 2 6 4 3 12 17
Nghost:        6213.73 ave        8772 max         412 min
Histogram: 4 0 4 0 8 0 4 5 7 20
Neighs:       158426.0 ave      230671 max           0 min
Histogram: 4 2 2 0 5 3 4 4 12 16

Total # of neighbors = 8238170
Ave neighs/atom = 28.530360
Neighbor list builds = 0
Dangerous builds = 0
The dot product: 6.40456282556816e-09
Setting atom values ...
  1 settings made for x
  1 settings made for y
  1 settings made for z
Setting up cg style minimization ...
  Unit style    : metal
  Current step  : 25991
Per MPI rank memory allocation (min/avg/max) = 5.465 | 6.344 | 6.728 Mbytes
Step PotEng KinEng TotEng v_fx v_fy v_fz 
   25991     -1152449            0     -1152449 0.0034340066 -0.0010443105 0.0049379868 
   26000     -1152449            0     -1152449 -0.0009008333 -0.00081538584 -0.0012931113 
   26195     -1152449            0     -1152449 7.0166316e-06 8.6707392e-06 1.0067297e-05 
Loop time of 4.47379 on 52 procs for 204 steps with 288751 atoms

99.9% CPU use with 52 MPI tasks x 1 OpenMP threads

Minimization stats:
  Stopping criterion = energy tolerance
  Energy initial, next-to-last, final = 
     -1152449.02022889  -1152449.02156079  -1152449.02156079
  Force two-norm initial, final = 0.16218008 6.7057552e-05
  Force max component initial, final = 0.078043539 1.2600411e-05
  Final line search alpha, max atom move = 1.0000000 1.2600411e-05
  Iterations, force evaluations = 204 408

MPI task timing breakdown:
Section |  min time  |  avg time  |  max time  |%varavg| %total
---------------------------------------------------------------
Pair    | 1.1454     | 3.2389     | 4.2997     |  50.1 | 72.40
Neigh   | 0          | 0          | 0          |   0.0 |  0.00
Comm    | 0.053747   | 0.71944    | 2.2481     |  75.6 | 16.08
Output  | 0.00011549 | 0.00012053 | 0.00033579 |   0.0 |  0.00
Modify  | 5.7849e-05 | 0.0068049  | 0.014511   |   3.9 |  0.15
Other   |            | 0.5085     |            |       | 11.37

Nlocal:        5552.90 ave        7914 max           0 min
Histogram: 4 2 2 0 2 6 4 3 12 17
Nghost:        6213.73 ave        8772 max         412 min
Histogram: 4 0 4 0 8 0 4 5 7 20
Neighs:       158426.0 ave      230671 max           0 min
Histogram: 4 2 2 0 5 3 4 4 12 16

Total # of neighbors = 8238171
Ave neighs/atom = 28.530364
Neighbor list builds = 0
Dangerous builds = 0
The dot product: -3.6343502959073e-09
Setting atom values ...
  1 settings made for x
  1 settings made for y
  1 settings made for z
Setting up cg style minimization ...
  Unit style    : metal
  Current step  : 26195
Per MPI rank memory allocation (min/avg/max) = 5.465 | 6.344 | 6.728 Mbytes
Step PotEng KinEng TotEng v_fx v_fy v_fz 
   26195     -1152449            0     -1152449 0.0025612346 -0.0012188345 0.0036863421 
   26408     -1152449            0     -1152449 -2.8502649e-06 -3.6839079e-06 -4.0882416e-06 
Loop time of 4.66429 on 52 procs for 213 steps with 288751 atoms

99.9% CPU use with 52 MPI tasks x 1 OpenMP threads

Minimization stats:
  Stopping criterion = energy tolerance
  Energy initial, next-to-last, final = 
     -1152448.99552808  -1152448.99684193  -1152448.99684193
  Force two-norm initial, final = 0.16264915 4.5093547e-05
  Force max component initial, final = 0.078287897 7.7760584e-06
  Final line search alpha, max atom move = 1.0000000 7.7760584e-06
  Iterations, force evaluations = 213 426

MPI task timing breakdown:
Section |  min time  |  avg time  |  max time  |%varavg| %total
---------------------------------------------------------------
Pair    | 1.1962     | 3.3851     | 4.484      |  51.3 | 72.57
Neigh   | 0          | 0          | 0          |   0.0 |  0.00
Comm    | 0.055891   | 0.75046    | 2.3487     |  77.5 | 16.09
Output  | 0          | 0          | 0          |   0.0 |  0.00
Modify  | 5.9324e-05 | 0.0070962  | 0.015148   |   3.9 |  0.15
Other   |            | 0.5217     |            |       | 11.18

Nlocal:        5552.90 ave        7915 max           0 min
Histogram: 4 2 2 0 2 6 4 3 12 17
Nghost:        6213.77 ave        8772 max         412 min
Histogram: 4 0 4 0 8 0 4 5 7 20
Neighs:       158426.0 ave      230703 max           0 min
Histogram: 4 2 2 0 5 3 4 4 12 16

Total # of neighbors = 8238173
Ave neighs/atom = 28.530370
Neighbor list builds = 0
Dangerous builds = 0
The dot product: 2.94127701718135e-09
Setting atom values ...
  1 settings made for x
  1 settings made for y
  1 settings made for z
Setting up cg style minimization ...
  Unit style    : metal
  Current step  : 26408
Per MPI rank memory allocation (min/avg/max) = 5.465 | 6.344 | 6.728 Mbytes
Step PotEng KinEng TotEng v_fx v_fy v_fz 
   26408     -1152449            0     -1152449 0.0016318241 -0.0016406105 0.0023527916 
   26607     -1152449            0     -1152449 7.7280759e-06 -6.3230613e-06 1.1137413e-05 
Loop time of 4.3685 on 52 procs for 199 steps with 288751 atoms

99.9% CPU use with 52 MPI tasks x 1 OpenMP threads

Minimization stats:
  Stopping criterion = linesearch alpha is zero
  Energy initial, next-to-last, final = 
     -1152448.96933144  -1152448.97063108  -1152448.97063108
  Force two-norm initial, final = 0.16330595 8.9928810e-05
  Force max component initial, final = 0.078479664 2.2537797e-05
  Final line search alpha, max atom move = 0.5 1.1268898e-05
  Iterations, force evaluations = 199 399

MPI task timing breakdown:
Section |  min time  |  avg time  |  max time  |%varavg| %total
---------------------------------------------------------------
Pair    | 1.1206     | 3.1687     | 4.1971     |  49.6 | 72.54
Neigh   | 0          | 0          | 0          |   0.0 |  0.00
Comm    | 0.052457   | 0.70583    | 2.2073     |  74.9 | 16.16
Output  | 0          | 0          | 0          |   0.0 |  0.00
Modify  | 5.7718e-05 | 0.0066787  | 0.014168   |   3.8 |  0.15
Other   |            | 0.4873     |            |       | 11.15

Nlocal:        5552.90 ave        7915 max           0 min
Histogram: 4 2 2 0 2 6 4 3 12 17
Nghost:        6213.77 ave        8772 max         412 min
Histogram: 4 0 4 0 8 0 4 5 7 20
Neighs:       158426.0 ave      230707 max           0 min
Histogram: 4 2 2 0 5 3 4 4 12 16

Total # of neighbors = 8238171
Ave neighs/atom = 28.530364
Neighbor list builds = 0
Dangerous builds = 0
The dot product: 9.2132969659892e-09
Setting atom values ...
  1 settings made for x
  1 settings made for y
  1 settings made for z
Setting up cg style minimization ...
  Unit style    : metal
  Current step  : 26607
Per MPI rank memory allocation (min/avg/max) = 5.465 | 6.344 | 6.728 Mbytes
Step PotEng KinEng TotEng v_fx v_fy v_fz 
   26607   -1152448.9            0   -1152448.9 0.00077764401 -0.002120427 0.0011274268 
   26802   -1152448.9            0   -1152448.9 -5.1304765e-06 -6.9875472e-06 -7.3502417e-06 
Loop time of 4.30401 on 52 procs for 195 steps with 288751 atoms

99.9% CPU use with 52 MPI tasks x 1 OpenMP threads

Minimization stats:
  Stopping criterion = linesearch alpha is zero
  Energy initial, next-to-last, final = 
     -1152448.94154869  -1152448.94284272  -1152448.94284272
  Force two-norm initial, final = 0.16419375 9.7630116e-05
  Force max component initial, final = 0.078647827 8.6645200e-06
  Final line search alpha, max atom move = 0.5 4.3322600e-06
  Iterations, force evaluations = 195 391

MPI task timing breakdown:
Section |  min time  |  avg time  |  max time  |%varavg| %total
---------------------------------------------------------------
Pair    | 1.0992     | 3.1077     | 4.1095     |  49.1 | 72.21
Neigh   | 0          | 0          | 0          |   0.0 |  0.00
Comm    | 0.051862   | 0.69324    | 2.1864     |  74.0 | 16.11
Output  | 0          | 0          | 0          |   0.0 |  0.00
Modify  | 5.4666e-05 | 0.0065372  | 0.013959   |   3.8 |  0.15
Other   |            | 0.4965     |            |       | 11.54

Nlocal:        5552.90 ave        7915 max           0 min
Histogram: 4 2 2 0 2 6 4 3 12 17
Nghost:        6213.67 ave        8771 max         412 min
Histogram: 4 0 4 0 8 0 4 5 7 20
Neighs:       158426.0 ave      230699 max           0 min
Histogram: 4 2 2 0 5 3 4 4 12 16

Total # of neighbors = 8238172
Ave neighs/atom = 28.530367
Neighbor list builds = 0
Dangerous builds = 0
The dot product: 1.06499361347607e-08
Setting atom values ...
  1 settings made for x
  1 settings made for y
  1 settings made for z
Setting up cg style minimization ...
  Unit style    : metal
  Current step  : 26802
Per MPI rank memory allocation (min/avg/max) = 5.465 | 6.344 | 6.728 Mbytes
Step PotEng KinEng TotEng v_fx v_fy v_fz 
   26802   -1152448.9            0   -1152448.9 5.3414783e-05 -0.0024648224 8.8873842e-05 
   27000   -1152448.9            0   -1152448.9  -1.5026e-05 -2.394716e-05 -2.1493595e-05 
   27004   -1152448.9            0   -1152448.9 2.3717714e-06 1.1681979e-06 3.4054157e-06 
Loop time of 4.42928 on 52 procs for 202 steps with 288751 atoms

99.9% CPU use with 52 MPI tasks x 1 OpenMP threads

Minimization stats:
  Stopping criterion = linesearch alpha is zero
  Energy initial, next-to-last, final = 
     -1152448.91211056  -1152448.91340432  -1152448.91340432
  Force two-norm initial, final = 0.16523892 8.5409976e-05
  Force max component initial, final = 0.078786348 3.4054157e-06
  Final line search alpha, max atom move = 0.5 1.7027078e-06
  Iterations, force evaluations = 202 405

MPI task timing breakdown:
Section |  min time  |  avg time  |  max time  |%varavg| %total
---------------------------------------------------------------
Pair    | 1.1377     | 3.2189     | 4.257      |  50.0 | 72.67
Neigh   | 0          | 0          | 0          |   0.0 |  0.00
Comm    | 0.052849   | 0.7238     | 2.2702     |  75.4 | 16.34
Output  | 0.0001198  | 0.00012781 | 0.00038321 |   0.0 |  0.00
Modify  | 5.7606e-05 | 0.0067582  | 0.014379   |   3.8 |  0.15
Other   |            | 0.4797     |            |       | 10.83

Nlocal:        5552.90 ave        7916 max           0 min
Histogram: 4 2 2 0 2 6 4 3 12 17
Nghost:        6213.56 ave        8771 max         412 min
Histogram: 4 0 4 0 8 0 4 5 7 20
Neighs:       158426.0 ave      230715 max           0 min
Histogram: 4 2 2 0 5 3 4 4 12 16

Total # of neighbors = 8238170
Ave neighs/atom = 28.530360
Neighbor list builds = 0
Dangerous builds = 0
The dot product: -2.92332494693446e-09
Setting atom values ...
  1 settings made for x
  1 settings made for y
  1 settings made for z
Setting up cg style minimization ...
  Unit style    : metal
  Current step  : 27004
Per MPI rank memory allocation (min/avg/max) = 5.465 | 6.344 | 6.728 Mbytes
Step PotEng KinEng TotEng v_fx v_fy v_fz 
   27004   -1152448.9            0   -1152448.9 -0.00041107262 -0.0024756144 -0.00057725292 
   27184   -1152448.9            0   -1152448.9 -1.9839333e-06 -9.6947968e-06 -2.7985488e-06 
Loop time of 3.98043 on 52 procs for 180 steps with 288751 atoms

99.9% CPU use with 52 MPI tasks x 1 OpenMP threads

Minimization stats:
  Stopping criterion = linesearch alpha is zero
  Energy initial, next-to-last, final = 
     -1152448.88095764  -1152448.88225383  -1152448.88225383
  Force two-norm initial, final = 0.16639513 0.00016994335
  Force max component initial, final = 0.07891211 1.4958160e-05
  Final line search alpha, max atom move = 0.25 3.7395399e-06
  Iterations, force evaluations = 180 363

MPI task timing breakdown:
Section |  min time  |  avg time  |  max time  |%varavg| %total
---------------------------------------------------------------
Pair    | 1.0197     | 2.8846     | 3.823      |  47.2 | 72.47
Neigh   | 0          | 0          | 0          |   0.0 |  0.00
Comm    | 0.04753    | 0.63906    | 2.0005     |  71.3 | 16.05
Output  | 0          | 0          | 0          |   0.0 |  0.00
Modify  | 5.0928e-05 | 0.0060499  | 0.012915   |   3.6 |  0.15
Other   |            | 0.4507     |            |       | 11.32

Nlocal:        5552.90 ave        7916 max           0 min
Histogram: 4 2 2 0 2 6 4 3 12 17
Nghost:        6213.48 ave        8771 max         412 min
Histogram: 4 0 4 0 8 0 4 5 7 20
Neighs:       158426.0 ave      230716 max           0 min
Histogram: 4 2 2 0 5 3 4 4 12 16

Total # of neighbors = 8238169
Ave neighs/atom = 28.530357
Neighbor list builds = 0
Dangerous builds = 0
The dot product: 1.40521527321173e-08
