LAMMPS (29 Oct 2020)
OMP_NUM_THREADS environment is not set. Defaulting to 1 thread. (../comm.cpp:94)
  using 1 OpenMP thread(s) per MPI task
Reading data file ...
  orthogonal box = (-122.39241 -121.13707 -37.090501) to (122.39241 121.13707 37.090501)
  13 by 4 by 1 MPI processor grid
  reading atoms ...
  288751 atoms
  read_data CPU = 0.446 seconds
199981 atoms in group inner
88770 atoms in group outer
1 atoms in group carbon
Neighbor list info ...
  update every 1 steps, delay 0 steps, check yes
  max neighbors/atom: 2000, page size: 100000
  master list distance cutoff = 5.6
  ghost atom cutoff = 5.6
  binsize = 2.8, bins = 88 87 27
  1 neighbor lists, perpetual/occasional/extra = 1 0 0
  (1) pair eam/alloy, perpetual
      attributes: half, newton on
      pair build: half/bin/atomonly/newton
      stencil: half/bin/3d/newton
      bin: standard
Setting up cg style minimization ...
  Unit style    : metal
  Current step  : 0
Per MPI rank memory allocation (min/avg/max) = 5.465 | 6.344 | 6.728 Mbytes
Step v_fx v_fy v_fz PotEng KinEng TotEng 
       0   -1.6325143  -0.71982095    2.4528973   -1152447.8            0   -1152447.8 
     173 1.8418074e-05 -9.4121414e-07 -2.1407631e-05   -1152449.5            0   -1152449.5 
Loop time of 3.85459 on 52 procs for 173 steps with 288751 atoms

99.8% CPU use with 52 MPI tasks x 1 OpenMP threads

Minimization stats:
  Stopping criterion = linesearch alpha is zero
  Energy initial, next-to-last, final = 
     -1152447.79198108  -1152449.45035285  -1152449.45035285
  Force two-norm initial, final = 10.068315 6.8910179e-05
  Force max component initial, final = 6.1077451 2.1407631e-05
  Final line search alpha, max atom move = 0.5 1.0703816e-05
  Iterations, force evaluations = 173 346

MPI task timing breakdown:
Section |  min time  |  avg time  |  max time  |%varavg| %total
---------------------------------------------------------------
Pair    | 1.0194     | 2.7815     | 3.6415     |  45.5 | 72.16
Neigh   | 6.4831e-05 | 0.019251   | 0.029261   |   5.9 |  0.50
Comm    | 0.060343   | 0.61774    | 1.9542     |  69.9 | 16.03
Output  | 0          | 0          | 0          |   0.0 |  0.00
Modify  | 6.2602e-05 | 0.0038042  | 0.0095428  |   3.8 |  0.10
Other   |            | 0.4323     |            |       | 11.21

Nlocal:        5552.90 ave        7911 max           0 min
Histogram: 4 2 2 0 2 6 4 0 15 17
Nghost:        6213.58 ave        8769 max         412 min
Histogram: 4 0 4 0 8 0 4 5 7 20
Neighs:       158427.0 ave      230585 max           0 min
Histogram: 4 2 2 0 5 3 4 4 12 16

Total # of neighbors = 8238206
Ave neighs/atom = 28.530485
Neighbor list builds = 3
Dangerous builds = 0
-0.03 1.69 34.67 -0.0115763666284565 2.0121778712967 34.8569959045885
Total wall time: 0:00:04
