LAMMPS (29 Oct 2020)
OMP_NUM_THREADS environment is not set. Defaulting to 1 thread. (../comm.cpp:94)
  using 1 OpenMP thread(s) per MPI task
OMP_NUM_THREADS environment is not set. Defaulting to 1 thread. (../comm.cpp:94)
  using 1 OpenMP thread(s) per MPI task
Reading data file ...
  orthogonal box = (-122.39241 -121.13707 -37.090501) to (122.39241 121.13707 37.090501)
  13 by 4 by 1 MPI processor grid
  reading atoms ...
  288751 atoms
  read_data CPU = 0.457 seconds
199981 atoms in group inner
88770 atoms in group outer
1 atoms in group carbon
Neighbor list info ...
  update every 1 steps, delay 0 steps, check yes
  max neighbors/atom: 2000, page size: 100000
  master list distance cutoff = 5.6
  ghost atom cutoff = 5.6
  binsize = 2.8, bins = 88 87 27
  1 neighbor lists, perpetual/occasional/extra = 1 0 0
  (1) pair eam/alloy, perpetual
      attributes: half, newton on
      pair build: half/bin/atomonly/newton
      stencil: half/bin/3d/newton
      bin: standard
Setting up cg style minimization ...
  Unit style    : metal
  Current step  : 0
Per MPI rank memory allocation (min/avg/max) = 5.465 | 6.344 | 6.728 Mbytes
Step v_fx v_fy v_fz PotEng KinEng TotEng 
       0 -0.045437152   0.12588067 -0.0070288856   -1152444.6            0   -1152444.6 
     223 8.4199178e-06 -8.005228e-07 -1.7351586e-05     -1152449            0     -1152449 
Loop time of 4.95479 on 52 procs for 223 steps with 288751 atoms

99.8% CPU use with 52 MPI tasks x 1 OpenMP threads

Minimization stats:
  Stopping criterion = energy tolerance
  Energy initial, next-to-last, final = 
     -1152444.63022566  -1152448.97218892  -1152448.97218892
  Force two-norm initial, final = 23.793763 0.00022294669
  Force max component initial, final = 13.986894 5.3144640e-05
  Final line search alpha, max atom move = 1.0000000 5.3144640e-05
  Iterations, force evaluations = 223 443

MPI task timing breakdown:
Section |  min time  |  avg time  |  max time  |%varavg| %total
---------------------------------------------------------------
Pair    | 1.3446     | 3.5607     | 4.6532     |  50.5 | 71.86
Neigh   | 0.00018087 | 0.054495   | 0.081489   |   9.8 |  1.10
Comm    | 0.075969   | 0.79107    | 2.461      |  78.4 | 15.97
Output  | 0          | 0          | 0          |   0.0 |  0.00
Modify  | 6.6413e-05 | 0.0048771  | 0.012201   |   4.3 |  0.10
Other   |            | 0.5437     |            |       | 10.97

Nlocal:        5552.90 ave        7900 max           0 min
Histogram: 4 2 2 0 2 6 4 1 13 18
Nghost:        6213.54 ave        8769 max         412 min
Histogram: 4 0 4 0 8 0 4 5 7 20
Neighs:       158427.0 ave      230213 max           0 min
Histogram: 4 2 2 0 5 3 4 4 12 16

Total # of neighbors = 8238206
Ave neighs/atom = 28.530485
Neighbor list builds = 9
Dangerous builds = 0
Setting atom values ...
  1 settings made for x
  1 settings made for y
  1 settings made for z
Setting up cg style minimization ...
  Unit style    : metal
  Current step  : 223
Per MPI rank memory allocation (min/avg/max) = 5.465 | 6.344 | 6.728 Mbytes
Step PotEng KinEng TotEng v_fx v_fy v_fz 
     223     -1152449            0     -1152449 -0.026793111 -0.0095266654  0.028893084 
     374     -1152449            0     -1152449 -1.0740446e-05 -1.6601181e-06 1.5680848e-05 
Loop time of 3.31241 on 52 procs for 151 steps with 288751 atoms

99.9% CPU use with 52 MPI tasks x 1 OpenMP threads

Minimization stats:
  Stopping criterion = energy tolerance
  Energy initial, next-to-last, final = 
     -1152448.96850994  -1152448.97107397  -1152448.97107397
  Force two-norm initial, final = 0.21733975 0.00026965019
  Force max component initial, final = 0.090380664 3.2407942e-05
  Final line search alpha, max atom move = 1.0000000 3.2407942e-05
  Iterations, force evaluations = 151 302

MPI task timing breakdown:
Section |  min time  |  avg time  |  max time  |%varavg| %total
---------------------------------------------------------------
Pair    | 0.85643    | 2.4059     | 3.1761     |  43.0 | 72.63
Neigh   | 0          | 0          | 0          |   0.0 |  0.00
Comm    | 0.043648   | 0.53355    | 1.6719     |  65.1 | 16.11
Output  | 0          | 0          | 0          |   0.0 |  0.00
Modify  | 4.8838e-05 | 0.0050769  | 0.010765   |   3.3 |  0.15
Other   |            | 0.3678     |            |       | 11.10

Nlocal:        5552.90 ave        7900 max           0 min
Histogram: 4 2 2 0 2 6 4 0 14 18
Nghost:        6213.58 ave        8769 max         412 min
Histogram: 4 0 4 0 8 0 4 5 7 20
Neighs:       158427.0 ave      230209 max           0 min
Histogram: 4 2 2 0 5 3 4 4 12 16

Total # of neighbors = 8238206
Ave neighs/atom = 28.530485
Neighbor list builds = 0
Dangerous builds = 0
Setting atom values ...
  1 settings made for x
  1 settings made for y
  1 settings made for z
Setting up cg style minimization ...
  Unit style    : metal
  Current step  : 374
Per MPI rank memory allocation (min/avg/max) = 5.465 | 6.344 | 6.728 Mbytes
Step PotEng KinEng TotEng v_fx v_fy v_fz 
     374     -1152449            0     -1152449 -0.0011799377 0.0061798191 0.0063230448 
     604     -1152449            0     -1152449 3.5479591e-05 -3.396333e-06 -4.0180258e-05 
Loop time of 5.05351 on 52 procs for 230 steps with 288751 atoms

99.9% CPU use with 52 MPI tasks x 1 OpenMP threads

Minimization stats:
  Stopping criterion = linesearch alpha is zero
  Energy initial, next-to-last, final = 
     -1152448.96773352  -1152448.96986276  -1152448.96986276
  Force two-norm initial, final = 0.14867821 0.00016430683
  Force max component initial, final = 0.075601573 4.0180258e-05
  Final line search alpha, max atom move = 0.25 1.0045064e-05
  Iterations, force evaluations = 230 463

MPI task timing breakdown:
Section |  min time  |  avg time  |  max time  |%varavg| %total
---------------------------------------------------------------
Pair    | 1.311      | 3.6759     | 4.8477     |  53.1 | 72.74
Neigh   | 0          | 0          | 0          |   0.0 |  0.00
Comm    | 0.061898   | 0.81347    | 2.5502     |  80.7 | 16.10
Output  | 0          | 0          | 0          |   0.0 |  0.00
Modify  | 8.7552e-05 | 0.007739   | 0.016484   |   4.1 |  0.15
Other   |            | 0.5564     |            |       | 11.01

Nlocal:        5552.90 ave        7899 max           0 min
Histogram: 4 2 2 0 2 6 4 0 14 18
Nghost:        6213.60 ave        8769 max         412 min
Histogram: 4 0 4 0 8 0 4 5 7 20
Neighs:       158427.0 ave      230183 max           0 min
Histogram: 4 2 2 0 5 3 4 4 12 16

Total # of neighbors = 8238198
Ave neighs/atom = 28.530457
Neighbor list builds = 0
Dangerous builds = 0
The dot product: -1.01038752740022e-06
Setting atom values ...
  1 settings made for x
  1 settings made for y
  1 settings made for z
Setting up cg style minimization ...
  Unit style    : metal
  Current step  : 604
Per MPI rank memory allocation (min/avg/max) = 5.465 | 6.344 | 6.728 Mbytes
Step PotEng KinEng TotEng v_fx v_fy v_fz 
     604     -1152449            0     -1152449  0.020246601  0.010526939 -0.010022841 
     805     -1152449            0     -1152449 -5.3865379e-05 5.2657139e-07 2.9855438e-05 
Loop time of 4.40755 on 52 procs for 201 steps with 288751 atoms

99.9% CPU use with 52 MPI tasks x 1 OpenMP threads

Minimization stats:
  Stopping criterion = linesearch alpha is zero
  Energy initial, next-to-last, final = 
     -1152448.96644722  -1152448.96872636  -1152448.96872636
  Force two-norm initial, final = 0.16586143 0.00017791011
  Force max component initial, final = 0.089091663 5.5637114e-05
  Final line search alpha, max atom move = 0.25 1.3909278e-05
  Iterations, force evaluations = 201 405

MPI task timing breakdown:
Section |  min time  |  avg time  |  max time  |%varavg| %total
---------------------------------------------------------------
Pair    | 1.146      | 3.2234     | 4.227      |  49.8 | 73.13
Neigh   | 0          | 0          | 0          |   0.0 |  0.00
Comm    | 0.053911   | 0.7137     | 2.2552     |  76.2 | 16.19
Output  | 0          | 0          | 0          |   0.0 |  0.00
Modify  | 6.218e-05  | 0.0067735  | 0.014385   |   3.8 |  0.15
Other   |            | 0.4637     |            |       | 10.52

Nlocal:        5552.90 ave        7898 max           0 min
Histogram: 4 2 2 0 2 6 4 1 13 18
Nghost:        6213.71 ave        8770 max         412 min
Histogram: 4 0 4 0 8 0 4 5 7 20
Neighs:       158427.0 ave      230126 max           0 min
Histogram: 4 2 2 0 5 3 4 4 12 16

Total # of neighbors = 8238206
Ave neighs/atom = 28.530485
Neighbor list builds = 0
Dangerous builds = 0
The dot product: 6.60679108929238e-07
Setting atom values ...
  1 settings made for x
  1 settings made for y
  1 settings made for z
Setting up cg style minimization ...
  Unit style    : metal
  Current step  : 805
Per MPI rank memory allocation (min/avg/max) = 5.465 | 6.344 | 6.728 Mbytes
Step PotEng KinEng TotEng v_fx v_fy v_fz 
     805     -1152449            0     -1152449  0.033621472 0.0017081376 -0.013101458 
    1000   -1152449.2            0   -1152449.2 -0.00043329936 7.1913655e-05 0.00016539182 
    1122   -1152449.2            0   -1152449.2 2.0486842e-05 -7.2495147e-06 -7.678333e-06 
Loop time of 6.96796 on 52 procs for 317 steps with 288751 atoms

99.9% CPU use with 52 MPI tasks x 1 OpenMP threads

Minimization stats:
  Stopping criterion = linesearch alpha is zero
  Energy initial, next-to-last, final = 
     -1152448.96457292  -1152449.19788982  -1152449.19788982
  Force two-norm initial, final = 0.17662569 0.00020934539
  Force max component initial, final = 0.087558318 4.8655882e-05
  Final line search alpha, max atom move = 0.25 1.2163971e-05
  Iterations, force evaluations = 317 637

MPI task timing breakdown:
Section |  min time  |  avg time  |  max time  |%varavg| %total
---------------------------------------------------------------
Pair    | 1.8418     | 5.0636     | 6.643      |  61.6 | 72.67
Neigh   | 9.6485e-05 | 0.02871    | 0.042122   |   7.1 |  0.41
Comm    | 0.090705   | 1.1147     | 3.5035     |  95.0 | 16.00
Output  | 0.00015905 | 0.00016308 | 0.00031909 |   0.0 |  0.00
Modify  | 0.00011544 | 0.010623   | 0.022342   |   4.8 |  0.15
Other   |            | 0.7501     |            |       | 10.77

Nlocal:        5552.90 ave        7884 max           0 min
Histogram: 4 2 2 0 2 6 4 1 12 19
Nghost:        6213.54 ave        8772 max         412 min
Histogram: 4 0 4 0 8 0 4 5 7 20
Neighs:       158429.0 ave      229603 max           0 min
Histogram: 4 2 2 0 5 3 4 4 11 17

Total # of neighbors = 8238296
Ave neighs/atom = 28.530796
Neighbor list builds = 5
Dangerous builds = 0
The dot product: -9.01159405156668e-07
Setting atom values ...
  1 settings made for x
  1 settings made for y
  1 settings made for z
Setting up cg style minimization ...
  Unit style    : metal
  Current step  : 1122
Per MPI rank memory allocation (min/avg/max) = 5.465 | 6.344 | 6.728 Mbytes
Step PotEng KinEng TotEng v_fx v_fy v_fz 
    1122   -1152449.2            0   -1152449.2  0.077053942 -0.014101602 0.0018116369 
    1314   -1152449.2            0   -1152449.2 2.5582979e-05 3.1484455e-06 -1.6213064e-07 
Loop time of 4.1991 on 52 procs for 192 steps with 288751 atoms

99.9% CPU use with 52 MPI tasks x 1 OpenMP threads

Minimization stats:
  Stopping criterion = linesearch alpha is zero
  Energy initial, next-to-last, final = 
      -1152449.1969881  -1152449.19965258  -1152449.19965258
  Force two-norm initial, final = 0.21066642 0.00015414544
  Force max component initial, final = 0.081153604 3.0342119e-05
  Final line search alpha, max atom move = 0.5 1.5171060e-05
  Iterations, force evaluations = 192 385

MPI task timing breakdown:
Section |  min time  |  avg time  |  max time  |%varavg| %total
---------------------------------------------------------------
Pair    | 1.0904     | 3.0632     | 4.0236     |  48.5 | 72.95
Neigh   | 0          | 0          | 0          |   0.0 |  0.00
Comm    | 0.051787   | 0.67371    | 2.1286     |  74.3 | 16.04
Output  | 0          | 0          | 0          |   0.0 |  0.00
Modify  | 6.0265e-05 | 0.0064123  | 0.013693   |   3.7 |  0.15
Other   |            | 0.4557     |            |       | 10.85

Nlocal:        5552.90 ave        7888 max           0 min
Histogram: 4 2 2 0 2 6 4 1 12 19
Nghost:        6213.90 ave        8774 max         412 min
Histogram: 4 0 4 0 8 0 4 5 7 20
Neighs:       158429.0 ave      229738 max           0 min
Histogram: 4 2 2 0 5 3 4 4 11 17

Total # of neighbors = 8238332
Ave neighs/atom = 28.530921
Neighbor list builds = 0
Dangerous builds = 0
The dot product: 3.59701368828304e-07
Setting atom values ...
  1 settings made for x
  1 settings made for y
  1 settings made for z
Setting up cg style minimization ...
  Unit style    : metal
  Current step  : 1314
Per MPI rank memory allocation (min/avg/max) = 5.465 | 6.344 | 6.728 Mbytes
Step PotEng KinEng TotEng v_fx v_fy v_fz 
    1314   -1152449.2            0   -1152449.2  0.038570183 -0.0038184058 -0.0040127733 
    1522   -1152449.2            0   -1152449.2 -1.9598411e-05 9.2344425e-07 2.1008037e-06 
Loop time of 4.51923 on 52 procs for 208 steps with 288751 atoms

99.9% CPU use with 52 MPI tasks x 1 OpenMP threads

Minimization stats:
  Stopping criterion = linesearch alpha is zero
  Energy initial, next-to-last, final = 
      -1152449.1978145  -1152449.20028121  -1152449.20028121
  Force two-norm initial, final = 0.19502516 0.00011537179
  Force max component initial, final = 0.085960499 2.5713810e-05
  Final line search alpha, max atom move = 0.5 1.2856905e-05
  Iterations, force evaluations = 208 417

MPI task timing breakdown:
Section |  min time  |  avg time  |  max time  |%varavg| %total
---------------------------------------------------------------
Pair    | 1.1806     | 3.3091     | 4.3416     |  50.4 | 73.22
Neigh   | 0          | 0          | 0          |   0.0 |  0.00
Comm    | 0.054211   | 0.72949    | 2.2884     |  77.0 | 16.14
Output  | 0          | 0          | 0          |   0.0 |  0.00
Modify  | 6.8401e-05 | 0.0069414  | 0.014666   |   3.9 |  0.15
Other   |            | 0.4737     |            |       | 10.48

Nlocal:        5552.90 ave        7886 max           0 min
Histogram: 4 2 2 0 2 6 4 1 12 19
Nghost:        6213.90 ave        8774 max         412 min
Histogram: 4 0 4 0 8 0 4 5 7 20
Neighs:       158429.0 ave      229653 max           0 min
Histogram: 4 2 2 0 5 3 4 4 11 17

Total # of neighbors = 8238324
Ave neighs/atom = 28.530893
Neighbor list builds = 0
Dangerous builds = 0
The dot product: 3.27797198596048e-08
Setting atom values ...
  1 settings made for x
  1 settings made for y
  1 settings made for z
Setting up cg style minimization ...
  Unit style    : metal
  Current step  : 1522
Per MPI rank memory allocation (min/avg/max) = 5.465 | 6.344 | 6.728 Mbytes
Step PotEng KinEng TotEng v_fx v_fy v_fz 
    1522   -1152449.2            0   -1152449.2  0.043412091 -4.9190322e-05 -0.0042344863 
    1908   -1152449.4            0   -1152449.4 1.9466095e-05 -4.334204e-06 -1.7344642e-06 
Loop time of 8.51011 on 52 procs for 386 steps with 288751 atoms

99.9% CPU use with 52 MPI tasks x 1 OpenMP threads

Minimization stats:
  Stopping criterion = linesearch alpha is zero
  Energy initial, next-to-last, final = 
     -1152449.19780689  -1152449.40756742  -1152449.40756742
  Force two-norm initial, final = 0.19759454 0.00015742051
  Force max component initial, final = 0.086213709 4.1838878e-05
  Final line search alpha, max atom move = 0.5 2.0919439e-05
  Iterations, force evaluations = 386 773

MPI task timing breakdown:
Section |  min time  |  avg time  |  max time  |%varavg| %total
---------------------------------------------------------------
Pair    | 2.2513     | 6.1577     | 8.081      |  67.8 | 72.36
Neigh   | 0.00017236 | 0.05157    | 0.075706   |   9.6 |  0.61
Comm    | 0.11712    | 1.359      | 4.2565     | 104.6 | 15.97
Output  | 0          | 0          | 0          |   0.0 |  0.00
Modify  | 0.00013295 | 0.012929   | 0.027254   |   5.3 |  0.15
Other   |            | 0.929      |            |       | 10.92

Nlocal:        5552.90 ave        7891 max           0 min
Histogram: 4 2 2 0 2 6 4 1 12 19
Nghost:        6214.04 ave        8773 max         412 min
Histogram: 4 0 4 0 8 0 4 5 7 20
Neighs:       158426.0 ave      229621 max           0 min
Histogram: 4 2 2 0 5 3 4 4 11 17

Total # of neighbors = 8238176
Ave neighs/atom = 28.530381
Neighbor list builds = 9
Dangerous builds = 0
The dot product: 1.48161941406757e-06
Setting atom values ...
  1 settings made for x
  1 settings made for y
  1 settings made for z
Setting up cg style minimization ...
  Unit style    : metal
  Current step  : 1908
Per MPI rank memory allocation (min/avg/max) = 5.465 | 6.344 | 6.728 Mbytes
Step PotEng KinEng TotEng v_fx v_fy v_fz 
    1908   -1152449.4            0   -1152449.4  -0.18290334 -8.6552214e-05   0.10485461 
    2000   -1152449.4            0   -1152449.4 0.0011686463 -3.7267031e-05 -0.00066887264 
    2113   -1152449.4            0   -1152449.4 3.0217757e-05 -3.8575287e-06 -1.7211867e-05 
Loop time of 4.44385 on 52 procs for 205 steps with 288751 atoms

99.9% CPU use with 52 MPI tasks x 1 OpenMP threads

Minimization stats:
  Stopping criterion = energy tolerance
  Energy initial, next-to-last, final = 
     -1152449.41510885  -1152449.42285543  -1152449.42285543
  Force two-norm initial, final = 0.2868033 0.00020399264
  Force max component initial, final = 0.18290334 3.9428604e-05
  Final line search alpha, max atom move = 1.0000000 3.9428604e-05
  Iterations, force evaluations = 205 410

MPI task timing breakdown:
Section |  min time  |  avg time  |  max time  |%varavg| %total
---------------------------------------------------------------
Pair    | 1.1588     | 3.2526     | 4.2622     |  50.0 | 73.19
Neigh   | 0          | 0          | 0          |   0.0 |  0.00
Comm    | 0.053167   | 0.71628    | 2.261      |  76.5 | 16.12
Output  | 0.00012105 | 0.00012531 | 0.00026335 |   0.0 |  0.00
Modify  | 7.4113e-05 | 0.0068355  | 0.014514   |   3.9 |  0.15
Other   |            | 0.468      |            |       | 10.53

Nlocal:        5552.90 ave        7890 max           0 min
Histogram: 4 2 2 0 2 6 4 2 11 19
Nghost:        6214.02 ave        8773 max         412 min
Histogram: 4 0 4 0 8 0 4 5 7 20
Neighs:       158427.0 ave      229529 max           0 min
Histogram: 4 2 2 0 5 3 4 4 10 18

Total # of neighbors = 8238195
Ave neighs/atom = 28.530447
Neighbor list builds = 0
Dangerous builds = 0
The dot product: -1.85635251893286e-06
Setting atom values ...
  1 settings made for x
  1 settings made for y
  1 settings made for z
Setting up cg style minimization ...
  Unit style    : metal
  Current step  : 2113
Per MPI rank memory allocation (min/avg/max) = 5.465 | 6.344 | 6.728 Mbytes
Step PotEng KinEng TotEng v_fx v_fy v_fz 
    2113   -1152449.4            0   -1152449.4   0.12875392 -0.0040269211 -0.034598175 
    2285   -1152449.4            0   -1152449.4 0.00011266687 -4.5606981e-06 -3.0263172e-05 
Loop time of 3.78291 on 52 procs for 172 steps with 288751 atoms

99.9% CPU use with 52 MPI tasks x 1 OpenMP threads

Minimization stats:
  Stopping criterion = energy tolerance
  Energy initial, next-to-last, final = 
     -1152449.42787271  -1152449.43144321  -1152449.43144321
  Force two-norm initial, final = 0.24233593 0.00033056781
  Force max component initial, final = 0.12875392 0.00011266687
  Final line search alpha, max atom move = 1.0000000 0.00011266687
  Iterations, force evaluations = 172 344

MPI task timing breakdown:
Section |  min time  |  avg time  |  max time  |%varavg| %total
---------------------------------------------------------------
Pair    | 0.97148    | 2.7418     | 3.6022     |  46.0 | 72.48
Neigh   | 0          | 0          | 0          |   0.0 |  0.00
Comm    | 0.052585   | 0.60944    | 1.9209     |  69.9 | 16.11
Output  | 0          | 0          | 0          |   0.0 |  0.00
Modify  | 5.4987e-05 | 0.005735   | 0.012059   |   3.5 |  0.15
Other   |            | 0.426      |            |       | 11.26

Nlocal:        5552.90 ave        7890 max           0 min
Histogram: 4 2 2 0 2 6 4 2 11 19
Nghost:        6214.10 ave        8773 max         412 min
Histogram: 4 0 4 0 8 0 4 5 7 20
Neighs:       158427.0 ave      229542 max           0 min
Histogram: 4 2 2 0 5 3 4 4 10 18

Total # of neighbors = 8238200
Ave neighs/atom = 28.530464
Neighbor list builds = 0
Dangerous builds = 0
The dot product: 3.19492066626069e-06
Setting atom values ...
  1 settings made for x
  1 settings made for y
  1 settings made for z
Setting up cg style minimization ...
  Unit style    : metal
  Current step  : 2285
Per MPI rank memory allocation (min/avg/max) = 5.465 | 6.344 | 6.728 Mbytes
Step PotEng KinEng TotEng v_fx v_fy v_fz 
    2285   -1152449.4            0   -1152449.4   -0.0102993 -0.010552438 0.0043643743 
    2431   -1152449.4            0   -1152449.4 1.752202e-05 -5.3575652e-06 -6.9085812e-06 
Loop time of 3.17431 on 52 procs for 146 steps with 288751 atoms

99.9% CPU use with 52 MPI tasks x 1 OpenMP threads

Minimization stats:
  Stopping criterion = energy tolerance
  Energy initial, next-to-last, final = 
     -1152449.43477641  -1152449.43684074  -1152449.43684074
  Force two-norm initial, final = 0.19958278 0.00020636839
  Force max component initial, final = 0.1033428 3.5881594e-05
  Final line search alpha, max atom move = 1.0000000 3.5881594e-05
  Iterations, force evaluations = 146 292

MPI task timing breakdown:
Section |  min time  |  avg time  |  max time  |%varavg| %total
---------------------------------------------------------------
Pair    | 0.82415    | 2.3204     | 3.0487     |  42.2 | 73.10
Neigh   | 0          | 0          | 0          |   0.0 |  0.00
Comm    | 0.037479   | 0.51078    | 1.6117     |  64.6 | 16.09
Output  | 0          | 0          | 0          |   0.0 |  0.00
Modify  | 4.6321e-05 | 0.0048606  | 0.0103     |   3.3 |  0.15
Other   |            | 0.3382     |            |       | 10.66

Nlocal:        5552.90 ave        7890 max           0 min
Histogram: 4 2 2 0 2 6 4 2 11 19
Nghost:        6214.10 ave        8773 max         412 min
Histogram: 4 0 4 0 8 0 4 5 7 20
Neighs:       158427.0 ave      229552 max           0 min
Histogram: 4 2 2 0 5 3 4 4 10 18

Total # of neighbors = 8238198
Ave neighs/atom = 28.530457
Neighbor list builds = 0
Dangerous builds = 0
The dot product: -1.348753013471e-07
Setting atom values ...
  1 settings made for x
  1 settings made for y
  1 settings made for z
Setting up cg style minimization ...
  Unit style    : metal
  Current step  : 2431
Per MPI rank memory allocation (min/avg/max) = 5.465 | 6.344 | 6.728 Mbytes
Step PotEng KinEng TotEng v_fx v_fy v_fz 
    2431   -1152449.4            0   -1152449.4  0.034116216 -0.00024557828 -0.012463968 
    2640   -1152449.4            0   -1152449.4 1.7885404e-06 -1.50112e-06 -6.3584843e-07 
Loop time of 4.53649 on 52 procs for 209 steps with 288751 atoms

99.9% CPU use with 52 MPI tasks x 1 OpenMP threads

Minimization stats:
  Stopping criterion = linesearch alpha is zero
  Energy initial, next-to-last, final = 
     -1152449.43825484  -1152449.44021408  -1152449.44021408
  Force two-norm initial, final = 0.20317431 5.2431534e-05
  Force max component initial, final = 0.10134558 1.0772759e-05
  Final line search alpha, max atom move = 0.5 5.3863794e-06
  Iterations, force evaluations = 209 419

MPI task timing breakdown:
Section |  min time  |  avg time  |  max time  |%varavg| %total
---------------------------------------------------------------
Pair    | 1.1839     | 3.3294     | 4.3498     |  50.5 | 73.39
Neigh   | 0          | 0          | 0          |   0.0 |  0.00
Comm    | 0.054818   | 0.7309     | 2.3131     |  77.7 | 16.11
Output  | 0          | 0          | 0          |   0.0 |  0.00
Modify  | 6.349e-05  | 0.0069758  | 0.014772   |   3.9 |  0.15
Other   |            | 0.4692     |            |       | 10.34

Nlocal:        5552.90 ave        7890 max           0 min
Histogram: 4 2 2 0 2 6 4 2 11 19
Nghost:        6214.04 ave        8773 max         412 min
Histogram: 4 0 4 0 8 0 4 5 7 20
Neighs:       158427.0 ave      229579 max           0 min
Histogram: 4 2 2 0 5 3 4 4 10 18

Total # of neighbors = 8238196
Ave neighs/atom = 28.530450
Neighbor list builds = 0
Dangerous builds = 0
The dot product: 4.75200498792788e-09
Setting atom values ...
  1 settings made for x
  1 settings made for y
  1 settings made for z
Setting up cg style minimization ...
  Unit style    : metal
  Current step  : 2640
Per MPI rank memory allocation (min/avg/max) = 5.465 | 6.344 | 6.728 Mbytes
Step PotEng KinEng TotEng v_fx v_fy v_fz 
    2640   -1152449.4            0   -1152449.4   0.02985234 0.00070036402 -0.011253138 
    2835   -1152449.4            0   -1152449.4 -1.1392105e-05 1.3648714e-07 4.289208e-06 
Loop time of 4.23481 on 52 procs for 195 steps with 288751 atoms

99.9% CPU use with 52 MPI tasks x 1 OpenMP threads

Minimization stats:
  Stopping criterion = energy tolerance
  Energy initial, next-to-last, final = 
     -1152449.43966485  -1152449.44161848  -1152449.44161848
  Force two-norm initial, final = 0.20227235 9.1454797e-05
  Force max component initial, final = 0.099712269 1.2452198e-05
  Final line search alpha, max atom move = 1.0000000 1.2452198e-05
  Iterations, force evaluations = 195 390

MPI task timing breakdown:
Section |  min time  |  avg time  |  max time  |%varavg| %total
---------------------------------------------------------------
Pair    | 1.1019     | 3.0949     | 4.0678     |  48.7 | 73.08
Neigh   | 0          | 0          | 0          |   0.0 |  0.00
Comm    | 0.051038   | 0.68025    | 2.1503     |  74.7 | 16.06
Output  | 0          | 0          | 0          |   0.0 |  0.00
Modify  | 6.105e-05  | 0.0064933  | 0.013772   |   3.8 |  0.15
Other   |            | 0.4532     |            |       | 10.70

Nlocal:        5552.90 ave        7890 max           0 min
Histogram: 4 2 2 0 2 6 4 2 11 19
Nghost:        6214.04 ave        8773 max         412 min
Histogram: 4 0 4 0 8 0 4 5 7 20
Neighs:       158427.0 ave      229577 max           0 min
Histogram: 4 2 2 0 5 3 4 4 10 18

Total # of neighbors = 8238199
Ave neighs/atom = 28.530461
Neighbor list builds = 0
Dangerous builds = 0
The dot product: -1.68519614727343e-08
Setting atom values ...
  1 settings made for x
  1 settings made for y
  1 settings made for z
Setting up cg style minimization ...
  Unit style    : metal
  Current step  : 2835
Per MPI rank memory allocation (min/avg/max) = 5.465 | 6.344 | 6.728 Mbytes
Step PotEng KinEng TotEng v_fx v_fy v_fz 
    2835   -1152449.4            0   -1152449.4  0.033396536   0.00193545 -0.012785939 
    3000   -1152449.4            0   -1152449.4 -5.3830686e-05 -1.4694298e-06 2.0587255e-05 
    3019   -1152449.4            0   -1152449.4 9.7394502e-06 2.4716228e-06 -3.7541316e-06 
Loop time of 4.02355 on 52 procs for 184 steps with 288751 atoms

99.9% CPU use with 52 MPI tasks x 1 OpenMP threads

Minimization stats:
  Stopping criterion = linesearch alpha is zero
  Energy initial, next-to-last, final = 
     -1152449.43904658  -1152449.44101124  -1152449.44101124
  Force two-norm initial, final = 0.20290491 0.00013802356
  Force max component initial, final = 0.097883757 3.5228988e-05
  Final line search alpha, max atom move = 0.5 1.7614494e-05
  Iterations, force evaluations = 184 369

MPI task timing breakdown:
Section |  min time  |  avg time  |  max time  |%varavg| %total
---------------------------------------------------------------
Pair    | 1.0454     | 2.9348     | 3.8511     |  47.5 | 72.94
Neigh   | 0          | 0          | 0          |   0.0 |  0.00
Comm    | 0.050525   | 0.64899    | 2.048      |  72.5 | 16.13
Output  | 0.00020198 | 0.0002063  | 0.00036129 |   0.0 |  0.01
Modify  | 5.9587e-05 | 0.0061652  | 0.013081   |   3.7 |  0.15
Other   |            | 0.4334     |            |       | 10.77

Nlocal:        5552.90 ave        7890 max           0 min
Histogram: 4 2 2 0 2 6 4 2 11 19
Nghost:        6214.00 ave        8773 max         412 min
Histogram: 4 0 4 0 8 0 4 5 7 20
Neighs:       158427.0 ave      229576 max           0 min
Histogram: 4 2 2 0 5 3 4 4 10 18

Total # of neighbors = 8238198
Ave neighs/atom = 28.530457
Neighbor list builds = 0
Dangerous builds = 0
The dot product: 2.2759783073014e-08
Setting atom values ...
  1 settings made for x
  1 settings made for y
  1 settings made for z
Setting up cg style minimization ...
  Unit style    : metal
  Current step  : 3019
Per MPI rank memory allocation (min/avg/max) = 5.465 | 6.344 | 6.728 Mbytes
Step PotEng KinEng TotEng v_fx v_fy v_fz 
    3019   -1152449.4            0   -1152449.4  0.035205948 0.00043398798 -0.013733293 
    3162   -1152449.4            0   -1152449.4 -1.0779764e-05 5.5324147e-07 4.1953568e-06 
Loop time of 3.09316 on 52 procs for 143 steps with 288751 atoms

99.9% CPU use with 52 MPI tasks x 1 OpenMP threads

Minimization stats:
  Stopping criterion = energy tolerance
  Energy initial, next-to-last, final = 
      -1152449.4364283  -1152449.43838719  -1152449.43838719
  Force two-norm initial, final = 0.20298828 0.00030168003
  Force max component initial, final = 0.096126901 2.9685950e-05
  Final line search alpha, max atom move = 1.0000000 2.9685950e-05
  Iterations, force evaluations = 143 286

MPI task timing breakdown:
Section |  min time  |  avg time  |  max time  |%varavg| %total
---------------------------------------------------------------
Pair    | 0.80889    | 2.2692     | 2.9705     |  41.7 | 73.36
Neigh   | 0          | 0          | 0          |   0.0 |  0.00
Comm    | 0.037614   | 0.49747    | 1.5714     |  64.1 | 16.08
Output  | 0          | 0          | 0          |   0.0 |  0.00
Modify  | 4.5729e-05 | 0.0047696  | 0.010091   |   3.2 |  0.15
Other   |            | 0.3217     |            |       | 10.40

Nlocal:        5552.90 ave        7889 max           0 min
Histogram: 4 2 2 0 2 6 4 1 12 19
Nghost:        6214.02 ave        8773 max         412 min
Histogram: 4 0 4 0 8 0 4 5 7 20
Neighs:       158427.0 ave      229546 max           0 min
Histogram: 4 2 2 0 5 3 4 4 10 18

Total # of neighbors = 8238200
Ave neighs/atom = 28.530464
Neighbor list builds = 0
Dangerous builds = 0
The dot product: -3.08823818891994e-08
Setting atom values ...
  1 settings made for x
  1 settings made for y
  1 settings made for z
Setting up cg style minimization ...
  Unit style    : metal
  Current step  : 3162
Per MPI rank memory allocation (min/avg/max) = 5.465 | 6.344 | 6.728 Mbytes
Step PotEng KinEng TotEng v_fx v_fy v_fz 
    3162   -1152449.4            0   -1152449.4  0.035521163 -0.00053175027 -0.014171484 
    3341   -1152449.4            0   -1152449.4 -3.6702879e-06 1.0983349e-06 1.4501729e-06 
Loop time of 3.88983 on 52 procs for 179 steps with 288751 atoms

99.9% CPU use with 52 MPI tasks x 1 OpenMP threads

Minimization stats:
  Stopping criterion = energy tolerance
  Energy initial, next-to-last, final = 
     -1152449.43180219  -1152449.43375134  -1152449.43375134
  Force two-norm initial, final = 0.20264051 0.00011985447
  Force max component initial, final = 0.098544002 8.3464289e-06
  Final line search alpha, max atom move = 1.0000000 8.3464289e-06
  Iterations, force evaluations = 179 358

MPI task timing breakdown:
Section |  min time  |  avg time  |  max time  |%varavg| %total
---------------------------------------------------------------
Pair    | 1.0087     | 2.839      | 3.7258     |  46.7 | 72.99
Neigh   | 0          | 0          | 0          |   0.0 |  0.00
Comm    | 0.048318   | 0.62347    | 1.9735     |  71.8 | 16.03
Output  | 0          | 0          | 0          |   0.0 |  0.00
Modify  | 5.4781e-05 | 0.0059578  | 0.01262    |   3.6 |  0.15
Other   |            | 0.4214     |            |       | 10.83

Nlocal:        5552.90 ave        7889 max           0 min
Histogram: 4 2 2 0 2 6 4 1 12 19
Nghost:        6214.02 ave        8773 max         412 min
Histogram: 4 0 4 0 8 0 4 5 7 20
Neighs:       158427.0 ave      229546 max           0 min
Histogram: 4 2 2 0 5 3 4 4 11 17

Total # of neighbors = 8238198
Ave neighs/atom = 28.530457
Neighbor list builds = 0
Dangerous builds = 0
The dot product: -1.11901763044053e-08
Setting atom values ...
  1 settings made for x
  1 settings made for y
  1 settings made for z
Setting up cg style minimization ...
  Unit style    : metal
  Current step  : 3341
Per MPI rank memory allocation (min/avg/max) = 5.465 | 6.344 | 6.728 Mbytes
Step PotEng KinEng TotEng v_fx v_fy v_fz 
    3341   -1152449.4            0   -1152449.4  0.035396123 -0.0016995019 -0.014430278 
    3517   -1152449.4            0   -1152449.4 5.349584e-05 3.6391955e-06 -2.1888838e-05 
Loop time of 3.81426 on 52 procs for 176 steps with 288751 atoms

99.9% CPU use with 52 MPI tasks x 1 OpenMP threads

Minimization stats:
  Stopping criterion = energy tolerance
  Energy initial, next-to-last, final = 
     -1152449.42516668  -1152449.42710558  -1152449.42710558
  Force two-norm initial, final = 0.20218004 0.00015423128
  Force max component initial, final = 0.10094655 5.3495840e-05
  Final line search alpha, max atom move = 1.0000000 5.3495840e-05
  Iterations, force evaluations = 176 352

MPI task timing breakdown:
Section |  min time  |  avg time  |  max time  |%varavg| %total
---------------------------------------------------------------
Pair    | 0.99399    | 2.7926     | 3.6636     |  46.4 | 73.22
Neigh   | 0          | 0          | 0          |   0.0 |  0.00
Comm    | 0.048699   | 0.61527    | 1.9342     |  70.9 | 16.13
Output  | 0          | 0          | 0          |   0.0 |  0.00
Modify  | 5.8444e-05 | 0.005859   | 0.012376   |   3.6 |  0.15
Other   |            | 0.4005     |            |       | 10.50

Nlocal:        5552.90 ave        7889 max           0 min
Histogram: 4 2 2 0 2 6 4 1 12 19
Nghost:        6214.06 ave        8773 max         412 min
Histogram: 4 0 4 0 8 0 4 5 7 20
Neighs:       158427.0 ave      229516 max           0 min
Histogram: 4 2 2 0 5 3 4 4 11 17

Total # of neighbors = 8238201
Ave neighs/atom = 28.530467
Neighbor list builds = 0
Dangerous builds = 0
The dot product: 1.63417368248774e-07
Setting atom values ...
  1 settings made for x
  1 settings made for y
  1 settings made for z
Setting up cg style minimization ...
  Unit style    : metal
  Current step  : 3517
Per MPI rank memory allocation (min/avg/max) = 5.465 | 6.344 | 6.728 Mbytes
Step PotEng KinEng TotEng v_fx v_fy v_fz 
    3517   -1152449.4            0   -1152449.4  0.035055988 -0.0032319976 -0.014587425 
    3706   -1152449.4            0   -1152449.4 1.0543204e-05 1.5578897e-06 -4.4178128e-06 
Loop time of 4.118 on 52 procs for 189 steps with 288751 atoms

99.9% CPU use with 52 MPI tasks x 1 OpenMP threads

Minimization stats:
  Stopping criterion = linesearch alpha is zero
  Energy initial, next-to-last, final = 
     -1152449.41652948  -1152449.41845768  -1152449.41845768
  Force two-norm initial, final = 0.20169293 0.00011573031
  Force max component initial, final = 0.10332248 1.4066111e-05
  Final line search alpha, max atom move = 0.5 7.0330557e-06
  Iterations, force evaluations = 189 379

MPI task timing breakdown:
Section |  min time  |  avg time  |  max time  |%varavg| %total
---------------------------------------------------------------
Pair    | 1.0703     | 3.0138     | 3.955      |  48.1 | 73.19
Neigh   | 0          | 0          | 0          |   0.0 |  0.00
Comm    | 0.053702   | 0.66294    | 2.0972     |  73.8 | 16.10
Output  | 0          | 0          | 0          |   0.0 |  0.00
Modify  | 6.2651e-05 | 0.0063347  | 0.013347   |   3.7 |  0.15
Other   |            | 0.4349     |            |       | 10.56

Nlocal:        5552.90 ave        7889 max           0 min
Histogram: 4 2 2 0 2 6 4 1 12 19
Nghost:        6214.02 ave        8772 max         412 min
Histogram: 4 0 4 0 8 0 4 5 7 20
Neighs:       158427.0 ave      229510 max           0 min
Histogram: 4 2 2 0 5 3 4 4 11 17

Total # of neighbors = 8238209
Ave neighs/atom = 28.530495
Neighbor list builds = 0
Dangerous builds = 0
The dot product: 3.23598448905646e-08
Setting atom values ...
  1 settings made for x
  1 settings made for y
  1 settings made for z
Setting up cg style minimization ...
  Unit style    : metal
  Current step  : 3706
Per MPI rank memory allocation (min/avg/max) = 5.465 | 6.344 | 6.728 Mbytes
Step PotEng KinEng TotEng v_fx v_fy v_fz 
    3706   -1152449.4            0   -1152449.4  0.034321786 -0.0051543216 -0.014558004 
    3870   -1152449.4            0   -1152449.4 -9.0645397e-06 -1.8081024e-06 3.8805508e-06 
Loop time of 3.56143 on 52 procs for 164 steps with 288751 atoms

99.9% CPU use with 52 MPI tasks x 1 OpenMP threads

Minimization stats:
  Stopping criterion = energy tolerance
  Energy initial, next-to-last, final = 
     -1152449.40590414  -1152449.40781999  -1152449.40781999
  Force two-norm initial, final = 0.20114868 0.00021447227
  Force max component initial, final = 0.1056987 1.9209509e-05
  Final line search alpha, max atom move = 1.0000000 1.9209509e-05
  Iterations, force evaluations = 164 328

MPI task timing breakdown:
Section |  min time  |  avg time  |  max time  |%varavg| %total
---------------------------------------------------------------
Pair    | 0.92719    | 2.6033     | 3.421      |  44.7 | 73.10
Neigh   | 0          | 0          | 0          |   0.0 |  0.00
Comm    | 0.04252    | 0.57356    | 1.803      |  68.4 | 16.10
Output  | 0          | 0          | 0          |   0.0 |  0.00
Modify  | 5.2847e-05 | 0.0054642  | 0.011509   |   3.5 |  0.15
Other   |            | 0.3791     |            |       | 10.64

Nlocal:        5552.90 ave        7889 max           0 min
Histogram: 4 2 2 0 2 6 4 1 12 19
Nghost:        6214.00 ave        8772 max         412 min
Histogram: 4 0 4 0 8 0 4 5 7 20
Neighs:       158427.0 ave      229518 max           0 min
Histogram: 4 2 2 0 5 3 4 4 11 17

Total # of neighbors = 8238211
Ave neighs/atom = 28.530502
Neighbor list builds = 0
Dangerous builds = 0
The dot product: -2.7752177071789e-08
Setting atom values ...
  1 settings made for x
  1 settings made for y
  1 settings made for z
Setting up cg style minimization ...
  Unit style    : metal
  Current step  : 3870
Per MPI rank memory allocation (min/avg/max) = 5.465 | 6.344 | 6.728 Mbytes
Step PotEng KinEng TotEng v_fx v_fy v_fz 
    3870   -1152449.4            0   -1152449.4  0.033344067 -0.0074947114 -0.014399311 
    4000   -1152449.4            0   -1152449.4 5.8746208e-05 2.6887885e-06 -2.5532077e-05 
    4019   -1152449.4            0   -1152449.4 -8.8806984e-05 -2.9798071e-06 3.8585856e-05 
Loop time of 3.24191 on 52 procs for 149 steps with 288751 atoms

99.9% CPU use with 52 MPI tasks x 1 OpenMP threads

Minimization stats:
  Stopping criterion = energy tolerance
  Energy initial, next-to-last, final = 
     -1152449.39330641  -1152449.39520984  -1152449.39520984
  Force two-norm initial, final = 0.20064087 0.00028683813
  Force max component initial, final = 0.10803029 8.8806984e-05
  Final line search alpha, max atom move = 1.0000000 8.8806984e-05
  Iterations, force evaluations = 149 298

MPI task timing breakdown:
Section |  min time  |  avg time  |  max time  |%varavg| %total
---------------------------------------------------------------
Pair    | 0.84148    | 2.3735     | 3.1075     |  42.8 | 73.21
Neigh   | 0          | 0          | 0          |   0.0 |  0.00
Comm    | 0.041696   | 0.52355    | 1.6571     |  65.4 | 16.15
Output  | 0.00012126 | 0.0001254  | 0.00027206 |   0.0 |  0.00
Modify  | 4.7436e-05 | 0.0049676  | 0.010482   |   3.3 |  0.15
Other   |            | 0.3398     |            |       | 10.48

Nlocal:        5552.90 ave        7889 max           0 min
Histogram: 4 2 2 0 2 6 4 1 12 19
Nghost:        6213.88 ave        8771 max         412 min
Histogram: 4 0 4 0 8 0 4 5 7 20
Neighs:       158427.0 ave      229519 max           0 min
Histogram: 4 2 2 0 5 3 4 4 11 17

Total # of neighbors = 8238211
Ave neighs/atom = 28.530502
Neighbor list builds = 0
Dangerous builds = 0
The dot product: -2.74616723208443e-07
Setting atom values ...
  1 settings made for x
  1 settings made for y
  1 settings made for z
Setting up cg style minimization ...
  Unit style    : metal
  Current step  : 4019
Per MPI rank memory allocation (min/avg/max) = 5.465 | 6.344 | 6.728 Mbytes
Step PotEng KinEng TotEng v_fx v_fy v_fz 
    4019   -1152449.4            0   -1152449.4  0.031994654 -0.010298012 -0.014050033 
    4201   -1152449.4            0   -1152449.4 1.0696292e-05 1.0580871e-06 -4.7372962e-06 
Loop time of 3.95413 on 52 procs for 182 steps with 288751 atoms

99.9% CPU use with 52 MPI tasks x 1 OpenMP threads

Minimization stats:
  Stopping criterion = energy tolerance
  Energy initial, next-to-last, final = 
     -1152449.37875993  -1152449.38065141  -1152449.38065141
  Force two-norm initial, final = 0.20018058 0.00012636003
  Force max component initial, final = 0.11035622 1.2917473e-05
  Final line search alpha, max atom move = 1.0000000 1.2917473e-05
  Iterations, force evaluations = 182 364

MPI task timing breakdown:
Section |  min time  |  avg time  |  max time  |%varavg| %total
---------------------------------------------------------------
Pair    | 1.0293     | 2.8936     | 3.7981     |  47.1 | 73.18
Neigh   | 0          | 0          | 0          |   0.0 |  0.00
Comm    | 0.047741   | 0.63519    | 2.0071     |  72.3 | 16.06
Output  | 0          | 0          | 0          |   0.0 |  0.00
Modify  | 6.1693e-05 | 0.0060937  | 0.012899   |   3.7 |  0.15
Other   |            | 0.4192     |            |       | 10.60

Nlocal:        5552.90 ave        7889 max           0 min
Histogram: 4 2 2 0 2 6 4 1 12 19
Nghost:        6213.88 ave        8771 max         412 min
Histogram: 4 0 4 0 8 0 4 5 7 20
Neighs:       158427.0 ave      229523 max           0 min
Histogram: 4 2 2 0 5 3 4 4 11 17

Total # of neighbors = 8238211
Ave neighs/atom = 28.530502
Neighbor list builds = 0
Dangerous builds = 0
The dot product: 3.12414576961812e-08
Setting atom values ...
  1 settings made for x
  1 settings made for y
  1 settings made for z
Setting up cg style minimization ...
  Unit style    : metal
  Current step  : 4201
Per MPI rank memory allocation (min/avg/max) = 5.465 | 6.344 | 6.728 Mbytes
Step PotEng KinEng TotEng v_fx v_fy v_fz 
    4201   -1152449.4            0   -1152449.4  0.030593394   -0.0134216 -0.013650335 
    4361   -1152449.4            0   -1152449.4 9.193833e-06 4.1528436e-07 -4.1334486e-06 
Loop time of 3.48583 on 52 procs for 160 steps with 288751 atoms

99.9% CPU use with 52 MPI tasks x 1 OpenMP threads

Minimization stats:
  Stopping criterion = energy tolerance
  Energy initial, next-to-last, final = 
      -1152449.3622941  -1152449.36417127  -1152449.36417127
  Force two-norm initial, final = 0.19989571 0.0002305502
  Force max component initial, final = 0.11252872 2.1113449e-05
  Final line search alpha, max atom move = 1.0000000 2.1113449e-05
  Iterations, force evaluations = 160 320

MPI task timing breakdown:
Section |  min time  |  avg time  |  max time  |%varavg| %total
---------------------------------------------------------------
Pair    | 0.90818    | 2.5439     | 3.3373     |  44.2 | 72.98
Neigh   | 0          | 0          | 0          |   0.0 |  0.00
Comm    | 0.044293   | 0.55831    | 1.7603     |  67.9 | 16.02
Output  | 0          | 0          | 0          |   0.0 |  0.00
Modify  | 4.8354e-05 | 0.0053247  | 0.011212   |   3.4 |  0.15
Other   |            | 0.3783     |            |       | 10.85

Nlocal:        5552.90 ave        7889 max           0 min
Histogram: 4 2 2 0 2 6 4 1 12 19
Nghost:        6213.92 ave        8772 max         412 min
Histogram: 4 0 4 0 8 0 4 5 7 20
Neighs:       158427.0 ave      229524 max           0 min
Histogram: 4 2 2 0 5 3 4 4 11 17

Total # of neighbors = 8238210
Ave neighs/atom = 28.530499
Neighbor list builds = 0
Dangerous builds = 0
The dot product: 2.58769068465668e-08
Setting atom values ...
  1 settings made for x
  1 settings made for y
  1 settings made for z
Setting up cg style minimization ...
  Unit style    : metal
  Current step  : 4361
Per MPI rank memory allocation (min/avg/max) = 5.465 | 6.344 | 6.728 Mbytes
Step PotEng KinEng TotEng v_fx v_fy v_fz 
    4361   -1152449.3            0   -1152449.3   0.02993213 -0.016189959 -0.013576873 
    4521   -1152449.3            0   -1152449.3 6.953489e-07 4.8113074e-07 -3.1912775e-07 
Loop time of 3.50506 on 52 procs for 160 steps with 288751 atoms

99.9% CPU use with 52 MPI tasks x 1 OpenMP threads

Minimization stats:
  Stopping criterion = linesearch alpha is zero
  Energy initial, next-to-last, final = 
     -1152449.34394974  -1152449.34580498  -1152449.34580498
  Force two-norm initial, final = 0.19977605 0.00021935181
  Force max component initial, final = 0.11468038 9.1227028e-06
  Final line search alpha, max atom move = 0.25 2.2806757e-06
  Iterations, force evaluations = 160 323

MPI task timing breakdown:
Section |  min time  |  avg time  |  max time  |%varavg| %total
---------------------------------------------------------------
Pair    | 0.91324    | 2.5651     | 3.3663     |  44.4 | 73.18
Neigh   | 0          | 0          | 0          |   0.0 |  0.00
Comm    | 0.043232   | 0.56318    | 1.7736     |  68.0 | 16.07
Output  | 0          | 0          | 0          |   0.0 |  0.00
Modify  | 5.9329e-05 | 0.0053697  | 0.011321   |   3.4 |  0.15
Other   |            | 0.3714     |            |       | 10.60

Nlocal:        5552.90 ave        7889 max           0 min
Histogram: 4 2 2 0 2 6 4 1 12 19
Nghost:        6213.98 ave        8772 max         412 min
Histogram: 4 0 4 0 8 0 4 5 7 20
Neighs:       158427.0 ave      229512 max           0 min
Histogram: 4 2 2 0 5 3 4 4 11 17

Total # of neighbors = 8238214
Ave neighs/atom = 28.530512
Neighbor list builds = 0
Dangerous builds = 0
The dot product: 1.37128441123356e-09
Setting atom values ...
  1 settings made for x
  1 settings made for y
  1 settings made for z
Setting up cg style minimization ...
  Unit style    : metal
  Current step  : 4521
Per MPI rank memory allocation (min/avg/max) = 5.465 | 6.344 | 6.728 Mbytes
Step PotEng KinEng TotEng v_fx v_fy v_fz 
    4521   -1152449.3            0   -1152449.3  0.029169228 -0.020384175 -0.013471441 
    4688   -1152449.3            0   -1152449.3 -5.3892659e-05 3.6745872e-06 2.4926799e-05 
Loop time of 3.63125 on 52 procs for 167 steps with 288751 atoms

99.9% CPU use with 52 MPI tasks x 1 OpenMP threads

Minimization stats:
  Stopping criterion = energy tolerance
  Energy initial, next-to-last, final = 
     -1152449.32379071  -1152449.32562348  -1152449.32562348
  Force two-norm initial, final = 0.20006827 0.00018022248
  Force max component initial, final = 0.11689365 5.3892659e-05
  Final line search alpha, max atom move = 1.0000000 5.3892659e-05
  Iterations, force evaluations = 167 334

MPI task timing breakdown:
Section |  min time  |  avg time  |  max time  |%varavg| %total
---------------------------------------------------------------
Pair    | 0.94684    | 2.6585     | 3.4873     |  45.2 | 73.21
Neigh   | 0          | 0          | 0          |   0.0 |  0.00
Comm    | 0.043449   | 0.58527    | 1.8555     |  69.4 | 16.12
Output  | 0          | 0          | 0          |   0.0 |  0.00
Modify  | 4.9903e-05 | 0.0055864  | 0.011808   |   3.5 |  0.15
Other   |            | 0.3819     |            |       | 10.52

Nlocal:        5552.90 ave        7889 max           0 min
Histogram: 4 2 2 0 2 6 4 1 12 19
Nghost:        6213.98 ave        8772 max         412 min
Histogram: 4 0 4 0 8 0 4 5 7 20
Neighs:       158427.0 ave      229513 max           0 min
Histogram: 4 2 2 0 5 3 4 4 11 17

Total # of neighbors = 8238215
Ave neighs/atom = 28.530516
Neighbor list builds = 0
Dangerous builds = 0
The dot product: -1.74859277861029e-07
Setting atom values ...
  1 settings made for x
  1 settings made for y
  1 settings made for z
Setting up cg style minimization ...
  Unit style    : metal
  Current step  : 4688
Per MPI rank memory allocation (min/avg/max) = 5.465 | 6.344 | 6.728 Mbytes
Step PotEng KinEng TotEng v_fx v_fy v_fz 
    4688   -1152449.3            0   -1152449.3  0.027383675 -0.028563932 -0.012987941 
    4895   -1152449.3            0   -1152449.3 3.1754235e-06 -1.157967e-07 -1.4904286e-06 
Loop time of 4.51354 on 52 procs for 207 steps with 288751 atoms

99.9% CPU use with 52 MPI tasks x 1 OpenMP threads

Minimization stats:
  Stopping criterion = energy tolerance
  Energy initial, next-to-last, final = 
      -1152449.3019219  -1152449.30545058  -1152449.30545058
  Force two-norm initial, final = 0.20131155 0.00012458313
  Force max component initial, final = 0.1190826 9.9727333e-06
  Final line search alpha, max atom move = 1.0000000 9.9727333e-06
  Iterations, force evaluations = 207 414

MPI task timing breakdown:
Section |  min time  |  avg time  |  max time  |%varavg| %total
---------------------------------------------------------------
Pair    | 1.179      | 3.2898     | 4.3124     |  50.1 | 72.89
Neigh   | 1.9291e-05 | 0.0057462  | 0.0084068  |   3.2 |  0.13
Comm    | 0.057708   | 0.72608    | 2.2786     |  76.6 | 16.09
Output  | 0          | 0          | 0          |   0.0 |  0.00
Modify  | 7.0349e-05 | 0.0069046  | 0.014604   |   3.9 |  0.15
Other   |            | 0.485      |            |       | 10.75

Nlocal:        5552.90 ave        7890 max           0 min
Histogram: 4 2 2 0 2 6 4 1 12 19
Nghost:        6214.00 ave        8772 max         412 min
Histogram: 4 0 4 0 8 0 4 5 7 20
Neighs:       158427.0 ave      229518 max           0 min
Histogram: 4 2 2 0 5 3 4 4 11 17

Total # of neighbors = 8238210
Ave neighs/atom = 28.530499
Neighbor list builds = 1
Dangerous builds = 0
The dot product: -3.71749082351928e-08
Setting atom values ...
  1 settings made for x
  1 settings made for y
  1 settings made for z
Setting up cg style minimization ...
  Unit style    : metal
  Current step  : 4895
Per MPI rank memory allocation (min/avg/max) = 5.465 | 6.344 | 6.728 Mbytes
Step PotEng KinEng TotEng v_fx v_fy v_fz 
    4895   -1152449.3            0   -1152449.3 -0.027124347   -0.2047713 -0.023526049 
    5000   -1152449.3            0   -1152449.3 0.0022604746 -0.00056001759 -0.001089339 
    5126   -1152449.3            0   -1152449.3 -2.2277952e-05 8.8558635e-06 1.1313295e-05 
Loop time of 5.09264 on 52 procs for 231 steps with 288751 atoms

99.9% CPU use with 52 MPI tasks x 1 OpenMP threads

Minimization stats:
  Stopping criterion = linesearch alpha is zero
  Energy initial, next-to-last, final = 
     -1152449.28392106  -1152449.33947339  -1152449.33947339
  Force two-norm initial, final = 0.28319463 0.00021195858
  Force max component initial, final = 0.2047713 2.2277952e-05
  Final line search alpha, max atom move = 0.25 5.5694880e-06
  Iterations, force evaluations = 231 466

MPI task timing breakdown:
Section |  min time  |  avg time  |  max time  |%varavg| %total
---------------------------------------------------------------
Pair    | 1.3284     | 3.711      | 4.8559     |  53.2 | 72.87
Neigh   | 3.8907e-05 | 0.011501   | 0.016911   |   4.5 |  0.23
Comm    | 0.06419    | 0.8186     | 2.5917     |  81.7 | 16.07
Output  | 0.00015952 | 0.00016407 | 0.00031072 |   0.0 |  0.00
Modify  | 6.4214e-05 | 0.0077635  | 0.016374   |   4.1 |  0.15
Other   |            | 0.5437     |            |       | 10.68

Nlocal:        5552.90 ave        7890 max           0 min
Histogram: 4 2 2 0 2 6 4 1 12 19
Nghost:        6213.98 ave        8772 max         412 min
Histogram: 4 0 4 0 8 0 4 5 7 20
Neighs:       158427.0 ave      229536 max           0 min
Histogram: 4 2 2 0 5 3 4 4 11 17

Total # of neighbors = 8238199
Ave neighs/atom = 28.530461
Neighbor list builds = 2
Dangerous builds = 0
The dot product: -3.60044837837397e-07
Setting atom values ...
  1 settings made for x
  1 settings made for y
  1 settings made for z
Setting up cg style minimization ...
  Unit style    : metal
  Current step  : 5126
Per MPI rank memory allocation (min/avg/max) = 5.465 | 6.344 | 6.728 Mbytes
Step PotEng KinEng TotEng v_fx v_fy v_fz 
    5126   -1152449.3            0   -1152449.3 -0.039463141  -0.10924054 -0.062224108 
    5264   -1152449.3            0   -1152449.3 -9.9264148e-06 2.902679e-05 2.2133431e-05 
Loop time of 2.99873 on 52 procs for 138 steps with 288751 atoms

99.9% CPU use with 52 MPI tasks x 1 OpenMP threads

Minimization stats:
  Stopping criterion = energy tolerance
  Energy initial, next-to-last, final = 
     -1152449.33442446  -1152449.33644516  -1152449.33644516
  Force two-norm initial, final = 0.19567004 0.00022905072
  Force max component initial, final = 0.10924054 6.6820780e-05
  Final line search alpha, max atom move = 1.0000000 6.6820780e-05
  Iterations, force evaluations = 138 276

MPI task timing breakdown:
Section |  min time  |  avg time  |  max time  |%varavg| %total
---------------------------------------------------------------
Pair    | 0.78044    | 2.1923     | 2.8809     |  41.0 | 73.11
Neigh   | 0          | 0          | 0          |   0.0 |  0.00
Comm    | 0.03598    | 0.48305    | 1.5195     |  62.8 | 16.11
Output  | 0          | 0          | 0          |   0.0 |  0.00
Modify  | 4.294e-05  | 0.004601   | 0.0096731  |   3.2 |  0.15
Other   |            | 0.3187     |            |       | 10.63

Nlocal:        5552.90 ave        7892 max           0 min
Histogram: 4 2 2 0 2 6 4 2 11 19
Nghost:        6214.02 ave        8773 max         412 min
Histogram: 4 0 4 0 8 0 4 5 7 20
Neighs:       158427.0 ave      229631 max           0 min
Histogram: 4 2 2 0 5 3 4 4 10 18

Total # of neighbors = 8238189
Ave neighs/atom = 28.530426
Neighbor list builds = 0
Dangerous builds = 0
The dot product: -5.26262015425654e-07
Setting atom values ...
  1 settings made for x
  1 settings made for y
  1 settings made for z
Setting up cg style minimization ...
  Unit style    : metal
  Current step  : 5264
Per MPI rank memory allocation (min/avg/max) = 5.465 | 6.344 | 6.728 Mbytes
Step PotEng KinEng TotEng v_fx v_fy v_fz 
    5264   -1152449.3            0   -1152449.3 -0.0094917755 -0.054398222  -0.03607109 
    5418   -1152449.3            0   -1152449.3 3.2113983e-05 -5.26936e-05 -4.5744938e-05 
Loop time of 3.34441 on 52 procs for 154 steps with 288751 atoms

99.9% CPU use with 52 MPI tasks x 1 OpenMP threads

Minimization stats:
  Stopping criterion = energy tolerance
  Energy initial, next-to-last, final = 
     -1152449.33021238  -1152449.33138569  -1152449.33138569
  Force two-norm initial, final = 0.15575382 0.00027056339
  Force max component initial, final = 0.061755906 6.1439279e-05
  Final line search alpha, max atom move = 1.0000000 6.1439279e-05
  Iterations, force evaluations = 154 308

MPI task timing breakdown:
Section |  min time  |  avg time  |  max time  |%varavg| %total
---------------------------------------------------------------
Pair    | 0.86961    | 2.4522     | 3.2059     |  43.5 | 73.32
Neigh   | 0          | 0          | 0          |   0.0 |  0.00
Comm    | 0.042852   | 0.5403     | 1.7124     |  66.7 | 16.16
Output  | 0          | 0          | 0          |   0.0 |  0.00
Modify  | 4.5543e-05 | 0.0051382  | 0.010915   |   3.3 |  0.15
Other   |            | 0.3468     |            |       | 10.37

Nlocal:        5552.90 ave        7891 max           0 min
Histogram: 4 2 2 0 2 6 4 1 12 19
Nghost:        6214.02 ave        8773 max         412 min
Histogram: 4 0 4 0 8 0 4 5 7 20
Neighs:       158427.0 ave      229596 max           0 min
Histogram: 4 2 2 0 5 3 4 4 11 17

Total # of neighbors = 8238186
Ave neighs/atom = 28.530415
Neighbor list builds = 0
Dangerous builds = 0
The dot product: 2.54586775626231e-07
Setting atom values ...
  1 settings made for x
  1 settings made for y
  1 settings made for z
Setting up cg style minimization ...
  Unit style    : metal
  Current step  : 5418
Per MPI rank memory allocation (min/avg/max) = 5.465 | 6.344 | 6.728 Mbytes
Step PotEng KinEng TotEng v_fx v_fy v_fz 
    5418   -1152449.3            0   -1152449.3 -0.0075487365 -0.049921542 -0.033942428 
    5594   -1152449.3            0   -1152449.3 8.1551448e-06 8.5740375e-06 4.0491043e-06 
Loop time of 3.88028 on 52 procs for 176 steps with 288751 atoms

99.8% CPU use with 52 MPI tasks x 1 OpenMP threads

Minimization stats:
  Stopping criterion = linesearch alpha is zero
  Energy initial, next-to-last, final = 
     -1152449.32370953  -1152449.32483591  -1152449.32483591
  Force two-norm initial, final = 0.15219433 0.00013447791
  Force max component initial, final = 0.059878333 1.1611187e-05
  Final line search alpha, max atom move = 0.5 5.8055935e-06
  Iterations, force evaluations = 176 353

MPI task timing breakdown:
Section |  min time  |  avg time  |  max time  |%varavg| %total
---------------------------------------------------------------
Pair    | 1.0027     | 2.818      | 3.6997     |  46.3 | 72.62
Neigh   | 0          | 0          | 0          |   0.0 |  0.00
Comm    | 0.046458   | 0.62464    | 1.9739     |  70.6 | 16.10
Output  | 0          | 0          | 0          |   0.0 |  0.00
Modify  | 5.493e-05  | 0.005905   | 0.012436   |   3.6 |  0.15
Other   |            | 0.4317     |            |       | 11.13

Nlocal:        5552.90 ave        7891 max           0 min
Histogram: 4 2 2 0 2 6 4 1 12 19
Nghost:        6214.02 ave        8773 max         412 min
Histogram: 4 0 4 0 8 0 4 5 7 20
Neighs:       158427.0 ave      229584 max           0 min
Histogram: 4 2 2 0 5 3 4 4 11 17

Total # of neighbors = 8238188
Ave neighs/atom = 28.530422
Neighbor list builds = 0
Dangerous builds = 0
The dot product: -4.23701882989515e-08
Setting atom values ...
  1 settings made for x
  1 settings made for y
  1 settings made for z
Setting up cg style minimization ...
  Unit style    : metal
  Current step  : 5594
Per MPI rank memory allocation (min/avg/max) = 5.465 | 6.344 | 6.728 Mbytes
Step PotEng KinEng TotEng v_fx v_fy v_fz 
    5594   -1152449.3            0   -1152449.3 -0.0073253078 -0.048580327 -0.033440463 
    5777   -1152449.3            0   -1152449.3 -7.7819735e-06 -1.6219782e-07 1.8936005e-06 
Loop time of 4.02352 on 52 procs for 183 steps with 288751 atoms

99.9% CPU use with 52 MPI tasks x 1 OpenMP threads

Minimization stats:
  Stopping criterion = linesearch alpha is zero
  Energy initial, next-to-last, final = 
     -1152449.31568399  -1152449.31678783  -1152449.31678783
  Force two-norm initial, final = 0.15039929 0.00012113915
  Force max component initial, final = 0.057921485 1.1183449e-05
  Final line search alpha, max atom move = 0.5 5.5917246e-06
  Iterations, force evaluations = 183 369

MPI task timing breakdown:
Section |  min time  |  avg time  |  max time  |%varavg| %total
---------------------------------------------------------------
Pair    | 1.043      | 2.936      | 3.8651     |  47.6 | 72.97
Neigh   | 0          | 0          | 0          |   0.0 |  0.00
Comm    | 0.052248   | 0.64651    | 2.0392     |  72.7 | 16.07
Output  | 0          | 0          | 0          |   0.0 |  0.00
Modify  | 5.1303e-05 | 0.0061636  | 0.012946   |   3.7 |  0.15
Other   |            | 0.4348     |            |       | 10.81

Nlocal:        5552.90 ave        7891 max           0 min
Histogram: 4 2 2 0 2 6 4 1 12 19
Nghost:        6214.04 ave        8773 max         412 min
Histogram: 4 0 4 0 8 0 4 5 7 20
Neighs:       158427.0 ave      229559 max           0 min
Histogram: 4 2 2 0 5 3 4 4 11 17

Total # of neighbors = 8238189
Ave neighs/atom = 28.530426
Neighbor list builds = 0
Dangerous builds = 0
The dot product: 4.62718967669057e-09
Setting atom values ...
  1 settings made for x
  1 settings made for y
  1 settings made for z
Setting up cg style minimization ...
  Unit style    : metal
  Current step  : 5777
Per MPI rank memory allocation (min/avg/max) = 5.465 | 6.344 | 6.728 Mbytes
Step PotEng KinEng TotEng v_fx v_fy v_fz 
    5777   -1152449.3            0   -1152449.3 -0.0067430225  -0.04745174 -0.033140891 
    5954   -1152449.3            0   -1152449.3 2.1113063e-05 1.3016734e-05 4.1293794e-06 
Loop time of 3.84713 on 52 procs for 177 steps with 288751 atoms

99.9% CPU use with 52 MPI tasks x 1 OpenMP threads

Minimization stats:
  Stopping criterion = linesearch alpha is zero
  Energy initial, next-to-last, final = 
     -1152449.30613296  -1152449.30722136  -1152449.30722136
  Force two-norm initial, final = 0.14902426 0.00015451457
  Force max component initial, final = 0.055961227 2.3382628e-05
  Final line search alpha, max atom move = 0.5 1.1691314e-05
  Iterations, force evaluations = 177 355

MPI task timing breakdown:
Section |  min time  |  avg time  |  max time  |%varavg| %total
---------------------------------------------------------------
Pair    | 1.004      | 2.8178     | 3.6951     |  46.4 | 73.24
Neigh   | 0          | 0          | 0          |   0.0 |  0.00
Comm    | 0.046668   | 0.61782    | 1.9517     |  71.3 | 16.06
Output  | 0          | 0          | 0          |   0.0 |  0.00
Modify  | 5.8579e-05 | 0.0059239  | 0.012546   |   3.6 |  0.15
Other   |            | 0.4056     |            |       | 10.54

Nlocal:        5552.90 ave        7891 max           0 min
Histogram: 4 2 2 0 2 6 4 1 12 19
Nghost:        6214.02 ave        8773 max         412 min
Histogram: 4 0 4 0 8 0 4 5 7 20
Neighs:       158427.0 ave      229565 max           0 min
Histogram: 4 2 2 0 5 3 4 4 11 17

Total # of neighbors = 8238189
Ave neighs/atom = 28.530426
Neighbor list builds = 0
Dangerous builds = 0
The dot product: -6.24326110503572e-08
Setting atom values ...
  1 settings made for x
  1 settings made for y
  1 settings made for z
Setting up cg style minimization ...
  Unit style    : metal
  Current step  : 5954
Per MPI rank memory allocation (min/avg/max) = 5.465 | 6.344 | 6.728 Mbytes
Step PotEng KinEng TotEng v_fx v_fy v_fz 
    5954   -1152449.3            0   -1152449.3 -0.0056764042 -0.046272014 -0.032891507 
    6000   -1152449.3            0   -1152449.3 -0.00038457232 -5.8297431e-05 5.5498515e-05 
    6128   -1152449.3            0   -1152449.3 -6.0508693e-06 -2.5772945e-05 -1.7578099e-05 
Loop time of 3.81613 on 52 procs for 174 steps with 288751 atoms

99.9% CPU use with 52 MPI tasks x 1 OpenMP threads

Minimization stats:
  Stopping criterion = energy tolerance
  Energy initial, next-to-last, final = 
     -1152449.29503649   -1152449.2961118   -1152449.2961118
  Force two-norm initial, final = 0.14785085 0.00017133511
  Force max component initial, final = 0.053991466 2.7741231e-05
  Final line search alpha, max atom move = 1.0000000 2.7741231e-05
  Iterations, force evaluations = 174 350

MPI task timing breakdown:
Section |  min time  |  avg time  |  max time  |%varavg| %total
---------------------------------------------------------------
Pair    | 0.98788    | 2.7823     | 3.6652     |  46.3 | 72.91
Neigh   | 0          | 0          | 0          |   0.0 |  0.00
Comm    | 0.046961   | 0.61321    | 1.9248     |  70.7 | 16.07
Output  | 0.0001185  | 0.0001221  | 0.0002571  |   0.0 |  0.00
Modify  | 5.0835e-05 | 0.0058563  | 0.012447   |   3.6 |  0.15
Other   |            | 0.4146     |            |       | 10.86

Nlocal:        5552.90 ave        7890 max           0 min
Histogram: 4 2 2 0 2 6 4 1 12 19
Nghost:        6214.02 ave        8773 max         412 min
Histogram: 4 0 4 0 8 0 4 5 7 20
Neighs:       158427.0 ave      229547 max           0 min
Histogram: 4 2 2 0 5 3 4 4 11 17

Total # of neighbors = 8238189
Ave neighs/atom = 28.530426
Neighbor list builds = 0
Dangerous builds = 0
The dot product: 1.05375298091484e-07
Setting atom values ...
  1 settings made for x
  1 settings made for y
  1 settings made for z
Setting up cg style minimization ...
  Unit style    : metal
  Current step  : 6128
Per MPI rank memory allocation (min/avg/max) = 5.465 | 6.344 | 6.728 Mbytes
Step PotEng KinEng TotEng v_fx v_fy v_fz 
    6128   -1152449.3            0   -1152449.3 -0.0042437468 -0.045183623 -0.032768006 
    6301   -1152449.3            0   -1152449.3 -2.497035e-05 -2.9851508e-05 -1.5966402e-05 
Loop time of 3.7634 on 52 procs for 173 steps with 288751 atoms

99.9% CPU use with 52 MPI tasks x 1 OpenMP threads

Minimization stats:
  Stopping criterion = energy tolerance
  Energy initial, next-to-last, final = 
     -1152449.28237112  -1152449.28343523  -1152449.28343523
  Force two-norm initial, final = 0.14695233 0.00018857495
  Force max component initial, final = 0.052030343 3.9737499e-05
  Final line search alpha, max atom move = 1.0000000 3.9737499e-05
  Iterations, force evaluations = 173 346

MPI task timing breakdown:
Section |  min time  |  avg time  |  max time  |%varavg| %total
---------------------------------------------------------------
Pair    | 0.97997    | 2.7456     | 3.6011     |  45.9 | 72.96
Neigh   | 0          | 0          | 0          |   0.0 |  0.00
Comm    | 0.049603   | 0.6068     | 1.9061     |  70.1 | 16.12
Output  | 0          | 0          | 0          |   0.0 |  0.00
Modify  | 5.0908e-05 | 0.0057749  | 0.012274   |   3.6 |  0.15
Other   |            | 0.4052     |            |       | 10.77

Nlocal:        5552.90 ave        7890 max           0 min
Histogram: 4 2 2 0 2 6 4 1 12 19
Nghost:        6213.98 ave        8772 max         412 min
Histogram: 4 0 4 0 8 0 4 5 7 20
Neighs:       158427.0 ave      229553 max           0 min
Histogram: 4 2 2 0 5 3 4 4 11 17

Total # of neighbors = 8238188
Ave neighs/atom = 28.530422
Neighbor list builds = 0
Dangerous builds = 0
The dot product: 1.20689077934082e-07
Setting atom values ...
  1 settings made for x
  1 settings made for y
  1 settings made for z
Setting up cg style minimization ...
  Unit style    : metal
  Current step  : 6301
Per MPI rank memory allocation (min/avg/max) = 5.465 | 6.344 | 6.728 Mbytes
Step PotEng KinEng TotEng v_fx v_fy v_fz 
    6301   -1152449.3            0   -1152449.3 -0.0024144293 -0.044233335 -0.032819311 
    6517   -1152449.3            0   -1152449.3 -1.0568071e-05 6.0107399e-07 3.1611625e-06 
Loop time of 4.69232 on 52 procs for 216 steps with 288751 atoms

99.9% CPU use with 52 MPI tasks x 1 OpenMP threads

Minimization stats:
  Stopping criterion = energy tolerance
  Energy initial, next-to-last, final = 
     -1152449.26811892  -1152449.26917264  -1152449.26917264
  Force two-norm initial, final = 0.14625592 3.8666236e-05
  Force max component initial, final = 0.050033565 1.0568071e-05
  Final line search alpha, max atom move = 1.0000000 1.0568071e-05
  Iterations, force evaluations = 216 432

MPI task timing breakdown:
Section |  min time  |  avg time  |  max time  |%varavg| %total
---------------------------------------------------------------
Pair    | 1.2236     | 3.4414     | 4.507      |  51.4 | 73.34
Neigh   | 0          | 0          | 0          |   0.0 |  0.00
Comm    | 0.056568   | 0.76055    | 2.41       |  78.8 | 16.21
Output  | 0          | 0          | 0          |   0.0 |  0.00
Modify  | 5.9399e-05 | 0.0072332  | 0.015307   |   4.0 |  0.15
Other   |            | 0.4831     |            |       | 10.30

Nlocal:        5552.90 ave        7890 max           0 min
Histogram: 4 2 2 0 2 6 4 1 12 19
Nghost:        6213.98 ave        8772 max         412 min
Histogram: 4 0 4 0 8 0 4 5 7 20
Neighs:       158427.0 ave      229556 max           0 min
Histogram: 4 2 2 0 5 3 4 4 11 17

Total # of neighbors = 8238189
Ave neighs/atom = 28.530426
Neighbor list builds = 0
Dangerous builds = 0
The dot product: -2.78649405242089e-09
Setting atom values ...
  1 settings made for x
  1 settings made for y
  1 settings made for z
Setting up cg style minimization ...
  Unit style    : metal
  Current step  : 6517
Per MPI rank memory allocation (min/avg/max) = 5.465 | 6.344 | 6.728 Mbytes
Step PotEng KinEng TotEng v_fx v_fy v_fz 
    6517   -1152449.3            0   -1152449.3 -0.00030640522 -0.043531355 -0.033106159 
    6715   -1152449.3            0   -1152449.3 -2.9024843e-05 8.8458056e-06 1.4179506e-05 
Loop time of 4.31786 on 52 procs for 198 steps with 288751 atoms

99.9% CPU use with 52 MPI tasks x 1 OpenMP threads

Minimization stats:
  Stopping criterion = linesearch alpha is zero
  Energy initial, next-to-last, final = 
     -1152449.25226829  -1152449.25330995  -1152449.25330995
  Force two-norm initial, final = 0.14577377 0.00010541144
  Force max component initial, final = 0.048024368 3.5841103e-05
  Final line search alpha, max atom move = 0.5 1.7920552e-05
  Iterations, force evaluations = 198 397

MPI task timing breakdown:
Section |  min time  |  avg time  |  max time  |%varavg| %total
---------------------------------------------------------------
Pair    | 1.1229     | 3.1508     | 4.1419     |  49.2 | 72.97
Neigh   | 0          | 0          | 0          |   0.0 |  0.00
Comm    | 0.05208    | 0.69566    | 2.186      |  75.0 | 16.11
Output  | 0          | 0          | 0          |   0.0 |  0.00
Modify  | 6.3564e-05 | 0.0066111  | 0.013995   |   3.8 |  0.15
Other   |            | 0.4648     |            |       | 10.76

Nlocal:        5552.90 ave        7889 max           0 min
Histogram: 4 2 2 0 2 6 4 1 12 19
Nghost:        6213.98 ave        8772 max         412 min
Histogram: 4 0 4 0 8 0 4 5 7 20
Neighs:       158427.0 ave      229527 max           0 min
Histogram: 4 2 2 0 5 3 4 4 11 17

Total # of neighbors = 8238189
Ave neighs/atom = 28.530426
Neighbor list builds = 0
Dangerous builds = 0
The dot product: -4.02835482081214e-08
Setting atom values ...
  1 settings made for x
  1 settings made for y
  1 settings made for z
Setting up cg style minimization ...
  Unit style    : metal
  Current step  : 6715
Per MPI rank memory allocation (min/avg/max) = 5.465 | 6.344 | 6.728 Mbytes
Step PotEng KinEng TotEng v_fx v_fy v_fz 
    6715   -1152449.2            0   -1152449.2 0.0020104685 -0.043417555 -0.033885159 
    6899   -1152449.2            0   -1152449.2 4.9937087e-05 4.1200248e-07 -1.2494007e-05 
Loop time of 4.02934 on 52 procs for 184 steps with 288751 atoms

99.9% CPU use with 52 MPI tasks x 1 OpenMP threads

Minimization stats:
  Stopping criterion = linesearch alpha is zero
  Energy initial, next-to-last, final = 
      -1152449.2348101   -1152449.2358375   -1152449.2358375
  Force two-norm initial, final = 0.14565927 0.00015912303
  Force max component initial, final = 0.046976604 4.9937087e-05
  Final line search alpha, max atom move = 0.25 1.2484272e-05
  Iterations, force evaluations = 184 371

MPI task timing breakdown:
Section |  min time  |  avg time  |  max time  |%varavg| %total
---------------------------------------------------------------
Pair    | 1.0482     | 2.9514     | 3.8702     |  47.6 | 73.25
Neigh   | 0          | 0          | 0          |   0.0 |  0.00
Comm    | 0.048762   | 0.6493     | 2.0563     |  72.8 | 16.11
Output  | 0          | 0          | 0          |   0.0 |  0.00
Modify  | 5.4569e-05 | 0.0061904  | 0.013151   |   3.7 |  0.15
Other   |            | 0.4225     |            |       | 10.48

Nlocal:        5552.90 ave        7889 max           0 min
Histogram: 4 2 2 0 2 6 4 1 12 19
Nghost:        6213.88 ave        8771 max         412 min
Histogram: 4 0 4 0 8 0 4 5 7 20
Neighs:       158427.0 ave      229527 max           0 min
Histogram: 4 2 2 0 5 3 4 4 11 17

Total # of neighbors = 8238188
Ave neighs/atom = 28.530422
Neighbor list builds = 0
Dangerous builds = 0
The dot product: 1.69052147779958e-08
Setting atom values ...
  1 settings made for x
  1 settings made for y
  1 settings made for z
Setting up cg style minimization ...
  Unit style    : metal
  Current step  : 6899
Per MPI rank memory allocation (min/avg/max) = 5.465 | 6.344 | 6.728 Mbytes
Step PotEng KinEng TotEng v_fx v_fy v_fz 
    6899   -1152449.2            0   -1152449.2 0.0047053319 -0.044194733 -0.035455079 
    7000   -1152449.2            0   -1152449.2 -0.00013314769 0.00010782913 0.00011778899 
    7076   -1152449.2            0   -1152449.2 9.9601852e-06 1.8689554e-05 1.1921011e-05 
Loop time of 3.83051 on 52 procs for 177 steps with 288751 atoms

99.9% CPU use with 52 MPI tasks x 1 OpenMP threads

Minimization stats:
  Stopping criterion = energy tolerance
  Energy initial, next-to-last, final = 
     -1152449.21574911  -1152449.21676155  -1152449.21676155
  Force two-norm initial, final = 0.14608759 0.00019479772
  Force max component initial, final = 0.050003648 2.3260927e-05
  Final line search alpha, max atom move = 1.0000000 2.3260927e-05
  Iterations, force evaluations = 177 354

MPI task timing breakdown:
Section |  min time  |  avg time  |  max time  |%varavg| %total
---------------------------------------------------------------
Pair    | 1.0009     | 2.8083     | 3.6788     |  46.4 | 73.32
Neigh   | 0          | 0          | 0          |   0.0 |  0.00
Comm    | 0.047334   | 0.6165     | 1.9455     |  71.2 | 16.09
Output  | 0.00012959 | 0.00013388 | 0.00029057 |   0.0 |  0.00
Modify  | 4.912e-05  | 0.0059048  | 0.012487   |   3.6 |  0.15
Other   |            | 0.3996     |            |       | 10.43

Nlocal:        5552.90 ave        7887 max           0 min
Histogram: 4 2 2 0 2 6 4 1 12 19
Nghost:        6213.94 ave        8772 max         412 min
Histogram: 4 0 4 0 8 0 4 5 7 20
Neighs:       158427.0 ave      229458 max           0 min
Histogram: 4 2 2 0 5 3 4 4 11 17

Total # of neighbors = 8238189
Ave neighs/atom = 28.530426
Neighbor list builds = 0
Dangerous builds = 0
The dot product: -7.45292432969818e-08
Setting atom values ...
  1 settings made for x
  1 settings made for y
  1 settings made for z
Setting up cg style minimization ...
  Unit style    : metal
  Current step  : 7076
Per MPI rank memory allocation (min/avg/max) = 5.465 | 6.344 | 6.728 Mbytes
Step PotEng KinEng TotEng v_fx v_fy v_fz 
    7076   -1152449.2            0   -1152449.2 0.0075752316 -0.046258685 -0.038108398 
    7236   -1152449.2            0   -1152449.2 -3.9441665e-05 2.8328921e-05 3.2319439e-05 
Loop time of 3.48788 on 52 procs for 160 steps with 288751 atoms

99.9% CPU use with 52 MPI tasks x 1 OpenMP threads

Minimization stats:
  Stopping criterion = energy tolerance
  Energy initial, next-to-last, final = 
     -1152449.19511821   -1152449.1961173   -1152449.1961173
  Force two-norm initial, final = 0.14727164 0.00028486081
  Force max component initial, final = 0.053218043 5.7423708e-05
  Final line search alpha, max atom move = 1.0000000 5.7423708e-05
  Iterations, force evaluations = 160 320

MPI task timing breakdown:
Section |  min time  |  avg time  |  max time  |%varavg| %total
---------------------------------------------------------------
Pair    | 0.90514    | 2.5465     | 3.3493     |  44.3 | 73.01
Neigh   | 0          | 0          | 0          |   0.0 |  0.00
Comm    | 0.043415   | 0.56062    | 1.7652     |  67.6 | 16.07
Output  | 0          | 0          | 0          |   0.0 |  0.00
Modify  | 4.8149e-05 | 0.0053394  | 0.011261   |   3.4 |  0.15
Other   |            | 0.3754     |            |       | 10.76

Nlocal:        5552.90 ave        7886 max           0 min
Histogram: 4 2 2 0 2 6 4 1 12 19
Nghost:        6213.94 ave        8772 max         412 min
Histogram: 4 0 4 0 8 0 4 5 7 20
Neighs:       158427.0 ave      229413 max           0 min
Histogram: 4 2 2 0 4 4 4 4 11 17

Total # of neighbors = 8238190
Ave neighs/atom = 28.530429
Neighbor list builds = 0
Dangerous builds = 0
The dot product: -1.83732859645234e-07
Setting atom values ...
  1 settings made for x
  1 settings made for y
  1 settings made for z
Setting up cg style minimization ...
  Unit style    : metal
  Current step  : 7236
Per MPI rank memory allocation (min/avg/max) = 5.465 | 6.344 | 6.728 Mbytes
Step PotEng KinEng TotEng v_fx v_fy v_fz 
    7236   -1152449.2            0   -1152449.2  0.010670338 -0.050409242 -0.042556549 
    7414   -1152449.2            0   -1152449.2 -4.6901241e-05 -7.3113307e-06 6.4046838e-06 
Loop time of 3.86757 on 52 procs for 178 steps with 288751 atoms

99.9% CPU use with 52 MPI tasks x 1 OpenMP threads

Minimization stats:
  Stopping criterion = energy tolerance
  Energy initial, next-to-last, final = 
     -1152449.17299897   -1152449.1740029   -1152449.1740029
  Force two-norm initial, final = 0.14999858 0.00017762827
  Force max component initial, final = 0.056441928 4.6901241e-05
  Final line search alpha, max atom move = 1.0000000 4.6901241e-05
  Iterations, force evaluations = 178 356

MPI task timing breakdown:
Section |  min time  |  avg time  |  max time  |%varavg| %total
---------------------------------------------------------------
Pair    | 1.0076     | 2.8284     | 3.7081     |  46.5 | 73.13
Neigh   | 0          | 0          | 0          |   0.0 |  0.00
Comm    | 0.048438   | 0.62343    | 1.9578     |  71.2 | 16.12
Output  | 0          | 0          | 0          |   0.0 |  0.00
Modify  | 5.2065e-05 | 0.0059334  | 0.012552   |   3.6 |  0.15
Other   |            | 0.4098     |            |       | 10.60

Nlocal:        5552.90 ave        7886 max           0 min
Histogram: 4 2 2 0 2 6 4 1 12 19
Nghost:        6213.94 ave        8772 max         412 min
Histogram: 4 0 4 0 8 0 4 5 7 20
Neighs:       158427.0 ave      229417 max           0 min
Histogram: 4 2 2 0 4 4 4 4 11 17

Total # of neighbors = 8238193
Ave neighs/atom = 28.530440
Neighbor list builds = 0
Dangerous builds = 0
The dot product: -2.52099033043332e-08
Setting atom values ...
  1 settings made for x
  1 settings made for y
  1 settings made for z
Setting up cg style minimization ...
  Unit style    : metal
  Current step  : 7414
Per MPI rank memory allocation (min/avg/max) = 5.465 | 6.344 | 6.728 Mbytes
Step PotEng KinEng TotEng v_fx v_fy v_fz 
    7414   -1152449.1            0   -1152449.1  0.015026973 -0.058853853  -0.05100316 
    7694   -1152449.3            0   -1152449.3 1.9083767e-06 -2.0236578e-05 -1.6683344e-05 
Loop time of 6.151 on 52 procs for 280 steps with 288751 atoms

99.9% CPU use with 52 MPI tasks x 1 OpenMP threads

Minimization stats:
  Stopping criterion = linesearch alpha is zero
  Energy initial, next-to-last, final = 
     -1152449.14961065  -1152449.31816217  -1152449.31816217
  Force two-norm initial, final = 0.15665958 7.6023646e-05
  Force max component initial, final = 0.059684681 2.0236578e-05
  Final line search alpha, max atom move = 0.5 1.0118289e-05
  Iterations, force evaluations = 280 562

MPI task timing breakdown:
Section |  min time  |  avg time  |  max time  |%varavg| %total
---------------------------------------------------------------
Pair    | 1.6129     | 4.4759     | 5.8642     |  58.2 | 72.77
Neigh   | 5.7371e-05 | 0.017333   | 0.025599   |   5.6 |  0.28
Comm    | 0.084513   | 0.98705    | 3.103      |  89.4 | 16.05
Output  | 0          | 0          | 0          |   0.0 |  0.00
Modify  | 8.8883e-05 | 0.0094078  | 0.019897   |   4.5 |  0.15
Other   |            | 0.6613     |            |       | 10.75

Nlocal:        5552.90 ave        7892 max           0 min
Histogram: 4 2 2 0 2 6 4 1 12 19
Nghost:        6213.98 ave        8772 max         412 min
Histogram: 4 0 4 0 8 0 4 5 7 20
Neighs:       158426.0 ave      229585 max           0 min
Histogram: 4 2 2 0 5 3 4 4 11 17

Total # of neighbors = 8238176
Ave neighs/atom = 28.530381
Neighbor list builds = 3
Dangerous builds = 0
The dot product: 7.57825743860217e-06
Setting atom values ...
  1 settings made for x
  1 settings made for y
  1 settings made for z
Setting up cg style minimization ...
  Unit style    : metal
  Current step  : 7694
Per MPI rank memory allocation (min/avg/max) = 5.465 | 6.344 | 6.728 Mbytes
Step PotEng KinEng TotEng v_fx v_fy v_fz 
    7694   -1152449.3            0   -1152449.3 -0.020007955   0.07535739   0.12984641 
    7903   -1152449.3            0   -1152449.3 6.8880978e-06 3.0498948e-05 4.1385651e-05 
Loop time of 4.58125 on 52 procs for 209 steps with 288751 atoms

99.9% CPU use with 52 MPI tasks x 1 OpenMP threads

Minimization stats:
  Stopping criterion = energy tolerance
[...]
Nghost:        6213.85 ave        8773 max         412 min
Histogram: 4 0 4 0 8 0 4 5 7 20
Neighs:       158427.0 ave      229115 max           0 min
Histogram: 4 2 2 0 4 4 4 4 10 18

Total # of neighbors = 8238212
Ave neighs/atom = 28.530506
Neighbor list builds = 0
Dangerous builds = 0
The dot product: 4.47490488465914e-09
Setting atom values ...
  1 settings made for x
  1 settings made for y
  1 settings made for z
Setting up cg style minimization ...
  Unit style    : metal
  Current step  : 16755
Per MPI rank memory allocation (min/avg/max) = 5.465 | 6.344 | 6.728 Mbytes
Step PotEng KinEng TotEng v_fx v_fy v_fz 
   16755   -1152448.8            0   -1152448.8 -0.0068762744 -0.026105953 -0.028205179 
   16914   -1152448.8            0   -1152448.8 8.9780062e-07 8.7589246e-07 4.1648319e-07 
Loop time of 3.39557 on 52 procs for 159 steps with 288751 atoms

99.9% CPU use with 52 MPI tasks x 1 OpenMP threads

Minimization stats:
  Stopping criterion = energy tolerance
  Energy initial, next-to-last, final = 
     -1152448.80451804  -1152448.80565676  -1152448.80565676
  Force two-norm initial, final = 0.15238958 0.00018480066
  Force max component initial, final = 0.081422815 1.8544423e-05
  Final line search alpha, max atom move = 1.0000000 1.8544423e-05
  Iterations, force evaluations = 159 318

MPI task timing breakdown:
Section |  min time  |  avg time  |  max time  |%varavg| %total
---------------------------------------------------------------
Pair    | 0.8911     | 2.5001     | 3.2583     |  43.6 | 73.63
Neigh   | 0          | 0          | 0          |   0.0 |  0.00
Comm    | 0.040928   | 0.54289    | 1.7337     |  67.6 | 15.99
Output  | 0          | 0          | 0          |   0.0 |  0.00
Modify  | 4.2739e-05 | 0.0052808  | 0.011071   |   3.4 |  0.16
Other   |            | 0.3473     |            |       | 10.23

Nlocal:        5552.90 ave        7875 max           0 min
Histogram: 4 2 2 0 2 6 4 1 12 19
Nghost:        6213.85 ave        8773 max         412 min
Histogram: 4 0 4 0 8 0 4 5 7 20
Neighs:       158427.0 ave      229082 max           0 min
Histogram: 4 2 2 0 4 4 4 4 10 18

Total # of neighbors = 8238212
Ave neighs/atom = 28.530506
Neighbor list builds = 0
Dangerous builds = 0
The dot product: -1.10937944839778e-08
Setting atom values ...
  1 settings made for x
  1 settings made for y
  1 settings made for z
Setting up cg style minimization ...
  Unit style    : metal
  Current step  : 16914
Per MPI rank memory allocation (min/avg/max) = 5.465 | 6.344 | 6.728 Mbytes
Step PotEng KinEng TotEng v_fx v_fy v_fz 
   16914   -1152448.8            0   -1152448.8 -0.012451134 -0.037619236 -0.038978405 
   17000   -1152448.8            0   -1152448.8 0.00010497664 0.00012723947 8.2096358e-05 
   17161   -1152448.8            0   -1152448.8 -1.4531165e-06 1.4983696e-06 3.0946773e-06 
Loop time of 5.2838 on 52 procs for 247 steps with 288751 atoms

99.9% CPU use with 52 MPI tasks x 1 OpenMP threads

Minimization stats:
  Stopping criterion = energy tolerance
  Energy initial, next-to-last, final = 
     -1152448.76222419  -1152448.76472267  -1152448.76472267
  Force two-norm initial, final = 0.15823291 2.6448312e-05
  Force max component initial, final = 0.081202878 7.5622470e-06
  Final line search alpha, max atom move = 1.0000000 7.5622470e-06
  Iterations, force evaluations = 247 494

MPI task timing breakdown:
Section |  min time  |  avg time  |  max time  |%varavg| %total
---------------------------------------------------------------
Pair    | 1.3876     | 3.8832     | 5.0547     |  54.3 | 73.49
Neigh   | 0          | 0          | 0          |   0.0 |  0.00
Comm    | 0.066651   | 0.84554    | 2.6904     |  84.0 | 16.00
Output  | 0.00012099 | 0.00012571 | 0.00031909 |   0.0 |  0.00
Modify  | 6.5777e-05 | 0.0082014  | 0.017166   |   4.2 |  0.16
Other   |            | 0.5467     |            |       | 10.35

Nlocal:        5552.90 ave        7874 max           0 min
Histogram: 4 2 2 0 2 6 4 1 12 19
Nghost:        6213.83 ave        8773 max         412 min
Histogram: 4 0 4 0 8 0 4 5 7 20
Neighs:       158427.0 ave      229047 max           0 min
Histogram: 4 2 2 0 4 4 4 4 9 19

Total # of neighbors = 8238213
Ave neighs/atom = 28.530509
Neighbor list builds = 0
Dangerous builds = 0
The dot product: -8.34386765145522e-08
Setting atom values ...
  1 settings made for x
  1 settings made for y
  1 settings made for z
Setting up cg style minimization ...
  Unit style    : metal
  Current step  : 17161
Per MPI rank memory allocation (min/avg/max) = 5.465 | 6.344 | 6.728 Mbytes
Step PotEng KinEng TotEng v_fx v_fy v_fz 
   17161   -1152448.7            0   -1152448.7 -0.025761286 -0.060387149 -0.060919931 
   17349   -1152448.7            0   -1152448.7 1.7065837e-05 -8.9621215e-06 -2.5608708e-05 
Loop time of 4.02741 on 52 procs for 188 steps with 288751 atoms

99.9% CPU use with 52 MPI tasks x 1 OpenMP threads

Minimization stats:
  Stopping criterion = linesearch alpha is zero
  Energy initial, next-to-last, final = 
     -1152448.72372225  -1152448.72609328  -1152448.72609328
  Force two-norm initial, final = 0.17151717 0.00012857979
  Force max component initial, final = 0.081128374 2.6294958e-05
  Final line search alpha, max atom move = 0.5 1.3147479e-05
  Iterations, force evaluations = 188 377

MPI task timing breakdown:
Section |  min time  |  avg time  |  max time  |%varavg| %total
---------------------------------------------------------------
Pair    | 1.0573     | 2.9626     | 3.8617     |  47.4 | 73.56
Neigh   | 0          | 0          | 0          |   0.0 |  0.00
Comm    | 0.050723   | 0.64495    | 2.0543     |  73.4 | 16.01
Output  | 0          | 0          | 0          |   0.0 |  0.00
Modify  | 4.9559e-05 | 0.0062522  | 0.013086   |   3.7 |  0.16
Other   |            | 0.4136     |            |       | 10.27

Nlocal:        5552.90 ave        7875 max           0 min
Histogram: 4 2 2 0 2 6 4 1 12 19
Nghost:        6213.81 ave        8773 max         412 min
Histogram: 4 0 4 0 8 0 4 5 7 20
Neighs:       158427.0 ave      229082 max           0 min
Histogram: 4 2 2 0 4 4 4 4 10 18

Total # of neighbors = 8238214
Ave neighs/atom = 28.530512
Neighbor list builds = 0
Dangerous builds = 0
The dot product: 3.97201380520037e-07
Setting atom values ...
  1 settings made for x
  1 settings made for y
  1 settings made for z
Setting up cg style minimization ...
  Unit style    : metal
  Current step  : 17349
Per MPI rank memory allocation (min/avg/max) = 5.465 | 6.344 | 6.728 Mbytes
Step PotEng KinEng TotEng v_fx v_fy v_fz 
   17349   -1152448.7            0   -1152448.7 -0.023829921 -0.052433336  -0.05376474 
   17457   -1152448.7            0   -1152448.7 3.2111757e-06 1.6167721e-05 1.9862881e-05 
Loop time of 2.3084 on 52 procs for 108 steps with 288751 atoms

99.9% CPU use with 52 MPI tasks x 1 OpenMP threads

Minimization stats:
  Stopping criterion = energy tolerance
  Energy initial, next-to-last, final = 
     -1152448.68599073  -1152448.68763155  -1152448.68763155
  Force two-norm initial, final = 0.16312034 0.00041046108
  Force max component initial, final = 0.080659517 7.1718758e-05
  Final line search alpha, max atom move = 1.0000000 7.1718758e-05
  Iterations, force evaluations = 108 216

MPI task timing breakdown:
Section |  min time  |  avg time  |  max time  |%varavg| %total
---------------------------------------------------------------
Pair    | 0.60781    | 1.7007     | 2.2167     |  36.0 | 73.67
Neigh   | 0          | 0          | 0          |   0.0 |  0.00
Comm    | 0.028683   | 0.36907    | 1.1809     |  55.8 | 15.99
Output  | 0          | 0          | 0          |   0.0 |  0.00
Modify  | 3.0849e-05 | 0.003596   | 0.0075398  |   2.8 |  0.16
Other   |            | 0.2351     |            |       | 10.18

Nlocal:        5552.90 ave        7875 max           0 min
Histogram: 4 2 2 0 2 6 4 1 12 19
Nghost:        6213.79 ave        8773 max         412 min
Histogram: 4 0 4 0 8 0 4 5 7 20
Neighs:       158427.0 ave      229082 max           0 min
Histogram: 4 2 2 0 4 4 4 4 10 18

Total # of neighbors = 8238215
Ave neighs/atom = 28.530516
Neighbor list builds = 0
Dangerous builds = 0
The dot product: -4.77260662506922e-07
Setting atom values ...
  1 settings made for x
  1 settings made for y
  1 settings made for z
Setting up cg style minimization ...
  Unit style    : metal
  Current step  : 17457
Per MPI rank memory allocation (min/avg/max) = 5.465 | 6.344 | 6.728 Mbytes
Step PotEng KinEng TotEng v_fx v_fy v_fz 
   17457   -1152448.6            0   -1152448.6  -0.02342594 -0.048110158 -0.049409106 
   17712   -1152448.7            0   -1152448.7 2.173444e-07 1.2042565e-05 1.6847554e-05 
Loop time of 5.5038 on 52 procs for 255 steps with 288751 atoms

99.8% CPU use with 52 MPI tasks x 1 OpenMP threads

Minimization stats:
  Stopping criterion = linesearch alpha is zero
  Energy initial, next-to-last, final = 
     -1152448.64783873  -1152448.66786807  -1152448.66786807
  Force two-norm initial, final = 0.15885571 8.3757326e-05
  Force max component initial, final = 0.079853861 1.6847554e-05
  Final line search alpha, max atom move = 0.5 8.4237772e-06
  Iterations, force evaluations = 255 514

MPI task timing breakdown:
Section |  min time  |  avg time  |  max time  |%varavg| %total
---------------------------------------------------------------
Pair    | 1.4482     | 4.0403     | 5.2591     |  55.2 | 73.41
Neigh   | 1.8874e-05 | 0.0057359  | 0.0083836  |   3.2 |  0.10
Comm    | 0.069526   | 0.87761    | 2.8009     |  86.0 | 15.95
Output  | 0          | 0          | 0          |   0.0 |  0.00
Modify  | 6.9156e-05 | 0.0085133  | 0.017896   |   4.3 |  0.15
Other   |            | 0.5717     |            |       | 10.39

Nlocal:        5552.90 ave        7876 max           0 min
Histogram: 4 2 2 0 2 6 4 1 12 19
Nghost:        6213.79 ave        8773 max         412 min
Histogram: 4 0 4 0 8 0 4 5 7 20
Neighs:       158428.0 ave      229100 max           0 min
Histogram: 4 2 2 0 4 4 4 4 10 18

Total # of neighbors = 8238233
Ave neighs/atom = 28.530578
Neighbor list builds = 1
Dangerous builds = 0
The dot product: -2.19681010379757e-06
Setting atom values ...
  1 settings made for x
  1 settings made for y
  1 settings made for z
Setting up cg style minimization ...
  Unit style    : metal
  Current step  : 17712
Per MPI rank memory allocation (min/avg/max) = 5.465 | 6.344 | 6.728 Mbytes
Step PotEng KinEng TotEng v_fx v_fy v_fz 
   17712   -1152448.6            0   -1152448.6  -0.05631181 -0.083664177 -0.088506275 
   17855   -1152448.6            0   -1152448.6 3.7051106e-05 7.8485842e-06 -1.6869732e-05 
Loop time of 3.05695 on 52 procs for 143 steps with 288751 atoms

99.9% CPU use with 52 MPI tasks x 1 OpenMP threads

Minimization stats:
  Stopping criterion = energy tolerance
  Energy initial, next-to-last, final = 
     -1152448.64376463  -1152448.64551318  -1152448.64551318
  Force two-norm initial, final = 0.18918526 0.00022929969
  Force max component initial, final = 0.088506275 4.3174398e-05
  Final line search alpha, max atom move = 1.0000000 4.3174398e-05
  Iterations, force evaluations = 143 286

MPI task timing breakdown:
Section |  min time  |  avg time  |  max time  |%varavg| %total
---------------------------------------------------------------
Pair    | 0.80318    | 2.2501     | 2.9354     |  41.4 | 73.60
Neigh   | 0          | 0          | 0          |   0.0 |  0.00
Comm    | 0.038182   | 0.48861    | 1.5607     |  64.1 | 15.98
Output  | 0          | 0          | 0          |   0.0 |  0.00
Modify  | 3.6571e-05 | 0.0047436  | 0.0099796  |   3.2 |  0.16
Other   |            | 0.3135     |            |       | 10.26

Nlocal:        5552.90 ave        7885 max           0 min
Histogram: 4 2 2 0 2 6 4 1 12 19
Nghost:        6214.13 ave        8774 max         412 min
Histogram: 4 0 4 0 8 0 4 5 7 20
Neighs:       158427.0 ave      229365 max           0 min
Histogram: 4 2 2 0 4 4 4 4 11 17

Total # of neighbors = 8238219
Ave neighs/atom = 28.530530
Neighbor list builds = 0
Dangerous builds = 0
The dot product: -3.74428064267027e-07
Setting atom values ...
  1 settings made for x
  1 settings made for y
  1 settings made for z
Setting up cg style minimization ...
  Unit style    : metal
  Current step  : 17855
Per MPI rank memory allocation (min/avg/max) = 5.465 | 6.344 | 6.728 Mbytes
Step PotEng KinEng TotEng v_fx v_fy v_fz 
   17855   -1152448.6            0   -1152448.6 -0.029070947 -0.048167059 -0.054985189 
   17995   -1152448.6            0   -1152448.6 7.3165921e-06 -6.9280972e-06 -1.6969485e-05 
Loop time of 3.01081 on 52 procs for 140 steps with 288751 atoms

99.9% CPU use with 52 MPI tasks x 1 OpenMP threads

Minimization stats:
  Stopping criterion = energy tolerance
  Energy initial, next-to-last, final = 
     -1152448.62066605  -1152448.62168573  -1152448.62168573
  Force two-norm initial, final = 0.1539646 0.00015367945
  Force max component initial, final = 0.070786684 4.2939512e-05
  Final line search alpha, max atom move = 1.0000000 4.2939512e-05
  Iterations, force evaluations = 140 282

MPI task timing breakdown:
Section |  min time  |  avg time  |  max time  |%varavg| %total
---------------------------------------------------------------
Pair    | 0.79233    | 2.2178     | 2.8913     |  41.1 | 73.66
Neigh   | 0          | 0          | 0          |   0.0 |  0.00
Comm    | 0.037505   | 0.48169    | 1.5401     |  63.7 | 16.00
Output  | 0          | 0          | 0          |   0.0 |  0.00
Modify  | 3.7989e-05 | 0.0046895  | 0.0098374  |   3.2 |  0.16
Other   |            | 0.3067     |            |       | 10.19

Nlocal:        5552.90 ave        7883 max           0 min
Histogram: 4 2 2 0 2 6 4 1 12 19
Nghost:        6214.13 ave        8774 max         412 min
Histogram: 4 0 4 0 8 0 4 5 7 20
Neighs:       158427.0 ave      229306 max           0 min
Histogram: 4 2 2 0 4 4 4 4 10 18

Total # of neighbors = 8238219
Ave neighs/atom = 28.530530
Neighbor list builds = 0
Dangerous builds = 0
The dot product: 1.55229278935011e-08
Setting atom values ...
  1 settings made for x
  1 settings made for y
  1 settings made for z
Setting up cg style minimization ...
  Unit style    : metal
  Current step  : 17995
Per MPI rank memory allocation (min/avg/max) = 5.465 | 6.344 | 6.728 Mbytes
Step PotEng KinEng TotEng v_fx v_fy v_fz 
   17995   -1152448.6            0   -1152448.6 -0.023214015 -0.043041133 -0.051703098 
   18000   -1152448.6            0   -1152448.6 0.00029047173 -0.00011127419 -0.0004083357 
   18137   -1152448.6            0   -1152448.6 3.7185412e-07 2.289844e-05 3.689381e-05 
Loop time of 3.04765 on 52 procs for 142 steps with 288751 atoms

99.9% CPU use with 52 MPI tasks x 1 OpenMP threads

Minimization stats:
  Stopping criterion = energy tolerance
  Energy initial, next-to-last, final = 
     -1152448.59590752  -1152448.59685834  -1152448.59685834
  Force two-norm initial, final = 0.14881884 0.00026357535
  Force max component initial, final = 0.069683118 6.7253836e-05
  Final line search alpha, max atom move = 1.0000000 6.7253836e-05
  Iterations, force evaluations = 142 284

MPI task timing breakdown:
Section |  min time  |  avg time  |  max time  |%varavg| %total
---------------------------------------------------------------
Pair    | 0.79849    | 2.2355     | 2.9157     |  41.2 | 73.35
Neigh   | 0          | 0          | 0          |   0.0 |  0.00
Comm    | 0.037037   | 0.48718    | 1.5482     |  63.6 | 15.99
Output  | 0.00011611 | 0.00012014 | 0.00027723 |   0.0 |  0.00
Modify  | 3.7824e-05 | 0.0047075  | 0.0098894  |   3.2 |  0.15
Other   |            | 0.3201     |            |       | 10.50

Nlocal:        5552.90 ave        7881 max           0 min
Histogram: 4 2 2 0 2 6 4 1 12 19
Nghost:        6214.13 ave        8774 max         412 min
Histogram: 4 0 4 0 8 0 4 5 7 20
Neighs:       158427.0 ave      229257 max           0 min
Histogram: 4 2 2 0 4 4 4 4 10 18

Total # of neighbors = 8238221
Ave neighs/atom = 28.530537
Neighbor list builds = 0
Dangerous builds = 0
The dot product: -1.09653158343731e-07
Setting atom values ...
  1 settings made for x
  1 settings made for y
  1 settings made for z
Setting up cg style minimization ...
  Unit style    : metal
  Current step  : 18137
Per MPI rank memory allocation (min/avg/max) = 5.465 | 6.344 | 6.728 Mbytes
Step PotEng KinEng TotEng v_fx v_fy v_fz 
   18137   -1152448.6            0   -1152448.6 -0.019127822 -0.041227003 -0.052219546 
   18245   -1152448.6            0   -1152448.6 -2.303016e-05 2.5098616e-05 5.8831672e-05 
Loop time of 2.31528 on 52 procs for 108 steps with 288751 atoms

99.8% CPU use with 52 MPI tasks x 1 OpenMP threads

Minimization stats:
  Stopping criterion = energy tolerance
  Energy initial, next-to-last, final = 
     -1152448.57019146  -1152448.57108911  -1152448.57108911
  Force two-norm initial, final = 0.14620011 0.0004194042
  Force max component initial, final = 0.068491071 9.8694106e-05
  Final line search alpha, max atom move = 1.0000000 9.8694106e-05
  Iterations, force evaluations = 108 216

MPI task timing breakdown:
Section |  min time  |  avg time  |  max time  |%varavg| %total
---------------------------------------------------------------
Pair    | 0.6074     | 1.7008     | 2.2178     |  36.0 | 73.46
Neigh   | 0          | 0          | 0          |   0.0 |  0.00
Comm    | 0.029619   | 0.37043    | 1.1824     |  55.6 | 16.00
Output  | 0          | 0          | 0          |   0.0 |  0.00
Modify  | 2.6908e-05 | 0.0035894  | 0.0075342  |   2.8 |  0.16
Other   |            | 0.2405     |            |       | 10.39

Nlocal:        5552.90 ave        7879 max           0 min
Histogram: 4 2 2 0 2 6 4 1 12 19
Nghost:        6214.13 ave        8774 max         412 min
Histogram: 4 0 4 0 8 0 4 5 7 20
Neighs:       158427.0 ave      229202 max           0 min
Histogram: 4 2 2 0 4 4 4 4 10 18

Total # of neighbors = 8238223
Ave neighs/atom = 28.530544
Neighbor list builds = 0
Dangerous builds = 0
The dot product: -5.47286522692149e-08
Setting atom values ...
  1 settings made for x
  1 settings made for y
  1 settings made for z
Setting up cg style minimization ...
  Unit style    : metal
  Current step  : 18245
Per MPI rank memory allocation (min/avg/max) = 5.465 | 6.344 | 6.728 Mbytes
Step PotEng KinEng TotEng v_fx v_fy v_fz 
   18245   -1152448.5            0   -1152448.5 -0.014078793 -0.039615471 -0.053757406 
   18354   -1152448.5            0   -1152448.5 -9.9295428e-06 1.5525134e-06 1.0250816e-05 
Loop time of 2.32957 on 52 procs for 109 steps with 288751 atoms

99.9% CPU use with 52 MPI tasks x 1 OpenMP threads

Minimization stats:
  Stopping criterion = energy tolerance
  Energy initial, next-to-last, final = 
      -1152448.5436448  -1152448.54451898  -1152448.54451898
  Force two-norm initial, final = 0.1443848 0.00034613384
  Force max component initial, final = 0.067638398 5.6981329e-05
  Final line search alpha, max atom move = 1.0000000 5.6981329e-05
  Iterations, force evaluations = 109 218

MPI task timing breakdown:
Section |  min time  |  avg time  |  max time  |%varavg| %total
---------------------------------------------------------------
Pair    | 0.61325    | 1.716      | 2.2374     |  36.1 | 73.66
Neigh   | 0          | 0          | 0          |   0.0 |  0.00
Comm    | 0.029439   | 0.37285    | 1.1913     |  56.0 | 16.01
Output  | 0          | 0          | 0          |   0.0 |  0.00
Modify  | 2.7995e-05 | 0.0036279  | 0.0076124  |   2.8 |  0.16
Other   |            | 0.2371     |            |       | 10.18

Nlocal:        5552.90 ave        7878 max           0 min
Histogram: 4 2 2 0 2 6 4 1 12 19
Nghost:        6214.13 ave        8774 max         412 min
Histogram: 4 0 4 0 8 0 4 5 7 20
Neighs:       158427.0 ave      229165 max           0 min
Histogram: 4 2 2 0 4 4 4 4 10 18

Total # of neighbors = 8238223
Ave neighs/atom = 28.530544
Neighbor list builds = 0
Dangerous builds = 0
The dot product: -1.67394438724755e-08
