LAMMPS (29 Oct 2020)
OMP_NUM_THREADS environment is not set. Defaulting to 1 thread. (../comm.cpp:94)
  using 1 OpenMP thread(s) per MPI task
OMP_NUM_THREADS environment is not set. Defaulting to 1 thread. (../comm.cpp:94)
  using 1 OpenMP thread(s) per MPI task
Reading data file ...
  orthogonal box = (-122.39241 -121.13707 -37.090501) to (122.39241 121.13707 37.090501)
  13 by 4 by 1 MPI processor grid
  reading atoms ...
  288751 atoms
  read_data CPU = 0.458 seconds
199981 atoms in group inner
88770 atoms in group outer
1 atoms in group carbon
Neighbor list info ...
  update every 1 steps, delay 0 steps, check yes
  max neighbors/atom: 2000, page size: 100000
  master list distance cutoff = 5.6
  ghost atom cutoff = 5.6
  binsize = 2.8, bins = 88 87 27
  1 neighbor lists, perpetual/occasional/extra = 1 0 0
  (1) pair eam/alloy, perpetual
      attributes: half, newton on
      pair build: half/bin/atomonly/newton
      stencil: half/bin/3d/newton
      bin: standard
Setting up cg style minimization ...
  Unit style    : metal
  Current step  : 0
Per MPI rank memory allocation (min/avg/max) = 5.465 | 6.344 | 6.728 Mbytes
Step v_fx v_fy v_fz PotEng KinEng TotEng 
       0  0.070154999   0.12524989 -0.011462996   -1152444.6            0   -1152444.6 
     240 7.5798672e-06 -2.0227705e-06 -6.9547175e-06     -1152449            0     -1152449 
Loop time of 5.27212 on 52 procs for 240 steps with 288751 atoms

99.9% CPU use with 52 MPI tasks x 1 OpenMP threads

Minimization stats:
  Stopping criterion = linesearch alpha is zero
  Energy initial, next-to-last, final = 
     -1152444.63020976  -1152448.97218896  -1152448.97218896
  Force two-norm initial, final = 23.793930 0.00012490291
  Force max component initial, final = 13.998606 2.3122340e-05
  Final line search alpha, max atom move = 0.5 1.1561170e-05
  Iterations, force evaluations = 240 478

MPI task timing breakdown:
Section |  min time  |  avg time  |  max time  |%varavg| %total
---------------------------------------------------------------
Pair    | 1.4382     | 3.827      | 4.9642     |  52.6 | 72.59
Neigh   | 0.00019053 | 0.054113   | 0.07813    |   9.8 |  1.03
Comm    | 0.074258   | 0.84341    | 2.6827     |  82.9 | 16.00
Output  | 0          | 0          | 0          |   0.0 |  0.00
Modify  | 6.542e-05  | 0.0053035  | 0.013283   |   4.5 |  0.10
Other   |            | 0.5422     |            |       | 10.29

Nlocal:        5552.90 ave        7900 max           0 min
Histogram: 4 2 2 0 2 6 4 0 14 18
Nghost:        6213.65 ave        8769 max         412 min
Histogram: 4 0 4 0 8 0 4 5 7 20
Neighs:       158427.0 ave      230143 max           0 min
Histogram: 4 2 2 0 5 3 4 4 12 16

Total # of neighbors = 8238206
Ave neighs/atom = 28.530485
Neighbor list builds = 9
Dangerous builds = 0
Setting atom values ...
  1 settings made for x
  1 settings made for y
  1 settings made for z
Setting up cg style minimization ...
  Unit style    : metal
  Current step  : 240
Per MPI rank memory allocation (min/avg/max) = 5.465 | 6.344 | 6.728 Mbytes
Step PotEng KinEng TotEng v_fx v_fy v_fz 
     240     -1152449            0     -1152449 -0.0092209332 -0.0083429204 0.00032881783 
     528     -1152449            0     -1152449 -4.9611732e-05 -1.8095759e-05 5.263516e-05 
Loop time of 6.26135 on 52 procs for 288 steps with 288751 atoms

99.9% CPU use with 52 MPI tasks x 1 OpenMP threads

Minimization stats:
  Stopping criterion = energy tolerance
  Energy initial, next-to-last, final = 
     -1152448.96783116  -1152448.97091004  -1152448.97091004
  Force two-norm initial, final = 0.22568091 0.00025667116
  Force max component initial, final = 0.10758525 8.2852526e-05
  Final line search alpha, max atom move = 1.0000000 8.2852526e-05
  Iterations, force evaluations = 288 576

MPI task timing breakdown:
Section |  min time  |  avg time  |  max time  |%varavg| %total
---------------------------------------------------------------
Pair    | 1.6244     | 4.5781     | 6.0029     |  59.5 | 73.12
Neigh   | 0          | 0          | 0          |   0.0 |  0.00
Comm    | 0.077098   | 1.0052     | 3.2044     |  91.5 | 16.05
Output  | 0          | 0          | 0          |   0.0 |  0.00
Modify  | 9.0036e-05 | 0.0096126  | 0.02038    |   4.6 |  0.15
Other   |            | 0.6685     |            |       | 10.68

Nlocal:        5552.90 ave        7900 max           0 min
Histogram: 4 2 2 0 2 6 4 0 14 18
Nghost:        6213.69 ave        8769 max         412 min
Histogram: 4 0 4 0 8 0 4 5 7 20
Neighs:       158427.0 ave      230174 max           0 min
Histogram: 4 2 2 0 5 3 4 4 12 16

Total # of neighbors = 8238204
Ave neighs/atom = 28.530478
Neighbor list builds = 0
Dangerous builds = 0
Setting atom values ...
  1 settings made for x
  1 settings made for y
  1 settings made for z
Setting up cg style minimization ...
  Unit style    : metal
  Current step  : 528
Per MPI rank memory allocation (min/avg/max) = 5.465 | 6.344 | 6.728 Mbytes
Step PotEng KinEng TotEng v_fx v_fy v_fz 
     528     -1152449            0     -1152449 0.0070104642  0.022005791  0.011391469 
     735     -1152449            0     -1152449 -1.9849988e-05 -1.5918354e-06 1.5492613e-05 
Loop time of 4.49851 on 52 procs for 207 steps with 288751 atoms

99.9% CPU use with 52 MPI tasks x 1 OpenMP threads

Minimization stats:
  Stopping criterion = energy tolerance
  Energy initial, next-to-last, final = 
     -1152448.96716252  -1152448.96905804  -1152448.96905804
  Force two-norm initial, final = 0.15829087 0.00010094473
  Force max component initial, final = 0.0804433 2.2103825e-05
  Final line search alpha, max atom move = 1.0000000 2.2103825e-05
  Iterations, force evaluations = 207 414

MPI task timing breakdown:
Section |  min time  |  avg time  |  max time  |%varavg| %total
---------------------------------------------------------------
Pair    | 1.1713     | 3.2858     | 4.3123     |  50.3 | 73.04
Neigh   | 0          | 0          | 0          |   0.0 |  0.00
Comm    | 0.055932   | 0.72334    | 2.2932     |  77.3 | 16.08
Output  | 0          | 0          | 0          |   0.0 |  0.00
Modify  | 7.0826e-05 | 0.0069183  | 0.01454    |   3.9 |  0.15
Other   |            | 0.4825     |            |       | 10.73

Nlocal:        5552.90 ave        7900 max           0 min
Histogram: 4 2 2 0 2 6 4 0 14 18
Nghost:        6213.69 ave        8769 max         412 min
Histogram: 4 0 4 0 8 0 4 5 7 20
Neighs:       158427.0 ave      230178 max           0 min
Histogram: 4 2 2 0 5 3 4 4 12 16

Total # of neighbors = 8238200
Ave neighs/atom = 28.530464
Neighbor list builds = 0
Dangerous builds = 0
The dot product: 2.79787136508245e-07
Setting atom values ...
  1 settings made for x
  1 settings made for y
  1 settings made for z
Setting up cg style minimization ...
  Unit style    : metal
  Current step  : 735
Per MPI rank memory allocation (min/avg/max) = 5.465 | 6.344 | 6.728 Mbytes
Step PotEng KinEng TotEng v_fx v_fy v_fz 
     735     -1152449            0     -1152449  0.018710539  0.043268954 0.0059887966 
     942     -1152449            0     -1152449 1.835219e-05 -4.2823656e-07 -9.3154636e-06 
Loop time of 4.53843 on 52 procs for 207 steps with 288751 atoms

99.9% CPU use with 52 MPI tasks x 1 OpenMP threads

Minimization stats:
  Stopping criterion = linesearch alpha is zero
  Energy initial, next-to-last, final = 
     -1152448.96445274  -1152448.96699899  -1152448.96699899
  Force two-norm initial, final = 0.16835744 5.3516557e-05
  Force max component initial, final = 0.09269818 1.8352190e-05
  Final line search alpha, max atom move = 0.5 9.1760948e-06
  Iterations, force evaluations = 207 415

MPI task timing breakdown:
Section |  min time  |  avg time  |  max time  |%varavg| %total
---------------------------------------------------------------
Pair    | 1.173      | 3.3085     | 4.3325     |  50.6 | 72.90
Neigh   | 0          | 0          | 0          |   0.0 |  0.00
Comm    | 0.055933   | 0.72707    | 2.3041     |  78.0 | 16.02
Output  | 0          | 0          | 0          |   0.0 |  0.00
Modify  | 6.6558e-05 | 0.0069732  | 0.014619   |   3.9 |  0.15
Other   |            | 0.4959     |            |       | 10.93

Nlocal:        5552.90 ave        7900 max           0 min
Histogram: 4 2 2 0 2 6 4 0 14 18
Nghost:        6213.77 ave        8770 max         412 min
Histogram: 4 0 4 0 8 0 4 5 7 20
Neighs:       158427.0 ave      230141 max           0 min
Histogram: 4 2 2 0 5 3 4 4 12 16

Total # of neighbors = 8238204
Ave neighs/atom = 28.530478
Neighbor list builds = 0
Dangerous builds = 0
The dot product: -6.21984534089866e-07
Setting atom values ...
  1 settings made for x
  1 settings made for y
  1 settings made for z
Setting up cg style minimization ...
  Unit style    : metal
  Current step  : 942
Per MPI rank memory allocation (min/avg/max) = 5.465 | 6.344 | 6.728 Mbytes
Step PotEng KinEng TotEng v_fx v_fy v_fz 
     942     -1152449            0     -1152449  0.022719982  0.047757099 0.0025129615 
    1000     -1152449            0     -1152449 -0.0009103191 3.6948285e-06 7.5473551e-05 
    1089     -1152449            0     -1152449 1.649484e-06 2.5631741e-06 9.9376367e-08 
Loop time of 3.21895 on 52 procs for 147 steps with 288751 atoms

99.9% CPU use with 52 MPI tasks x 1 OpenMP threads

Minimization stats:
  Stopping criterion = linesearch alpha is zero
  Energy initial, next-to-last, final = 
     -1152448.96250285  -1152448.96547384  -1152448.96547384
  Force two-norm initial, final = 0.18934785 0.00016965144
  Force max component initial, final = 0.086079501 5.1025993e-05
  Final line search alpha, max atom move = 0.25 1.2756498e-05
  Iterations, force evaluations = 147 297

MPI task timing breakdown:
Section |  min time  |  avg time  |  max time  |%varavg| %total
---------------------------------------------------------------
Pair    | 0.83942    | 2.3578     | 3.0801     |  42.6 | 73.25
Neigh   | 0          | 0          | 0          |   0.0 |  0.00
Comm    | 0.041529   | 0.5181     | 1.6515     |  66.0 | 16.10
Output  | 0.00020811 | 0.00021302 | 0.00040069 |   0.0 |  0.01
Modify  | 4.9567e-05 | 0.0049944  | 0.010542   |   3.3 |  0.16
Other   |            | 0.3378     |            |       | 10.50

Nlocal:        5552.90 ave        7902 max           0 min
Histogram: 4 2 2 0 2 6 4 0 15 17
Nghost:        6213.69 ave        8769 max         412 min
Histogram: 4 0 4 0 8 0 4 5 7 20
Neighs:       158427.0 ave      230249 max           0 min
Histogram: 4 2 2 0 5 3 4 4 12 16

Total # of neighbors = 8238211
Ave neighs/atom = 28.530502
Neighbor list builds = 0
Dangerous builds = 0
The dot product: -1.24819983505728e-08
Setting atom values ...
  1 settings made for x
  1 settings made for y
  1 settings made for z
Setting up cg style minimization ...
  Unit style    : metal
  Current step  : 1089
Per MPI rank memory allocation (min/avg/max) = 5.465 | 6.344 | 6.728 Mbytes
Step PotEng KinEng TotEng v_fx v_fy v_fz 
    1089     -1152449            0     -1152449  0.042318672  0.037755254  0.005638781 
    1251     -1152449            0     -1152449 5.729961e-05 3.1658696e-06 7.5813208e-06 
Loop time of 3.52225 on 52 procs for 162 steps with 288751 atoms

99.9% CPU use with 52 MPI tasks x 1 OpenMP threads

Minimization stats:
  Stopping criterion = energy tolerance
  Energy initial, next-to-last, final = 
     -1152448.96089224  -1152448.96415365  -1152448.96415365
  Force two-norm initial, final = 0.2045084 0.00035883528
  Force max component initial, final = 0.097756842 0.00011693588
  Final line search alpha, max atom move = 1.0000000 0.00011693588
  Iterations, force evaluations = 162 324

MPI task timing breakdown:
Section |  min time  |  avg time  |  max time  |%varavg| %total
---------------------------------------------------------------
Pair    | 0.91646    | 2.5769     | 3.3841     |  44.6 | 73.16
Neigh   | 0          | 0          | 0          |   0.0 |  0.00
Comm    | 0.043656   | 0.56521    | 1.8067     |  68.8 | 16.05
Output  | 0          | 0          | 0          |   0.0 |  0.00
Modify  | 5.0568e-05 | 0.0054616  | 0.011565   |   3.5 |  0.16
Other   |            | 0.3747     |            |       | 10.64

Nlocal:        5552.90 ave        7902 max           0 min
Histogram: 4 2 2 0 2 6 4 0 15 17
Nghost:        6213.62 ave        8769 max         412 min
Histogram: 4 0 4 0 8 0 4 5 7 20
Neighs:       158427.0 ave      230244 max           0 min
Histogram: 4 2 2 0 5 3 4 4 12 16

Total # of neighbors = 8238213
Ave neighs/atom = 28.530509
Neighbor list builds = 0
Dangerous builds = 0
The dot product: -7.88932203854393e-07
Setting atom values ...
  1 settings made for x
  1 settings made for y
  1 settings made for z
Setting up cg style minimization ...
  Unit style    : metal
  Current step  : 1251
Per MPI rank memory allocation (min/avg/max) = 5.465 | 6.344 | 6.728 Mbytes
Step PotEng KinEng TotEng v_fx v_fy v_fz 
    1251     -1152449            0     -1152449  0.052852598  0.031851047  0.012423772 
    1387     -1152449            0     -1152449 6.7420802e-06 1.6488041e-06 1.6349755e-06 
Loop time of 2.93569 on 52 procs for 136 steps with 288751 atoms

99.9% CPU use with 52 MPI tasks x 1 OpenMP threads

Minimization stats:
  Stopping criterion = energy tolerance
  Energy initial, next-to-last, final = 
     -1152448.95999047  -1152448.96251776  -1152448.96251776
  Force two-norm initial, final = 0.21469912 0.00022883151
  Force max component initial, final = 0.10932806 3.4101095e-05
  Final line search alpha, max atom move = 1.0000000 3.4101095e-05
  Iterations, force evaluations = 136 272

MPI task timing breakdown:
Section |  min time  |  avg time  |  max time  |%varavg| %total
---------------------------------------------------------------
Pair    | 0.76865    | 2.1587     | 2.8198     |  40.8 | 73.53
Neigh   | 0          | 0          | 0          |   0.0 |  0.00
Comm    | 0.035674   | 0.47147    | 1.505      |  63.4 | 16.06
Output  | 0          | 0          | 0          |   0.0 |  0.00
Modify  | 4.5782e-05 | 0.0045737  | 0.0096236  |   3.2 |  0.16
Other   |            | 0.3009     |            |       | 10.25

Nlocal:        5552.90 ave        7904 max           0 min
Histogram: 4 2 2 0 2 6 4 0 15 17
Nghost:        6213.54 ave        8769 max         412 min
Histogram: 4 0 4 0 8 0 4 5 7 20
Neighs:       158427.0 ave      230319 max           0 min
Histogram: 4 2 2 0 5 3 4 4 12 16

Total # of neighbors = 8238213
Ave neighs/atom = 28.530509
Neighbor list builds = 0
Dangerous builds = 0
The dot product: 1.18451346961312e-08
Setting atom values ...
  1 settings made for x
  1 settings made for y
  1 settings made for z
Setting up cg style minimization ...
  Unit style    : metal
  Current step  : 1387
Per MPI rank memory allocation (min/avg/max) = 5.465 | 6.344 | 6.728 Mbytes
Step PotEng KinEng TotEng v_fx v_fy v_fz 
    1387     -1152449            0     -1152449  0.063515483  0.033436458  0.013987678 
    1538     -1152449            0     -1152449 -2.1796506e-05 4.3633163e-07 -5.2124243e-06 
Loop time of 3.27245 on 52 procs for 151 steps with 288751 atoms

99.9% CPU use with 52 MPI tasks x 1 OpenMP threads

Minimization stats:
  Stopping criterion = energy tolerance
  Energy initial, next-to-last, final = 
     -1152448.95774296  -1152448.96021642  -1152448.96021642
  Force two-norm initial, final = 0.21707656 0.00027118669
  Force max component initial, final = 0.10937032 4.8428246e-05
  Final line search alpha, max atom move = 1.0000000 4.8428246e-05
  Iterations, force evaluations = 151 302

MPI task timing breakdown:
Section |  min time  |  avg time  |  max time  |%varavg| %total
---------------------------------------------------------------
Pair    | 0.8541     | 2.4051     | 3.1443     |  43.1 | 73.49
Neigh   | 0          | 0          | 0          |   0.0 |  0.00
Comm    | 0.040867   | 0.52499    | 1.69       |  66.8 | 16.04
Output  | 0          | 0          | 0          |   0.0 |  0.00
Modify  | 4.8176e-05 | 0.0050595  | 0.010646   |   3.3 |  0.15
Other   |            | 0.3374     |            |       | 10.31

Nlocal:        5552.90 ave        7905 max           0 min
Histogram: 4 2 2 0 2 6 4 0 15 17
Nghost:        6213.54 ave        8769 max         412 min
Histogram: 4 0 4 0 8 0 4 5 7 20
Neighs:       158427.0 ave      230368 max           0 min
Histogram: 4 2 2 0 5 3 4 4 12 16

Total # of neighbors = 8238210
Ave neighs/atom = 28.530499
Neighbor list builds = 0
Dangerous builds = 0
The dot product: -1.07475776863128e-07
Setting atom values ...
  1 settings made for x
  1 settings made for y
  1 settings made for z
Setting up cg style minimization ...
  Unit style    : metal
  Current step  : 1538
Per MPI rank memory allocation (min/avg/max) = 5.465 | 6.344 | 6.728 Mbytes
Step PotEng KinEng TotEng v_fx v_fy v_fz 
    1538     -1152449            0     -1152449  0.070198038  0.035518646  0.012862905 
    1692     -1152449            0     -1152449 3.3468827e-05 3.2954422e-06 6.7872132e-06 
Loop time of 3.36542 on 52 procs for 154 steps with 288751 atoms

99.9% CPU use with 52 MPI tasks x 1 OpenMP threads

Minimization stats:
  Stopping criterion = linesearch alpha is zero
  Energy initial, next-to-last, final = 
     -1152448.95490776  -1152448.95750802  -1152448.95750802
  Force two-norm initial, final = 0.21690374 0.00020432349
  Force max component initial, final = 0.10705984 6.1533613e-05
  Final line search alpha, max atom move = 0.25 1.5383403e-05
  Iterations, force evaluations = 154 311

MPI task timing breakdown:
Section |  min time  |  avg time  |  max time  |%varavg| %total
---------------------------------------------------------------
Pair    | 0.88047    | 2.4697     | 3.2331     |  43.6 | 73.38
Neigh   | 0          | 0          | 0          |   0.0 |  0.00
Comm    | 0.040637   | 0.53967    | 1.7189     |  67.5 | 16.04
Output  | 0          | 0          | 0          |   0.0 |  0.00
Modify  | 4.9393e-05 | 0.0052053  | 0.010971   |   3.4 |  0.15
Other   |            | 0.3509     |            |       | 10.43

Nlocal:        5552.90 ave        7906 max           0 min
Histogram: 4 2 2 0 2 6 4 0 15 17
Nghost:        6213.62 ave        8769 max         412 min
Histogram: 4 0 4 0 8 0 4 5 7 20
Neighs:       158427.0 ave      230426 max           0 min
Histogram: 4 2 2 0 5 3 4 4 12 16

Total # of neighbors = 8238205
Ave neighs/atom = 28.530481
Neighbor list builds = 0
Dangerous builds = 0
The dot product: 1.58189615273645e-07
Setting atom values ...
  1 settings made for x
  1 settings made for y
  1 settings made for z
Setting up cg style minimization ...
  Unit style    : metal
  Current step  : 1692
Per MPI rank memory allocation (min/avg/max) = 5.465 | 6.344 | 6.728 Mbytes
Step PotEng KinEng TotEng v_fx v_fy v_fz 
    1692     -1152449            0     -1152449  0.073388702  0.037276445  0.011133212 
    1887     -1152449            0     -1152449 1.6977892e-05 2.3442232e-06 2.9589526e-06 
Loop time of 4.28193 on 52 procs for 195 steps with 288751 atoms

99.9% CPU use with 52 MPI tasks x 1 OpenMP threads

Minimization stats:
  Stopping criterion = linesearch alpha is zero
  Energy initial, next-to-last, final = 
     -1152448.95184402  -1152448.95412889  -1152448.95412889
  Force two-norm initial, final = 0.21610947 9.5505587e-05
  Force max component initial, final = 0.10501175 2.8974006e-05
  Final line search alpha, max atom move = 0.5 1.4487003e-05
  Iterations, force evaluations = 195 391

MPI task timing breakdown:
Section |  min time  |  avg time  |  max time  |%varavg| %total
---------------------------------------------------------------
Pair    | 1.1028     | 3.1198     | 4.102      |  49.3 | 72.86
Neigh   | 0          | 0          | 0          |   0.0 |  0.00
Comm    | 0.053111   | 0.68686    | 2.1803     |  75.7 | 16.04
Output  | 0          | 0          | 0          |   0.0 |  0.00
Modify  | 6.2986e-05 | 0.0065586  | 0.013946   |   3.8 |  0.15
Other   |            | 0.4687     |            |       | 10.95

Nlocal:        5552.90 ave        7906 max           0 min
Histogram: 4 2 2 0 2 6 4 0 15 17
Nghost:        6213.62 ave        8769 max         412 min
Histogram: 4 0 4 0 8 0 4 5 7 20
Neighs:       158427.0 ave      230442 max           0 min
Histogram: 4 2 2 0 5 3 4 4 12 16

Total # of neighbors = 8238204
Ave neighs/atom = 28.530478
Neighbor list builds = 0
Dangerous builds = 0
The dot product: 1.18085515872873e-07
Setting atom values ...
  1 settings made for x
  1 settings made for y
  1 settings made for z
Setting up cg style minimization ...
  Unit style    : metal
  Current step  : 1887
Per MPI rank memory allocation (min/avg/max) = 5.465 | 6.344 | 6.728 Mbytes
Step PotEng KinEng TotEng v_fx v_fy v_fz 
    1887   -1152448.9            0   -1152448.9  0.078409763  0.039152868 0.0088432942 
    2000   -1152448.9            0   -1152448.9 0.00010539761 1.2672246e-05 1.4876806e-05 
    2075   -1152448.9            0   -1152448.9 2.6672169e-05 2.620467e-06 3.8086369e-06 
Loop time of 4.15584 on 52 procs for 188 steps with 288751 atoms

99.9% CPU use with 52 MPI tasks x 1 OpenMP threads

Minimization stats:
  Stopping criterion = linesearch alpha is zero
  Energy initial, next-to-last, final = 
     -1152448.94772938  -1152448.94996074  -1152448.94996074
  Force two-norm initial, final = 0.21510155 0.00011228075
  Force max component initial, final = 0.10172844 4.1785780e-05
  Final line search alpha, max atom move = 0.5 2.0892890e-05
  Iterations, force evaluations = 188 381

MPI task timing breakdown:
Section |  min time  |  avg time  |  max time  |%varavg| %total
---------------------------------------------------------------
Pair    | 1.0769     | 3.0296     | 3.9792     |  48.3 | 72.90
Neigh   | 0          | 0          | 0          |   0.0 |  0.00
Comm    | 0.052829   | 0.66521    | 2.117      |  74.3 | 16.01
Output  | 0.00012158 | 0.0001263  | 0.00031218 |   0.0 |  0.00
Modify  | 5.9655e-05 | 0.0063901  | 0.013449   |   3.7 |  0.15
Other   |            | 0.4545     |            |       | 10.94

Nlocal:        5552.90 ave        7906 max           0 min
Histogram: 4 2 2 0 2 6 4 0 15 17
Nghost:        6213.62 ave        8769 max         412 min
Histogram: 4 0 4 0 8 0 4 5 7 20
Neighs:       158427.0 ave      230464 max           0 min
Histogram: 4 2 2 0 5 3 4 4 12 16

Total # of neighbors = 8238201
Ave neighs/atom = 28.530467
Neighbor list builds = 0
Dangerous builds = 0
The dot product: 2.18335772054636e-07
Setting atom values ...
  1 settings made for x
  1 settings made for y
  1 settings made for z
Setting up cg style minimization ...
  Unit style    : metal
  Current step  : 2075
Per MPI rank memory allocation (min/avg/max) = 5.465 | 6.344 | 6.728 Mbytes
Step PotEng KinEng TotEng v_fx v_fy v_fz 
    2075   -1152448.9            0   -1152448.9  0.082443396  0.040213591 0.0059263528 
    2291   -1152448.9            0   -1152448.9 9.1388041e-06 1.1674493e-06 9.4507732e-07 
Loop time of 4.71319 on 52 procs for 216 steps with 288751 atoms

99.9% CPU use with 52 MPI tasks x 1 OpenMP threads

Minimization stats:
  Stopping criterion = linesearch alpha is zero
  Energy initial, next-to-last, final = 
      -1152448.9428666  -1152448.94505591  -1152448.94505591
  Force two-norm initial, final = 0.21337182 6.0985955e-05
  Force max component initial, final = 0.097665456 1.9600815e-05
  Final line search alpha, max atom move = 0.5 9.8004076e-06
  Iterations, force evaluations = 216 433

MPI task timing breakdown:
Section |  min time  |  avg time  |  max time  |%varavg| %total
---------------------------------------------------------------
Pair    | 1.2281     | 3.4442     | 4.5186     |  51.5 | 73.08
Neigh   | 0          | 0          | 0          |   0.0 |  0.00
Comm    | 0.057135   | 0.75496    | 2.4019     |  79.5 | 16.02
Output  | 0          | 0          | 0          |   0.0 |  0.00
Modify  | 6.6814e-05 | 0.0072916  | 0.015536   |   4.0 |  0.15
Other   |            | 0.5068     |            |       | 10.75

Nlocal:        5552.90 ave        7907 max           0 min
Histogram: 4 2 2 0 2 6 4 0 15 17
Nghost:        6213.65 ave        8769 max         412 min
Histogram: 4 0 4 0 8 0 4 5 7 20
Neighs:       158427.0 ave      230510 max           0 min
Histogram: 4 2 2 0 5 3 4 4 12 16

Total # of neighbors = 8238208
Ave neighs/atom = 28.530492
Neighbor list builds = 0
Dangerous builds = 0
The dot product: 7.78968654315829e-08
Setting atom values ...
  1 settings made for x
  1 settings made for y
  1 settings made for z
Setting up cg style minimization ...
  Unit style    : metal
  Current step  : 2291
Per MPI rank memory allocation (min/avg/max) = 5.465 | 6.344 | 6.728 Mbytes
Step PotEng KinEng TotEng v_fx v_fy v_fz 
    2291   -1152448.9            0   -1152448.9  0.084529147  0.041014961 0.0027503335 
    2456   -1152448.9            0   -1152448.9 -8.3604996e-06 -1.7314124e-06 -5.0480357e-07 
Loop time of 3.56737 on 52 procs for 165 steps with 288751 atoms

99.9% CPU use with 52 MPI tasks x 1 OpenMP threads

Minimization stats:
  Stopping criterion = energy tolerance
  Energy initial, next-to-last, final = 
     -1152448.93728355  -1152448.93935464  -1152448.93935464
  Force two-norm initial, final = 0.21111001 0.00017511013
  Force max component initial, final = 0.093310957 2.2867780e-05
  Final line search alpha, max atom move = 1.0000000 2.2867780e-05
  Iterations, force evaluations = 165 330

MPI task timing breakdown:
Section |  min time  |  avg time  |  max time  |%varavg| %total
---------------------------------------------------------------
Pair    | 0.93372    | 2.6202     | 3.4269     |  44.9 | 73.45
Neigh   | 0          | 0          | 0          |   0.0 |  0.00
Comm    | 0.042963   | 0.57313    | 1.8326     |  69.7 | 16.07
Output  | 0          | 0          | 0          |   0.0 |  0.00
Modify  | 5.3413e-05 | 0.0055179  | 0.01166    |   3.5 |  0.15
Other   |            | 0.3685     |            |       | 10.33

Nlocal:        5552.90 ave        7908 max           0 min
Histogram: 4 2 2 0 2 6 4 0 15 17
Nghost:        6213.65 ave        8769 max         412 min
Histogram: 4 0 4 0 8 0 4 5 7 20
Neighs:       158427.0 ave      230535 max           0 min
Histogram: 4 2 2 0 5 3 4 4 12 16

Total # of neighbors = 8238202
Ave neighs/atom = 28.530471
Neighbor list builds = 0
Dangerous builds = 0
The dot product: -6.45588661814597e-08
Setting atom values ...
  1 settings made for x
  1 settings made for y
  1 settings made for z
Setting up cg style minimization ...
  Unit style    : metal
  Current step  : 2456
Per MPI rank memory allocation (min/avg/max) = 5.465 | 6.344 | 6.728 Mbytes
Step PotEng KinEng TotEng v_fx v_fy v_fz 
    2456   -1152448.9            0   -1152448.9  0.084232989  0.041994036 -0.00018986674 
    2637   -1152448.9            0   -1152448.9 -1.6846296e-05 -3.0545731e-06 -5.7198689e-07 
Loop time of 3.95243 on 52 procs for 181 steps with 288751 atoms

99.9% CPU use with 52 MPI tasks x 1 OpenMP threads

Minimization stats:
  Stopping criterion = linesearch alpha is zero
  Energy initial, next-to-last, final = 
     -1152448.93082761  -1152448.93280871  -1152448.93280871
  Force two-norm initial, final = 0.20874923 9.5109032e-05
  Force max component initial, final = 0.089542576 1.8804415e-05
  Final line search alpha, max atom move = 0.5 9.4022075e-06
  Iterations, force evaluations = 181 363

MPI task timing breakdown:
Section |  min time  |  avg time  |  max time  |%varavg| %total
---------------------------------------------------------------
Pair    | 1.0266     | 2.8881     | 3.7971     |  47.3 | 73.07
Neigh   | 0          | 0          | 0          |   0.0 |  0.00
Comm    | 0.050533   | 0.63403    | 2.028      |  72.8 | 16.04
Output  | 0          | 0          | 0          |   0.0 |  0.00
Modify  | 5.3739e-05 | 0.0060678  | 0.012787   |   3.6 |  0.15
Other   |            | 0.4242     |            |       | 10.73

Nlocal:        5552.90 ave        7909 max           0 min
Histogram: 4 2 2 0 2 6 4 0 15 17
Nghost:        6213.62 ave        8769 max         412 min
Histogram: 4 0 4 0 8 0 4 5 7 20
Neighs:       158427.0 ave      230553 max           0 min
Histogram: 4 2 2 0 5 3 4 4 12 16

Total # of neighbors = 8238200
Ave neighs/atom = 28.530464
Neighbor list builds = 0
Dangerous builds = 0
The dot product: -1.16283280859153e-07
Setting atom values ...
  1 settings made for x
  1 settings made for y
  1 settings made for z
Setting up cg style minimization ...
  Unit style    : metal
  Current step  : 2637
Per MPI rank memory allocation (min/avg/max) = 5.465 | 6.344 | 6.728 Mbytes
Step PotEng KinEng TotEng v_fx v_fy v_fz 
    2637   -1152448.9            0   -1152448.9  0.083412619  0.036169567 -0.0019210803 
    2776   -1152448.9            0   -1152448.9 7.4228632e-05 1.389712e-05 6.5093019e-07 
Loop time of 3.0086 on 52 procs for 139 steps with 288751 atoms

99.9% CPU use with 52 MPI tasks x 1 OpenMP threads

Minimization stats:
  Stopping criterion = energy tolerance
  Energy initial, next-to-last, final = 
     -1152448.92337261  -1152448.92526435  -1152448.92526435
  Force two-norm initial, final = 0.20503379 0.00035681886
  Force max component initial, final = 0.086155643 7.4228632e-05
  Final line search alpha, max atom move = 1.0000000 7.4228632e-05
  Iterations, force evaluations = 139 278

MPI task timing breakdown:
Section |  min time  |  avg time  |  max time  |%varavg| %total
---------------------------------------------------------------
Pair    | 0.78771    | 2.2069     | 2.8901     |  41.2 | 73.35
Neigh   | 0          | 0          | 0          |   0.0 |  0.00
Comm    | 0.036098   | 0.48377    | 1.5404     |  63.8 | 16.08
Output  | 0          | 0          | 0          |   0.0 |  0.00
Modify  | 5.0806e-05 | 0.0046539  | 0.009821   |   3.2 |  0.15
Other   |            | 0.3133     |            |       | 10.41

Nlocal:        5552.90 ave        7909 max           0 min
Histogram: 4 2 2 0 2 6 4 0 15 17
Nghost:        6213.65 ave        8769 max         412 min
Histogram: 4 0 4 0 8 0 4 5 7 20
Neighs:       158427.0 ave      230555 max           0 min
Histogram: 4 2 2 0 5 3 4 4 12 16

Total # of neighbors = 8238199
Ave neighs/atom = 28.530461
Neighbor list builds = 0
Dangerous builds = 0
The dot product: 4.41309653869531e-07
Setting atom values ...
  1 settings made for x
  1 settings made for y
  1 settings made for z
Setting up cg style minimization ...
  Unit style    : metal
  Current step  : 2776
Per MPI rank memory allocation (min/avg/max) = 5.465 | 6.344 | 6.728 Mbytes
Step PotEng KinEng TotEng v_fx v_fy v_fz 
    2776   -1152448.9            0   -1152448.9  0.082832527   0.02623882 -0.0023869364 
    2939   -1152448.9            0   -1152448.9 -2.9583992e-05 -6.8359019e-06 5.0184168e-07 
Loop time of 3.5535 on 52 procs for 163 steps with 288751 atoms

99.9% CPU use with 52 MPI tasks x 1 OpenMP threads

Minimization stats:
  Stopping criterion = linesearch alpha is zero
  Energy initial, next-to-last, final = 
     -1152448.91460366  -1152448.91647547  -1152448.91647547
  Force two-norm initial, final = 0.20214205 0.00015267889
  Force max component initial, final = 0.083929187 2.9583992e-05
  Final line search alpha, max atom move = 0.5 1.4791996e-05
  Iterations, force evaluations = 163 327

MPI task timing breakdown:
Section |  min time  |  avg time  |  max time  |%varavg| %total
---------------------------------------------------------------
Pair    | 0.92433    | 2.6006     | 3.409      |  44.8 | 73.18
Neigh   | 0          | 0          | 0          |   0.0 |  0.00
Comm    | 0.044112   | 0.56996    | 1.8244     |  69.2 | 16.04
Output  | 0          | 0          | 0          |   0.0 |  0.00
Modify  | 5.13e-05   | 0.0054835  | 0.011534   |   3.5 |  0.15
Other   |            | 0.3775     |            |       | 10.62

Nlocal:        5552.90 ave        7909 max           0 min
Histogram: 4 2 2 0 2 6 4 0 15 17
Nghost:        6213.65 ave        8769 max         412 min
Histogram: 4 0 4 0 8 0 4 5 7 20
Neighs:       158427.0 ave      230548 max           0 min
Histogram: 4 2 2 0 5 3 4 4 12 16

Total # of neighbors = 8238198
Ave neighs/atom = 28.530457
Neighbor list builds = 0
Dangerous builds = 0
The dot product: -1.47758970941004e-07
Setting atom values ...
  1 settings made for x
  1 settings made for y
  1 settings made for z
Setting up cg style minimization ...
  Unit style    : metal
  Current step  : 2939
Per MPI rank memory allocation (min/avg/max) = 5.465 | 6.344 | 6.728 Mbytes
Step PotEng KinEng TotEng v_fx v_fy v_fz 
    2939   -1152448.9            0   -1152448.9  0.082370129  0.020504657 -0.0028827022 
    3000   -1152448.9            0   -1152448.9 0.00042873233 7.7079893e-05 -1.0816103e-05 
    3121   -1152448.9            0   -1152448.9 2.3175713e-05 5.1581312e-06 -7.2474961e-07 
Loop time of 3.97507 on 52 procs for 182 steps with 288751 atoms

99.9% CPU use with 52 MPI tasks x 1 OpenMP threads

Minimization stats:
  Stopping criterion = energy tolerance
  Energy initial, next-to-last, final = 
     -1152448.90446914   -1152448.9063325   -1152448.9063325
  Force two-norm initial, final = 0.20045125 9.5846535e-05
  Force max component initial, final = 0.082487918 3.7409287e-05
  Final line search alpha, max atom move = 1.0000000 3.7409287e-05
  Iterations, force evaluations = 182 364

MPI task timing breakdown:
Section |  min time  |  avg time  |  max time  |%varavg| %total
---------------------------------------------------------------
Pair    | 1.0306     | 2.8924     | 3.8022     |  47.2 | 72.76
Neigh   | 0          | 0          | 0          |   0.0 |  0.00
Comm    | 0.049375   | 0.63974    | 2.0163     |  72.4 | 16.09
Output  | 0.00021763 | 0.00022332 | 0.00040322 |   0.0 |  0.01
Modify  | 6.2548e-05 | 0.0060951  | 0.012997   |   3.6 |  0.15
Other   |            | 0.4366     |            |       | 10.98

Nlocal:        5552.90 ave        7909 max           0 min
Histogram: 4 2 2 0 2 6 4 0 15 17
Nghost:        6213.62 ave        8769 max         412 min
Histogram: 4 0 4 0 8 0 4 5 7 20
Neighs:       158427.0 ave      230549 max           0 min
Histogram: 4 2 2 0 5 3 4 4 12 16

Total # of neighbors = 8238198
Ave neighs/atom = 28.530457
Neighbor list builds = 0
Dangerous builds = 0
The dot product: 9.67426815620448e-08
Setting atom values ...
  1 settings made for x
  1 settings made for y
  1 settings made for z
Setting up cg style minimization ...
  Unit style    : metal
  Current step  : 3121
Per MPI rank memory allocation (min/avg/max) = 5.465 | 6.344 | 6.728 Mbytes
Step PotEng KinEng TotEng v_fx v_fy v_fz 
    3121   -1152448.9            0   -1152448.9  0.081956818  0.017066974 -0.0033978559 
    3270   -1152448.9            0   -1152448.9 -9.8018803e-05 -1.7907949e-05 3.7098487e-06 
Loop time of 3.29699 on 52 procs for 149 steps with 288751 atoms

99.9% CPU use with 52 MPI tasks x 1 OpenMP threads

Minimization stats:
  Stopping criterion = linesearch alpha is zero
  Energy initial, next-to-last, final = 
     -1152448.89297038  -1152448.89484171  -1152448.89484171
  Force two-norm initial, final = 0.19952331 0.00030648872
  Force max component initial, final = 0.084138372 0.00010061257
  Final line search alpha, max atom move = 0.125 1.2576571e-05
  Iterations, force evaluations = 149 303

MPI task timing breakdown:
Section |  min time  |  avg time  |  max time  |%varavg| %total
---------------------------------------------------------------
Pair    | 0.85631    | 2.414      | 3.1693     |  43.2 | 73.22
Neigh   | 0          | 0          | 0          |   0.0 |  0.00
Comm    | 0.039468   | 0.5292     | 1.6881     |  66.9 | 16.05
Output  | 0          | 0          | 0          |   0.0 |  0.00
Modify  | 4.7699e-05 | 0.0050547  | 0.010689   |   3.3 |  0.15
Other   |            | 0.3488     |            |       | 10.58

Nlocal:        5552.90 ave        7910 max           0 min
Histogram: 4 2 2 0 2 6 4 0 15 17
Nghost:        6213.67 ave        8770 max         412 min
Histogram: 4 0 4 0 8 0 4 5 7 20
Neighs:       158427.0 ave      230584 max           0 min
Histogram: 4 2 2 0 5 3 4 4 12 16

Total # of neighbors = 8238200
Ave neighs/atom = 28.530464
Neighbor list builds = 0
Dangerous builds = 0
The dot product: -2.95545149489304e-07
Setting atom values ...
  1 settings made for x
  1 settings made for y
  1 settings made for z
Setting up cg style minimization ...
  Unit style    : metal
  Current step  : 3270
Per MPI rank memory allocation (min/avg/max) = 5.465 | 6.344 | 6.728 Mbytes
Step PotEng KinEng TotEng v_fx v_fy v_fz 
    3270   -1152448.9            0   -1152448.9  0.080414768  0.014524077 -0.0036904908 
    3455   -1152448.9            0   -1152448.9 -9.2532646e-06 -3.9345058e-06 7.4233433e-07 
Loop time of 4.02104 on 52 procs for 185 steps with 288751 atoms

99.9% CPU use with 52 MPI tasks x 1 OpenMP threads

Minimization stats:
  Stopping criterion = energy tolerance
  Energy initial, next-to-last, final = 
     -1152448.88016095  -1152448.88212872  -1152448.88212872
  Force two-norm initial, final = 0.19851153 0.00021104435
  Force max component initial, final = 0.085595785 6.9090611e-05
  Final line search alpha, max atom move = 1.0000000 6.9090611e-05
  Iterations, force evaluations = 185 370

MPI task timing breakdown:
Section |  min time  |  avg time  |  max time  |%varavg| %total
---------------------------------------------------------------
Pair    | 1.049      | 2.9397     | 3.8632     |  47.5 | 73.11
Neigh   | 0          | 0          | 0          |   0.0 |  0.00
Comm    | 0.048288   | 0.6454     | 2.0449     |  73.1 | 16.05
Output  | 0          | 0          | 0          |   0.0 |  0.00
Modify  | 5.7905e-05 | 0.0062179  | 0.013162   |   3.7 |  0.15
Other   |            | 0.4297     |            |       | 10.69

Nlocal:        5552.90 ave        7910 max           0 min
Histogram: 4 2 2 0 2 6 4 0 15 17
Nghost:        6213.67 ave        8770 max         412 min
Histogram: 4 0 4 0 8 0 4 5 7 20
Neighs:       158427.0 ave      230586 max           0 min
Histogram: 4 2 2 0 5 3 4 4 12 16

Total # of neighbors = 8238198
Ave neighs/atom = 28.530457
Neighbor list builds = 0
Dangerous builds = 0
The dot product: 2.90077384022485e-08
Setting atom values ...
  1 settings made for x
  1 settings made for y
  1 settings made for z
Setting up cg style minimization ...
  Unit style    : metal
  Current step  : 3455
Per MPI rank memory allocation (min/avg/max) = 5.465 | 6.344 | 6.728 Mbytes
Step PotEng KinEng TotEng v_fx v_fy v_fz 
    3455   -1152448.9            0   -1152448.9  0.071315285  0.013406869 -0.0027838972 
    3601   -1152448.9            0   -1152448.9 7.0232757e-06 4.446378e-06 -7.0868557e-07 
Loop time of 3.22249 on 52 procs for 146 steps with 288751 atoms

99.9% CPU use with 52 MPI tasks x 1 OpenMP threads

Minimization stats:
  Stopping criterion = linesearch alpha is zero
  Energy initial, next-to-last, final = 
     -1152448.86650038  -1152448.86918477  -1152448.86918477
  Force two-norm initial, final = 0.19613498 0.00015432627
  Force max component initial, final = 0.085434269 4.5440668e-05
  Final line search alpha, max atom move = 0.5 2.2720334e-05
  Iterations, force evaluations = 146 293

MPI task timing breakdown:
Section |  min time  |  avg time  |  max time  |%varavg| %total
---------------------------------------------------------------
Pair    | 0.82792    | 2.3408     | 3.0778     |  42.6 | 72.64
Neigh   | 0          | 0          | 0          |   0.0 |  0.00
Comm    | 0.040416   | 0.51599    | 1.6399     |  65.6 | 16.01
Output  | 0          | 0          | 0          |   0.0 |  0.00
Modify  | 4.7512e-05 | 0.0049079  | 0.010416   |   3.3 |  0.15
Other   |            | 0.3608     |            |       | 11.20

Nlocal:        5552.90 ave        7912 max           0 min
Histogram: 4 2 2 0 2 6 4 0 15 17
Nghost:        6213.69 ave        8770 max         412 min
Histogram: 4 0 4 0 8 0 4 5 7 20
Neighs:       158427.0 ave      230641 max           0 min
Histogram: 4 2 2 0 5 3 4 4 12 16

Total # of neighbors = 8238193
Ave neighs/atom = 28.530440
Neighbor list builds = 0
Dangerous builds = 0
The dot product: -1.35228259304964e-07
Setting atom values ...
  1 settings made for x
  1 settings made for y
  1 settings made for z
Setting up cg style minimization ...
  Unit style    : metal
  Current step  : 3601
Per MPI rank memory allocation (min/avg/max) = 5.465 | 6.344 | 6.728 Mbytes
Step PotEng KinEng TotEng v_fx v_fy v_fz 
    3601   -1152448.9            0   -1152448.9  0.048423784  0.013257784 -0.00019502104 
    3798   -1152448.9            0   -1152448.9 -4.0728329e-05 -6.7839851e-06 -4.3094496e-07 
Loop time of 4.2632 on 52 procs for 197 steps with 288751 atoms

99.9% CPU use with 52 MPI tasks x 1 OpenMP threads

Minimization stats:
  Stopping criterion = energy tolerance
  Energy initial, next-to-last, final = 
     -1152448.85327658  -1152448.85545746  -1152448.85545746
  Force two-norm initial, final = 0.19320326 0.00013001154
  Force max component initial, final = 0.08635911 5.4048743e-05
  Final line search alpha, max atom move = 1.0000000 5.4048743e-05
  Iterations, force evaluations = 197 394

MPI task timing breakdown:
Section |  min time  |  avg time  |  max time  |%varavg| %total
---------------------------------------------------------------
Pair    | 1.1142     | 3.1318     | 4.0946     |  49.1 | 73.46
Neigh   | 0          | 0          | 0          |   0.0 |  0.00
Comm    | 0.051969   | 0.68437    | 2.1947     |  76.2 | 16.05
Output  | 0          | 0          | 0          |   0.0 |  0.00
Modify  | 6.3878e-05 | 0.0065965  | 0.013891   |   3.8 |  0.15
Other   |            | 0.4405     |            |       | 10.33

Nlocal:        5552.90 ave        7912 max           0 min
Histogram: 4 2 2 0 2 6 4 0 15 17
Nghost:        6213.69 ave        8770 max         412 min
Histogram: 4 0 4 0 8 0 4 5 7 20
Neighs:       158427.0 ave      230641 max           0 min
Histogram: 4 2 2 0 5 3 4 4 12 16

Total # of neighbors = 8238194
Ave neighs/atom = 28.530443
Neighbor list builds = 0
Dangerous builds = 0
The dot product: 5.27814764405278e-07
Setting atom values ...
  1 settings made for x
  1 settings made for y
  1 settings made for z
Setting up cg style minimization ...
  Unit style    : metal
  Current step  : 3798
Per MPI rank memory allocation (min/avg/max) = 5.465 | 6.344 | 6.728 Mbytes
Step PotEng KinEng TotEng v_fx v_fy v_fz 
    3798   -1152448.8            0   -1152448.8  0.057631133  0.011478929 0.0021335905 
    3969   -1152448.8            0   -1152448.8 -1.1806378e-05 1.8372404e-06 -9.9115668e-07 
Loop time of 3.72528 on 52 procs for 171 steps with 288751 atoms

99.9% CPU use with 52 MPI tasks x 1 OpenMP threads

Minimization stats:
  Stopping criterion = energy tolerance
  Energy initial, next-to-last, final = 
     -1152448.83823015  -1152448.84031056  -1152448.84031056
  Force two-norm initial, final = 0.19811112 0.00022794627
  Force max component initial, final = 0.090800297 6.4103023e-05
  Final line search alpha, max atom move = 1.0000000 6.4103023e-05
  Iterations, force evaluations = 171 342

MPI task timing breakdown:
Section |  min time  |  avg time  |  max time  |%varavg| %total
---------------------------------------------------------------
Pair    | 0.96621    | 2.7189     | 3.5789     |  45.9 | 72.98
Neigh   | 0          | 0          | 0          |   0.0 |  0.00
Comm    | 0.045619   | 0.59792    | 1.9122     |  70.5 | 16.05
Output  | 0          | 0          | 0          |   0.0 |  0.00
Modify  | 4.998e-05  | 0.0057163  | 0.012236   |   3.5 |  0.15
Other   |            | 0.4028     |            |       | 10.81

Nlocal:        5552.90 ave        7913 max           0 min
Histogram: 4 2 2 0 2 6 4 1 14 17
Nghost:        6213.73 ave        8770 max         412 min
Histogram: 4 0 4 0 8 0 4 5 7 20
Neighs:       158427.0 ave      230668 max           0 min
Histogram: 4 2 2 0 5 3 4 4 12 16

Total # of neighbors = 8238191
Ave neighs/atom = 28.530433
Neighbor list builds = 0
Dangerous builds = 0
The dot product: 1.26403600245663e-07
Setting atom values ...
  1 settings made for x
  1 settings made for y
  1 settings made for z
Setting up cg style minimization ...
  Unit style    : metal
  Current step  : 3969
Per MPI rank memory allocation (min/avg/max) = 5.465 | 6.344 | 6.728 Mbytes
Step PotEng KinEng TotEng v_fx v_fy v_fz 
    3969   -1152448.8            0   -1152448.8   0.05998471 0.0084841065 0.0042466312 
    4000   -1152448.8            0   -1152448.8 -0.00069146058 -7.065082e-05 -5.237398e-05 
    4155   -1152448.8            0   -1152448.8 -3.9886644e-05 -6.302964e-06 -2.7404068e-06 
Loop time of 4.0438 on 52 procs for 186 steps with 288751 atoms

99.9% CPU use with 52 MPI tasks x 1 OpenMP threads

Minimization stats:
  Stopping criterion = linesearch alpha is zero
  Energy initial, next-to-last, final = 
     -1152448.82178694  -1152448.82389828  -1152448.82389828
  Force two-norm initial, final = 0.20080382 0.00013339272
  Force max component initial, final = 0.095438373 4.7950230e-05
  Final line search alpha, max atom move = 0.5 2.3975115e-05
  Iterations, force evaluations = 186 373

MPI task timing breakdown:
Section |  min time  |  avg time  |  max time  |%varavg| %total
---------------------------------------------------------------
Pair    | 1.0555     | 2.9605     | 3.8737     |  47.7 | 73.21
Neigh   | 0          | 0          | 0          |   0.0 |  0.00
Comm    | 0.048522   | 0.64904    | 2.0649     |  73.9 | 16.05
Output  | 0.00011835 | 0.00012328 | 0.00030458 |   0.0 |  0.00
Modify  | 6.2468e-05 | 0.0062422  | 0.013122   |   3.7 |  0.15
Other   |            | 0.4279     |            |       | 10.58

Nlocal:        5552.90 ave        7915 max           0 min
Histogram: 4 2 2 0 2 6 4 1 14 17
Nghost:        6213.73 ave        8770 max         412 min
Histogram: 4 0 4 0 8 0 4 5 7 20
Neighs:       158427.0 ave      230727 max           0 min
Histogram: 4 2 2 0 5 3 4 4 12 16

Total # of neighbors = 8238191
Ave neighs/atom = 28.530433
Neighbor list builds = 0
Dangerous builds = 0
The dot product: 3.28028263678879e-07
Setting atom values ...
  1 settings made for x
  1 settings made for y
  1 settings made for z
Setting up cg style minimization ...
  Unit style    : metal
  Current step  : 4155
Per MPI rank memory allocation (min/avg/max) = 5.465 | 6.344 | 6.728 Mbytes
Step PotEng KinEng TotEng v_fx v_fy v_fz 
    4155   -1152448.8            0   -1152448.8  0.066238514 0.0081877666  0.006009598 
    4325   -1152448.8            0   -1152448.8 5.3002039e-06 1.9055829e-06 3.2997985e-07 
Loop time of 3.7056 on 52 procs for 170 steps with 288751 atoms

99.9% CPU use with 52 MPI tasks x 1 OpenMP threads

Minimization stats:
  Stopping criterion = energy tolerance
  Energy initial, next-to-last, final = 
     -1152448.80404044  -1152448.80604677  -1152448.80604677
  Force two-norm initial, final = 0.20414413 0.00015555053
  Force max component initial, final = 0.098645443 2.6740590e-05
  Final line search alpha, max atom move = 1.0000000 2.6740590e-05
  Iterations, force evaluations = 170 340

MPI task timing breakdown:
Section |  min time  |  avg time  |  max time  |%varavg| %total
---------------------------------------------------------------
Pair    | 0.9619     | 2.7083     | 3.561      |  45.8 | 73.09
Neigh   | 0          | 0          | 0          |   0.0 |  0.00
Comm    | 0.046961   | 0.59465    | 1.9019     |  70.7 | 16.05
Output  | 0          | 0          | 0          |   0.0 |  0.00
Modify  | 5.3027e-05 | 0.0056865  | 0.012015   |   3.5 |  0.15
Other   |            | 0.397      |            |       | 10.71

Nlocal:        5552.90 ave        7917 max           0 min
Histogram: 4 2 2 0 2 6 4 1 14 17
Nghost:        6213.65 ave        8770 max         412 min
Histogram: 4 0 4 0 8 0 4 5 7 20
Neighs:       158427.0 ave      230792 max           0 min
Histogram: 4 2 2 0 5 3 4 4 12 16

Total # of neighbors = 8238191
Ave neighs/atom = 28.530433
Neighbor list builds = 0
Dangerous builds = 0
The dot product: -2.49991119824363e-08
Setting atom values ...
  1 settings made for x
  1 settings made for y
  1 settings made for z
Setting up cg style minimization ...
  Unit style    : metal
  Current step  : 4325
Per MPI rank memory allocation (min/avg/max) = 5.465 | 6.344 | 6.728 Mbytes
Step PotEng KinEng TotEng v_fx v_fy v_fz 
    4325   -1152448.8            0   -1152448.8  0.073734744 0.0086117279 0.0074036697 
    4464   -1152448.8            0   -1152448.8 -1.8010536e-05 -4.6415991e-06 -1.5123016e-06 
Loop time of 3.02396 on 52 procs for 139 steps with 288751 atoms

99.9% CPU use with 52 MPI tasks x 1 OpenMP threads

Minimization stats:
  Stopping criterion = energy tolerance
  Energy initial, next-to-last, final = 
      -1152448.7848056  -1152448.78675297  -1152448.78675297
  Force two-norm initial, final = 0.20733614 0.00038340983
  Force max component initial, final = 0.10032345 7.9852313e-05
  Final line search alpha, max atom move = 1.0000000 7.9852313e-05
  Iterations, force evaluations = 139 278

MPI task timing breakdown:
Section |  min time  |  avg time  |  max time  |%varavg| %total
---------------------------------------------------------------
Pair    | 0.78649    | 2.2103     | 2.9019     |  41.2 | 73.09
Neigh   | 0          | 0          | 0          |   0.0 |  0.00
Comm    | 0.035759   | 0.48662    | 1.5447     |  63.7 | 16.09
Output  | 0          | 0          | 0          |   0.0 |  0.00
Modify  | 4.3368e-05 | 0.0046459  | 0.0098531  |   3.2 |  0.15
Other   |            | 0.3224     |            |       | 10.66

Nlocal:        5552.90 ave        7917 max           0 min
Histogram: 4 2 2 0 2 6 4 1 14 17
Nghost:        6213.65 ave        8769 max         412 min
Histogram: 4 0 4 0 8 0 4 5 7 20
Neighs:       158427.0 ave      230788 max           0 min
Histogram: 4 2 2 0 5 3 4 4 12 16

Total # of neighbors = 8238191
Ave neighs/atom = 28.530433
Neighbor list builds = 0
Dangerous builds = 0
The dot product: 1.59569968968656e-08
Setting atom values ...
  1 settings made for x
  1 settings made for y
  1 settings made for z
Setting up cg style minimization ...
  Unit style    : metal
  Current step  : 4464
Per MPI rank memory allocation (min/avg/max) = 5.465 | 6.344 | 6.728 Mbytes
Step PotEng KinEng TotEng v_fx v_fy v_fz 
    4464   -1152448.8            0   -1152448.8  0.080677512 0.0085901942   0.00829831 
    4618   -1152448.8            0   -1152448.8 -7.3218452e-06 -4.9115096e-06 -2.8546648e-07 
Loop time of 3.36229 on 52 procs for 154 steps with 288751 atoms

99.9% CPU use with 52 MPI tasks x 1 OpenMP threads

Minimization stats:
  Stopping criterion = energy tolerance
  Energy initial, next-to-last, final = 
     -1152448.76405805    -1152448.765938    -1152448.765938
  Force two-norm initial, final = 0.209664 0.00016997857
  Force max component initial, final = 0.10041291 4.1668494e-05
  Final line search alpha, max atom move = 1.0000000 4.1668494e-05
  Iterations, force evaluations = 154 308

MPI task timing breakdown:
Section |  min time  |  avg time  |  max time  |%varavg| %total
---------------------------------------------------------------
Pair    | 0.86704    | 2.4554     | 3.231      |  43.7 | 73.03
Neigh   | 0          | 0          | 0          |   0.0 |  0.00
Comm    | 0.040101   | 0.53883    | 1.7162     |  67.4 | 16.03
Output  | 0          | 0          | 0          |   0.0 |  0.00
Modify  | 4.9197e-05 | 0.0051792  | 0.010975   |   3.4 |  0.15
Other   |            | 0.3629     |            |       | 10.79

Nlocal:        5552.90 ave        7917 max           0 min
Histogram: 4 2 2 0 2 6 4 1 14 17
Nghost:        6213.58 ave        8768 max         412 min
Histogram: 4 0 4 0 8 0 4 5 7 20
Neighs:       158427.0 ave      230780 max           0 min
Histogram: 4 2 2 0 5 3 4 4 12 16

Total # of neighbors = 8238188
Ave neighs/atom = 28.530422
Neighbor list builds = 0
Dangerous builds = 0
The dot product: -1.03697678656958e-08
Setting atom values ...
  1 settings made for x
  1 settings made for y
  1 settings made for z
Setting up cg style minimization ...
  Unit style    : metal
  Current step  : 4618
Per MPI rank memory allocation (min/avg/max) = 5.465 | 6.344 | 6.728 Mbytes
Step PotEng KinEng TotEng v_fx v_fy v_fz 
    4618   -1152448.7            0   -1152448.7  0.086533206 0.0082465696 0.0085932782 
    4769   -1152448.7            0   -1152448.7 -4.283463e-05 -1.2467779e-05 -3.3351586e-06 
Loop time of 3.30044 on 52 procs for 151 steps with 288751 atoms

99.9% CPU use with 52 MPI tasks x 1 OpenMP threads

Minimization stats:
  Stopping criterion = energy tolerance
  Energy initial, next-to-last, final = 
     -1152448.74174083  -1152448.74359639  -1152448.74359639
  Force two-norm initial, final = 0.21114781 0.00018277747
  Force max component initial, final = 0.099543846 4.2834630e-05
  Final line search alpha, max atom move = 1.0000000 4.2834630e-05
  Iterations, force evaluations = 151 302

MPI task timing breakdown:
Section |  min time  |  avg time  |  max time  |%varavg| %total
---------------------------------------------------------------
Pair    | 0.85407    | 2.3998     | 3.1667     |  43.1 | 72.71
Neigh   | 0          | 0          | 0          |   0.0 |  0.00
Comm    | 0.038766   | 0.53156    | 1.6733     |  65.8 | 16.11
Output  | 0          | 0          | 0          |   0.0 |  0.00
Modify  | 4.9795e-05 | 0.0050738  | 0.010698   |   3.3 |  0.15
Other   |            | 0.364      |            |       | 11.03

Nlocal:        5552.90 ave        7917 max           0 min
Histogram: 4 2 2 0 2 6 4 1 14 17
Nghost:        6213.62 ave        8768 max         412 min
Histogram: 4 0 4 0 8 0 4 5 7 20
Neighs:       158427.0 ave      230779 max           0 min
Histogram: 4 2 2 0 5 3 4 4 12 16

Total # of neighbors = 8238186
Ave neighs/atom = 28.530415
Neighbor list builds = 0
Dangerous builds = 0
The dot product: -1.73828037406381e-07
Setting atom values ...
  1 settings made for x
  1 settings made for y
  1 settings made for z
Setting up cg style minimization ...
  Unit style    : metal
  Current step  : 4769
Per MPI rank memory allocation (min/avg/max) = 5.465 | 6.344 | 6.728 Mbytes
Step PotEng KinEng TotEng v_fx v_fy v_fz 
    4769   -1152448.7            0   -1152448.7  0.089916514 0.0083619551 0.0082103351 
    4916   -1152448.7            0   -1152448.7 -6.3451459e-05 -1.0752018e-05 -5.2804648e-06 
Loop time of 3.21291 on 52 procs for 147 steps with 288751 atoms

99.9% CPU use with 52 MPI tasks x 1 OpenMP threads

Minimization stats:
  Stopping criterion = energy tolerance
  Energy initial, next-to-last, final = 
     -1152448.71790749  -1152448.71973898  -1152448.71973898
  Force two-norm initial, final = 0.21128673 0.00022548216
  Force max component initial, final = 0.097726613 7.3614397e-05
  Final line search alpha, max atom move = 1.0000000 7.3614397e-05
  Iterations, force evaluations = 147 294

MPI task timing breakdown:
Section |  min time  |  avg time  |  max time  |%varavg| %total
---------------------------------------------------------------
Pair    | 0.83062    | 2.345      | 3.0846     |  42.7 | 72.99
Neigh   | 0          | 0          | 0          |   0.0 |  0.00
Comm    | 0.039443   | 0.51607    | 1.6351     |  65.8 | 16.06
Output  | 0          | 0          | 0          |   0.0 |  0.00
Modify  | 4.7006e-05 | 0.0049276  | 0.010436   |   3.3 |  0.15
Other   |            | 0.3469     |            |       | 10.80

Nlocal:        5552.90 ave        7917 max           0 min
Histogram: 4 2 2 0 2 6 4 1 14 17
Nghost:        6213.50 ave        8768 max         412 min
Histogram: 4 0 4 0 8 0 4 5 7 20
Neighs:       158427.0 ave      230781 max           0 min
Histogram: 4 2 2 0 5 3 4 4 12 16

Total # of neighbors = 8238186
Ave neighs/atom = 28.530415
Neighbor list builds = 0
Dangerous builds = 0
The dot product: -3.50538357916175e-07
Setting atom values ...
  1 settings made for x
  1 settings made for y
  1 settings made for z
Setting up cg style minimization ...
  Unit style    : metal
  Current step  : 4916
Per MPI rank memory allocation (min/avg/max) = 5.465 | 6.344 | 6.728 Mbytes
Step PotEng KinEng TotEng v_fx v_fy v_fz 
    4916   -1152448.7            0   -1152448.7   0.09157541 0.0092416659 0.0073602484 
    5000   -1152448.7            0   -1152448.7 0.00040509624 5.7418621e-05 3.0869801e-05 
    5093   -1152448.7            0   -1152448.7 2.0082775e-05 1.6197125e-06 1.6557024e-06 
Loop time of 3.87755 on 52 procs for 177 steps with 288751 atoms

99.9% CPU use with 52 MPI tasks x 1 OpenMP threads

Minimization stats:
  Stopping criterion = linesearch alpha is zero
  Energy initial, next-to-last, final = 
     -1152448.69258276   -1152448.6943832   -1152448.6943832
  Force two-norm initial, final = 0.2105575 7.1987745e-05
  Force max component initial, final = 0.095409966 2.3106058e-05
  Final line search alpha, max atom move = 0.5 1.1553029e-05
  Iterations, force evaluations = 177 355

MPI task timing breakdown:
Section |  min time  |  avg time  |  max time  |%varavg| %total
---------------------------------------------------------------
Pair    | 1.0047     | 2.8291     | 3.7101     |  46.8 | 72.96
Neigh   | 0          | 0          | 0          |   0.0 |  0.00
Comm    | 0.047557   | 0.62356    | 1.9754     |  71.7 | 16.08
Output  | 0.00012408 | 0.00012855 | 0.00030387 |   0.0 |  0.00
Modify  | 5.9937e-05 | 0.0059315  | 0.012506   |   3.6 |  0.15
Other   |            | 0.4188     |            |       | 10.80

Nlocal:        5552.90 ave        7917 max           0 min
Histogram: 4 2 2 0 2 6 4 1 14 17
Nghost:        6213.50 ave        8768 max         412 min
Histogram: 4 0 4 0 8 0 4 5 7 20
Neighs:       158427.0 ave      230785 max           0 min
Histogram: 4 2 2 0 5 3 4 4 12 16

Total # of neighbors = 8238188
Ave neighs/atom = 28.530422
Neighbor list builds = 0
Dangerous builds = 0
The dot product: 1.30799691161323e-07
Setting atom values ...
  1 settings made for x
  1 settings made for y
  1 settings made for z
Setting up cg style minimization ...
  Unit style    : metal
  Current step  : 5093
Per MPI rank memory allocation (min/avg/max) = 5.465 | 6.344 | 6.728 Mbytes
Step PotEng KinEng TotEng v_fx v_fy v_fz 
    5093   -1152448.7            0   -1152448.7  0.092006451  0.011067816  0.006194832 
    5246   -1152448.7            0   -1152448.7 4.7485122e-07 4.4219682e-07 -6.058176e-09 
Loop time of 3.33347 on 52 procs for 153 steps with 288751 atoms

99.9% CPU use with 52 MPI tasks x 1 OpenMP threads

Minimization stats:
  Stopping criterion = energy tolerance
  Energy initial, next-to-last, final = 
     -1152448.66578943  -1152448.66755266  -1152448.66755266
  Force two-norm initial, final = 0.20934897 0.00017051125
  Force max component initial, final = 0.092881136 7.8970504e-06
  Final line search alpha, max atom move = 1.0000000 7.8970504e-06
  Iterations, force evaluations = 153 306

MPI task timing breakdown:
Section |  min time  |  avg time  |  max time  |%varavg| %total
---------------------------------------------------------------
Pair    | 0.86456    | 2.437      | 3.2022     |  43.5 | 73.11
Neigh   | 0          | 0          | 0          |   0.0 |  0.00
Comm    | 0.042194   | 0.53518    | 1.7153     |  66.9 | 16.05
Output  | 0          | 0          | 0          |   0.0 |  0.00
Modify  | 4.8843e-05 | 0.0051108  | 0.010725   |   3.3 |  0.15
Other   |            | 0.3562     |            |       | 10.68

Nlocal:        5552.90 ave        7917 max           0 min
Histogram: 4 2 2 0 2 6 4 1 14 17
Nghost:        6213.52 ave        8768 max         412 min
Histogram: 4 0 4 0 8 0 4 5 7 20
Neighs:       158427.0 ave      230784 max           0 min
Histogram: 4 2 2 0 5 3 4 4 12 16

Total # of neighbors = 8238186
Ave neighs/atom = 28.530415
Neighbor list builds = 0
Dangerous builds = 0
The dot product: 2.66704587089124e-09
Setting atom values ...
  1 settings made for x
  1 settings made for y
  1 settings made for z
Setting up cg style minimization ...
  Unit style    : metal
  Current step  : 5246
Per MPI rank memory allocation (min/avg/max) = 5.465 | 6.344 | 6.728 Mbytes
Step PotEng KinEng TotEng v_fx v_fy v_fz 
    5246   -1152448.6            0   -1152448.6  0.091175333  0.014014602 0.0047854104 
    5426   -1152448.6            0   -1152448.6 3.028438e-05 3.7858679e-06 1.6728597e-06 
Loop time of 3.90402 on 52 procs for 180 steps with 288751 atoms

99.9% CPU use with 52 MPI tasks x 1 OpenMP threads

Minimization stats:
  Stopping criterion = linesearch alpha is zero
  Energy initial, next-to-last, final = 
     -1152448.63755695  -1152448.63927748  -1152448.63927748
  Force two-norm initial, final = 0.2076496 7.4954550e-05
  Force max component initial, final = 0.091175333 3.4522215e-05
  Final line search alpha, max atom move = 0.5 1.7261107e-05
  Iterations, force evaluations = 180 361

MPI task timing breakdown:
Section |  min time  |  avg time  |  max time  |%varavg| %total
---------------------------------------------------------------
Pair    | 1.0206     | 2.8642     | 3.747      |  46.8 | 73.36
Neigh   | 0          | 0          | 0          |   0.0 |  0.00
Comm    | 0.048689   | 0.62608    | 1.995      |  72.7 | 16.04
Output  | 0          | 0          | 0          |   0.0 |  0.00
Modify  | 5.8572e-05 | 0.0060375  | 0.012742   |   3.6 |  0.15
Other   |            | 0.4077     |            |       | 10.44

Nlocal:        5552.90 ave        7917 max           0 min
Histogram: 4 2 2 0 2 6 4 1 14 17
Nghost:        6213.52 ave        8768 max         412 min
Histogram: 4 0 4 0 8 0 4 5 7 20
Neighs:       158427.0 ave      230771 max           0 min
Histogram: 4 2 2 0 5 3 4 4 12 16

Total # of neighbors = 8238188
Ave neighs/atom = 28.530422
Neighbor list builds = 0
Dangerous builds = 0
The dot product: 2.25354112560085e-07
Setting atom values ...
  1 settings made for x
  1 settings made for y
  1 settings made for z
Setting up cg style minimization ...
  Unit style    : metal
  Current step  : 5426
Per MPI rank memory allocation (min/avg/max) = 5.465 | 6.344 | 6.728 Mbytes
Step PotEng KinEng TotEng v_fx v_fy v_fz 
    5426   -1152448.6            0   -1152448.6  0.089236438  0.018401093 0.0031818473 
    5569   -1152448.6            0   -1152448.6 0.00013229427 1.583775e-05 5.7925149e-06 
Loop time of 3.12227 on 52 procs for 143 steps with 288751 atoms

99.9% CPU use with 52 MPI tasks x 1 OpenMP threads

Minimization stats:
  Stopping criterion = energy tolerance
  Energy initial, next-to-last, final = 
     -1152448.60792019  -1152448.60959671  -1152448.60959671
  Force two-norm initial, final = 0.20579581 0.00031217892
  Force max component initial, final = 0.089236438 0.00013229427
  Final line search alpha, max atom move = 1.0000000 0.00013229427
  Iterations, force evaluations = 143 286

MPI task timing breakdown:
Section |  min time  |  avg time  |  max time  |%varavg| %total
---------------------------------------------------------------
Pair    | 0.80754    | 2.2778     | 3.0003     |  42.1 | 72.95
Neigh   | 0          | 0          | 0          |   0.0 |  0.00
Comm    | 0.039544   | 0.50085    | 1.6006     |  64.6 | 16.04
Output  | 0          | 0          | 0          |   0.0 |  0.00
Modify  | 4.632e-05  | 0.0047932  | 0.010077   |   3.2 |  0.15
Other   |            | 0.3388     |            |       | 10.85

Nlocal:        5552.90 ave        7917 max           0 min
Histogram: 4 2 2 0 2 6 4 1 14 17
Nghost:        6213.52 ave        8768 max         412 min
Histogram: 4 0 4 0 8 0 4 5 7 20
Neighs:       158427.0 ave      230772 max           0 min
Histogram: 4 2 2 0 5 3 4 4 12 16

Total # of neighbors = 8238188
Ave neighs/atom = 28.530422
Neighbor list builds = 0
Dangerous builds = 0
The dot product: 1.03767731625561e-06
Setting atom values ...
  1 settings made for x
  1 settings made for y
  1 settings made for z
Setting up cg style minimization ...
  Unit style    : metal
  Current step  : 5569
Per MPI rank memory allocation (min/avg/max) = 5.465 | 6.344 | 6.728 Mbytes
Step PotEng KinEng TotEng v_fx v_fy v_fz 
    5569   -1152448.6            0   -1152448.6  0.086329586  0.023558714 0.0014888994 
    5750   -1152448.6            0   -1152448.6 1.7364558e-05 1.8689414e-06 5.6812792e-07 
Loop time of 3.94373 on 52 procs for 181 steps with 288751 atoms

99.9% CPU use with 52 MPI tasks x 1 OpenMP threads

Minimization stats:
  Stopping criterion = linesearch alpha is zero
  Energy initial, next-to-last, final = 
     -1152448.57693474  -1152448.57856974  -1152448.57856974
  Force two-norm initial, final = 0.20386435 7.1406429e-05
  Force max component initial, final = 0.086469619 1.7364558e-05
  Final line search alpha, max atom move = 0.5 8.6822791e-06
  Iterations, force evaluations = 181 363

MPI task timing breakdown:
Section |  min time  |  avg time  |  max time  |%varavg| %total
---------------------------------------------------------------
Pair    | 1.0296     | 2.8817     | 3.7887     |  47.1 | 73.07
Neigh   | 0          | 0          | 0          |   0.0 |  0.00
Comm    | 0.047336   | 0.63313    | 2.0057     |  72.5 | 16.05
Output  | 0          | 0          | 0          |   0.0 |  0.00
Modify  | 6.5015e-05 | 0.0060698  | 0.012833   |   3.6 |  0.15
Other   |            | 0.4228     |            |       | 10.72

Nlocal:        5552.90 ave        7917 max           0 min
Histogram: 4 2 2 0 2 6 4 1 14 17
Nghost:        6213.56 ave        8768 max         412 min
Histogram: 4 0 4 0 8 0 4 5 7 20
Neighs:       158427.0 ave      230773 max           0 min
Histogram: 4 2 2 0 5 3 4 4 12 16

Total # of neighbors = 8238187
Ave neighs/atom = 28.530419
Neighbor list builds = 0
Dangerous builds = 0
The dot product: 1.44184113245855e-07
Setting atom values ...
  1 settings made for x
  1 settings made for y
  1 settings made for z
Setting up cg style minimization ...
  Unit style    : metal
  Current step  : 5750
Per MPI rank memory allocation (min/avg/max) = 5.465 | 6.344 | 6.728 Mbytes
Step PotEng KinEng TotEng v_fx v_fy v_fz 
    5750   -1152448.5            0   -1152448.5  0.082146493   0.03172241 -0.00053377184 
    6000   -1152448.6            0   -1152448.6 2.5246997e-05 9.8457503e-06 -1.7326429e-07 
    6018   -1152448.6            0   -1152448.6 5.6969058e-05 9.089994e-06 8.6700014e-07 
Loop time of 5.84877 on 52 procs for 268 steps with 288751 atoms

99.9% CPU use with 52 MPI tasks x 1 OpenMP threads

Minimization stats:
  Stopping criterion = energy tolerance
  Energy initial, next-to-last, final = 
     -1152448.54474845   -1152448.6173097   -1152448.6173097
  Force two-norm initial, final = 0.20201 0.00022808293
  Force max component initial, final = 0.088334779 5.6969058e-05
  Final line search alpha, max atom move = 1.0000000 5.6969058e-05
  Iterations, force evaluations = 268 537

MPI task timing breakdown:
Section |  min time  |  avg time  |  max time  |%varavg| %total
---------------------------------------------------------------
Pair    | 1.5366     | 4.2841     | 5.6022     |  57.2 | 73.25
Neigh   | 3.7405e-05 | 0.011451   | 0.016864   |   4.5 |  0.20
Comm    | 0.0716     | 0.93765    | 2.9976     |  89.2 | 16.03
Output  | 0.00012418 | 0.0001292  | 0.00031587 |   0.0 |  0.00
Modify  | 7.5181e-05 | 0.0089926  | 0.019211   |   4.4 |  0.15
Other   |            | 0.6065     |            |       | 10.37

Nlocal:        5552.90 ave        7909 max           0 min
Histogram: 4 2 2 0 2 6 4 0 15 17
Nghost:        6213.54 ave        8768 max         412 min
Histogram: 4 0 4 0 8 0 4 5 7 20
Neighs:       158427.0 ave      230468 max           0 min
Histogram: 4 2 2 0 5 3 4 4 12 16

Total # of neighbors = 8238192
Ave neighs/atom = 28.530436
Neighbor list builds = 2
Dangerous builds = 0
The dot product: 5.1399570999263e-06
Setting atom values ...
  1 settings made for x
  1 settings made for y
  1 settings made for z
Setting up cg style minimization ...
  Unit style    : metal
  Current step  : 6018
Per MPI rank memory allocation (min/avg/max) = 5.465 | 6.344 | 6.728 Mbytes
Step PotEng KinEng TotEng v_fx v_fy v_fz 
    6018   -1152448.6            0   -1152448.6  0.076880417   0.14613207 -0.087984031 
    6223   -1152448.6            0   -1152448.6 4.5661865e-05 1.3538413e-05 -9.2757429e-06 
Loop time of 4.47586 on 52 procs for 205 steps with 288751 atoms

99.9% CPU use with 52 MPI tasks x 1 OpenMP threads

Minimization stats:
  Stopping criterion = linesearch alpha is zero
  Energy initial, next-to-last, final = 
     -1152448.61057689  -1152448.61362489  -1152448.61362489
  Force two-norm initial, final = 0.23169626 0.0001525842
  Force max component initial, final = 0.14613207 4.5661865e-05
  Final line search alpha, max atom move = 0.5 2.2830932e-05
  Iterations, force evaluations = 205 411

MPI task timing breakdown:
Section |  min time  |  avg time  |  max time  |%varavg| %total
---------------------------------------------------------------
Pair    | 1.1632     | 3.266      | 4.2964     |  50.2 | 72.97
Neigh   | 0          | 0          | 0          |   0.0 |  0.00
Comm    | 0.053264   | 0.71932    | 2.2851     |  77.1 | 16.07
Output  | 0          | 0          | 0          |   0.0 |  0.00
Modify  | 6.7171e-05 | 0.0068674  | 0.014529   |   3.9 |  0.15
Other   |            | 0.4836     |            |       | 10.81

Nlocal:        5552.90 ave        7907 max           0 min
Histogram: 4 2 2 0 2 6 4 0 15 17
Nghost:        6213.62 ave        8769 max         412 min
Histogram: 4 0 4 0 8 0 4 5 7 20
Neighs:       158427.0 ave      230461 max           0 min
Histogram: 4 2 2 0 5 3 4 4 12 16

Total # of neighbors = 8238185
Ave neighs/atom = 28.530412
Neighbor list builds = 0
Dangerous builds = 0
The dot product: 6.21757076889235e-07
Setting atom values ...
  1 settings made for x
  1 settings made for y
  1 settings made for z
Setting up cg style minimization ...
  Unit style    : metal
  Current step  : 6223
Per MPI rank memory allocation (min/avg/max) = 5.465 | 6.344 | 6.728 Mbytes
Step PotEng KinEng TotEng v_fx v_fy v_fz 
    6223   -1152448.6            0   -1152448.6  0.065660719  0.035121702 -0.024714993 
    6548     -1152449            0     -1152449 -4.3010409e-06 1.5370365e-05 -9.6846722e-06 
Loop time of 7.16406 on 52 procs for 325 steps with 288751 atoms

99.9% CPU use with 52 MPI tasks x 1 OpenMP threads

Minimization stats:
  Stopping criterion = linesearch alpha is zero
  Energy initial, next-to-last, final = 
     -1152448.60682065  -1152448.99153772  -1152448.99153772
  Force two-norm initial, final = 0.15780536 6.7877469e-05
  Force max component initial, final = 0.074502287 1.5370365e-05
  Final line search alpha, max atom move = 0.5 7.6851823e-06
  Iterations, force evaluations = 325 653

MPI task timing breakdown:
Section |  min time  |  avg time  |  max time  |%varavg| %total
---------------------------------------------------------------
Pair    | 1.8941     | 5.2081     | 6.8092     |  62.6 | 72.70
Neigh   | 0.00011155 | 0.034434   | 0.050867   |   7.8 |  0.48
Comm    | 0.093092   | 1.1427     | 3.6187     |  97.4 | 15.95
Output  | 0          | 0          | 0          |   0.0 |  0.00
Modify  | 9.7574e-05 | 0.010947   | 0.023272   |   4.9 |  0.15
Other   |            | 0.7679     |            |       | 10.72

Nlocal:        5552.90 ave        7901 max           0 min
Histogram: 4 2 2 0 2 6 4 0 15 17
Nghost:        6213.58 ave        8769 max         412 min
Histogram: 4 0 4 0 8 0 4 5 7 20
Neighs:       158427.0 ave      230260 max           0 min
Histogram: 4 2 2 0 5 3 4 4 12 16

Total # of neighbors = 8238216
Ave neighs/atom = 28.530519
Neighbor list builds = 6
Dangerous builds = 0
The dot product: 4.17844679125141e-06
Setting atom values ...
  1 settings made for x
  1 settings made for y
  1 settings made for z
Setting up cg style minimization ...
  Unit style    : metal
  Current step  : 6548
Per MPI rank memory allocation (min/avg/max) = 5.465 | 6.344 | 6.728 Mbytes
Step PotEng KinEng TotEng v_fx v_fy v_fz 
    6548     -1152449            0     -1152449  -0.61705566  -0.05853936   0.76341196 
    6805   -1152449.2            0   -1152449.2 2.1034898e-05 -3.5936814e-05 3.1268655e-05 
Loop time of 5.56277 on 52 procs for 257 steps with 288751 atoms

99.9% CPU use with 52 MPI tasks x 1 OpenMP threads

Minimization stats:
  Stopping criterion = linesearch alpha is zero
  Energy initial, next-to-last, final = 
     -1152449.01579429  -1152449.17339358  -1152449.17339358
  Force two-norm initial, final = 0.9953152 0.00015707295
  Force max component initial, final = 0.76341196 3.5936814e-05
  Final line search alpha, max atom move = 0.5 1.7968407e-05
  Iterations, force evaluations = 257 515

MPI task timing breakdown:
Section |  min time  |  avg time  |  max time  |%varavg| %total
---------------------------------------------------------------
Pair    | 1.4699     | 4.0848     | 5.3258     |  55.8 | 73.43
Neigh   | 3.7401e-05 | 0.011477   | 0.017019   |   4.5 |  0.21
Comm    | 0.067404   | 0.89562    | 2.8531     |  86.9 | 16.10
Output  | 0          | 0          | 0          |   0.0 |  0.00
Modify  | 7.97e-05   | 0.0086187  | 0.018148   |   4.3 |  0.15
Other   |            | 0.5623     |            |       | 10.11

Nlocal:        5552.90 ave        7869 max           0 min
Histogram: 4 2 2 0 2 6 4 0 14 18
Nghost:        6213.69 ave        8770 max         412 min
Histogram: 4 0 4 0 8 0 4 5 7 20
Neighs:       158427.0 ave      229210 max           0 min
Histogram: 4 2 2 0 4 4 4 4 10 18

Total # of neighbors = 8238204
Ave neighs/atom = 28.530478
Neighbor list builds = 2
Dangerous builds = 0
The dot product: 1.59154049983595e-06
Setting atom values ...
  1 settings made for x
  1 settings made for y
  1 settings made for z
Setting up cg style minimization ...
  Unit style    : metal
  Current step  : 6805
Per MPI rank memory allocation (min/avg/max) = 5.465 | 6.344 | 6.728 Mbytes
Step PotEng KinEng TotEng v_fx v_fy v_fz 
    6805   -1152449.2            0   -1152449.2   0.38113528  0.076094438  -0.23933949 
    7000   -1152449.2            0   -1152449.2 -2.4100897e-05 -7.4575451e-05 8.8546662e-05 
    7052   -1152449.2            0   -1152449.2 -4.7301196e-06 -6.382813e-06 8.6932016e-06 
Loop time of 5.34758 on 52 procs for 247 steps with 288751 atoms

99.9% CPU use with 52 MPI tasks x 1 OpenMP threads

Minimization stats:
  Stopping criterion = energy tolerance
  Energy initial, next-to-last, final = 
     -1152449.19774378  -1152449.22535643  -1152449.22535643
  Force two-norm initial, final = 0.48665133 6.0688900e-05
  Force max component initial, final = 0.38113528 9.9129000e-06
  Final line search alpha, max atom move = 1.0000000 9.9129000e-06
  Iterations, force evaluations = 247 494

MPI task timing breakdown:
Section |  min time  |  avg time  |  max time  |%varavg| %total
---------------------------------------------------------------
Pair    | 1.3994     | 3.931      | 5.1292     |  55.0 | 73.51
Neigh   | 1.8781e-05 | 0.005754   | 0.0084596  |   3.2 |  0.11
Comm    | 0.070367   | 0.85849    | 2.7642     |  85.3 | 16.05
Output  | 0.00012304 | 0.0001278  | 0.0003125  |   0.0 |  0.00
Modify  | 7.8336e-05 | 0.0082545  | 0.017406   |   4.2 |  0.15
Other   |            | 0.5439     |            |       | 10.17

Nlocal:        5552.90 ave        7864 max           0 min
Histogram: 4 2 2 0 2 6 4 0 13 19
Nghost:        6213.67 ave        8770 max         412 min
Histogram: 4 0 4 0 8 0 4 5 7 20
Neighs:       158427.0 ave      229050 max           0 min
Histogram: 4 2 2 0 4 4 4 4 10 18

Total # of neighbors = 8238197
Ave neighs/atom = 28.530454
Neighbor list builds = 1
Dangerous builds = 0
The dot product: -1.10461744069122e-06
Setting atom values ...
  1 settings made for x
  1 settings made for y
  1 settings made for z
Setting up cg style minimization ...
  Unit style    : metal
  Current step  : 7052
Per MPI rank memory allocation (min/avg/max) = 5.465 | 6.344 | 6.728 Mbytes
Step PotEng KinEng TotEng v_fx v_fy v_fz 
    7052   -1152449.2            0   -1152449.2 -0.090933638 0.0012733293  0.054848763 
    7261   -1152449.3            0   -1152449.3 1.8362662e-05 8.8403438e-06 -2.1659479e-05 
Loop time of 4.52093 on 52 procs for 209 steps with 288751 atoms

99.9% CPU use with 52 MPI tasks x 1 OpenMP threads

Minimization stats:
  Stopping criterion = energy tolerance
  Energy initial, next-to-last, final = 
     -1152449.24711067  -1152449.25192995  -1152449.25192995
  Force two-norm initial, final = 0.1908665 0.00014311519
  Force max component initial, final = 0.090933638 2.2427600e-05
  Final line search alpha, max atom move = 1.0000000 2.2427600e-05
  Iterations, force evaluations = 209 418

MPI task timing breakdown:
Section |  min time  |  avg time  |  max time  |%varavg| %total
---------------------------------------------------------------
Pair    | 1.1818     | 3.3197     | 4.3385     |  50.6 | 73.43
Neigh   | 0          | 0          | 0          |   0.0 |  0.00
Comm    | 0.054215   | 0.72627    | 2.3222     |  78.1 | 16.06
Output  | 0          | 0          | 0          |   0.0 |  0.00
Modify  | 6.952e-05  | 0.0069956  | 0.014704   |   3.9 |  0.15
Other   |            | 0.4679     |            |       | 10.35

Nlocal:        5552.90 ave        7866 max           0 min
Histogram: 4 2 2 0 2 6 4 0 13 19
Nghost:        6213.69 ave        8771 max         412 min
Histogram: 4 0 4 0 8 0 4 5 7 20
Neighs:       158427.0 ave      229092 max           0 min
Histogram: 4 2 2 0 4 4 4 4 10 18

Total # of neighbors = 8238205
Ave neighs/atom = 28.530481
Neighbor list builds = 0
Dangerous builds = 0
The dot product: -1.21176525490666e-06
Setting atom values ...
  1 settings made for x
  1 settings made for y
  1 settings made for z
Setting up cg style minimization ...
  Unit style    : metal
  Current step  : 7261
Per MPI rank memory allocation (min/avg/max) = 5.465 | 6.344 | 6.728 Mbytes
Step PotEng KinEng TotEng v_fx v_fy v_fz 
    7261   -1152449.3            0   -1152449.3  0.067782217 0.0062696051 -0.043866972 
    7493   -1152449.3            0   -1152449.3 1.8571017e-06 1.6245876e-06 -2.838145e-06 
Loop time of 5.00418 on 52 procs for 232 steps with 288751 atoms

99.9% CPU use with 52 MPI tasks x 1 OpenMP threads

Minimization stats:
  Stopping criterion = energy tolerance
  Energy initial, next-to-last, final = 
     -1152449.27279564  -1152449.27444241  -1152449.27444241
  Force two-norm initial, final = 0.18042947 1.7249163e-05
  Force max component initial, final = 0.089187622 3.6597406e-06
  Final line search alpha, max atom move = 1.0000000 3.6597406e-06
  Iterations, force evaluations = 232 464

MPI task timing breakdown:
Section |  min time  |  avg time  |  max time  |%varavg| %total
---------------------------------------------------------------
Pair    | 1.3088     | 3.6913     | 4.8058     |  53.4 | 73.76
Neigh   | 0          | 0          | 0          |   0.0 |  0.00
Comm    | 0.063959   | 0.80652    | 2.602      |  82.8 | 16.12
Output  | 0          | 0          | 0          |   0.0 |  0.00
Modify  | 7.1306e-05 | 0.0077488  | 0.016305   |   4.1 |  0.15
Other   |            | 0.4986     |            |       |  9.96

Nlocal:        5552.90 ave        7865 max           0 min
Histogram: 4 2 2 0 2 6 4 0 13 19
Nghost:        6213.67 ave        8770 max         412 min
Histogram: 4 0 4 0 8 0 4 5 7 20
Neighs:       158427.0 ave      229075 max           0 min
Histogram: 4 2 2 0 4 4 4 4 10 18

Total # of neighbors = 8238203
Ave neighs/atom = 28.530474
Neighbor list builds = 0
Dangerous builds = 0
The dot product: 3.21845235042855e-08
Setting atom values ...
  1 settings made for x
  1 settings made for y
  1 settings made for z
Setting up cg style minimization ...
  Unit style    : metal
  Current step  : 7493
Per MPI rank memory allocation (min/avg/max) = 5.465 | 6.344 | 6.728 Mbytes
Step PotEng KinEng TotEng v_fx v_fy v_fz 
    7493   -1152449.3            0   -1152449.3  0.017170165 0.0072907447 -0.017900314 
    7682   -1152449.3            0   -1152449.3 8.0520332e-06 -8.0228135e-06 4.5740572e-06 
Loop time of 4.09714 on 52 procs for 189 steps with 288751 atoms

99.9% CPU use with 52 MPI tasks x 1 OpenMP threads

Minimization stats:
  Stopping criterion = linesearch alpha is zero
  Energy initial, next-to-last, final = 
[...]
Nghost:        6213.62 ave        8769 max         412 min
Histogram: 4 0 4 0 8 0 4 5 7 20
Neighs:       158427.0 ave      229992 max           0 min
Histogram: 4 2 2 0 5 3 4 4 12 16

Total # of neighbors = 8238190
Ave neighs/atom = 28.530429
Neighbor list builds = 0
Dangerous builds = 0
The dot product: -3.63513936553303e-08
Setting atom values ...
  1 settings made for x
  1 settings made for y
  1 settings made for z
Setting up cg style minimization ...
  Unit style    : metal
  Current step  : 16363
Per MPI rank memory allocation (min/avg/max) = 5.465 | 6.344 | 6.728 Mbytes
Step PotEng KinEng TotEng v_fx v_fy v_fz 
   16363   -1152449.3            0   -1152449.3 -0.042419621  0.025230596 0.0019387078 
   16527   -1152449.3            0   -1152449.3 -2.4751635e-05 1.4373687e-05 1.6298755e-06 
Loop time of 3.56369 on 52 procs for 164 steps with 288751 atoms

99.9% CPU use with 52 MPI tasks x 1 OpenMP threads

Minimization stats:
  Stopping criterion = linesearch alpha is zero
  Energy initial, next-to-last, final = 
     -1152449.33224475  -1152449.33327354  -1152449.33327354
  Force two-norm initial, final = 0.14053073 0.00025251071
  Force max component initial, final = 0.058464303 4.7549028e-05
  Final line search alpha, max atom move = 0.125 5.9436285e-06
  Iterations, force evaluations = 164 333

MPI task timing breakdown:
Section |  min time  |  avg time  |  max time  |%varavg| %total
---------------------------------------------------------------
Pair    | 0.93606    | 2.6167     | 3.4234     |  44.6 | 73.43
Neigh   | 0          | 0          | 0          |   0.0 |  0.00
Comm    | 0.041239   | 0.56986    | 1.8164     |  69.1 | 15.99
Output  | 0          | 0          | 0          |   0.0 |  0.00
Modify  | 5.5898e-05 | 0.0055292  | 0.011677   |   3.5 |  0.16
Other   |            | 0.3716     |            |       | 10.43

Nlocal:        5552.90 ave        7900 max           0 min
Histogram: 4 2 2 0 2 6 4 0 14 18
Nghost:        6213.58 ave        8769 max         412 min
Histogram: 4 0 4 0 8 0 4 5 7 20
Neighs:       158427.0 ave      230212 max           0 min
Histogram: 4 2 2 0 5 3 4 4 12 16

Total # of neighbors = 8238191
Ave neighs/atom = 28.530433
Neighbor list builds = 0
Dangerous builds = 0
The dot product: 8.2391493621005e-08
Setting atom values ...
  1 settings made for x
  1 settings made for y
  1 settings made for z
Setting up cg style minimization ...
  Unit style    : metal
  Current step  : 16527
Per MPI rank memory allocation (min/avg/max) = 5.465 | 6.344 | 6.728 Mbytes
Step PotEng KinEng TotEng v_fx v_fy v_fz 
   16527   -1152449.3            0   -1152449.3 -0.043168049  0.025983496 0.0014041643 
   16729   -1152449.3            0   -1152449.3 8.3784564e-06 -3.7142048e-06 -2.1766669e-06 
Loop time of 4.36646 on 52 procs for 202 steps with 288751 atoms

99.9% CPU use with 52 MPI tasks x 1 OpenMP threads

Minimization stats:
  Stopping criterion = linesearch alpha is zero
  Energy initial, next-to-last, final = 
     -1152449.33884125   -1152449.3398852   -1152449.3398852
  Force two-norm initial, final = 0.14148918 7.3375312e-05
  Force max component initial, final = 0.060194905 1.5836824e-05
  Final line search alpha, max atom move = 0.5 7.9184122e-06
  Iterations, force evaluations = 202 405

MPI task timing breakdown:
Section |  min time  |  avg time  |  max time  |%varavg| %total
---------------------------------------------------------------
Pair    | 1.1434     | 3.1872     | 4.1707     |  49.1 | 72.99
Neigh   | 0          | 0          | 0          |   0.0 |  0.00
Comm    | 0.051664   | 0.69822    | 2.2098     |  75.8 | 15.99
Output  | 0          | 0          | 0          |   0.0 |  0.00
Modify  | 6.8003e-05 | 0.0067349  | 0.014213   |   3.8 |  0.15
Other   |            | 0.4743     |            |       | 10.86

Nlocal:        5552.90 ave        7904 max           0 min
Histogram: 4 2 2 0 2 6 4 0 15 17
Nghost:        6213.58 ave        8769 max         412 min
Histogram: 4 0 4 0 8 0 4 5 7 20
Neighs:       158427.0 ave      230319 max           0 min
Histogram: 4 2 2 0 5 3 4 4 12 16

Total # of neighbors = 8238192
Ave neighs/atom = 28.530436
Neighbor list builds = 0
Dangerous builds = 0
The dot product: -2.81564133460267e-08
Setting atom values ...
  1 settings made for x
  1 settings made for y
  1 settings made for z
Setting up cg style minimization ...
  Unit style    : metal
  Current step  : 16729
Per MPI rank memory allocation (min/avg/max) = 5.465 | 6.344 | 6.728 Mbytes
Step PotEng KinEng TotEng v_fx v_fy v_fz 
   16729   -1152449.3            0   -1152449.3 -0.042970597  0.026502466 0.00035045822 
   16918   -1152449.3            0   -1152449.3 2.4809614e-06 -3.7569987e-06 3.1725025e-06 
Loop time of 4.08289 on 52 procs for 189 steps with 288751 atoms

99.9% CPU use with 52 MPI tasks x 1 OpenMP threads

Minimization stats:
  Stopping criterion = linesearch alpha is zero
  Energy initial, next-to-last, final = 
     -1152449.34395891  -1152449.34501475  -1152449.34501475
  Force two-norm initial, final = 0.14199339 9.6268253e-05
  Force max component initial, final = 0.061821756 5.5110759e-06
  Final line search alpha, max atom move = 0.5 2.7555380e-06
  Iterations, force evaluations = 189 379

MPI task timing breakdown:
Section |  min time  |  avg time  |  max time  |%varavg| %total
---------------------------------------------------------------
Pair    | 1.0681     | 2.9819     | 3.9069     |  47.6 | 73.03
Neigh   | 0          | 0          | 0          |   0.0 |  0.00
Comm    | 0.047083   | 0.65233    | 2.0697     |  73.3 | 15.98
Output  | 0          | 0          | 0          |   0.0 |  0.00
Modify  | 6.4842e-05 | 0.0062908  | 0.0133     |   3.7 |  0.15
Other   |            | 0.4424     |            |       | 10.84

Nlocal:        5552.90 ave        7908 max           0 min
Histogram: 4 2 2 0 2 6 4 0 15 17
Nghost:        6213.54 ave        8769 max         412 min
Histogram: 4 0 4 0 8 0 4 5 7 20
Neighs:       158427.0 ave      230437 max           0 min
Histogram: 4 2 2 0 5 3 4 4 12 16

Total # of neighbors = 8238191
Ave neighs/atom = 28.530433
Neighbor list builds = 0
Dangerous builds = 0
The dot product: -1.14484889531024e-08
Setting atom values ...
  1 settings made for x
  1 settings made for y
  1 settings made for z
Setting up cg style minimization ...
  Unit style    : metal
  Current step  : 16918
Per MPI rank memory allocation (min/avg/max) = 5.465 | 6.344 | 6.728 Mbytes
Step PotEng KinEng TotEng v_fx v_fy v_fz 
   16918   -1152449.3            0   -1152449.3 -0.042079694  0.026859399 -0.0010896661 
   17000   -1152449.3            0   -1152449.3 -0.000122227 -0.0001227496 0.00028487746 
   17095   -1152449.3            0   -1152449.3 -1.5832797e-05 9.2771168e-06 7.7928239e-07 
Loop time of 3.81657 on 52 procs for 177 steps with 288751 atoms

99.9% CPU use with 52 MPI tasks x 1 OpenMP threads

Minimization stats:
  Stopping criterion = linesearch alpha is zero
  Energy initial, next-to-last, final = 
     -1152449.34760165  -1152449.34866843  -1152449.34866843
  Force two-norm initial, final = 0.14227166 0.00014371272
  Force max component initial, final = 0.063418053 1.7511576e-05
  Final line search alpha, max atom move = 0.5 8.7557880e-06
  Iterations, force evaluations = 177 355

MPI task timing breakdown:
Section |  min time  |  avg time  |  max time  |%varavg| %total
---------------------------------------------------------------
Pair    | 1.002      | 2.7934     | 3.662      |  46.0 | 73.19
Neigh   | 0          | 0          | 0          |   0.0 |  0.00
Comm    | 0.04438    | 0.61039    | 1.939      |  71.1 | 15.99
Output  | 0.00011731 | 0.0001221  | 0.00032573 |   0.0 |  0.00
Modify  | 6.2659e-05 | 0.0059027  | 0.01247    |   3.6 |  0.15
Other   |            | 0.4067     |            |       | 10.66

Nlocal:        5552.90 ave        7910 max           0 min
Histogram: 4 2 2 0 2 6 4 0 15 17
Nghost:        6213.54 ave        8769 max         412 min
Histogram: 4 0 4 0 8 0 4 5 7 20
Neighs:       158427.0 ave      230516 max           0 min
Histogram: 4 2 2 0 5 3 4 4 12 16

Total # of neighbors = 8238188
Ave neighs/atom = 28.530422
Neighbor list builds = 0
Dangerous builds = 0
The dot product: 5.68885785947789e-08
Setting atom values ...
  1 settings made for x
  1 settings made for y
  1 settings made for z
Setting up cg style minimization ...
  Unit style    : metal
  Current step  : 17095
Per MPI rank memory allocation (min/avg/max) = 5.465 | 6.344 | 6.728 Mbytes
Step PotEng KinEng TotEng v_fx v_fy v_fz 
   17095   -1152449.3            0   -1152449.3 -0.040733175  0.027112818 -0.0027808453 
   17263   -1152449.4            0   -1152449.4 2.5210199e-05 -2.2535741e-05 9.9841323e-06 
Loop time of 3.64437 on 52 procs for 168 steps with 288751 atoms

99.9% CPU use with 52 MPI tasks x 1 OpenMP threads

Minimization stats:
  Stopping criterion = linesearch alpha is zero
  Energy initial, next-to-last, final = 
     -1152449.34977514  -1152449.35085138  -1152449.35085138
  Force two-norm initial, final = 0.14242394 0.00020404185
  Force max component initial, final = 0.064985219 2.8174820e-05
  Final line search alpha, max atom move = 0.25 7.0437049e-06
  Iterations, force evaluations = 168 339

MPI task timing breakdown:
Section |  min time  |  avg time  |  max time  |%varavg| %total
---------------------------------------------------------------
Pair    | 0.95663    | 2.667      | 3.4963     |  45.0 | 73.18
Neigh   | 0          | 0          | 0          |   0.0 |  0.00
Comm    | 0.042172   | 0.58179    | 1.8486     |  69.5 | 15.96
Output  | 0          | 0          | 0          |   0.0 |  0.00
Modify  | 5.5428e-05 | 0.0056412  | 0.01189    |   3.5 |  0.15
Other   |            | 0.3899     |            |       | 10.70

Nlocal:        5552.90 ave        7913 max           0 min
Histogram: 4 2 2 0 2 6 4 1 14 17
Nghost:        6213.54 ave        8769 max         412 min
Histogram: 4 0 4 0 8 0 4 5 7 20
Neighs:       158427.0 ave      230622 max           0 min
Histogram: 4 2 2 0 5 3 4 4 12 16

Total # of neighbors = 8238188
Ave neighs/atom = 28.530422
Neighbor list builds = 0
Dangerous builds = 0
The dot product: -9.86757388590823e-08
Setting atom values ...
  1 settings made for x
  1 settings made for y
  1 settings made for z
Setting up cg style minimization ...
  Unit style    : metal
  Current step  : 17263
Per MPI rank memory allocation (min/avg/max) = 5.465 | 6.344 | 6.728 Mbytes
Step PotEng KinEng TotEng v_fx v_fy v_fz 
   17263   -1152449.4            0   -1152449.4 -0.039303502  0.027272705 -0.0044019892 
   17416   -1152449.4            0   -1152449.4 -3.1429618e-05 2.8018007e-05 -1.2441138e-05 
Loop time of 3.29061 on 52 procs for 153 steps with 288751 atoms

99.9% CPU use with 52 MPI tasks x 1 OpenMP threads

Minimization stats:
  Stopping criterion = energy tolerance
  Energy initial, next-to-last, final = 
     -1152449.35049106  -1152449.35157333  -1152449.35157333
  Force two-norm initial, final = 0.142441 0.00028536031
  Force max component initial, final = 0.066466197 4.0811018e-05
  Final line search alpha, max atom move = 1.0000000 4.0811018e-05
  Iterations, force evaluations = 153 306

MPI task timing breakdown:
Section |  min time  |  avg time  |  max time  |%varavg| %total
---------------------------------------------------------------
Pair    | 0.86285    | 2.4082     | 3.158      |  42.8 | 73.18
Neigh   | 0          | 0          | 0          |   0.0 |  0.00
Comm    | 0.038359   | 0.5267     | 1.673      |  65.9 | 16.01
Output  | 0          | 0          | 0          |   0.0 |  0.00
Modify  | 5.3836e-05 | 0.0050857  | 0.010758   |   3.3 |  0.15
Other   |            | 0.3506     |            |       | 10.66

Nlocal:        5552.90 ave        7916 max           0 min
Histogram: 4 2 2 0 2 6 4 1 14 17
Nghost:        6213.54 ave        8769 max         412 min
Histogram: 4 0 4 0 8 0 4 5 7 20
Neighs:       158427.0 ave      230754 max           0 min
Histogram: 4 2 2 0 5 3 4 4 12 16

Total # of neighbors = 8238190
Ave neighs/atom = 28.530429
Neighbor list builds = 0
Dangerous builds = 0
The dot product: 1.21302455620769e-07
Setting atom values ...
  1 settings made for x
  1 settings made for y
  1 settings made for z
Setting up cg style minimization ...
  Unit style    : metal
  Current step  : 17416
Per MPI rank memory allocation (min/avg/max) = 5.465 | 6.344 | 6.728 Mbytes
Step PotEng KinEng TotEng v_fx v_fy v_fz 
   17416   -1152449.3            0   -1152449.3 -0.038602433  0.027599879 -0.0056107839 
   17609   -1152449.4            0   -1152449.4 4.3432153e-06 4.6517725e-06 -1.0522932e-05 
Loop time of 4.16751 on 52 procs for 193 steps with 288751 atoms

99.9% CPU use with 52 MPI tasks x 1 OpenMP threads

Minimization stats:
  Stopping criterion = linesearch alpha is zero
  Energy initial, next-to-last, final = 
     -1152449.34977833  -1152449.35086504  -1152449.35086504
  Force two-norm initial, final = 0.14253028 9.1909854e-05
  Force max component initial, final = 0.067917443 1.6267237e-05
  Final line search alpha, max atom move = 0.5 8.1336187e-06
  Iterations, force evaluations = 193 387

MPI task timing breakdown:
Section |  min time  |  avg time  |  max time  |%varavg| %total
---------------------------------------------------------------
Pair    | 1.0926     | 3.0467     | 4.0014     |  48.1 | 73.11
Neigh   | 0          | 0          | 0          |   0.0 |  0.00
Comm    | 0.048438   | 0.66612    | 2.1102     |  74.0 | 15.98
Output  | 0          | 0          | 0          |   0.0 |  0.00
Modify  | 6.59e-05   | 0.0064342  | 0.013638   |   3.7 |  0.15
Other   |            | 0.4483     |            |       | 10.76

Nlocal:        5552.90 ave        7917 max           0 min
Histogram: 4 2 2 0 2 6 4 1 14 17
Nghost:        6213.54 ave        8769 max         412 min
Histogram: 4 0 4 0 8 0 4 5 7 20
Neighs:       158427.0 ave      230815 max           0 min
Histogram: 4 2 2 0 5 3 4 4 12 16

Total # of neighbors = 8238196
Ave neighs/atom = 28.530450
Neighbor list builds = 0
Dangerous builds = 0
The dot product: -5.02970019679424e-09
Setting atom values ...
  1 settings made for x
  1 settings made for y
  1 settings made for z
Setting up cg style minimization ...
  Unit style    : metal
  Current step  : 17609
Per MPI rank memory allocation (min/avg/max) = 5.465 | 6.344 | 6.728 Mbytes
Step PotEng KinEng TotEng v_fx v_fy v_fz 
   17609   -1152449.3            0   -1152449.3 -0.039235255  0.028073848 -0.0058543929 
   17814   -1152449.3            0   -1152449.3 -4.2992293e-06 5.5431362e-07 2.9878087e-06 
Loop time of 4.40629 on 52 procs for 205 steps with 288751 atoms

99.9% CPU use with 52 MPI tasks x 1 OpenMP threads

Minimization stats:
  Stopping criterion = energy tolerance
  Energy initial, next-to-last, final = 
     -1152449.34771645  -1152449.34880855  -1152449.34880855
  Force two-norm initial, final = 0.14276035 5.9850079e-05
  Force max component initial, final = 0.069327928 1.2881451e-05
  Final line search alpha, max atom move = 1.0000000 1.2881451e-05
  Iterations, force evaluations = 205 410

MPI task timing breakdown:
Section |  min time  |  avg time  |  max time  |%varavg| %total
---------------------------------------------------------------
Pair    | 1.1581     | 3.2263     | 4.2302     |  49.4 | 73.22
Neigh   | 0          | 0          | 0          |   0.0 |  0.00
Comm    | 0.051179   | 0.70425    | 2.2371     |  76.4 | 15.98
Output  | 0          | 0          | 0          |   0.0 |  0.00
Modify  | 7.1116e-05 | 0.0067988  | 0.014406   |   3.8 |  0.15
Other   |            | 0.4689     |            |       | 10.64

Nlocal:        5552.90 ave        7917 max           0 min
Histogram: 4 2 2 0 2 6 4 1 14 17
Nghost:        6213.54 ave        8769 max         412 min
Histogram: 4 0 4 0 8 0 4 5 7 20
Neighs:       158427.0 ave      230815 max           0 min
Histogram: 4 2 2 0 5 3 4 4 12 16

Total # of neighbors = 8238193
Ave neighs/atom = 28.530440
Neighbor list builds = 0
Dangerous builds = 0
The dot product: 1.34880481327985e-08
Setting atom values ...
  1 settings made for x
  1 settings made for y
  1 settings made for z
Setting up cg style minimization ...
  Unit style    : metal
  Current step  : 17814
Per MPI rank memory allocation (min/avg/max) = 5.465 | 6.344 | 6.728 Mbytes
Step PotEng KinEng TotEng v_fx v_fy v_fz 
   17814   -1152449.3            0   -1152449.3 -0.042346815  0.028948351 -0.0045131123 
   18000   -1152449.3            0   -1152449.3 1.3247655e-06 7.6345108e-06 -1.2159767e-05 
   18006   -1152449.3            0   -1152449.3 4.1408595e-06 1.7950909e-06 -6.2215453e-06 
Loop time of 4.1355 on 52 procs for 192 steps with 288751 atoms

99.9% CPU use with 52 MPI tasks x 1 OpenMP threads

Minimization stats:
  Stopping criterion = energy tolerance
  Energy initial, next-to-last, final = 
     -1152449.34448336  -1152449.34561333  -1152449.34561333
  Force two-norm initial, final = 0.14405693 6.4289651e-05
  Force max component initial, final = 0.07065022 1.0012527e-05
  Final line search alpha, max atom move = 1.0000000 1.0012527e-05
  Iterations, force evaluations = 192 384

MPI task timing breakdown:
Section |  min time  |  avg time  |  max time  |%varavg| %total
---------------------------------------------------------------
Pair    | 1.0824     | 3.0199     | 3.9588     |  47.8 | 73.02
Neigh   | 0          | 0          | 0          |   0.0 |  0.00
Comm    | 0.047559   | 0.65902    | 2.0949     |  74.0 | 15.94
Output  | 0.00013926 | 0.00014462 | 0.000349   |   0.0 |  0.00
Modify  | 6.5804e-05 | 0.0063809  | 0.013477   |   3.7 |  0.15
Other   |            | 0.45       |            |       | 10.88

Nlocal:        5552.90 ave        7918 max           0 min
Histogram: 4 2 2 0 2 6 4 1 14 17
Nghost:        6213.54 ave        8769 max         412 min
Histogram: 4 0 4 0 8 0 4 5 7 20
Neighs:       158427.0 ave      230851 max           0 min
Histogram: 4 2 2 0 5 3 4 4 12 16

Total # of neighbors = 8238193
Ave neighs/atom = 28.530440
Neighbor list builds = 0
Dangerous builds = 0
The dot product: -1.51331878958952e-08
Setting atom values ...
  1 settings made for x
  1 settings made for y
  1 settings made for z
Setting up cg style minimization ...
  Unit style    : metal
  Current step  : 18006
Per MPI rank memory allocation (min/avg/max) = 5.465 | 6.344 | 6.728 Mbytes
Step PotEng KinEng TotEng v_fx v_fy v_fz 
   18006   -1152449.3            0   -1152449.3  -0.04956044  0.030468521 -0.00057920847 
   18269   -1152449.3            0   -1152449.3 -1.7519448e-05 1.9402526e-06 1.2524517e-05 
Loop time of 5.67 on 52 procs for 263 steps with 288751 atoms

99.9% CPU use with 52 MPI tasks x 1 OpenMP threads

Minimization stats:
  Stopping criterion = linesearch alpha is zero
  Energy initial, next-to-last, final = 
     -1152449.34053428  -1152449.34898329  -1152449.34898329
  Force two-norm initial, final = 0.14951202 0.00010673158
  Force max component initial, final = 0.071930095 1.7624624e-05
  Final line search alpha, max atom move = 0.5 8.8123120e-06
  Iterations, force evaluations = 263 527

MPI task timing breakdown:
Section |  min time  |  avg time  |  max time  |%varavg| %total
---------------------------------------------------------------
Pair    | 1.4924     | 4.1466     | 5.4377     |  56.0 | 73.13
Neigh   | 1.8384e-05 | 0.0057197  | 0.0084094  |   3.2 |  0.10
Comm    | 0.066987   | 0.9054     | 2.8677     |  86.5 | 15.97
Output  | 0          | 0          | 0          |   0.0 |  0.00
Modify  | 8.2751e-05 | 0.0087348  | 0.018399   |   4.3 |  0.15
Other   |            | 0.6036     |            |       | 10.64

Nlocal:        5552.90 ave        7908 max           0 min
Histogram: 4 2 2 0 2 6 4 0 15 17
Nghost:        6213.54 ave        8769 max         412 min
Histogram: 4 0 4 0 8 0 4 5 7 20
Neighs:       158427.0 ave      230521 max           0 min
Histogram: 4 2 2 0 5 3 4 4 12 16

Total # of neighbors = 8238201
Ave neighs/atom = 28.530467
Neighbor list builds = 1
Dangerous builds = 0
The dot product: 1.63136504740604e-06
