LAMMPS (29 Oct 2020)
OMP_NUM_THREADS environment is not set. Defaulting to 1 thread. (../comm.cpp:94)
  using 1 OpenMP thread(s) per MPI task
OMP_NUM_THREADS environment is not set. Defaulting to 1 thread. (../comm.cpp:94)
  using 1 OpenMP thread(s) per MPI task
Reading data file ...
  orthogonal box = (-122.39241 -121.13707 -37.090501) to (122.39241 121.13707 37.090501)
  13 by 4 by 2 MPI processor grid
  reading atoms ...
  288751 atoms
  read_data CPU = 0.447 seconds
199981 atoms in group inner
88770 atoms in group outer
1 atoms in group carbon
Neighbor list info ...
  update every 1 steps, delay 0 steps, check yes
  max neighbors/atom: 2000, page size: 100000
  master list distance cutoff = 5.6
  ghost atom cutoff = 5.6
  binsize = 2.8, bins = 88 87 27
  1 neighbor lists, perpetual/occasional/extra = 1 0 0
  (1) pair eam/alloy, perpetual
      attributes: half, newton on
      pair build: half/bin/atomonly/newton
      stencil: half/bin/3d/newton
      bin: standard
Setting up cg style minimization ...
  Unit style    : metal
  Current step  : 0
Per MPI rank memory allocation (min/avg/max) = 5.441 | 5.816 | 6.074 Mbytes
Step v_fx v_fy v_fz PotEng KinEng TotEng 
       0    1.7966363  -0.80201204   -2.6390779   -1152447.8            0   -1152447.8 
     232 3.3418345e-07 -1.8318879e-08 1.2774274e-06   -1152449.5            0   -1152449.5 
Loop time of 2.72325 on 104 procs for 232 steps with 288751 atoms

99.8% CPU use with 104 MPI tasks x 1 OpenMP threads

Minimization stats:
  Stopping criterion = energy tolerance
  Energy initial, next-to-last, final = 
     -1152447.77154593  -1152449.45035287  -1152449.45035287
  Force two-norm initial, final = 10.280498 5.7905280e-06
  Force max component initial, final = 6.2766903 1.2774274e-06
  Final line search alpha, max atom move = 1.0000000 1.2774274e-06
  Iterations, force evaluations = 232 463

MPI task timing breakdown:
Section |  min time  |  avg time  |  max time  |%varavg| %total
---------------------------------------------------------------
Pair    | 0.72431    | 1.952      | 2.5404     |  37.3 | 71.68
Neigh   | 3.1851e-05 | 0.0092134  | 0.013536   |   4.0 |  0.34
Comm    | 0.0431     | 0.44709    | 1.342      |  54.9 | 16.42
Output  | 0          | 0          | 0          |   0.0 |  0.00
Modify  | 2.7039e-05 | 0.002504   | 0.0065845  |   3.1 |  0.09
Other   |            | 0.3124     |            |       | 11.47

Nlocal:        2776.45 ave        3960 max           0 min
Histogram: 8 4 4 0 4 12 8 2 28 34
Nghost:        3879.01 ave        5424 max         232 min
Histogram: 8 0 8 0 16 0 8 8 16 40
Neighs:        79213.5 ave      115432 max           0 min
Histogram: 8 4 4 0 10 6 8 8 24 32

Total # of neighbors = 8238206
Ave neighs/atom = 28.530485
Neighbor list builds = 3
Dangerous builds = 0
Setting atom values ...
  1 settings made for x
  1 settings made for y
  1 settings made for z
Setting up cg style minimization ...
  Unit style    : metal
  Current step  : 232
Per MPI rank memory allocation (min/avg/max) = 5.441 | 5.816 | 6.074 Mbytes
Step PotEng KinEng TotEng v_fx v_fy v_fz 
     232   -1152449.4            0   -1152449.4  0.012429833 -0.016210178 -0.020763587 
     355   -1152449.5            0   -1152449.5 -1.4415717e-05 1.2376851e-05 3.5732627e-06 
Loop time of 1.43646 on 104 procs for 123 steps with 288751 atoms

99.9% CPU use with 104 MPI tasks x 1 OpenMP threads

Minimization stats:
  Stopping criterion = energy tolerance
  Energy initial, next-to-last, final = 
     -1152449.44947028  -1152449.45002038  -1152449.45002038
  Force two-norm initial, final = 0.10821232 0.00016664381
  Force max component initial, final = 0.04762781 2.3558977e-05
  Final line search alpha, max atom move = 1.0000000 2.3558977e-05
  Iterations, force evaluations = 123 246

MPI task timing breakdown:
Section |  min time  |  avg time  |  max time  |%varavg| %total
---------------------------------------------------------------
Pair    | 0.37697    | 1.0398     | 1.3507     |  27.5 | 72.38
Neigh   | 0          | 0          | 0          |   0.0 |  0.00
Comm    | 0.02094    | 0.23674    | 0.71733    |  40.1 | 16.48
Output  | 0          | 0          | 0          |   0.0 |  0.00
Modify  | 1.6633e-05 | 0.0020342  | 0.0043415  |   2.1 |  0.14
Other   |            | 0.1579     |            |       | 10.99

Nlocal:        2776.45 ave        3961 max           0 min
Histogram: 8 4 4 0 6 10 8 2 28 34
Nghost:        3879.01 ave        5424 max         232 min
Histogram: 8 0 8 0 16 0 8 8 16 40
Neighs:        79213.4 ave      115455 max           0 min
Histogram: 8 4 4 0 10 6 8 8 24 32

Total # of neighbors = 8238197
Ave neighs/atom = 28.530454
Neighbor list builds = 0
Dangerous builds = 0
Setting atom values ...
  1 settings made for x
  1 settings made for y
  1 settings made for z
Setting up cg style minimization ...
  Unit style    : metal
  Current step  : 355
Per MPI rank memory allocation (min/avg/max) = 5.441 | 5.816 | 6.074 Mbytes
Step PotEng KinEng TotEng v_fx v_fy v_fz 
     355   -1152449.4            0   -1152449.4  0.021656726 -0.023240353 -0.033898469 
     497   -1152449.4            0   -1152449.4 -3.8825953e-06 8.0329114e-07 -1.0602527e-05 
Loop time of 1.66377 on 104 procs for 142 steps with 288751 atoms

99.9% CPU use with 104 MPI tasks x 1 OpenMP threads

Minimization stats:
  Stopping criterion = energy tolerance
  Energy initial, next-to-last, final = 
     -1152449.44665785  -1152449.44808489  -1152449.44808489
  Force two-norm initial, final = 0.17471991 0.00013787242
  Force max component initial, final = 0.079521168 1.5610210e-05
  Final line search alpha, max atom move = 1.0000000 1.5610210e-05
  Iterations, force evaluations = 142 284

MPI task timing breakdown:
Section |  min time  |  avg time  |  max time  |%varavg| %total
---------------------------------------------------------------
Pair    | 0.43599    | 1.1925     | 1.5591     |  29.4 | 71.67
Neigh   | 0          | 0          | 0          |   0.0 |  0.00
Comm    | 0.027464   | 0.27075    | 0.81238    |  43.3 | 16.27
Output  | 0          | 0          | 0          |   0.0 |  0.00
Modify  | 1.8639e-05 | 0.0023418  | 0.0050048  |   2.3 |  0.14
Other   |            | 0.1982     |            |       | 11.91

Nlocal:        2776.45 ave        3961 max           0 min
Histogram: 8 4 4 0 6 10 8 2 28 34
Nghost:        3879.01 ave        5424 max         232 min
Histogram: 8 0 8 0 16 0 8 8 16 40
Neighs:        79213.5 ave      115455 max           0 min
Histogram: 8 4 4 0 10 6 8 8 24 32

Total # of neighbors = 8238199
Ave neighs/atom = 28.530461
Neighbor list builds = 0
Dangerous builds = 0
The dot product: 2.55605437673607e-08
Setting atom values ...
  1 settings made for x
  1 settings made for y
  1 settings made for z
Setting up cg style minimization ...
  Unit style    : metal
  Current step  : 497
Per MPI rank memory allocation (min/avg/max) = 5.441 | 5.816 | 6.074 Mbytes
Step PotEng KinEng TotEng v_fx v_fy v_fz 
     497   -1152449.4            0   -1152449.4  0.021024453 -0.019038292 -0.031937339 
     634   -1152449.4            0   -1152449.4 -8.3622103e-06 6.7282353e-06 4.596923e-06 
Loop time of 1.60436 on 104 procs for 137 steps with 288751 atoms

99.9% CPU use with 104 MPI tasks x 1 OpenMP threads

Minimization stats:
  Stopping criterion = energy tolerance
  Energy initial, next-to-last, final = 
      -1152449.4432801  -1152449.44466021  -1152449.44466021
  Force two-norm initial, final = 0.17149082 5.2558525e-05
  Force max component initial, final = 0.079156926 8.3622103e-06
  Final line search alpha, max atom move = 1.0000000 8.3622103e-06
  Iterations, force evaluations = 137 274

MPI task timing breakdown:
Section |  min time  |  avg time  |  max time  |%varavg| %total
---------------------------------------------------------------
Pair    | 0.41873    | 1.1582     | 1.5036     |  29.0 | 72.19
Neigh   | 0          | 0          | 0          |   0.0 |  0.00
Comm    | 0.02546    | 0.26193    | 0.78949    |  42.8 | 16.33
Output  | 0          | 0          | 0          |   0.0 |  0.00
Modify  | 1.8408e-05 | 0.0022627  | 0.0048559  |   2.3 |  0.14
Other   |            | 0.182      |            |       | 11.34

Nlocal:        2776.45 ave        3961 max           0 min
Histogram: 8 4 4 0 6 10 8 2 28 34
Nghost:        3879.01 ave        5424 max         232 min
Histogram: 8 0 8 0 16 0 8 8 16 40
Neighs:        79213.5 ave      115455 max           0 min
Histogram: 8 4 4 0 10 6 8 8 24 32

Total # of neighbors = 8238199
Ave neighs/atom = 28.530461
Neighbor list builds = 0
Dangerous builds = 0
The dot product: -9.92521181980231e-09
Setting atom values ...
  1 settings made for x
  1 settings made for y
  1 settings made for z
Setting up cg style minimization ...
  Unit style    : metal
  Current step  : 634
Per MPI rank memory allocation (min/avg/max) = 5.441 | 5.816 | 6.074 Mbytes
Step PotEng KinEng TotEng v_fx v_fy v_fz 
     634   -1152449.4            0   -1152449.4   0.01960569 -0.015582359 -0.026196857 
     768   -1152449.4            0   -1152449.4 1.8254667e-06 -2.5926227e-06 -5.037614e-05 
Loop time of 1.56042 on 104 procs for 134 steps with 288751 atoms

99.9% CPU use with 104 MPI tasks x 1 OpenMP threads

Minimization stats:
  Stopping criterion = energy tolerance
  Energy initial, next-to-last, final = 
     -1152449.43854613  -1152449.43990958  -1152449.43990958
  Force two-norm initial, final = 0.16882748 0.00014859786
  Force max component initial, final = 0.07724904 5.0376140e-05
  Final line search alpha, max atom move = 1.0000000 5.0376140e-05
  Iterations, force evaluations = 134 268

MPI task timing breakdown:
Section |  min time  |  avg time  |  max time  |%varavg| %total
---------------------------------------------------------------
Pair    | 0.40967    | 1.1226     | 1.4633     |  28.5 | 71.94
Neigh   | 0          | 0          | 0          |   0.0 |  0.00
Comm    | 0.02261    | 0.25537    | 0.76667    |  41.7 | 16.37
Output  | 0          | 0          | 0          |   0.0 |  0.00
Modify  | 1.6229e-05 | 0.0022101  | 0.0047439  |   2.2 |  0.14
Other   |            | 0.1803     |            |       | 11.55

Nlocal:        2776.45 ave        3961 max           0 min
Histogram: 8 4 4 0 6 10 8 2 28 34
Nghost:        3879.01 ave        5424 max         232 min
Histogram: 8 0 8 0 16 0 8 8 16 40
Neighs:        79213.5 ave      115455 max           0 min
Histogram: 8 4 4 0 10 6 8 8 24 32

Total # of neighbors = 8238201
Ave neighs/atom = 28.530467
Neighbor list builds = 0
Dangerous builds = 0
The dot product: 1.67169534676208e-07
Setting atom values ...
  1 settings made for x
  1 settings made for y
  1 settings made for z
Setting up cg style minimization ...
  Unit style    : metal
  Current step  : 768
Per MPI rank memory allocation (min/avg/max) = 5.441 | 5.816 | 6.074 Mbytes
Step PotEng KinEng TotEng v_fx v_fy v_fz 
     768   -1152449.4            0   -1152449.4  0.017880755 -0.013487537 -0.019490622 
     909   -1152449.4            0   -1152449.4 8.0424419e-06 -8.2171454e-06 5.1293251e-05 
Loop time of 1.63478 on 104 procs for 141 steps with 288751 atoms

99.9% CPU use with 104 MPI tasks x 1 OpenMP threads

Minimization stats:
  Stopping criterion = energy tolerance
  Energy initial, next-to-last, final = 
     -1152449.43244155  -1152449.43379734  -1152449.43379734
  Force two-norm initial, final = 0.16728617 0.00021126215
  Force max component initial, final = 0.074600673 5.1293251e-05
  Final line search alpha, max atom move = 1.0000000 5.1293251e-05
  Iterations, force evaluations = 141 282

MPI task timing breakdown:
Section |  min time  |  avg time  |  max time  |%varavg| %total
---------------------------------------------------------------
Pair    | 0.431      | 1.1888     | 1.5412     |  29.4 | 72.72
Neigh   | 0          | 0          | 0          |   0.0 |  0.00
Comm    | 0.024476   | 0.26728    | 0.8149     |  43.5 | 16.35
Output  | 0          | 0          | 0          |   0.0 |  0.00
Modify  | 1.8584e-05 | 0.0023271  | 0.0050263  |   2.3 |  0.14
Other   |            | 0.1764     |            |       | 10.79

Nlocal:        2776.45 ave        3961 max           0 min
Histogram: 8 4 4 0 6 10 8 2 28 34
Nghost:        3879.01 ave        5424 max         232 min
Histogram: 8 0 8 0 16 0 8 8 16 40
Neighs:        79213.5 ave      115455 max           0 min
Histogram: 8 4 4 0 10 6 8 8 24 32

Total # of neighbors = 8238202
Ave neighs/atom = 28.530471
Neighbor list builds = 0
Dangerous builds = 0
The dot product: -1.78731600833319e-07
Setting atom values ...
  1 settings made for x
  1 settings made for y
  1 settings made for z
Setting up cg style minimization ...
  Unit style    : metal
  Current step  : 909
Per MPI rank memory allocation (min/avg/max) = 5.441 | 5.816 | 6.074 Mbytes
Step PotEng KinEng TotEng v_fx v_fy v_fz 
     909   -1152449.4            0   -1152449.4   0.01617109 -0.012379932 -0.013360549 
    1000   -1152449.4            0   -1152449.4 2.0815142e-05 -2.0022691e-05 3.453728e-05 
    1084   -1152449.4            0   -1152449.4 -2.1231675e-05 1.6350729e-05 1.6318702e-05 
Loop time of 2.01845 on 104 procs for 175 steps with 288751 atoms

99.9% CPU use with 104 MPI tasks x 1 OpenMP threads

Minimization stats:
  Stopping criterion = energy tolerance
  Energy initial, next-to-last, final = 
     -1152449.42492672  -1152449.42628346  -1152449.42628346
  Force two-norm initial, final = 0.166752 0.00014893047
  Force max component initial, final = 0.07441804 2.6898764e-05
  Final line search alpha, max atom move = 1.0000000 2.6898764e-05
  Iterations, force evaluations = 175 350

MPI task timing breakdown:
Section |  min time  |  avg time  |  max time  |%varavg| %total
---------------------------------------------------------------
Pair    | 0.53419    | 1.4655     | 1.907      |  32.6 | 72.60
Neigh   | 0          | 0          | 0          |   0.0 |  0.00
Comm    | 0.031957   | 0.32812    | 0.98442    |  48.4 | 16.26
Output  | 0.00016366 | 0.00017253 | 0.00028761 |   0.0 |  0.01
Modify  | 2.0995e-05 | 0.0028884  | 0.0062023  |   2.5 |  0.14
Other   |            | 0.2218     |            |       | 10.99

Nlocal:        2776.45 ave        3961 max           0 min
Histogram: 8 4 4 0 6 10 8 2 28 34
Nghost:        3879.01 ave        5424 max         232 min
Histogram: 8 0 8 0 16 0 8 8 16 40
Neighs:        79213.5 ave      115455 max           0 min
Histogram: 8 4 4 0 10 6 8 8 24 32

Total # of neighbors = 8238201
Ave neighs/atom = 28.530467
Neighbor list builds = 0
Dangerous builds = 0
The dot product: 2.86436126614404e-08
Setting atom values ...
  1 settings made for x
  1 settings made for y
  1 settings made for z
Setting up cg style minimization ...
  Unit style    : metal
  Current step  : 1084
Per MPI rank memory allocation (min/avg/max) = 5.441 | 5.816 | 6.074 Mbytes
Step PotEng KinEng TotEng v_fx v_fy v_fz 
    1084   -1152449.4            0   -1152449.4  0.014754047 -0.011895082  -0.00865805 
    1222   -1152449.4            0   -1152449.4 -2.7188023e-05 2.0659583e-05 2.7316865e-05 
Loop time of 1.59445 on 104 procs for 138 steps with 288751 atoms

99.9% CPU use with 104 MPI tasks x 1 OpenMP threads

Minimization stats:
  Stopping criterion = energy tolerance
  Energy initial, next-to-last, final = 
     -1152449.41597292  -1152449.41733641  -1152449.41733641
  Force two-norm initial, final = 0.16677758 0.00018056069
  Force max component initial, final = 0.074751268 3.1339702e-05
  Final line search alpha, max atom move = 1.0000000 3.1339702e-05
  Iterations, force evaluations = 138 276

MPI task timing breakdown:
Section |  min time  |  avg time  |  max time  |%varavg| %total
---------------------------------------------------------------
Pair    | 0.42029    | 1.1614     | 1.5072     |  29.0 | 72.84
Neigh   | 0          | 0          | 0          |   0.0 |  0.00
Comm    | 0.022778   | 0.2629     | 0.80327    |  42.8 | 16.49
Output  | 0          | 0          | 0          |   0.0 |  0.00
Modify  | 1.8278e-05 | 0.0022745  | 0.0048602  |   2.2 |  0.14
Other   |            | 0.1679     |            |       | 10.53

Nlocal:        2776.45 ave        3960 max           0 min
Histogram: 8 4 4 0 4 12 8 2 28 34
Nghost:        3879.01 ave        5424 max         232 min
Histogram: 8 0 8 0 16 0 8 8 16 40
Neighs:        79213.5 ave      115424 max           0 min
Histogram: 8 4 4 0 10 6 8 8 24 32

Total # of neighbors = 8238203
Ave neighs/atom = 28.530474
Neighbor list builds = 0
Dangerous builds = 0
The dot product: 4.37553933539929e-08
Setting atom values ...
  1 settings made for x
  1 settings made for y
  1 settings made for z
Setting up cg style minimization ...
  Unit style    : metal
  Current step  : 1222
Per MPI rank memory allocation (min/avg/max) = 5.441 | 5.816 | 6.074 Mbytes
Step PotEng KinEng TotEng v_fx v_fy v_fz 
    1222   -1152449.4            0   -1152449.4  0.013895305 -0.012001635 -0.004955396 
    1370   -1152449.4            0   -1152449.4 2.8059736e-05 -2.0670647e-05 -3.6463806e-05 
Loop time of 1.71546 on 104 procs for 148 steps with 288751 atoms

99.9% CPU use with 104 MPI tasks x 1 OpenMP threads

Minimization stats:
  Stopping criterion = energy tolerance
  Energy initial, next-to-last, final = 
     -1152449.40555926  -1152449.40693084  -1152449.40693084
  Force two-norm initial, final = 0.16710065 0.00023391227
  Force max component initial, final = 0.074719885 3.6463806e-05
  Final line search alpha, max atom move = 1.0000000 3.6463806e-05
  Iterations, force evaluations = 148 296

MPI task timing breakdown:
Section |  min time  |  avg time  |  max time  |%varavg| %total
---------------------------------------------------------------
Pair    | 0.45013    | 1.2422     | 1.6142     |  30.1 | 72.41
Neigh   | 0          | 0          | 0          |   0.0 |  0.00
Comm    | 0.028691   | 0.27999    | 0.84619    |  44.6 | 16.32
Output  | 0          | 0          | 0          |   0.0 |  0.00
Modify  | 1.8753e-05 | 0.0024483  | 0.0052627  |   2.3 |  0.14
Other   |            | 0.1908     |            |       | 11.12

Nlocal:        2776.45 ave        3956 max           0 min
Histogram: 8 4 4 0 4 12 8 2 28 34
Nghost:        3879.01 ave        5424 max         232 min
Histogram: 8 0 8 0 16 0 8 8 16 40
Neighs:        79213.5 ave      115299 max           0 min
Histogram: 8 4 4 0 10 6 8 8 24 32

Total # of neighbors = 8238201
Ave neighs/atom = 28.530467
Neighbor list builds = 0
Dangerous builds = 0
The dot product: -4.02137409752071e-08
Setting atom values ...
  1 settings made for x
  1 settings made for y
  1 settings made for z
Setting up cg style minimization ...
  Unit style    : metal
  Current step  : 1370
Per MPI rank memory allocation (min/avg/max) = 5.441 | 5.816 | 6.074 Mbytes
Step PotEng KinEng TotEng v_fx v_fy v_fz 
    1370   -1152449.4            0   -1152449.4  0.013886529 -0.012805079 -0.0024540293 
    1524   -1152449.4            0   -1152449.4 2.2712994e-05 -2.182755e-05 1.7384075e-06 
Loop time of 1.77869 on 104 procs for 154 steps with 288751 atoms

99.9% CPU use with 104 MPI tasks x 1 OpenMP threads

Minimization stats:
  Stopping criterion = energy tolerance
  Energy initial, next-to-last, final = 
     -1152449.39366506  -1152449.39504361  -1152449.39504361
  Force two-norm initial, final = 0.16757582 0.0002269841
  Force max component initial, final = 0.074504958 3.8426281e-05
  Final line search alpha, max atom move = 1.0000000 3.8426281e-05
  Iterations, force evaluations = 154 308

MPI task timing breakdown:
Section |  min time  |  avg time  |  max time  |%varavg| %total
---------------------------------------------------------------
Pair    | 0.4698     | 1.2969     | 1.6849     |  30.6 | 72.91
Neigh   | 0          | 0          | 0          |   0.0 |  0.00
Comm    | 0.028631   | 0.29209    | 0.8807     |  45.2 | 16.42
Output  | 0          | 0          | 0          |   0.0 |  0.00
Modify  | 2.0162e-05 | 0.0025371  | 0.0054245  |   2.4 |  0.14
Other   |            | 0.1872     |            |       | 10.52

Nlocal:        2776.45 ave        3954 max           0 min
Histogram: 8 4 4 0 4 12 8 2 28 34
Nghost:        3879.01 ave        5424 max         232 min
Histogram: 8 0 8 0 16 0 8 8 16 40
Neighs:        79213.5 ave      115233 max           0 min
Histogram: 8 4 4 0 10 6 8 8 24 32

Total # of neighbors = 8238202
Ave neighs/atom = 28.530471
Neighbor list builds = 0
Dangerous builds = 0
The dot product: -9.29775470020726e-08
Setting atom values ...
  1 settings made for x
  1 settings made for y
  1 settings made for z
Setting up cg style minimization ...
  Unit style    : metal
  Current step  : 1524
Per MPI rank memory allocation (min/avg/max) = 5.441 | 5.816 | 6.074 Mbytes
Step PotEng KinEng TotEng v_fx v_fy v_fz 
    1524   -1152449.4            0   -1152449.4  0.014551723 -0.014168773 -0.00067473989 
    1712   -1152449.4            0   -1152449.4 -5.3509966e-07 -2.5539618e-06 1.8198843e-05 
Loop time of 2.18929 on 104 procs for 188 steps with 288751 atoms

99.9% CPU use with 104 MPI tasks x 1 OpenMP threads

Minimization stats:
  Stopping criterion = energy tolerance
  Energy initial, next-to-last, final = 
     -1152449.38027141  -1152449.38165522  -1152449.38165522
  Force two-norm initial, final = 0.16801303 7.9471799e-05
  Force max component initial, final = 0.074363953 1.8198843e-05
  Final line search alpha, max atom move = 1.0000000 1.8198843e-05
  Iterations, force evaluations = 188 376

MPI task timing breakdown:
Section |  min time  |  avg time  |  max time  |%varavg| %total
---------------------------------------------------------------
Pair    | 0.5738     | 1.5794     | 2.0604     |  33.9 | 72.14
Neigh   | 0          | 0          | 0          |   0.0 |  0.00
Comm    | 0.033194   | 0.35633    | 1.0664     |  49.9 | 16.28
Output  | 0          | 0          | 0          |   0.0 |  0.00
Modify  | 2.4812e-05 | 0.0030916  | 0.0066515  |   2.6 |  0.14
Other   |            | 0.2505     |            |       | 11.44

Nlocal:        2776.45 ave        3952 max           0 min
Histogram: 8 4 4 0 4 12 8 2 28 34
Nghost:        3879.01 ave        5424 max         232 min
Histogram: 8 0 8 0 16 0 8 8 16 40
Neighs:        79213.5 ave      115163 max           0 min
Histogram: 8 4 4 0 10 6 8 8 24 32

Total # of neighbors = 8238203
Ave neighs/atom = 28.530474
Neighbor list builds = 0
Dangerous builds = 0
The dot product: -3.20030117984837e-08
Setting atom values ...
  1 settings made for x
  1 settings made for y
  1 settings made for z
Setting up cg style minimization ...
  Unit style    : metal
  Current step  : 1712
Per MPI rank memory allocation (min/avg/max) = 5.441 | 5.816 | 6.074 Mbytes
Step PotEng KinEng TotEng v_fx v_fy v_fz 
    1712   -1152449.4            0   -1152449.4   0.01557198 -0.015749877 0.00031938074 
    1960   -1152449.4            0   -1152449.4 -3.7565959e-07 1.8935383e-07 1.0336475e-06 
Loop time of 2.88765 on 104 procs for 248 steps with 288751 atoms

99.9% CPU use with 104 MPI tasks x 1 OpenMP threads

Minimization stats:
  Stopping criterion = energy tolerance
  Energy initial, next-to-last, final = 
     -1152449.36536078  -1152449.36674895  -1152449.36674895
  Force two-norm initial, final = 0.16836887 1.0861150e-05
  Force max component initial, final = 0.074322256 2.4554370e-06
  Final line search alpha, max atom move = 1.0000000 2.4554370e-06
  Iterations, force evaluations = 248 496

MPI task timing breakdown:
Section |  min time  |  avg time  |  max time  |%varavg| %total
---------------------------------------------------------------
Pair    | 0.75442    | 2.0857     | 2.7054     |  38.9 | 72.23
Neigh   | 0          | 0          | 0          |   0.0 |  0.00
Comm    | 0.041338   | 0.47395    | 1.4481     |  57.3 | 16.41
Output  | 0          | 0          | 0          |   0.0 |  0.00
Modify  | 3.1728e-05 | 0.0040821  | 0.0087133  |   3.0 |  0.14
Other   |            | 0.3239     |            |       | 11.22

Nlocal:        2776.45 ave        3950 max           0 min
Histogram: 8 4 4 0 4 12 8 2 26 36
Nghost:        3879.01 ave        5424 max         232 min
Histogram: 8 0 8 0 16 0 8 8 16 40
Neighs:        79213.5 ave      115084 max           0 min
Histogram: 8 4 4 0 10 6 8 8 24 32

Total # of neighbors = 8238204
Ave neighs/atom = 28.530478
Neighbor list builds = 0
Dangerous builds = 0
The dot product: -8.1778310654144e-10
Setting atom values ...
  1 settings made for x
  1 settings made for y
  1 settings made for z
Setting up cg style minimization ...
  Unit style    : metal
  Current step  : 1960
Per MPI rank memory allocation (min/avg/max) = 5.441 | 5.816 | 6.074 Mbytes
Step PotEng KinEng TotEng v_fx v_fy v_fz 
    1960   -1152449.3            0   -1152449.3  0.016251948 -0.016829308 0.0005486541 
    2000   -1152449.4            0   -1152449.4 -0.00012428239 6.9905885e-05 0.00029555954 
    2111   -1152449.4            0   -1152449.4 1.733436e-05 -7.4473289e-06 -5.2964576e-05 
Loop time of 1.73567 on 104 procs for 151 steps with 288751 atoms

99.9% CPU use with 104 MPI tasks x 1 OpenMP threads

Minimization stats:
  Stopping criterion = energy tolerance
  Energy initial, next-to-last, final = 
        -1152449.34891  -1152449.35030258  -1152449.35030258
  Force two-norm initial, final = 0.16862327 0.00019711129
  Force max component initial, final = 0.074404443 5.2964576e-05
  Final line search alpha, max atom move = 1.0000000 5.2964576e-05
  Iterations, force evaluations = 151 302

MPI task timing breakdown:
Section |  min time  |  avg time  |  max time  |%varavg| %total
---------------------------------------------------------------
Pair    | 0.45816    | 1.2626     | 1.6449     |  30.3 | 72.74
Neigh   | 0          | 0          | 0          |   0.0 |  0.00
Comm    | 0.026487   | 0.28281    | 0.85198    |  44.9 | 16.29
Output  | 0.00011366 | 0.00011611 | 0.00020303 |   0.0 |  0.01
Modify  | 1.8481e-05 | 0.0024865  | 0.0053525  |   2.4 |  0.14
Other   |            | 0.1877     |            |       | 10.81

Nlocal:        2776.45 ave        3947 max           0 min
Histogram: 8 4 4 0 4 12 8 2 26 36
Nghost:        3879.01 ave        5424 max         232 min
Histogram: 8 0 8 0 16 0 8 8 16 40
Neighs:        79213.5 ave      114995 max           0 min
Histogram: 8 4 4 0 10 6 8 8 24 32

Total # of neighbors = 8238204
Ave neighs/atom = 28.530478
Neighbor list builds = 0
Dangerous builds = 0
The dot product: 6.44289984147487e-08
Setting atom values ...
  1 settings made for x
  1 settings made for y
  1 settings made for z
Setting up cg style minimization ...
  Unit style    : metal
  Current step  : 2111
Per MPI rank memory allocation (min/avg/max) = 5.441 | 5.816 | 6.074 Mbytes
Step PotEng KinEng TotEng v_fx v_fy v_fz 
    2111   -1152449.3            0   -1152449.3  0.016130743 -0.016877123 -0.00014295065 
    2279   -1152449.3            0   -1152449.3 -5.7237241e-06 7.2633635e-06 -6.0175238e-06 
Loop time of 1.9323 on 104 procs for 168 steps with 288751 atoms

99.9% CPU use with 104 MPI tasks x 1 OpenMP threads

Minimization stats:
  Stopping criterion = energy tolerance
  Energy initial, next-to-last, final = 
     -1152449.33089155  -1152449.33230352  -1152449.33230352
  Force two-norm initial, final = 0.16872599 0.00023001296
  Force max component initial, final = 0.074450361 4.6667827e-05
  Final line search alpha, max atom move = 1.0000000 4.6667827e-05
  Iterations, force evaluations = 168 336

MPI task timing breakdown:
Section |  min time  |  avg time  |  max time  |%varavg| %total
---------------------------------------------------------------
Pair    | 0.51118    | 1.4127     | 1.8257     |  32.0 | 73.11
Neigh   | 0          | 0          | 0          |   0.0 |  0.00
Comm    | 0.028773   | 0.31485    | 0.95735    |  47.8 | 16.29
Output  | 0          | 0          | 0          |   0.0 |  0.00
Modify  | 2.0227e-05 | 0.0027694  | 0.0060082  |   2.5 |  0.14
Other   |            | 0.202      |            |       | 10.46

Nlocal:        2776.45 ave        3943 max           0 min
Histogram: 8 4 4 0 4 12 8 2 26 36
Nghost:        3879.05 ave        5424 max         232 min
Histogram: 8 0 8 0 16 0 8 8 16 40
Neighs:        79213.5 ave      114879 max           0 min
Histogram: 8 4 4 0 10 6 8 8 22 34

Total # of neighbors = 8238202
Ave neighs/atom = 28.530471
Neighbor list builds = 0
Dangerous builds = 0
The dot product: 4.47858215649282e-08
Setting atom values ...
  1 settings made for x
  1 settings made for y
  1 settings made for z
Setting up cg style minimization ...
  Unit style    : metal
  Current step  : 2279
Per MPI rank memory allocation (min/avg/max) = 5.441 | 5.816 | 6.074 Mbytes
Step PotEng KinEng TotEng v_fx v_fy v_fz 
    2279   -1152449.3            0   -1152449.3  0.013818725 -0.013829667 -0.0043012288 
    2458   -1152449.3            0   -1152449.3 1.6090389e-05 -4.6758603e-06 -5.4571985e-05 
Loop time of 2.0513 on 104 procs for 179 steps with 288751 atoms

99.9% CPU use with 104 MPI tasks x 1 OpenMP threads

Minimization stats:
  Stopping criterion = energy tolerance
  Energy initial, next-to-last, final = 
     -1152449.31130346  -1152449.31287201  -1152449.31287201
  Force two-norm initial, final = 0.16865556 0.00019991173
  Force max component initial, final = 0.074366074 5.4571985e-05
  Final line search alpha, max atom move = 1.0000000 5.4571985e-05
  Iterations, force evaluations = 179 358

MPI task timing breakdown:
Section |  min time  |  avg time  |  max time  |%varavg| %total
---------------------------------------------------------------
Pair    | 0.54576    | 1.4991     | 1.9442     |  33.0 | 73.08
Neigh   | 0          | 0          | 0          |   0.0 |  0.00
Comm    | 0.031576   | 0.33501    | 1.0184     |  49.2 | 16.33
Output  | 0          | 0          | 0          |   0.0 |  0.00
Modify  | 2.2448e-05 | 0.0029509  | 0.006356   |   2.6 |  0.14
Other   |            | 0.2143     |            |       | 10.45

Nlocal:        2776.45 ave        3936 max           0 min
Histogram: 8 4 4 0 4 12 8 0 28 36
Nghost:        3879.05 ave        5424 max         232 min
Histogram: 8 0 8 0 16 0 8 8 16 40
Neighs:        79213.4 ave      114662 max           0 min
Histogram: 8 4 4 0 8 8 8 8 22 34

Total # of neighbors = 8238196
Ave neighs/atom = 28.530450
Neighbor list builds = 0
Dangerous builds = 0
The dot product: 3.51934497362847e-07
Setting atom values ...
  1 settings made for x
  1 settings made for y
  1 settings made for z
Setting up cg style minimization ...
  Unit style    : metal
  Current step  : 2458
Per MPI rank memory allocation (min/avg/max) = 5.441 | 5.816 | 6.074 Mbytes
Step PotEng KinEng TotEng v_fx v_fy v_fz 
    2458   -1152449.3            0   -1152449.3 -0.0019385488  0.010212785 -0.027645918 
    2657   -1152449.3            0   -1152449.3 -6.143491e-06 2.9034598e-06 1.4329903e-05 
Loop time of 2.29322 on 104 procs for 199 steps with 288751 atoms

99.9% CPU use with 104 MPI tasks x 1 OpenMP threads

Minimization stats:
  Stopping criterion = energy tolerance
  Energy initial, next-to-last, final = 
     -1152449.29039325  -1152449.29271705  -1152449.29271705
  Force two-norm initial, final = 0.17087007 0.0001204548
  Force max component initial, final = 0.07198359 2.2085096e-05
  Final line search alpha, max atom move = 1.0000000 2.2085096e-05
  Iterations, force evaluations = 199 398

MPI task timing breakdown:
Section |  min time  |  avg time  |  max time  |%varavg| %total
---------------------------------------------------------------
Pair    | 0.60708    | 1.6725     | 2.1649     |  34.8 | 72.93
Neigh   | 0          | 0          | 0          |   0.0 |  0.00
Comm    | 0.037063   | 0.37318    | 1.1332     |  51.9 | 16.27
Output  | 0          | 0          | 0          |   0.0 |  0.00
Modify  | 2.438e-05  | 0.0032838  | 0.0071325  |   2.7 |  0.14
Other   |            | 0.2442     |            |       | 10.65

Nlocal:        2776.45 ave        3930 max           0 min
Histogram: 8 4 4 0 4 12 8 0 26 38
Nghost:        3879.05 ave        5424 max         232 min
Histogram: 8 0 8 0 16 0 8 8 16 40
Neighs:        79213.5 ave      114456 max           0 min
Histogram: 8 4 4 0 8 8 8 8 20 36

Total # of neighbors = 8238199
Ave neighs/atom = 28.530461
Neighbor list builds = 0
Dangerous builds = 0
The dot product: -1.18747205983204e-07
Setting atom values ...
  1 settings made for x
  1 settings made for y
  1 settings made for z
Setting up cg style minimization ...
  Unit style    : metal
  Current step  : 2657
Per MPI rank memory allocation (min/avg/max) = 5.441 | 5.816 | 6.074 Mbytes
Step PotEng KinEng TotEng v_fx v_fy v_fz 
    2657   -1152449.3            0   -1152449.3 -0.025356569  0.058494776 -0.059006154 
    2926   -1152449.3            0   -1152449.3 -1.181709e-06 9.4344879e-08 3.5477687e-06 
Loop time of 3.09654 on 104 procs for 269 steps with 288751 atoms

99.9% CPU use with 104 MPI tasks x 1 OpenMP threads

Minimization stats:
  Stopping criterion = energy tolerance
  Energy initial, next-to-last, final = 
     -1152449.26909202  -1152449.27261134  -1152449.27261134
  Force two-norm initial, final = 0.19073893 1.0893440e-05
  Force max component initial, final = 0.07900979 3.5477687e-06
  Final line search alpha, max atom move = 1.0000000 3.5477687e-06
  Iterations, force evaluations = 269 538

MPI task timing breakdown:
Section |  min time  |  avg time  |  max time  |%varavg| %total
---------------------------------------------------------------
Pair    | 0.81997    | 2.2505     | 2.927      |  40.4 | 72.68
Neigh   | 0          | 0          | 0          |   0.0 |  0.00
Comm    | 0.04683    | 0.50481    | 1.5134     |  59.7 | 16.30
Output  | 0          | 0          | 0          |   0.0 |  0.00
Modify  | 3.1938e-05 | 0.0044271  | 0.0095329  |   3.1 |  0.14
Other   |            | 0.3368     |            |       | 10.88

Nlocal:        2776.45 ave        3930 max           0 min
Histogram: 8 4 4 0 4 12 8 0 26 38
Nghost:        3879.12 ave        5425 max         232 min
Histogram: 8 0 8 0 16 0 8 8 16 40
Neighs:        79213.4 ave      114457 max           0 min
Histogram: 8 4 4 0 8 8 8 8 20 36

Total # of neighbors = 8238195
Ave neighs/atom = 28.530447
Neighbor list builds = 0
Dangerous builds = 0
The dot product: -4.99742247961249e-08
Setting atom values ...
  1 settings made for x
  1 settings made for y
  1 settings made for z
Setting up cg style minimization ...
  Unit style    : metal
  Current step  : 2926
Per MPI rank memory allocation (min/avg/max) = 5.441 | 5.816 | 6.074 Mbytes
Step PotEng KinEng TotEng v_fx v_fy v_fz 
    2926   -1152449.2            0   -1152449.2 -0.031715809   0.09117898 -0.064388623 
    3000   -1152449.3            0   -1152449.3 6.6673104e-05 5.339784e-05 -0.00026711131 
    3175   -1152449.3            0   -1152449.3 -8.5073719e-07 -1.2460683e-07 2.4939973e-06 
Loop time of 2.88802 on 104 procs for 249 steps with 288751 atoms

99.9% CPU use with 104 MPI tasks x 1 OpenMP threads

Minimization stats:
  Stopping criterion = energy tolerance
  Energy initial, next-to-last, final = 
     -1152449.24799862  -1152449.25212295  -1152449.25212295
  Force two-norm initial, final = 0.20676787 2.6648270e-05
  Force max component initial, final = 0.09117898 5.6531369e-06
  Final line search alpha, max atom move = 1.0000000 5.6531369e-06
  Iterations, force evaluations = 249 498

MPI task timing breakdown:
Section |  min time  |  avg time  |  max time  |%varavg| %total
---------------------------------------------------------------
Pair    | 0.75597    | 2.0944     | 2.7219     |  39.0 | 72.52
Neigh   | 0          | 0          | 0          |   0.0 |  0.00
Comm    | 0.042027   | 0.47444    | 1.43       |  57.3 | 16.43
Output  | 0.00010085 | 0.00010635 | 0.00022142 |   0.0 |  0.00
Modify  | 2.9547e-05 | 0.0040884  | 0.0087586  |   3.0 |  0.14
Other   |            | 0.315      |            |       | 10.91

Nlocal:        2776.45 ave        3936 max           0 min
Histogram: 8 4 4 0 4 12 8 0 28 36
Nghost:        3879.12 ave        5425 max         232 min
Histogram: 8 0 8 0 16 0 8 8 16 40
Neighs:        79213.4 ave      114660 max           0 min
Histogram: 8 4 4 0 8 8 8 8 22 34

Total # of neighbors = 8238198
Ave neighs/atom = 28.530457
Neighbor list builds = 0
Dangerous builds = 0
The dot product: -4.12088872342652e-08
Setting atom values ...
  1 settings made for x
  1 settings made for y
  1 settings made for z
Setting up cg style minimization ...
  Unit style    : metal
  Current step  : 3175
Per MPI rank memory allocation (min/avg/max) = 5.441 | 5.816 | 6.074 Mbytes
Step PotEng KinEng TotEng v_fx v_fy v_fz 
    3175   -1152449.2            0   -1152449.2 -0.025475283    0.1029048  -0.05691335 
    3395   -1152449.2            0   -1152449.2 6.3568783e-06 3.9514269e-06 -1.9517695e-05 
Loop time of 2.54847 on 104 procs for 220 steps with 288751 atoms

99.9% CPU use with 104 MPI tasks x 1 OpenMP threads

Minimization stats:
  Stopping criterion = energy tolerance
  Energy initial, next-to-last, final = 
     -1152449.22679104  -1152449.23081097  -1152449.23081097
  Force two-norm initial, final = 0.20956103 8.6757149e-05
  Force max component initial, final = 0.1029048 1.9517695e-05
  Final line search alpha, max atom move = 1.0000000 1.9517695e-05
  Iterations, force evaluations = 220 440

MPI task timing breakdown:
Section |  min time  |  avg time  |  max time  |%varavg| %total
---------------------------------------------------------------
Pair    | 0.66978    | 1.8439     | 2.4003     |  36.6 | 72.35
Neigh   | 0          | 0          | 0          |   0.0 |  0.00
Comm    | 0.041005   | 0.41349    | 1.2477     |  54.4 | 16.22
Output  | 0          | 0          | 0          |   0.0 |  0.00
Modify  | 2.8563e-05 | 0.0036244  | 0.0077558  |   2.8 |  0.14
Other   |            | 0.2874     |            |       | 11.28

Nlocal:        2776.45 ave        3945 max           0 min
Histogram: 8 4 4 0 4 12 8 2 26 36
Nghost:        3879.09 ave        5425 max         232 min
Histogram: 8 0 8 0 16 0 8 8 16 40
Neighs:        79213.5 ave      114922 max           0 min
Histogram: 8 4 4 0 10 6 8 8 22 34

Total # of neighbors = 8238203
Ave neighs/atom = 28.530474
Neighbor list builds = 0
Dangerous builds = 0
The dot product: 3.85120365338799e-07
Setting atom values ...
  1 settings made for x
  1 settings made for y
  1 settings made for z
Setting up cg style minimization ...
  Unit style    : metal
  Current step  : 3395
Per MPI rank memory allocation (min/avg/max) = 5.441 | 5.816 | 6.074 Mbytes
Step PotEng KinEng TotEng v_fx v_fy v_fz 
    3395   -1152449.2            0   -1152449.2 -0.015387111  0.093958737  -0.04317382 
    3594   -1152449.2            0   -1152449.2 -1.7340235e-05 -2.8071396e-06 3.9472815e-05 
Loop time of 2.30378 on 104 procs for 199 steps with 288751 atoms

99.9% CPU use with 104 MPI tasks x 1 OpenMP threads

Minimization stats:
  Stopping criterion = energy tolerance
  Energy initial, next-to-last, final = 
     -1152449.20477022  -1152449.20821347  -1152449.20821347
  Force two-norm initial, final = 0.20082936 0.00017200095
  Force max component initial, final = 0.1101151 4.0530273e-05
  Final line search alpha, max atom move = 1.0000000 4.0530273e-05
  Iterations, force evaluations = 199 398

MPI task timing breakdown:
Section |  min time  |  avg time  |  max time  |%varavg| %total
---------------------------------------------------------------
Pair    | 0.60788    | 1.677      | 2.1783     |  34.7 | 72.79
Neigh   | 0          | 0          | 0          |   0.0 |  0.00
Comm    | 0.034701   | 0.37972    | 1.1462     |  51.4 | 16.48
Output  | 0          | 0          | 0          |   0.0 |  0.00
Modify  | 2.4312e-05 | 0.0032669  | 0.0070018  |   2.7 |  0.14
Other   |            | 0.2438     |            |       | 10.58

Nlocal:        2776.45 ave        3953 max           0 min
Histogram: 8 4 4 0 4 12 8 2 28 34
Nghost:        3879.05 ave        5425 max         232 min
Histogram: 8 0 8 0 16 0 8 8 16 40
Neighs:        79213.5 ave      115196 max           0 min
Histogram: 8 4 4 0 10 6 8 8 24 32

Total # of neighbors = 8238206
Ave neighs/atom = 28.530485
Neighbor list builds = 0
Dangerous builds = 0
The dot product: -5.86762853638692e-07
Setting atom values ...
  1 settings made for x
  1 settings made for y
  1 settings made for z
Setting up cg style minimization ...
  Unit style    : metal
  Current step  : 3594
Per MPI rank memory allocation (min/avg/max) = 5.441 | 5.816 | 6.074 Mbytes
Step PotEng KinEng TotEng v_fx v_fy v_fz 
    3594   -1152449.2            0   -1152449.2 -0.0059941625  0.077610886  -0.03402148 
    3819   -1152449.2            0   -1152449.2 -4.0224083e-06 7.5308357e-07 7.5071646e-06 
Loop time of 2.5955 on 104 procs for 225 steps with 288751 atoms

99.9% CPU use with 104 MPI tasks x 1 OpenMP threads

Minimization stats:
  Stopping criterion = energy tolerance
  Energy initial, next-to-last, final = 
     -1152449.18156716  -1152449.18465622  -1152449.18465622
  Force two-norm initial, final = 0.19067875 5.7360187e-05
  Force max component initial, final = 0.11591294 8.7472331e-06
  Final line search alpha, max atom move = 1.0000000 8.7472331e-06
  Iterations, force evaluations = 225 450

MPI task timing breakdown:
Section |  min time  |  avg time  |  max time  |%varavg| %total
---------------------------------------------------------------
Pair    | 0.68886    | 1.8917     | 2.4614     |  37.1 | 72.88
Neigh   | 0          | 0          | 0          |   0.0 |  0.00
Comm    | 0.040126   | 0.42404    | 1.2826     |  55.1 | 16.34
Output  | 0          | 0          | 0          |   0.0 |  0.00
Modify  | 2.6794e-05 | 0.0036975  | 0.0079362  |   2.9 |  0.14
Other   |            | 0.276      |            |       | 10.64

Nlocal:        2776.45 ave        3954 max           0 min
Histogram: 8 4 4 0 4 12 8 2 28 34
Nghost:        3879.00 ave        5425 max         232 min
Histogram: 8 0 8 0 16 0 8 8 16 40
Neighs:        79213.5 ave      115237 max           0 min
Histogram: 8 4 4 0 10 6 8 8 24 32

Total # of neighbors = 8238206
Ave neighs/atom = 28.530485
Neighbor list builds = 0
Dangerous builds = 0
The dot product: -9.29081471992243e-08
Setting atom values ...
  1 settings made for x
  1 settings made for y
  1 settings made for z
Setting up cg style minimization ...
  Unit style    : metal
  Current step  : 3819
Per MPI rank memory allocation (min/avg/max) = 5.441 | 5.816 | 6.074 Mbytes
Step PotEng KinEng TotEng v_fx v_fy v_fz 
    3819   -1152449.2            0   -1152449.2 0.0025287826  0.063835433 -0.032418588 
    4000   -1152449.2            0   -1152449.2 -3.6573701e-05 5.6951315e-06 6.4288612e-05 
    4074   -1152449.2            0   -1152449.2 -2.3529778e-06 4.3634622e-07 4.1055587e-06 
Loop time of 2.94153 on 104 procs for 255 steps with 288751 atoms

99.9% CPU use with 104 MPI tasks x 1 OpenMP threads

Minimization stats:
  Stopping criterion = energy tolerance
  Energy initial, next-to-last, final = 
     -1152449.15754621  -1152449.16028018  -1152449.16028018
  Force two-norm initial, final = 0.18403053 1.2928440e-05
  Force max component initial, final = 0.12004009 4.1055587e-06
  Final line search alpha, max atom move = 1.0000000 4.1055587e-06
  Iterations, force evaluations = 255 510

MPI task timing breakdown:
Section |  min time  |  avg time  |  max time  |%varavg| %total
---------------------------------------------------------------
Pair    | 0.78043    | 2.1401     | 2.7825     |  39.2 | 72.75
Neigh   | 0          | 0          | 0          |   0.0 |  0.00
Comm    | 0.047812   | 0.48134    | 1.4648     |  58.0 | 16.36
Output  | 0.00010035 | 0.00011004 | 0.00025559 |   0.0 |  0.00
Modify  | 3.1966e-05 | 0.0041976  | 0.0090651  |   3.1 |  0.14
Other   |            | 0.3158     |            |       | 10.74

Nlocal:        2776.45 ave        3954 max           0 min
Histogram: 8 4 4 0 4 12 8 2 28 34
Nghost:        3878.99 ave        5425 max         232 min
Histogram: 8 0 8 0 16 0 8 8 16 40
Neighs:        79213.6 ave      115233 max           0 min
Histogram: 8 4 4 0 10 6 8 8 24 32

Total # of neighbors = 8238211
Ave neighs/atom = 28.530502
Neighbor list builds = 0
Dangerous builds = 0
The dot product: -5.7827390984225e-08
Setting atom values ...
  1 settings made for x
  1 settings made for y
  1 settings made for z
Setting up cg style minimization ...
  Unit style    : metal
  Current step  : 4074
Per MPI rank memory allocation (min/avg/max) = 5.441 | 5.816 | 6.074 Mbytes
Step PotEng KinEng TotEng v_fx v_fy v_fz 
    4074   -1152449.1            0   -1152449.1 0.0087442003  0.055987967 -0.032671563 
    4258   -1152449.1            0   -1152449.1 1.8494123e-05 -1.531947e-06 -3.0736564e-05 
Loop time of 2.12028 on 104 procs for 184 steps with 288751 atoms

99.9% CPU use with 104 MPI tasks x 1 OpenMP threads

Minimization stats:
  Stopping criterion = energy tolerance
  Energy initial, next-to-last, final = 
      -1152449.1324495  -1152449.13491724  -1152449.13491724
  Force two-norm initial, final = 0.1813902 0.00018563534
  Force max component initial, final = 0.12422605 3.2439125e-05
  Final line search alpha, max atom move = 1.0000000 3.2439125e-05
  Iterations, force evaluations = 184 368

MPI task timing breakdown:
Section |  min time  |  avg time  |  max time  |%varavg| %total
---------------------------------------------------------------
Pair    | 0.55964    | 1.5411     | 2.0103     |  33.5 | 72.69
Neigh   | 0          | 0          | 0          |   0.0 |  0.00
Comm    | 0.034017   | 0.34551    | 1.0366     |  49.5 | 16.30
Output  | 0          | 0          | 0          |   0.0 |  0.00
Modify  | 2.2059e-05 | 0.003032   | 0.006532   |   2.6 |  0.14
Other   |            | 0.2306     |            |       | 10.88

Nlocal:        2776.45 ave        3955 max           0 min
Histogram: 8 4 4 0 4 12 8 2 28 34
Nghost:        3878.96 ave        5425 max         232 min
Histogram: 8 0 8 0 16 0 8 8 16 40
Neighs:        79213.6 ave      115286 max           0 min
Histogram: 8 4 4 0 10 6 8 8 24 32

Total # of neighbors = 8238214
Ave neighs/atom = 28.530512
Neighbor list builds = 0
Dangerous builds = 0
The dot product: 4.68032680206484e-07
Setting atom values ...
  1 settings made for x
  1 settings made for y
  1 settings made for z
Setting up cg style minimization ...
  Unit style    : metal
  Current step  : 4258
Per MPI rank memory allocation (min/avg/max) = 5.441 | 5.816 | 6.074 Mbytes
Step PotEng KinEng TotEng v_fx v_fy v_fz 
    4258   -1152449.1            0   -1152449.1   0.01138777  0.046528774 -0.028924894 
    4445   -1152449.1            0   -1152449.1 2.6393155e-05 -2.3813432e-06 -4.0983137e-05 
Loop time of 2.17888 on 104 procs for 187 steps with 288751 atoms

99.9% CPU use with 104 MPI tasks x 1 OpenMP threads

Minimization stats:
  Stopping criterion = energy tolerance
  Energy initial, next-to-last, final = 
     -1152449.10616565   -1152449.1083028   -1152449.1083028
  Force two-norm initial, final = 0.178584 0.00014769362
  Force max component initial, final = 0.1281928 4.0983137e-05
  Final line search alpha, max atom move = 1.0000000 4.0983137e-05
  Iterations, force evaluations = 187 374

MPI task timing breakdown:
Section |  min time  |  avg time  |  max time  |%varavg| %total
---------------------------------------------------------------
Pair    | 0.57111    | 1.5753     | 2.0453     |  33.8 | 72.30
Neigh   | 0          | 0          | 0          |   0.0 |  0.00
Comm    | 0.03618    | 0.35566    | 1.0868     |  49.9 | 16.32
Output  | 0          | 0          | 0          |   0.0 |  0.00
Modify  | 2.3074e-05 | 0.0030808  | 0.0065806  |   2.6 |  0.14
Other   |            | 0.2448     |            |       | 11.24

Nlocal:        2776.45 ave        3955 max           0 min
Histogram: 8 4 4 0 4 12 8 2 28 34
Nghost:        3878.96 ave        5425 max         232 min
Histogram: 8 0 8 0 16 0 8 8 16 40
Neighs:        79213.6 ave      115282 max           0 min
Histogram: 8 4 4 0 10 6 8 8 24 32

Total # of neighbors = 8238213
Ave neighs/atom = 28.530509
Neighbor list builds = 0
Dangerous builds = 0
The dot product: 5.62038408135288e-07
Setting atom values ...
  1 settings made for x
  1 settings made for y
  1 settings made for z
Setting up cg style minimization ...
  Unit style    : metal
  Current step  : 4445
Per MPI rank memory allocation (min/avg/max) = 5.441 | 5.816 | 6.074 Mbytes
Step PotEng KinEng TotEng v_fx v_fy v_fz 
    4445   -1152449.1            0   -1152449.1  0.010866192  0.035965896 -0.022598474 
    4656   -1152449.1            0   -1152449.1 -3.1200066e-06 -6.4611981e-07 4.7528244e-06 
Loop time of 2.44572 on 104 procs for 211 steps with 288751 atoms

99.9% CPU use with 104 MPI tasks x 1 OpenMP threads

Minimization stats:
  Stopping criterion = energy tolerance
  Energy initial, next-to-last, final = 
     -1152449.07843361  -1152449.08033458  -1152449.08033458
  Force two-norm initial, final = 0.17611856 6.3113272e-05
  Force max component initial, final = 0.13179433 1.5186567e-05
  Final line search alpha, max atom move = 1.0000000 1.5186567e-05
  Iterations, force evaluations = 211 422

MPI task timing breakdown:
Section |  min time  |  avg time  |  max time  |%varavg| %total
---------------------------------------------------------------
Pair    | 0.64524    | 1.7691     | 2.3173     |  35.8 | 72.34
Neigh   | 0          | 0          | 0          |   0.0 |  0.00
Comm    | 0.037091   | 0.39835    | 1.1955     |  52.9 | 16.29
Output  | 0          | 0          | 0          |   0.0 |  0.00
Modify  | 2.5095e-05 | 0.0034661  | 0.0074519  |   2.8 |  0.14
Other   |            | 0.2748     |            |       | 11.24

Nlocal:        2776.45 ave        3955 max           0 min
Histogram: 8 4 4 0 4 12 8 1 29 34
Nghost:        3878.99 ave        5426 max         232 min
Histogram: 8 0 8 0 16 0 8 8 16 40
Neighs:        79213.6 ave      115285 max           0 min
Histogram: 8 4 4 0 10 6 8 8 24 32

Total # of neighbors = 8238212
Ave neighs/atom = 28.530506
Neighbor list builds = 0
Dangerous builds = 0
The dot product: -6.44534612722383e-08
Setting atom values ...
  1 settings made for x
  1 settings made for y
  1 settings made for z
Setting up cg style minimization ...
  Unit style    : metal
  Current step  : 4656
Per MPI rank memory allocation (min/avg/max) = 5.441 | 5.816 | 6.074 Mbytes
Step PotEng KinEng TotEng v_fx v_fy v_fz 
    4656     -1152449            0     -1152449  0.008926853  0.026421337 -0.016400563 
    4818   -1152449.1            0   -1152449.1 -5.5259093e-05 7.8178215e-06 7.7346442e-05 
Loop time of 1.91256 on 104 procs for 162 steps with 288751 atoms

99.9% CPU use with 104 MPI tasks x 1 OpenMP threads

Minimization stats:
  Stopping criterion = energy tolerance
  Energy initial, next-to-last, final = 
     -1152449.04927445  -1152449.05102989  -1152449.05102989
  Force two-norm initial, final = 0.17482411 0.00026445991
  Force max component initial, final = 0.13495381 7.7346442e-05
  Final line search alpha, max atom move = 1.0000000 7.7346442e-05
  Iterations, force evaluations = 162 324

MPI task timing breakdown:
Section |  min time  |  avg time  |  max time  |%varavg| %total
---------------------------------------------------------------
Pair    | 0.49331    | 1.3684     | 1.7863     |  31.6 | 71.55
Neigh   | 0          | 0          | 0          |   0.0 |  0.00
Comm    | 0.034512   | 0.31096    | 0.93569    |  46.4 | 16.26
Output  | 0          | 0          | 0          |   0.0 |  0.00
Modify  | 2.0062e-05 | 0.0026683  | 0.0057067  |   2.4 |  0.14
Other   |            | 0.2305     |            |       | 12.05

Nlocal:        2776.45 ave        3955 max           0 min
Histogram: 8 4 4 0 4 12 8 0 30 34
Nghost:        3879.03 ave        5426 max         232 min
Histogram: 8 0 8 0 16 0 8 8 16 40
Neighs:        79213.6 ave      115285 max           0 min
Histogram: 8 4 4 0 10 6 8 8 24 32

Total # of neighbors = 8238215
Ave neighs/atom = 28.530516
Neighbor list builds = 0
Dangerous builds = 0
The dot product: -7.75394207317822e-07
Setting atom values ...
  1 settings made for x
  1 settings made for y
  1 settings made for z
Setting up cg style minimization ...
  Unit style    : metal
  Current step  : 4818
Per MPI rank memory allocation (min/avg/max) = 5.441 | 5.816 | 6.074 Mbytes
Step PotEng KinEng TotEng v_fx v_fy v_fz 
    4818     -1152449            0     -1152449 0.0065809359  0.018759263 -0.011176236 
    5000     -1152449            0     -1152449 -6.6893972e-06 2.326899e-06 8.8868258e-06 
    5037     -1152449            0     -1152449 9.8077993e-06 -2.3235951e-06 -1.3155398e-05 
Loop time of 2.54328 on 104 procs for 219 steps with 288751 atoms

99.9% CPU use with 104 MPI tasks x 1 OpenMP threads

Minimization stats:
  Stopping criterion = energy tolerance
  Energy initial, next-to-last, final = 
     -1152449.01877632  -1152449.02049527  -1152449.02049527
  Force two-norm initial, final = 0.17461682 6.1925946e-05
  Force max component initial, final = 0.13774644 1.4852316e-05
  Final line search alpha, max atom move = 1.0000000 1.4852316e-05
  Iterations, force evaluations = 219 438

MPI task timing breakdown:
Section |  min time  |  avg time  |  max time  |%varavg| %total
---------------------------------------------------------------
Pair    | 0.66774    | 1.8335     | 2.4067     |  36.5 | 72.09
Neigh   | 0          | 0          | 0          |   0.0 |  0.00
Comm    | 0.038848   | 0.41493    | 1.2418     |  53.7 | 16.31
Output  | 0.00016117 | 0.00016473 | 0.00030967 |   0.0 |  0.01
Modify  | 2.5945e-05 | 0.0036146  | 0.0077328  |   2.8 |  0.14
Other   |            | 0.2911     |            |       | 11.45

Nlocal:        2776.45 ave        3955 max           0 min
Histogram: 8 4 4 0 4 12 8 0 30 34
Nghost:        3879.03 ave        5426 max         232 min
Histogram: 8 0 8 0 16 0 8 8 16 40
Neighs:        79213.6 ave      115304 max           0 min
Histogram: 8 4 4 0 10 6 8 8 24 32

Total # of neighbors = 8238218
Ave neighs/atom = 28.530526
Neighbor list builds = 0
Dangerous builds = 0
The dot product: 1.15169562800896e-07
Setting atom values ...
  1 settings made for x
  1 settings made for y
  1 settings made for z
Setting up cg style minimization ...
  Unit style    : metal
  Current step  : 5037
Per MPI rank memory allocation (min/avg/max) = 5.441 | 5.816 | 6.074 Mbytes
Step PotEng KinEng TotEng v_fx v_fy v_fz 
    5037     -1152449            0     -1152449  0.004827411  0.012959311  -0.00768571 
    5225     -1152449            0     -1152449 -8.7651166e-06 2.3435631e-06 1.1403218e-05 
Loop time of 2.18966 on 104 procs for 188 steps with 288751 atoms

99.9% CPU use with 104 MPI tasks x 1 OpenMP threads

Minimization stats:
  Stopping criterion = energy tolerance
  Energy initial, next-to-last, final = 
     -1152448.98715856  -1152448.98884147  -1152448.98884147
  Force two-norm initial, final = 0.17494188 0.00013225541
  Force max component initial, final = 0.14001379 1.9938504e-05
  Final line search alpha, max atom move = 1.0000000 1.9938504e-05
  Iterations, force evaluations = 188 376

MPI task timing breakdown:
Section |  min time  |  avg time  |  max time  |%varavg| %total
---------------------------------------------------------------
Pair    | 0.57185    | 1.5807     | 2.0719     |  33.8 | 72.19
Neigh   | 0          | 0          | 0          |   0.0 |  0.00
Comm    | 0.03506    | 0.35957    | 1.0791     |  49.8 | 16.42
Output  | 0          | 0          | 0          |   0.0 |  0.00
Modify  | 2.3606e-05 | 0.0031018  | 0.0067372  |   2.6 |  0.14
Other   |            | 0.2463     |            |       | 11.25

Nlocal:        2776.45 ave        3956 max           0 min
Histogram: 8 4 4 0 4 12 8 0 30 34
Nghost:        3879.05 ave        5426 max         232 min
Histogram: 8 0 8 0 16 0 8 8 16 40
Neighs:        79213.6 ave      115335 max           0 min
Histogram: 8 4 4 0 10 6 8 8 24 32

Total # of neighbors = 8238215
Ave neighs/atom = 28.530516
Neighbor list builds = 0
Dangerous builds = 0
The dot product: -8.9469887775993e-08
Setting atom values ...
  1 settings made for x
  1 settings made for y
  1 settings made for z
Setting up cg style minimization ...
  Unit style    : metal
  Current step  : 5225
Per MPI rank memory allocation (min/avg/max) = 5.441 | 5.816 | 6.074 Mbytes
Step PotEng KinEng TotEng v_fx v_fy v_fz 
    5225     -1152449            0     -1152449 0.0027637827 0.0087746438 -0.0043423634 
    5428     -1152449            0     -1152449 8.8714381e-06 -1.9782283e-06 -1.1303209e-05 
Loop time of 2.35218 on 104 procs for 203 steps with 288751 atoms

99.9% CPU use with 104 MPI tasks x 1 OpenMP threads

Minimization stats:
  Stopping criterion = energy tolerance
  Energy initial, next-to-last, final = 
     -1152448.95445628  -1152448.95616393  -1152448.95616393
  Force two-norm initial, final = 0.17566783 9.4758292e-05
  Force max component initial, final = 0.14212259 1.4000579e-05
  Final line search alpha, max atom move = 1.0000000 1.4000579e-05
  Iterations, force evaluations = 203 406

MPI task timing breakdown:
Section |  min time  |  avg time  |  max time  |%varavg| %total
---------------------------------------------------------------
Pair    | 0.61535    | 1.7047     | 2.2305     |  35.3 | 72.47
Neigh   | 0          | 0          | 0          |   0.0 |  0.00
Comm    | 0.037363   | 0.38311    | 1.1458     |  52.1 | 16.29
Output  | 0          | 0          | 0          |   0.0 |  0.00
Modify  | 2.4251e-05 | 0.0033362  | 0.0071527  |   2.7 |  0.14
Other   |            | 0.2611     |            |       | 11.10

Nlocal:        2776.45 ave        3956 max           0 min
Histogram: 8 4 4 0 4 12 8 0 30 34
Nghost:        3879.03 ave        5426 max         232 min
Histogram: 8 0 8 0 16 0 8 8 16 40
Neighs:        79213.6 ave      115342 max           0 min
Histogram: 8 4 4 0 10 6 8 8 24 32

Total # of neighbors = 8238219
Ave neighs/atom = 28.530530
Neighbor list builds = 0
Dangerous builds = 0
The dot product: 8.48203302562455e-08
Setting atom values ...
  1 settings made for x
  1 settings made for y
  1 settings made for z
Setting up cg style minimization ...
  Unit style    : metal
  Current step  : 5428
Per MPI rank memory allocation (min/avg/max) = 5.441 | 5.816 | 6.074 Mbytes
Step PotEng KinEng TotEng v_fx v_fy v_fz 
    5428   -1152448.9            0   -1152448.9 0.0011927726 0.0059202983 -0.0019821129 
    5603   -1152448.9            0   -1152448.9 7.1112222e-06 -6.0854764e-06 -8.5057018e-06 
Loop time of 2.03777 on 104 procs for 175 steps with 288751 atoms

99.9% CPU use with 104 MPI tasks x 1 OpenMP threads

Minimization stats:
  Stopping criterion = energy tolerance
  Energy initial, next-to-last, final = 
     -1152448.92087034  -1152448.92258049  -1152448.92258049
  Force two-norm initial, final = 0.17633892 0.00023817927
  Force max component initial, final = 0.14377875 3.4293167e-05
  Final line search alpha, max atom move = 1.0000000 3.4293167e-05
  Iterations, force evaluations = 175 350

MPI task timing breakdown:
Section |  min time  |  avg time  |  max time  |%varavg| %total
---------------------------------------------------------------
Pair    | 0.53789    | 1.4749     | 1.9164     |  32.6 | 72.38
Neigh   | 0          | 0          | 0          |   0.0 |  0.00
Comm    | 0.029119   | 0.33662    | 1.0266     |  47.7 | 16.52
Output  | 0          | 0          | 0          |   0.0 |  0.00
Modify  | 2.3188e-05 | 0.0028791  | 0.0061546  |   2.5 |  0.14
Other   |            | 0.2234     |            |       | 10.96

Nlocal:        2776.45 ave        3955 max           0 min
Histogram: 8 4 4 0 4 12 8 0 30 34
Nghost:        3879.03 ave        5426 max         232 min
Histogram: 8 0 8 0 16 0 8 8 16 40
Neighs:        79213.6 ave      115318 max           0 min
Histogram: 8 4 4 0 10 6 8 8 24 32

Total # of neighbors = 8238214
Ave neighs/atom = 28.530512
Neighbor list builds = 0
Dangerous builds = 0
The dot product: 5.27160658862413e-08
Setting atom values ...
  1 settings made for x
  1 settings made for y
  1 settings made for z
Setting up cg style minimization ...
  Unit style    : metal
  Current step  : 5603
Per MPI rank memory allocation (min/avg/max) = 5.441 | 5.816 | 6.074 Mbytes
Step PotEng KinEng TotEng v_fx v_fy v_fz 
    5603   -1152448.9            0   -1152448.9 -0.00086451927 0.0039374401 0.00077568235 
    5788   -1152448.9            0   -1152448.9 1.1759294e-05 -4.2809761e-06 -1.4262552e-05 
Loop time of 2.14295 on 104 procs for 185 steps with 288751 atoms

99.9% CPU use with 104 MPI tasks x 1 OpenMP threads

Minimization stats:
  Stopping criterion = energy tolerance
  Energy initial, next-to-last, final = 
     -1152448.88637244  -1152448.88799457  -1152448.88799457
  Force two-norm initial, final = 0.17719637 0.00013940783
  Force max component initial, final = 0.14536167 2.2859217e-05
  Final line search alpha, max atom move = 1.0000000 2.2859217e-05
  Iterations, force evaluations = 185 370

MPI task timing breakdown:
Section |  min time  |  avg time  |  max time  |%varavg| %total
---------------------------------------------------------------
Pair    | 0.57203    | 1.5551     | 2.0262     |  33.4 | 72.57
Neigh   | 0          | 0          | 0          |   0.0 |  0.00
Comm    | 0.034003   | 0.3497     | 1.0583     |  49.8 | 16.32
Output  | 0          | 0          | 0          |   0.0 |  0.00
Modify  | 2.2485e-05 | 0.0030524  | 0.0065355  |   2.6 |  0.14
Other   |            | 0.2351     |            |       | 10.97

Nlocal:        2776.45 ave        3956 max           0 min
Histogram: 8 4 4 0 4 12 8 0 30 34
Nghost:        3879.03 ave        5426 max         232 min
Histogram: 8 0 8 0 16 0 8 8 16 40
Neighs:        79213.6 ave      115334 max           0 min
Histogram: 8 4 4 0 10 6 8 8 24 32

Total # of neighbors = 8238216
Ave neighs/atom = 28.530519
Neighbor list builds = 0
Dangerous builds = 0
The dot product: 7.92235850148539e-08
Setting atom values ...
  1 settings made for x
  1 settings made for y
  1 settings made for z
Setting up cg style minimization ...
  Unit style    : metal
  Current step  : 5788
Per MPI rank memory allocation (min/avg/max) = 5.441 | 5.816 | 6.074 Mbytes
Step PotEng KinEng TotEng v_fx v_fy v_fz 
    5788   -1152448.9            0   -1152448.9 -0.0036851016 0.0026107529 0.0043124145 
    5991   -1152448.9            0   -1152448.9 -5.1724832e-06 -2.1214779e-07 6.3344828e-06 
Loop time of 2.34334 on 104 procs for 203 steps with 288751 atoms

99.9% CPU use with 104 MPI tasks x 1 OpenMP threads

Minimization stats:
  Stopping criterion = energy tolerance
  Energy initial, next-to-last, final = 
     -1152448.85073414  -1152448.85235871  -1152448.85235871
  Force two-norm initial, final = 0.17854118 8.7401670e-05
  Force max component initial, final = 0.1471556 1.1654669e-05
  Final line search alpha, max atom move = 1.0000000 1.1654669e-05
  Iterations, force evaluations = 203 406

MPI task timing breakdown:
Section |  min time  |  avg time  |  max time  |%varavg| %total
---------------------------------------------------------------
Pair    | 0.61955    | 1.706      | 2.222      |  35.2 | 72.80
Neigh   | 0          | 0          | 0          |   0.0 |  0.00
Comm    | 0.034068   | 0.38529    | 1.1781     |  51.9 | 16.44
Output  | 0          | 0          | 0          |   0.0 |  0.00
Modify  | 2.4871e-05 | 0.0033441  | 0.0071328  |   2.7 |  0.14
Other   |            | 0.2487     |            |       | 10.61

Nlocal:        2776.45 ave        3956 max           0 min
Histogram: 8 4 4 0 4 12 8 0 30 34
Nghost:        3879.01 ave        5426 max         232 min
Histogram: 8 0 8 0 16 0 8 8 16 40
Neighs:        79213.6 ave      115328 max           0 min
Histogram: 8 4 4 0 10 6 8 8 24 32

Total # of neighbors = 8238215
Ave neighs/atom = 28.530516
Neighbor list builds = 0
Dangerous builds = 0
The dot product: -2.98844007164155e-08
Setting atom values ...
  1 settings made for x
  1 settings made for y
  1 settings made for z
Setting up cg style minimization ...
  Unit style    : metal
  Current step  : 5991
Per MPI rank memory allocation (min/avg/max) = 5.441 | 5.816 | 6.074 Mbytes
Step PotEng KinEng TotEng v_fx v_fy v_fz 
    5991   -1152448.8            0   -1152448.8 -0.0062660529 0.0019352814 0.0074264628 
    6000   -1152448.8            0   -1152448.8 -0.0019038974 -0.0013131287 0.0023919178 
    6141   -1152448.8            0   -1152448.8 4.8357725e-05 -1.1843495e-05 -5.7533353e-05 
Loop time of 1.73821 on 104 procs for 150 steps with 288751 atoms

99.9% CPU use with 104 MPI tasks x 1 OpenMP threads

Minimization stats:
  Stopping criterion = energy tolerance
  Energy initial, next-to-last, final = 
     -1152448.81409283  -1152448.81585256  -1152448.81585256
  Force two-norm initial, final = 0.17976174 0.00028233059
  Force max component initial, final = 0.14871876 5.8295383e-05
  Final line search alpha, max atom move = 1.0000000 5.8295383e-05
  Iterations, force evaluations = 150 300

MPI task timing breakdown:
Section |  min time  |  avg time  |  max time  |%varavg| %total
---------------------------------------------------------------
Pair    | 0.4594     | 1.2563     | 1.6439     |  30.1 | 72.27
Neigh   | 0          | 0          | 0          |   0.0 |  0.00
Comm    | 0.026096   | 0.28215    | 0.84972    |  44.6 | 16.23
Output  | 9.3804e-05 | 0.00010173 | 0.00015986 |   0.0 |  0.01
Modify  | 1.8065e-05 | 0.002468   | 0.0053027  |   2.3 |  0.14
Other   |            | 0.1972     |            |       | 11.35

Nlocal:        2776.45 ave        3955 max           0 min
Histogram: 8 4 4 0 4 12 8 0 30 34
Nghost:        3879.01 ave        5426 max         232 min
Histogram: 8 0 8 0 16 0 8 8 16 40
Neighs:        79213.6 ave      115319 max           0 min
Histogram: 8 4 4 0 10 6 8 8 24 32

Total # of neighbors = 8238213
Ave neighs/atom = 28.530509
Neighbor list builds = 0
Dangerous builds = 0
The dot product: 2.34018630295279e-07
Setting atom values ...
  1 settings made for x
  1 settings made for y
  1 settings made for z
Setting up cg style minimization ...
  Unit style    : metal
  Current step  : 6141
Per MPI rank memory allocation (min/avg/max) = 5.441 | 5.816 | 6.074 Mbytes
Step PotEng KinEng TotEng v_fx v_fy v_fz 
    6141   -1152448.8            0   -1152448.8 -0.008385008 0.0017275691 0.0099007636 
    6312   -1152448.8            0   -1152448.8 5.4016786e-05 -9.458215e-06 -6.3899701e-05 
Loop time of 1.98864 on 104 procs for 171 steps with 288751 atoms

99.9% CPU use with 104 MPI tasks x 1 OpenMP threads

Minimization stats:
  Stopping criterion = energy tolerance
  Energy initial, next-to-last, final = 
     -1152448.77675037  -1152448.77836832  -1152448.77836832
  Force two-norm initial, final = 0.18034415 0.0002412539
  Force max component initial, final = 0.14976006 6.3899701e-05
  Final line search alpha, max atom move = 1.0000000 6.3899701e-05
  Iterations, force evaluations = 171 342

MPI task timing breakdown:
Section |  min time  |  avg time  |  max time  |%varavg| %total
---------------------------------------------------------------
Pair    | 0.523      | 1.4419     | 1.8871     |  32.4 | 72.50
Neigh   | 0          | 0          | 0          |   0.0 |  0.00
Comm    | 0.029035   | 0.32637    | 0.98595    |  47.3 | 16.41
Output  | 0          | 0          | 0          |   0.0 |  0.00
Modify  | 2.0201e-05 | 0.0028158  | 0.0060469  |   2.5 |  0.14
Other   |            | 0.2176     |            |       | 10.94

Nlocal:        2776.45 ave        3956 max           0 min
Histogram: 8 4 4 0 4 12 8 0 30 34
Nghost:        3878.99 ave        5426 max         232 min
Histogram: 8 0 8 0 16 0 8 8 16 40
Neighs:        79213.6 ave      115329 max           0 min
Histogram: 8 4 4 0 10 6 8 8 24 32

Total # of neighbors = 8238215
Ave neighs/atom = 28.530516
Neighbor list builds = 0
Dangerous builds = 0
The dot product: 1.73977982641027e-07
Setting atom values ...
  1 settings made for x
  1 settings made for y
  1 settings made for z
Setting up cg style minimization ...
  Unit style    : metal
  Current step  : 6312
Per MPI rank memory allocation (min/avg/max) = 5.441 | 5.816 | 6.074 Mbytes
Step PotEng KinEng TotEng v_fx v_fy v_fz 
    6312   -1152448.7            0   -1152448.7 -0.011476665 0.0020418438  0.013487575 
    6501   -1152448.7            0   -1152448.7 -2.9147367e-05 6.8714032e-06 3.4134718e-05 
Loop time of 2.19118 on 104 procs for 189 steps with 288751 atoms

99.9% CPU use with 104 MPI tasks x 1 OpenMP threads

Minimization stats:
  Stopping criterion = energy tolerance
  Energy initial, next-to-last, final = 
     -1152448.73825764  -1152448.73990371  -1152448.73990371
  Force two-norm initial, final = 0.18126802 0.00015484988
  Force max component initial, final = 0.15108626 4.3884546e-05
  Final line search alpha, max atom move = 1.0000000 4.3884546e-05
  Iterations, force evaluations = 189 378

MPI task timing breakdown:
Section |  min time  |  avg time  |  max time  |%varavg| %total
---------------------------------------------------------------
Pair    | 0.57707    | 1.582      | 2.0731     |  33.9 | 72.20
Neigh   | 0          | 0          | 0          |   0.0 |  0.00
Comm    | 0.034039   | 0.35747    | 1.0693     |  49.8 | 16.31
Output  | 0          | 0          | 0          |   0.0 |  0.00
Modify  | 2.3219e-05 | 0.0031122  | 0.0066557  |   2.6 |  0.14
Other   |            | 0.2485     |            |       | 11.34

Nlocal:        2776.45 ave        3956 max           0 min
Histogram: 8 4 4 0 4 12 8 0 30 34
Nghost:        3878.99 ave        5426 max         232 min
Histogram: 8 0 8 0 16 0 8 8 16 40
Neighs:        79213.6 ave      115329 max           0 min
Histogram: 8 4 4 0 10 6 8 8 24 32

Total # of neighbors = 8238213
Ave neighs/atom = 28.530509
Neighbor list builds = 0
Dangerous builds = 0
The dot product: -5.52639437011378e-08
Setting atom values ...
  1 settings made for x
  1 settings made for y
  1 settings made for z
Setting up cg style minimization ...
  Unit style    : metal
  Current step  : 6501
Per MPI rank memory allocation (min/avg/max) = 5.441 | 5.816 | 6.074 Mbytes
Step PotEng KinEng TotEng v_fx v_fy v_fz 
    6501   -1152448.7            0   -1152448.7 -0.014272654  0.002754217   0.01669728 
    6672   -1152448.7            0   -1152448.7 8.8864648e-06 2.2684532e-06 -1.0682225e-05 
Loop time of 1.99033 on 104 procs for 171 steps with 288751 atoms

99.9% CPU use with 104 MPI tasks x 1 OpenMP threads

Minimization stats:
  Stopping criterion = energy tolerance
  Energy initial, next-to-last, final = 
     -1152448.69893314  -1152448.70081844  -1152448.70081844
  Force two-norm initial, final = 0.18155157 0.00012552626
  Force max component initial, final = 0.15211376 2.5997799e-05
  Final line search alpha, max atom move = 1.0000000 2.5997799e-05
  Iterations, force evaluations = 171 342

MPI task timing breakdown:
Section |  min time  |  avg time  |  max time  |%varavg| %total
---------------------------------------------------------------
Pair    | 0.52117    | 1.4421     | 1.8808     |  32.4 | 72.46
Neigh   | 0          | 0          | 0          |   0.0 |  0.00
Comm    | 0.029846   | 0.32474    | 0.97704    |  48.1 | 16.32
Output  | 0          | 0          | 0          |   0.0 |  0.00
Modify  | 2.0772e-05 | 0.0028231  | 0.0060499  |   2.5 |  0.14
Other   |            | 0.2206     |            |       | 11.08

Nlocal:        2776.45 ave        3955 max           0 min
Histogram: 8 4 4 0 4 12 8 0 30 34
Nghost:        3878.99 ave        5426 max         232 min
Histogram: 8 0 8 0 16 0 8 8 16 40
Neighs:        79213.6 ave      115286 max           0 min
Histogram: 8 4 4 0 10 6 8 8 24 32

Total # of neighbors = 8238215
Ave neighs/atom = 28.530516
Neighbor list builds = 0
Dangerous builds = 0
The dot product: 6.05819627128963e-09
Setting atom values ...
  1 settings made for x
  1 settings made for y
  1 settings made for z
Setting up cg style minimization ...
  Unit style    : metal
  Current step  : 6672
Per MPI rank memory allocation (min/avg/max) = 5.441 | 5.816 | 6.074 Mbytes
Step PotEng KinEng TotEng v_fx v_fy v_fz 
    6672   -1152448.7            0   -1152448.7  -0.01630865 0.0032969217  0.019031372 
    6822   -1152448.7            0   -1152448.7 -2.6573008e-05 4.3207797e-06 3.1086634e-05 
Loop time of 1.73569 on 104 procs for 150 steps with 288751 atoms

99.9% CPU use with 104 MPI tasks x 1 OpenMP threads

Minimization stats:
  Stopping criterion = energy tolerance
  Energy initial, next-to-last, final = 
     -1152448.65947538  -1152448.66126626  -1152448.66126626
  Force two-norm initial, final = 0.18020212 0.00011609993
  Force max component initial, final = 0.15190859 3.1086634e-05
  Final line search alpha, max atom move = 1.0000000 3.1086634e-05
  Iterations, force evaluations = 150 300

MPI task timing breakdown:
Section |  min time  |  avg time  |  max time  |%varavg| %total
---------------------------------------------------------------
Pair    | 0.45778    | 1.2585     | 1.6453     |  30.2 | 72.51
Neigh   | 0          | 0          | 0          |   0.0 |  0.00
Comm    | 0.026519   | 0.28287    | 0.85072    |  44.8 | 16.30
Output  | 0          | 0          | 0          |   0.0 |  0.00
Modify  | 1.7955e-05 | 0.0024682  | 0.0052819  |   2.3 |  0.14
Other   |            | 0.1918     |            |       | 11.05

Nlocal:        2776.45 ave        3956 max           0 min
Histogram: 8 4 4 0 4 12 8 0 30 34
Nghost:        3878.92 ave        5425 max         232 min
Histogram: 8 0 8 0 16 0 8 8 16 40
Neighs:        79213.5 ave      115318 max           0 min
Histogram: 8 4 4 0 10 6 8 8 24 32

Total # of neighbors = 8238200
Ave neighs/atom = 28.530464
Neighbor list builds = 0
Dangerous builds = 0
The dot product: 1.95476999474147e-08
Setting atom values ...
  1 settings made for x
  1 settings made for y
  1 settings made for z
Setting up cg style minimization ...
  Unit style    : metal
  Current step  : 6822
Per MPI rank memory allocation (min/avg/max) = 5.441 | 5.816 | 6.074 Mbytes
Step PotEng KinEng TotEng v_fx v_fy v_fz 
    6822   -1152448.6            0   -1152448.6  -0.01922744 0.0037459597  0.022476556 
    7000   -1152448.6            0   -1152448.6 -2.8307977e-05 7.5306728e-07 3.3453802e-05 
    7013   -1152448.6            0   -1152448.6 2.4730836e-05 -3.6704065e-06 -2.8997244e-05 
Loop time of 2.25157 on 104 procs for 191 steps with 288751 atoms

99.9% CPU use with 104 MPI tasks x 1 OpenMP threads

Minimization stats:
  Stopping criterion = energy tolerance
  Energy initial, next-to-last, final = 
     -1152448.61983995  -1152448.62199004  -1152448.62199004
  Force two-norm initial, final = 0.17915269 0.00021829152
  Force max component initial, final = 0.15123856 3.2448069e-05
  Final line search alpha, max atom move = 1.0000000 3.2448069e-05
  Iterations, force evaluations = 191 382

MPI task timing breakdown:
Section |  min time  |  avg time  |  max time  |%varavg| %total
---------------------------------------------------------------
Pair    | 0.58139    | 1.6118     | 2.1065     |  34.4 | 71.59
Neigh   | 0          | 0          | 0          |   0.0 |  0.00
Comm    | 0.032298   | 0.3663     | 1.0965     |  49.7 | 16.27
Output  | 0.00010981 | 0.00011294 | 0.00025432 |   0.0 |  0.01
Modify  | 2.3168e-05 | 0.0031575  | 0.006752   |   2.7 |  0.14
Other   |            | 0.2702     |            |       | 12.00

Nlocal:        2776.45 ave        3955 max           0 min
Histogram: 8 4 4 0 4 12 8 0 30 34
Nghost:        3878.89 ave        5425 max         232 min
Histogram: 8 0 8 0 16 0 8 8 16 40
Neighs:        79213.5 ave      115295 max           0 min
Histogram: 8 4 4 0 10 6 8 8 24 32

Total # of neighbors = 8238201
Ave neighs/atom = 28.530467
Neighbor list builds = 0
Dangerous builds = 0
The dot product: -1.97240225386724e-08
Setting atom values ...
  1 settings made for x
  1 settings made for y
  1 settings made for z
Setting up cg style minimization ...
  Unit style    : metal
  Current step  : 7013
Per MPI rank memory allocation (min/avg/max) = 5.441 | 5.816 | 6.074 Mbytes
Step PotEng KinEng TotEng v_fx v_fy v_fz 
    7013   -1152448.6            0   -1152448.6 -0.021485398 0.00086331998  0.025412264 
    7259   -1152448.6            0   -1152448.6 4.8396756e-06 -1.3957011e-06 -5.6288851e-06 
Loop time of 2.85467 on 104 procs for 246 steps with 288751 atoms

99.9% CPU use with 104 MPI tasks x 1 OpenMP threads

Minimization stats:
  Stopping criterion = energy tolerance
  Energy initial, next-to-last, final = 
     -1152448.58159886  -1152448.58610482  -1152448.58610482
  Force two-norm initial, final = 0.17841458 0.00011708946
  Force max component initial, final = 0.1482778 7.0419076e-06
  Final line search alpha, max atom move = 1.0000000 7.0419076e-06
  Iterations, force evaluations = 246 492

MPI task timing breakdown:
Section |  min time  |  avg time  |  max time  |%varavg| %total
---------------------------------------------------------------
Pair    | 0.75472    | 2.0647     | 2.6923     |  38.7 | 72.33
Neigh   | 1.0813e-05 | 0.0029489  | 0.0042645  |   2.2 |  0.10
Comm    | 0.043172   | 0.46565    | 1.3996     |  57.2 | 16.31
Output  | 0          | 0          | 0          |   0.0 |  0.00
Modify  | 2.9271e-05 | 0.0040435  | 0.0086904  |   3.0 |  0.14
Other   |            | 0.3173     |            |       | 11.12

Nlocal:        2776.45 ave        3954 max           0 min
Histogram: 8 4 4 0 4 12 8 0 30 34
Nghost:        3878.95 ave        5425 max         232 min
Histogram: 8 0 8 0 16 0 8 8 16 40
Neighs:        79213.4 ave      115280 max           0 min
Histogram: 8 4 4 0 10 6 8 8 24 32

Total # of neighbors = 8238196
Ave neighs/atom = 28.530450
Neighbor list builds = 1
Dangerous builds = 0
The dot product: 9.56923951180762e-08
Setting atom values ...
  1 settings made for x
  1 settings made for y
  1 settings made for z
Setting up cg style minimization ...
  Unit style    : metal
  Current step  : 7259
Per MPI rank memory allocation (min/avg/max) = 5.441 | 5.816 | 6.074 Mbytes
Step PotEng KinEng TotEng v_fx v_fy v_fz 
    7259   -1152448.6            0   -1152448.6 -0.011692964 -0.0012478446  0.013527284 
    7496   -1152448.6            0   -1152448.6 2.8600803e-06 -3.8983926e-07 -3.2502214e-06 
Loop time of 2.7442 on 104 procs for 237 steps with 288751 atoms

99.9% CPU use with 104 MPI tasks x 1 OpenMP threads

Minimization stats:
  Stopping criterion = energy tolerance
  Energy initial, next-to-last, final = 
     -1152448.55848947  -1152448.56158788  -1152448.56158788
  Force two-norm initial, final = 0.18440478 2.9826603e-05
  Force max component initial, final = 0.14845971 4.4105919e-06
  Final line search alpha, max atom move = 1.0000000 4.4105919e-06
  Iterations, force evaluations = 237 474

MPI task timing breakdown:
Section |  min time  |  avg time  |  max time  |%varavg| %total
---------------------------------------------------------------
Pair    | 0.72376    | 1.9959     | 2.5967     |  38.1 | 72.73
Neigh   | 0          | 0          | 0          |   0.0 |  0.00
Comm    | 0.038914   | 0.45321    | 1.3902     |  55.9 | 16.52
Output  | 0          | 0          | 0          |   0.0 |  0.00
Modify  | 2.8462e-05 | 0.0038917  | 0.0083366  |   2.9 |  0.14
Other   |            | 0.2912     |            |       | 10.61

Nlocal:        2776.45 ave        3956 max           0 min
Histogram: 8 4 4 0 4 12 8 0 30 34
Nghost:        3879.04 ave        5426 max         232 min
Histogram: 8 0 8 0 16 0 8 8 16 40
Neighs:        79213.5 ave      115333 max           0 min
Histogram: 8 4 4 0 10 6 8 8 24 32

Total # of neighbors = 8238199
Ave neighs/atom = 28.530461
Neighbor list builds = 0
Dangerous builds = 0
The dot product: 2.65714188406723e-08
Setting atom values ...
  1 settings made for x
  1 settings made for y
  1 settings made for z
Setting up cg style minimization ...
  Unit style    : metal
  Current step  : 7496
Per MPI rank memory allocation (min/avg/max) = 5.441 | 5.816 | 6.074 Mbytes
Step PotEng KinEng TotEng v_fx v_fy v_fz 
    7496   -1152448.5            0   -1152448.5 -0.024684203 0.0041695034  0.027540073 
    7710   -1152448.5            0   -1152448.5 2.3166175e-05 -2.3460787e-06 -2.5980867e-05 
[...]
Histogram: 8 4 4 0 4 12 8 0 30 34
Nghost:        3879.09 ave        5424 max         232 min
Histogram: 8 0 8 0 16 0 8 8 16 40
Neighs:        79213.4 ave      115268 max           0 min
Histogram: 8 4 4 0 10 6 8 8 24 32

Total # of neighbors = 8238193
Ave neighs/atom = 28.530440
Neighbor list builds = 0
Dangerous builds = 0
The dot product: -5.9033276160936e-08
Setting atom values ...
  1 settings made for x
  1 settings made for y
  1 settings made for z
Setting up cg style minimization ...
  Unit style    : metal
  Current step  : 11032
Per MPI rank memory allocation (min/avg/max) = 5.441 | 5.816 | 6.074 Mbytes
Step PotEng KinEng TotEng v_fx v_fy v_fz 
   11032   -1152448.8            0   -1152448.8 -0.010059208 -0.0057195581  0.013251866 
   11167   -1152448.8            0   -1152448.8 3.1194204e-05 -7.0582539e-05 5.5802653e-05 
Loop time of 1.55456 on 104 procs for 135 steps with 288751 atoms

99.9% CPU use with 104 MPI tasks x 1 OpenMP threads

Minimization stats:
  Stopping criterion = energy tolerance
  Energy initial, next-to-last, final = 
     -1152448.76963991  -1152448.77078528  -1152448.77078528
  Force two-norm initial, final = 0.13701632 0.00027769308
  Force max component initial, final = 0.060321576 7.0582539e-05
  Final line search alpha, max atom move = 1.0000000 7.0582539e-05
  Iterations, force evaluations = 135 270

MPI task timing breakdown:
Section |  min time  |  avg time  |  max time  |%varavg| %total
---------------------------------------------------------------
Pair    | 0.41343    | 1.1319     | 1.4718     |  28.7 | 72.81
Neigh   | 0          | 0          | 0          |   0.0 |  0.00
Comm    | 0.024279   | 0.25384    | 0.76884    |  42.7 | 16.33
Output  | 0          | 0          | 0          |   0.0 |  0.00
Modify  | 1.7927e-05 | 0.0022247  | 0.0047671  |   2.2 |  0.14
Other   |            | 0.1666     |            |       | 10.72

Nlocal:        2776.45 ave        3956 max           0 min
Histogram: 8 4 4 0 4 12 8 0 30 34
Nghost:        3879.09 ave        5424 max         232 min
Histogram: 8 0 8 0 16 0 8 8 16 40
Neighs:        79213.4 ave      115297 max           0 min
Histogram: 8 4 4 0 10 6 8 8 24 32

Total # of neighbors = 8238193
Ave neighs/atom = 28.530440
Neighbor list builds = 0
Dangerous builds = 0
The dot product: 1.6196183366467e-07
Setting atom values ...
  1 settings made for x
  1 settings made for y
  1 settings made for z
Setting up cg style minimization ...
  Unit style    : metal
  Current step  : 11167
Per MPI rank memory allocation (min/avg/max) = 5.441 | 5.816 | 6.074 Mbytes
Step PotEng KinEng TotEng v_fx v_fy v_fz 
   11167   -1152448.8            0   -1152448.8 -0.0095439509 -0.0064016807  0.013532833 
   11336   -1152448.8            0   -1152448.8 2.002775e-05 -3.8887464e-05 2.8690871e-05 
Loop time of 1.94502 on 104 procs for 169 steps with 288751 atoms

99.9% CPU use with 104 MPI tasks x 1 OpenMP threads

Minimization stats:
  Stopping criterion = energy tolerance
  Energy initial, next-to-last, final = 
     -1152448.77276111  -1152448.77391592  -1152448.77391592
  Force two-norm initial, final = 0.13769424 0.00016842446
  Force max component initial, final = 0.060686101 5.1157560e-05
  Final line search alpha, max atom move = 1.0000000 5.1157560e-05
  Iterations, force evaluations = 169 338

MPI task timing breakdown:
Section |  min time  |  avg time  |  max time  |%varavg| %total
---------------------------------------------------------------
Pair    | 0.51581    | 1.4146     | 1.8435     |  32.2 | 72.73
Neigh   | 0          | 0          | 0          |   0.0 |  0.00
Comm    | 0.029159   | 0.31902    | 0.95821    |  47.2 | 16.40
Output  | 0          | 0          | 0          |   0.0 |  0.00
Modify  | 2.2329e-05 | 0.0027813  | 0.0059536  |   2.5 |  0.14
Other   |            | 0.2086     |            |       | 10.73

Nlocal:        2776.45 ave        3956 max           0 min
Histogram: 8 4 4 0 4 12 8 0 30 34
Nghost:        3879.09 ave        5425 max         232 min
Histogram: 8 0 8 0 16 0 8 8 16 40
Neighs:        79213.4 ave      115309 max           0 min
Histogram: 8 4 4 0 10 6 8 8 24 32

Total # of neighbors = 8238190
Ave neighs/atom = 28.530429
Neighbor list builds = 0
Dangerous builds = 0
The dot product: 8.04384642698519e-08
Setting atom values ...
  1 settings made for x
  1 settings made for y
  1 settings made for z
Setting up cg style minimization ...
  Unit style    : metal
  Current step  : 11336
Per MPI rank memory allocation (min/avg/max) = 5.441 | 5.816 | 6.074 Mbytes
Step PotEng KinEng TotEng v_fx v_fy v_fz 
   11336   -1152448.8            0   -1152448.8 -0.0090160558 -0.0069436541  0.013654525 
   11508   -1152448.8            0   -1152448.8 2.3259122e-05 -4.4520851e-05 3.2517419e-05 
Loop time of 1.98518 on 104 procs for 172 steps with 288751 atoms

99.9% CPU use with 104 MPI tasks x 1 OpenMP threads

Minimization stats:
  Stopping criterion = energy tolerance
  Energy initial, next-to-last, final = 
     -1152448.77517035  -1152448.77634392  -1152448.77634392
  Force two-norm initial, final = 0.13845085 0.00015885885
  Force max component initial, final = 0.061042233 5.6245863e-05
  Final line search alpha, max atom move = 1.0000000 5.6245863e-05
  Iterations, force evaluations = 172 344

MPI task timing breakdown:
Section |  min time  |  avg time  |  max time  |%varavg| %total
---------------------------------------------------------------
Pair    | 0.52552    | 1.4406     | 1.876      |  32.4 | 72.57
Neigh   | 0          | 0          | 0          |   0.0 |  0.00
Comm    | 0.030553   | 0.32598    | 0.98629    |  47.6 | 16.42
Output  | 0          | 0          | 0          |   0.0 |  0.00
Modify  | 2.2968e-05 | 0.0028264  | 0.0060247  |   2.5 |  0.14
Other   |            | 0.2158     |            |       | 10.87

Nlocal:        2776.45 ave        3956 max           0 min
Histogram: 8 4 4 0 4 12 8 0 30 34
Nghost:        3879.09 ave        5427 max         232 min
Histogram: 8 0 8 0 16 0 8 8 16 40
Neighs:        79213.3 ave      115309 max           0 min
Histogram: 8 4 4 0 10 6 8 8 24 32

Total # of neighbors = 8238188
Ave neighs/atom = 28.530422
Neighbor list builds = 0
Dangerous builds = 0
The dot product: 1.05346507616681e-07
Setting atom values ...
  1 settings made for x
  1 settings made for y
  1 settings made for z
Setting up cg style minimization ...
  Unit style    : metal
  Current step  : 11508
Per MPI rank memory allocation (min/avg/max) = 5.441 | 5.816 | 6.074 Mbytes
Step PotEng KinEng TotEng v_fx v_fy v_fz 
   11508   -1152448.8            0   -1152448.8 -0.008950654 -0.0065730063  0.013103799 
   11730   -1152448.8            0   -1152448.8 -3.898985e-07 9.4984662e-07 -7.6266161e-07 
Loop time of 2.55086 on 104 procs for 222 steps with 288751 atoms

99.9% CPU use with 104 MPI tasks x 1 OpenMP threads

Minimization stats:
  Stopping criterion = energy tolerance
  Energy initial, next-to-last, final = 
     -1152448.77693925  -1152448.77810085  -1152448.77810085
  Force two-norm initial, final = 0.13898902 3.3207199e-05
  Force max component initial, final = 0.061325002 9.8584585e-07
  Final line search alpha, max atom move = 1.0000000 9.8584585e-07
  Iterations, force evaluations = 222 444

MPI task timing breakdown:
Section |  min time  |  avg time  |  max time  |%varavg| %total
---------------------------------------------------------------
Pair    | 0.67751    | 1.8567     | 2.4135     |  36.8 | 72.79
Neigh   | 0          | 0          | 0          |   0.0 |  0.00
Comm    | 0.044989   | 0.41659    | 1.2606     |  54.6 | 16.33
Output  | 0          | 0          | 0          |   0.0 |  0.00
Modify  | 2.891e-05  | 0.0036498  | 0.0077662  |   2.9 |  0.14
Other   |            | 0.2739     |            |       | 10.74

Nlocal:        2776.45 ave        3956 max           0 min
Histogram: 8 4 4 0 4 12 8 0 30 34
Nghost:        3879.09 ave        5424 max         232 min
Histogram: 8 0 8 0 16 0 8 8 16 40
Neighs:        79213.4 ave      115309 max           0 min
Histogram: 8 4 4 0 10 6 8 8 24 32

Total # of neighbors = 8238190
Ave neighs/atom = 28.530429
Neighbor list builds = 0
Dangerous builds = 0
The dot product: -2.65502880494178e-09
Setting atom values ...
  1 settings made for x
  1 settings made for y
  1 settings made for z
Setting up cg style minimization ...
  Unit style    : metal
  Current step  : 11730
Per MPI rank memory allocation (min/avg/max) = 5.441 | 5.816 | 6.074 Mbytes
Step PotEng KinEng TotEng v_fx v_fy v_fz 
   11730   -1152448.8            0   -1152448.8 -0.011763644 -0.0017486089 0.0097069053 
   11927   -1152448.8            0   -1152448.8 -1.4114128e-05 3.0565664e-05 -2.3404276e-05 
Loop time of 2.2698 on 104 procs for 197 steps with 288751 atoms

99.9% CPU use with 104 MPI tasks x 1 OpenMP threads

Minimization stats:
  Stopping criterion = energy tolerance
  Energy initial, next-to-last, final = 
     -1152448.77782879  -1152448.77898229  -1152448.77898229
  Force two-norm initial, final = 0.13898645 8.3287205e-05
  Force max component initial, final = 0.061611694 3.0565664e-05
  Final line search alpha, max atom move = 1.0000000 3.0565664e-05
  Iterations, force evaluations = 197 394

MPI task timing breakdown:
Section |  min time  |  avg time  |  max time  |%varavg| %total
---------------------------------------------------------------
Pair    | 0.60121    | 1.6488     | 2.1448     |  34.7 | 72.64
Neigh   | 0          | 0          | 0          |   0.0 |  0.00
Comm    | 0.034947   | 0.37014    | 1.119      |  51.1 | 16.31
Output  | 0          | 0          | 0          |   0.0 |  0.00
Modify  | 2.5842e-05 | 0.0032344  | 0.0068861  |   2.7 |  0.14
Other   |            | 0.2476     |            |       | 10.91

Nlocal:        2776.45 ave        3956 max           0 min
Histogram: 8 4 4 0 4 12 8 0 30 34
Nghost:        3879.07 ave        5424 max         232 min
Histogram: 8 0 8 0 16 0 8 8 16 40
Neighs:        79213.3 ave      115309 max           0 min
Histogram: 8 4 4 0 10 6 8 8 24 32

Total # of neighbors = 8238188
Ave neighs/atom = 28.530422
Neighbor list builds = 0
Dangerous builds = 0
The dot product: -3.22375225325659e-08
Setting atom values ...
  1 settings made for x
  1 settings made for y
  1 settings made for z
Setting up cg style minimization ...
  Unit style    : metal
  Current step  : 11927
Per MPI rank memory allocation (min/avg/max) = 5.441 | 5.816 | 6.074 Mbytes
Step PotEng KinEng TotEng v_fx v_fy v_fz 
   11927   -1152448.8            0   -1152448.8  -0.01279874 0.00023071116  0.008198285 
   12000   -1152448.8            0   -1152448.8 -5.880579e-05 0.0001394272 -0.00011027972 
   12150   -1152448.8            0   -1152448.8 -4.3147659e-06 8.9100287e-06 -6.6799741e-06 
Loop time of 2.57601 on 104 procs for 223 steps with 288751 atoms

99.9% CPU use with 104 MPI tasks x 1 OpenMP threads

Minimization stats:
  Stopping criterion = energy tolerance
  Energy initial, next-to-last, final = 
     -1152448.77758337   -1152448.7787466   -1152448.7787466
  Force two-norm initial, final = 0.13978254 2.9851975e-05
  Force max component initial, final = 0.061904762 8.9100287e-06
  Final line search alpha, max atom move = 1.0000000 8.9100287e-06
  Iterations, force evaluations = 223 446

MPI task timing breakdown:
Section |  min time  |  avg time  |  max time  |%varavg| %total
---------------------------------------------------------------
Pair    | 0.6814     | 1.8656     | 2.4277     |  36.9 | 72.42
Neigh   | 0          | 0          | 0          |   0.0 |  0.00
Comm    | 0.048636   | 0.42159    | 1.2764     |  54.3 | 16.37
Output  | 9.6482e-05 | 9.9357e-05 | 0.00023917 |   0.0 |  0.00
Modify  | 2.9572e-05 | 0.0036561  | 0.0077904  |   2.9 |  0.14
Other   |            | 0.2851     |            |       | 11.07

Nlocal:        2776.45 ave        3956 max           0 min
Histogram: 8 4 4 0 4 12 8 0 30 34
Nghost:        3879.09 ave        5424 max         232 min
Histogram: 8 0 8 0 16 0 8 8 16 40
Neighs:        79213.4 ave      115310 max           0 min
Histogram: 8 4 4 0 10 6 8 8 24 32

Total # of neighbors = 8238190
Ave neighs/atom = 28.530429
Neighbor list builds = 0
Dangerous builds = 0
The dot product: -2.50578898973662e-09
Setting atom values ...
  1 settings made for x
  1 settings made for y
  1 settings made for z
Setting up cg style minimization ...
  Unit style    : metal
  Current step  : 12150
Per MPI rank memory allocation (min/avg/max) = 5.441 | 5.816 | 6.074 Mbytes
Step PotEng KinEng TotEng v_fx v_fy v_fz 
   12150   -1152448.8            0   -1152448.8 -0.010483433 -0.0029305156 0.0099845446 
   12371   -1152448.8            0   -1152448.8 -2.6121168e-06 5.7238978e-06 -4.3940849e-06 
Loop time of 2.55252 on 104 procs for 221 steps with 288751 atoms

99.9% CPU use with 104 MPI tasks x 1 OpenMP threads

Minimization stats:
  Stopping criterion = energy tolerance
  Energy initial, next-to-last, final = 
     -1152448.77625152  -1152448.77738177  -1152448.77738177
  Force two-norm initial, final = 0.13971774 3.3158315e-05
  Force max component initial, final = 0.062185866 5.7238978e-06
  Final line search alpha, max atom move = 1.0000000 5.7238978e-06
  Iterations, force evaluations = 221 442

MPI task timing breakdown:
Section |  min time  |  avg time  |  max time  |%varavg| %total
---------------------------------------------------------------
Pair    | 0.6751     | 1.8517     | 2.4024     |  36.8 | 72.54
Neigh   | 0          | 0          | 0          |   0.0 |  0.00
Comm    | 0.039488   | 0.41774    | 1.2681     |  54.4 | 16.37
Output  | 0          | 0          | 0          |   0.0 |  0.00
Modify  | 2.9278e-05 | 0.0036318  | 0.0077347  |   2.9 |  0.14
Other   |            | 0.2795     |            |       | 10.95

Nlocal:        2776.45 ave        3956 max           0 min
Histogram: 8 4 4 0 4 12 8 0 30 34
Nghost:        3879.05 ave        5424 max         232 min
Histogram: 8 0 8 0 16 0 8 8 16 40
Neighs:        79213.4 ave      115315 max           0 min
Histogram: 8 4 4 0 10 6 8 8 24 32

Total # of neighbors = 8238190
Ave neighs/atom = 28.530429
Neighbor list builds = 0
Dangerous builds = 0
The dot product: -6.27027778796671e-09
Setting atom values ...
  1 settings made for x
  1 settings made for y
  1 settings made for z
Setting up cg style minimization ...
  Unit style    : metal
  Current step  : 12371
Per MPI rank memory allocation (min/avg/max) = 5.441 | 5.816 | 6.074 Mbytes
Step PotEng KinEng TotEng v_fx v_fy v_fz 
   12371   -1152448.8            0   -1152448.8 -0.0077356776 -0.0065256896  0.011960459 
   12571   -1152448.8            0   -1152448.8 -2.9491076e-06 6.3847841e-06 -4.8710715e-06 
Loop time of 2.32996 on 104 procs for 200 steps with 288751 atoms

99.9% CPU use with 104 MPI tasks x 1 OpenMP threads

Minimization stats:
  Stopping criterion = energy tolerance
  Energy initial, next-to-last, final = 
     -1152448.77394654  -1152448.77506525  -1152448.77506525
  Force two-norm initial, final = 0.14060789 6.1203412e-05
  Force max component initial, final = 0.062449822 6.3847841e-06
  Final line search alpha, max atom move = 1.0000000 6.3847841e-06
  Iterations, force evaluations = 200 400

MPI task timing breakdown:
Section |  min time  |  avg time  |  max time  |%varavg| %total
---------------------------------------------------------------
Pair    | 0.61769    | 1.681      | 2.1783     |  34.8 | 72.15
Neigh   | 0          | 0          | 0          |   0.0 |  0.00
Comm    | 0.038942   | 0.38079    | 1.1325     |  50.9 | 16.34
Output  | 0          | 0          | 0          |   0.0 |  0.00
Modify  | 2.6399e-05 | 0.0032813  | 0.0069825  |   2.7 |  0.14
Other   |            | 0.2649     |            |       | 11.37

Nlocal:        2776.45 ave        3956 max           0 min
Histogram: 8 4 4 0 4 12 8 0 30 34
Nghost:        3879.03 ave        5424 max         232 min
Histogram: 8 0 8 0 16 0 8 8 16 40
Neighs:        79213.4 ave      115320 max           0 min
Histogram: 8 4 4 0 10 6 8 8 24 32

Total # of neighbors = 8238189
Ave neighs/atom = 28.530426
Neighbor list builds = 0
Dangerous builds = 0
The dot product: -1.39060144431846e-08
Setting atom values ...
  1 settings made for x
  1 settings made for y
  1 settings made for z
Setting up cg style minimization ...
  Unit style    : metal
  Current step  : 12571
Per MPI rank memory allocation (min/avg/max) = 5.441 | 5.816 | 6.074 Mbytes
Step PotEng KinEng TotEng v_fx v_fy v_fz 
   12571   -1152448.8            0   -1152448.8 -0.0071808405 -0.0065729959  0.011593178 
   12918   -1152448.8            0   -1152448.8 -2.7402151e-08 4.5558923e-08 -3.055134e-08 
Loop time of 3.98411 on 104 procs for 347 steps with 288751 atoms

99.9% CPU use with 104 MPI tasks x 1 OpenMP threads

Minimization stats:
  Stopping criterion = energy tolerance
  Energy initial, next-to-last, final = 
     -1152448.77077834  -1152448.77189487  -1152448.77189487
  Force two-norm initial, final = 0.14083474 4.1188153e-07
  Force max component initial, final = 0.06268897 9.0677655e-08
  Final line search alpha, max atom move = 1.0000000 9.0677655e-08
  Iterations, force evaluations = 347 694

MPI task timing breakdown:
Section |  min time  |  avg time  |  max time  |%varavg| %total
---------------------------------------------------------------
Pair    | 1.0578     | 2.9036     | 3.7694     |  46.1 | 72.88
Neigh   | 0          | 0          | 0          |   0.0 |  0.00
Comm    | 0.060886   | 0.65334    | 1.9705     |  68.3 | 16.40
Output  | 0          | 0          | 0          |   0.0 |  0.00
Modify  | 4.5225e-05 | 0.0057024  | 0.012154   |   3.6 |  0.14
Other   |            | 0.4214     |            |       | 10.58

Nlocal:        2776.45 ave        3956 max           0 min
Histogram: 8 4 4 0 4 12 8 0 30 34
Nghost:        3879.03 ave        5424 max         232 min
Histogram: 8 0 8 0 16 0 8 8 16 40
Neighs:        79213.3 ave      115320 max           0 min
Histogram: 8 4 4 0 10 6 8 8 24 32

Total # of neighbors = 8238188
Ave neighs/atom = 28.530422
Neighbor list builds = 0
Dangerous builds = 0
The dot product: -7.61509170440336e-11
Setting up cg style minimization ...
  Unit style    : metal
  Current step  : 12918
Per MPI rank memory allocation (min/avg/max) = 5.441 | 5.816 | 6.074 Mbytes
Step PotEng KinEng TotEng v_fx v_fy v_fz 
   12918   -1152448.8            0   -1152448.8 -0.073282713  -0.12022694  -0.11355671 
   13000   -1152448.8            0   -1152448.8 0.00034278149 -0.00084833432 0.00067515948 
   13192   -1152448.8            0   -1152448.8 2.7403207e-06 -5.6012665e-06 4.2012941e-06 
Loop time of 3.15625 on 104 procs for 274 steps with 288751 atoms

99.9% CPU use with 104 MPI tasks x 1 OpenMP threads

Minimization stats:
  Stopping criterion = energy tolerance
  Energy initial, next-to-last, final = 
     -1152448.77189487  -1152448.77903518  -1152448.77903518
  Force two-norm initial, final = 0.1808867 1.8948865e-05
  Force max component initial, final = 0.12022694 6.1468304e-06
  Final line search alpha, max atom move = 1.0000000 6.1468304e-06
  Iterations, force evaluations = 274 548

MPI task timing breakdown:
Section |  min time  |  avg time  |  max time  |%varavg| %total
---------------------------------------------------------------
Pair    | 0.83844    | 2.291      | 2.9906     |  40.8 | 72.59
Neigh   | 1.2049e-05 | 0.0029688  | 0.0042943  |   2.2 |  0.09
Comm    | 0.04825    | 0.5167     | 1.5519     |  60.0 | 16.37
Output  | 0.00010814 | 0.00011689 | 0.00027381 |   0.0 |  0.00
Modify  | 3.0646e-05 | 0.002921   | 0.0075331  |   3.4 |  0.09
Other   |            | 0.3425     |            |       | 10.85

Nlocal:        2776.45 ave        3956 max           0 min
Histogram: 8 4 4 0 4 12 8 0 30 34
Nghost:        3878.96 ave        5424 max         232 min
Histogram: 8 0 8 0 16 0 8 8 16 40
Neighs:        79213.4 ave      115320 max           0 min
Histogram: 8 4 4 0 10 6 8 8 24 32

Total # of neighbors = 8238192
Ave neighs/atom = 28.530436
Neighbor list builds = 1
Dangerous builds = 1
