LAMMPS (29 Oct 2020)
OMP_NUM_THREADS environment is not set. Defaulting to 1 thread. (../comm.cpp:94)
  using 1 OpenMP thread(s) per MPI task
OMP_NUM_THREADS environment is not set. Defaulting to 1 thread. (../comm.cpp:94)
  using 1 OpenMP thread(s) per MPI task
Reading data file ...
  orthogonal box = (-122.39241 -121.13707 -37.090501) to (122.39241 121.13707 37.090501)
  13 by 4 by 2 MPI processor grid
  reading atoms ...
  288751 atoms
  read_data CPU = 0.451 seconds
199981 atoms in group inner
88770 atoms in group outer
1 atoms in group carbon
Neighbor list info ...
  update every 1 steps, delay 0 steps, check yes
  max neighbors/atom: 2000, page size: 100000
  master list distance cutoff = 5.6
  ghost atom cutoff = 5.6
  binsize = 2.8, bins = 88 87 27
  1 neighbor lists, perpetual/occasional/extra = 1 0 0
  (1) pair eam/alloy, perpetual
      attributes: half, newton on
      pair build: half/bin/atomonly/newton
      stencil: half/bin/3d/newton
      bin: standard
Setting up cg style minimization ...
  Unit style    : metal
  Current step  : 0
Per MPI rank memory allocation (min/avg/max) = 5.441 | 5.816 | 6.074 Mbytes
Step v_fx v_fy v_fz PotEng KinEng TotEng 
       0    12.805738    23.577877    7.9136487   -1152441.7            0   -1152441.7 
     253 1.4941244e-06 -9.4104226e-08 2.2304137e-06     -1152449            0     -1152449 
Loop time of 3.06341 on 104 procs for 253 steps with 288751 atoms

99.8% CPU use with 104 MPI tasks x 1 OpenMP threads

Minimization stats:
  Stopping criterion = energy tolerance
  Energy initial, next-to-last, final = 
     -1152441.71771728  -1152448.97218785  -1152448.97218785
  Force two-norm initial, final = 45.735455 0.0001221438
  Force max component initial, final = 29.916245 1.3665414e-05
  Final line search alpha, max atom move = 1.0000000 1.3665414e-05
  Iterations, force evaluations = 253 502

MPI task timing breakdown:
Section |  min time  |  avg time  |  max time  |%varavg| %total
---------------------------------------------------------------
Pair    | 0.80983    | 2.1397     | 2.7873     |  38.5 | 69.85
Neigh   | 0.00011154 | 0.030597   | 0.046797   |   7.3 |  1.00
Comm    | 0.049529   | 0.50008    | 1.4473     |  55.9 | 16.32
Output  | 0          | 0          | 0          |   0.0 |  0.00
Modify  | 2.9991e-05 | 0.0027312  | 0.006987   |   3.2 |  0.09
Other   |            | 0.3903     |            |       | 12.74

Nlocal:        2776.45 ave        3955 max           0 min
Histogram: 8 4 4 0 4 12 8 0 30 34
Nghost:        3879.03 ave        5424 max         232 min
Histogram: 8 0 8 0 16 0 8 8 16 40
Neighs:        79213.6 ave      115288 max           0 min
Histogram: 8 4 4 0 10 6 8 8 24 32

Total # of neighbors = 8238213
Ave neighs/atom = 28.530509
Neighbor list builds = 10
Dangerous builds = 0
Setting atom values ...
  1 settings made for x
  1 settings made for y
  1 settings made for z
Setting up cg style minimization ...
  Unit style    : metal
  Current step  : 253
Per MPI rank memory allocation (min/avg/max) = 5.441 | 5.816 | 6.074 Mbytes
Step PotEng KinEng TotEng v_fx v_fy v_fz 
     253     -1152449            0     -1152449 -0.0045496108 -0.018542518 -0.008702713 
     370     -1152449            0     -1152449 -2.9668722e-06 -4.3407489e-05 -3.2464224e-05 
Loop time of 1.40748 on 104 procs for 117 steps with 288751 atoms

99.9% CPU use with 104 MPI tasks x 1 OpenMP threads

Minimization stats:
  Stopping criterion = energy tolerance
  Energy initial, next-to-last, final = 
     -1152448.97164254   -1152448.9720095   -1152448.9720095
  Force two-norm initial, final = 0.084310057 0.00021521572
  Force max component initial, final = 0.041793716 4.3407489e-05
  Final line search alpha, max atom move = 1.0000000 4.3407489e-05
  Iterations, force evaluations = 117 234

MPI task timing breakdown:
Section |  min time  |  avg time  |  max time  |%varavg| %total
---------------------------------------------------------------
Pair    | 0.35576    | 0.99493    | 1.3043     |  27.1 | 70.69
Neigh   | 0          | 0          | 0          |   0.0 |  0.00
Comm    | 0.025184   | 0.23012    | 0.66983    |  38.3 | 16.35
Output  | 0          | 0          | 0          |   0.0 |  0.00
Modify  | 1.4282e-05 | 0.0019475  | 0.0041757  |   2.1 |  0.14
Other   |            | 0.1805     |            |       | 12.82

Nlocal:        2776.45 ave        3956 max           0 min
Histogram: 8 4 4 0 4 12 8 0 30 34
Nghost:        3879.15 ave        5425 max         232 min
Histogram: 8 0 8 0 16 0 8 8 16 40
Neighs:        79213.5 ave      115328 max           0 min
Histogram: 8 4 4 0 10 6 8 8 24 32

Total # of neighbors = 8238206
Ave neighs/atom = 28.530485
Neighbor list builds = 0
Dangerous builds = 0
Setting atom values ...
  1 settings made for x
  1 settings made for y
  1 settings made for z
Setting up cg style minimization ...
  Unit style    : metal
  Current step  : 370
Per MPI rank memory allocation (min/avg/max) = 5.441 | 5.816 | 6.074 Mbytes
Step PotEng KinEng TotEng v_fx v_fy v_fz 
     370     -1152449            0     -1152449 -0.007559238 -0.041553826 -0.019603044 
     571     -1152449            0     -1152449 1.1925569e-06 2.8206689e-05 1.6678254e-05 
Loop time of 2.44183 on 104 procs for 201 steps with 288751 atoms

99.8% CPU use with 104 MPI tasks x 1 OpenMP threads

Minimization stats:
  Stopping criterion = energy tolerance
  Energy initial, next-to-last, final = 
     -1152448.96954471  -1152448.97110068  -1152448.97110068
  Force two-norm initial, final = 0.15930572 0.00014774474
  Force max component initial, final = 0.060960559 2.8206689e-05
  Final line search alpha, max atom move = 1.0000000 2.8206689e-05
  Iterations, force evaluations = 201 402

MPI task timing breakdown:
Section |  min time  |  avg time  |  max time  |%varavg| %total
---------------------------------------------------------------
Pair    | 0.60798    | 1.6951     | 2.2164     |  35.4 | 69.42
Neigh   | 0          | 0          | 0          |   0.0 |  0.00
Comm    | 0.036777   | 0.39492    | 1.1365     |  49.5 | 16.17
Output  | 0          | 0          | 0          |   0.0 |  0.00
Modify  | 2.5455e-05 | 0.0033288  | 0.007045   |   2.7 |  0.14
Other   |            | 0.3485     |            |       | 14.27

Nlocal:        2776.45 ave        3956 max           0 min
Histogram: 8 4 4 0 4 12 8 0 30 34
Nghost:        3879.15 ave        5425 max         232 min
Histogram: 8 0 8 0 16 0 8 8 16 40
Neighs:        79213.5 ave      115326 max           0 min
Histogram: 8 4 4 0 10 6 8 8 24 32

Total # of neighbors = 8238203
Ave neighs/atom = 28.530474
Neighbor list builds = 0
Dangerous builds = 0
The dot product: 2.14632069025412e-07
Setting atom values ...
  1 settings made for x
  1 settings made for y
  1 settings made for z
Setting up cg style minimization ...
  Unit style    : metal
  Current step  : 571
Per MPI rank memory allocation (min/avg/max) = 5.441 | 5.816 | 6.074 Mbytes
Step PotEng KinEng TotEng v_fx v_fy v_fz 
     571     -1152449            0     -1152449 -0.010732976 -0.050663402 -0.013581318 
     754     -1152449            0     -1152449 -2.2466271e-06 -8.4912844e-06 -2.1028128e-06 
Loop time of 2.1899 on 104 procs for 183 steps with 288751 atoms

99.9% CPU use with 104 MPI tasks x 1 OpenMP threads

Minimization stats:
  Stopping criterion = energy tolerance
  Energy initial, next-to-last, final = 
     -1152448.96772658  -1152448.96955436  -1152448.96955436
  Force two-norm initial, final = 0.17356698 0.00020043394
  Force max component initial, final = 0.078377718 1.7012943e-05
  Final line search alpha, max atom move = 1.0000000 1.7012943e-05
  Iterations, force evaluations = 183 366

MPI task timing breakdown:
Section |  min time  |  avg time  |  max time  |%varavg| %total
---------------------------------------------------------------
Pair    | 0.55439    | 1.5508     | 2.0415     |  33.8 | 70.82
Neigh   | 0          | 0          | 0          |   0.0 |  0.00
Comm    | 0.036272   | 0.36077    | 1.0675     |  48.2 | 16.47
Output  | 0          | 0          | 0          |   0.0 |  0.00
Modify  | 2.4181e-05 | 0.003085   | 0.010496   |   2.9 |  0.14
Other   |            | 0.2753     |            |       | 12.57

Nlocal:        2776.45 ave        3956 max           0 min
Histogram: 8 4 4 0 4 12 8 0 30 34
Nghost:        3879.10 ave        5424 max         232 min
Histogram: 8 0 8 0 16 0 8 8 16 40
Neighs:        79213.5 ave      115335 max           0 min
Histogram: 8 4 4 0 10 6 8 8 24 32

Total # of neighbors = 8238200
Ave neighs/atom = 28.530464
Neighbor list builds = 0
Dangerous builds = 0
The dot product: -4.43266242783289e-08
Setting atom values ...
  1 settings made for x
  1 settings made for y
  1 settings made for z
Setting up cg style minimization ...
  Unit style    : metal
  Current step  : 754
Per MPI rank memory allocation (min/avg/max) = 5.441 | 5.816 | 6.074 Mbytes
Step PotEng KinEng TotEng v_fx v_fy v_fz 
     754     -1152449            0     -1152449 -0.0079975449 -0.056452574 -0.0097867545 
     904     -1152449            0     -1152449 1.8271582e-05 6.5933026e-05 9.5650872e-06 
Loop time of 1.76608 on 104 procs for 150 steps with 288751 atoms

99.9% CPU use with 104 MPI tasks x 1 OpenMP threads

Minimization stats:
  Stopping criterion = energy tolerance
  Energy initial, next-to-last, final = 
     -1152448.96535156  -1152448.96783128  -1152448.96783128
  Force two-norm initial, final = 0.18354803 0.00024757265
  Force max component initial, final = 0.083319563 6.5933026e-05
  Final line search alpha, max atom move = 1.0000000 6.5933026e-05
  Iterations, force evaluations = 150 300

MPI task timing breakdown:
Section |  min time  |  avg time  |  max time  |%varavg| %total
---------------------------------------------------------------
Pair    | 0.44813    | 1.2605     | 1.6491     |  30.5 | 71.37
Neigh   | 0          | 0          | 0          |   0.0 |  0.00
Comm    | 0.027393   | 0.2867     | 0.84491    |  43.8 | 16.23
Output  | 0          | 0          | 0          |   0.0 |  0.00
Modify  | 1.7832e-05 | 0.0024798  | 0.0052353  |   2.3 |  0.14
Other   |            | 0.2164     |            |       | 12.25

Nlocal:        2776.45 ave        3956 max           0 min
Histogram: 8 4 4 0 4 12 8 0 30 34
Nghost:        3879.08 ave        5424 max         232 min
Histogram: 8 0 8 0 16 0 8 8 16 40
Neighs:        79213.5 ave      115334 max           0 min
Histogram: 8 4 4 0 10 6 8 8 24 32

Total # of neighbors = 8238208
Ave neighs/atom = 28.530492
Neighbor list builds = 0
Dangerous builds = 0
The dot product: 1.04551416258234e-06
Setting atom values ...
  1 settings made for x
  1 settings made for y
  1 settings made for z
Setting up cg style minimization ...
  Unit style    : metal
  Current step  : 904
Per MPI rank memory allocation (min/avg/max) = 5.441 | 5.816 | 6.074 Mbytes
Step PotEng KinEng TotEng v_fx v_fy v_fz 
     904     -1152449            0     -1152449 -0.0044373454 -0.053307252 0.0020085008 
    1000     -1152449            0     -1152449 -6.03803e-05 -0.00015836689 1.2462545e-05 
    1077     -1152449            0     -1152449 2.5021543e-06 6.4735632e-06 -5.1410919e-07 
Loop time of 2.0704 on 104 procs for 173 steps with 288751 atoms

99.9% CPU use with 104 MPI tasks x 1 OpenMP threads

Minimization stats:
  Stopping criterion = energy tolerance
  Energy initial, next-to-last, final = 
     -1152448.96362794  -1152448.96615581  -1152448.96615581
  Force two-norm initial, final = 0.19801957 2.9307483e-05
  Force max component initial, final = 0.081126231 6.4735632e-06
  Final line search alpha, max atom move = 1.0000000 6.4735632e-06
  Iterations, force evaluations = 173 346

MPI task timing breakdown:
Section |  min time  |  avg time  |  max time  |%varavg| %total
---------------------------------------------------------------
Pair    | 0.52528    | 1.4665     | 1.9108     |  32.7 | 70.83
Neigh   | 0          | 0          | 0          |   0.0 |  0.00
Comm    | 0.035639   | 0.33833    | 0.99092    |  46.9 | 16.34
Output  | 0.00031124 | 0.00031504 | 0.00043894 |   0.0 |  0.02
Modify  | 2.0983e-05 | 0.0028695  | 0.0060747  |   2.5 |  0.14
Other   |            | 0.2624     |            |       | 12.68

Nlocal:        2776.45 ave        3956 max           0 min
Histogram: 8 4 4 0 4 12 8 0 30 34
Nghost:        3879.11 ave        5424 max         232 min
Histogram: 8 0 8 0 16 0 8 8 16 40
Neighs:        79213.6 ave      115325 max           0 min
Histogram: 8 4 4 0 10 6 8 8 24 32

Total # of neighbors = 8238214
Ave neighs/atom = 28.530512
Neighbor list builds = 0
Dangerous builds = 0
The dot product: 6.08721502605651e-08
Setting atom values ...
  1 settings made for x
  1 settings made for y
  1 settings made for z
Setting up cg style minimization ...
  Unit style    : metal
  Current step  : 1077
Per MPI rank memory allocation (min/avg/max) = 5.441 | 5.816 | 6.074 Mbytes
Step PotEng KinEng TotEng v_fx v_fy v_fz 
    1077     -1152449            0     -1152449 -0.0021863034 -0.059730035 0.0078870217 
    1340     -1152449            0     -1152449 -1.9039412e-06 -4.3919548e-06 8.0902457e-07 
Loop time of 3.07104 on 104 procs for 263 steps with 288751 atoms

99.9% CPU use with 104 MPI tasks x 1 OpenMP threads

Minimization stats:
  Stopping criterion = energy tolerance
  Energy initial, next-to-last, final = 
     -1152448.96158364  -1152448.96462081  -1152448.96462081
  Force two-norm initial, final = 0.20726932 2.3554084e-05
  Force max component initial, final = 0.088995926 5.5206545e-06
  Final line search alpha, max atom move = 1.0000000 5.5206545e-06
  Iterations, force evaluations = 263 526

MPI task timing breakdown:
Section |  min time  |  avg time  |  max time  |%varavg| %total
---------------------------------------------------------------
Pair    | 0.7896     | 2.2041     | 2.8855     |  40.2 | 71.77
Neigh   | 0          | 0          | 0          |   0.0 |  0.00
Comm    | 0.049706   | 0.50068    | 1.4931     |  58.4 | 16.30
Output  | 0          | 0          | 0          |   0.0 |  0.00
Modify  | 3.1387e-05 | 0.0043394  | 0.0091969  |   3.1 |  0.14
Other   |            | 0.3619     |            |       | 11.79

Nlocal:        2776.45 ave        3956 max           0 min
Histogram: 8 4 4 0 4 12 8 0 30 34
Nghost:        3879.12 ave        5424 max         232 min
Histogram: 8 0 8 0 16 0 8 8 16 40
Neighs:        79213.6 ave      115322 max           0 min
Histogram: 8 4 4 0 10 6 8 8 24 32

Total # of neighbors = 8238216
Ave neighs/atom = 28.530519
Neighbor list builds = 0
Dangerous builds = 0
The dot product: -4.64460007654766e-08
Setting atom values ...
  1 settings made for x
  1 settings made for y
  1 settings made for z
Setting up cg style minimization ...
  Unit style    : metal
  Current step  : 1340
Per MPI rank memory allocation (min/avg/max) = 5.441 | 5.816 | 6.074 Mbytes
Step PotEng KinEng TotEng v_fx v_fy v_fz 
    1340     -1152449            0     -1152449 -0.0015690505 -0.060994752  0.013138243 
    1484     -1152449            0     -1152449 -3.5027554e-06 -9.9445667e-06 2.6352208e-06 
Loop time of 1.70102 on 104 procs for 144 steps with 288751 atoms

99.9% CPU use with 104 MPI tasks x 1 OpenMP threads

Minimization stats:
  Stopping criterion = energy tolerance
  Energy initial, next-to-last, final = 
     -1152448.96050706  -1152448.96316701  -1152448.96316701
  Force two-norm initial, final = 0.21493993 0.00018462038
  Force max component initial, final = 0.096001887 5.1513776e-05
  Final line search alpha, max atom move = 1.0000000 5.1513776e-05
  Iterations, force evaluations = 144 288

MPI task timing breakdown:
Section |  min time  |  avg time  |  max time  |%varavg| %total
---------------------------------------------------------------
Pair    | 0.43214    | 1.215      | 1.5941     |  29.9 | 71.43
Neigh   | 0          | 0          | 0          |   0.0 |  0.00
Comm    | 0.029301   | 0.27969    | 0.82666    |  42.9 | 16.44
Output  | 0          | 0          | 0          |   0.0 |  0.00
Modify  | 1.7546e-05 | 0.0023834  | 0.0050802  |   2.3 |  0.14
Other   |            | 0.204      |            |       | 11.99

Nlocal:        2776.45 ave        3957 max           0 min
Histogram: 8 4 4 0 4 12 8 2 28 34
Nghost:        3879.11 ave        5424 max         232 min
Histogram: 8 0 8 0 16 0 8 8 16 40
Neighs:        79213.6 ave      115354 max           0 min
Histogram: 8 4 4 0 10 6 8 8 24 32

Total # of neighbors = 8238211
Ave neighs/atom = 28.530502
Neighbor list builds = 0
Dangerous builds = 0
The dot product: 1.01003160982822e-08
Setting atom values ...
  1 settings made for x
  1 settings made for y
  1 settings made for z
Setting up cg style minimization ...
  Unit style    : metal
  Current step  : 1484
Per MPI rank memory allocation (min/avg/max) = 5.441 | 5.816 | 6.074 Mbytes
Step PotEng KinEng TotEng v_fx v_fy v_fz 
    1484     -1152449            0     -1152449 -0.0030134438 -0.069378859   0.01456218 
    1709     -1152449            0     -1152449 -4.3491668e-06 -9.0959128e-06 2.5169758e-06 
Loop time of 2.64471 on 104 procs for 225 steps with 288751 atoms

99.9% CPU use with 104 MPI tasks x 1 OpenMP threads

Minimization stats:
  Stopping criterion = energy tolerance
  Energy initial, next-to-last, final = 
     -1152448.95860925  -1152448.96108247  -1152448.96108247
  Force two-norm initial, final = 0.21737703 5.1014545e-05
  Force max component initial, final = 0.096425638 1.2975593e-05
  Final line search alpha, max atom move = 1.0000000 1.2975593e-05
  Iterations, force evaluations = 225 450

MPI task timing breakdown:
Section |  min time  |  avg time  |  max time  |%varavg| %total
---------------------------------------------------------------
Pair    | 0.67785    | 1.8915     | 2.4699     |  37.3 | 71.52
Neigh   | 0          | 0          | 0          |   0.0 |  0.00
Comm    | 0.039724   | 0.42924    | 1.2693     |  53.9 | 16.23
Output  | 0          | 0          | 0          |   0.0 |  0.00
Modify  | 2.7308e-05 | 0.0037158  | 0.0079047  |   2.9 |  0.14
Other   |            | 0.3203     |            |       | 12.11

Nlocal:        2776.45 ave        3957 max           0 min
Histogram: 8 4 4 0 4 12 8 2 28 34
Nghost:        3879.10 ave        5424 max         232 min
Histogram: 8 0 8 0 16 0 8 8 16 40
Neighs:        79213.6 ave      115352 max           0 min
Histogram: 8 4 4 0 10 6 8 8 24 32

Total # of neighbors = 8238212
Ave neighs/atom = 28.530506
Neighbor list builds = 0
Dangerous builds = 0
The dot product: 5.42020911911058e-08
Setting atom values ...
  1 settings made for x
  1 settings made for y
  1 settings made for z
Setting up cg style minimization ...
  Unit style    : metal
  Current step  : 1709
Per MPI rank memory allocation (min/avg/max) = 5.441 | 5.816 | 6.074 Mbytes
Step PotEng KinEng TotEng v_fx v_fy v_fz 
    1709     -1152449            0     -1152449 -0.0044315315 -0.077069408  0.013568362 
    1880     -1152449            0     -1152449 4.5872244e-06 9.3078393e-06 -2.2347822e-06 
Loop time of 2.03919 on 104 procs for 171 steps with 288751 atoms

99.9% CPU use with 104 MPI tasks x 1 OpenMP threads

Minimization stats:
  Stopping criterion = linesearch alpha is zero
  Energy initial, next-to-last, final = 
     -1152448.95591832   -1152448.9584992   -1152448.9584992
  Force two-norm initial, final = 0.21733043 0.00011795957
  Force max component initial, final = 0.094570401 1.7953391e-05
  Final line search alpha, max atom move = 0.5 8.9766954e-06
  Iterations, force evaluations = 171 343

MPI task timing breakdown:
Section |  min time  |  avg time  |  max time  |%varavg| %total
---------------------------------------------------------------
Pair    | 0.51402    | 1.4491     | 1.9131     |  32.7 | 71.06
Neigh   | 0          | 0          | 0          |   0.0 |  0.00
Comm    | 0.033547   | 0.33766    | 0.99731    |  46.1 | 16.56
Output  | 0          | 0          | 0          |   0.0 |  0.00
Modify  | 2.076e-05  | 0.0028285  | 0.0059931  |   2.5 |  0.14
Other   |            | 0.2496     |            |       | 12.24

Nlocal:        2776.45 ave        3957 max           0 min
Histogram: 8 4 4 0 4 12 8 2 28 34
Nghost:        3879.10 ave        5424 max         232 min
Histogram: 8 0 8 0 16 0 8 8 16 40
Neighs:        79213.5 ave      115349 max           0 min
Histogram: 8 4 4 0 10 6 8 8 24 32

Total # of neighbors = 8238208
Ave neighs/atom = 28.530492
Neighbor list builds = 0
Dangerous builds = 0
The dot product: -4.61195532264418e-08
Setting atom values ...
  1 settings made for x
  1 settings made for y
  1 settings made for z
Setting up cg style minimization ...
  Unit style    : metal
  Current step  : 1880
Per MPI rank memory allocation (min/avg/max) = 5.441 | 5.816 | 6.074 Mbytes
Step PotEng KinEng TotEng v_fx v_fy v_fz 
    1880     -1152449            0     -1152449 -0.0043346251 -0.080565127  0.011898557 
    2000     -1152449            0     -1152449  3.94913e-05 7.6274785e-05 -1.6417914e-05 
    2039     -1152449            0     -1152449 2.9900276e-05 7.0392552e-05 -1.4198652e-05 
Loop time of 1.86176 on 104 procs for 159 steps with 288751 atoms

99.9% CPU use with 104 MPI tasks x 1 OpenMP threads

Minimization stats:
  Stopping criterion = energy tolerance
  Energy initial, next-to-last, final = 
     -1152448.95305838  -1152448.95539175  -1152448.95539175
  Force two-norm initial, final = 0.21649152 0.00030119845
  Force max component initial, final = 0.093020666 8.4368979e-05
  Final line search alpha, max atom move = 1.0000000 8.4368979e-05
  Iterations, force evaluations = 159 318

MPI task timing breakdown:
Section |  min time  |  avg time  |  max time  |%varavg| %total
---------------------------------------------------------------
Pair    | 0.47851    | 1.3387     | 1.7486     |  31.4 | 71.90
Neigh   | 0          | 0          | 0          |   0.0 |  0.00
Comm    | 0.032931   | 0.30307    | 0.90268    |  45.7 | 16.28
Output  | 0.00027701 | 0.00028314 | 0.00042123 |   0.0 |  0.02
Modify  | 2.1248e-05 | 0.0026299  | 0.005588   |   2.4 |  0.14
Other   |            | 0.2171     |            |       | 11.66

Nlocal:        2776.45 ave        3958 max           0 min
Histogram: 8 4 4 0 4 12 8 2 28 34
Nghost:        3879.10 ave        5424 max         232 min
Histogram: 8 0 8 0 16 0 8 8 16 40
Neighs:        79213.5 ave      115375 max           0 min
Histogram: 8 4 4 0 10 6 8 8 24 32

Total # of neighbors = 8238204
Ave neighs/atom = 28.530478
Neighbor list builds = 0
Dangerous builds = 0
The dot product: -4.92507159802799e-07
Setting atom values ...
  1 settings made for x
  1 settings made for y
  1 settings made for z
Setting up cg style minimization ...
  Unit style    : metal
  Current step  : 2039
Per MPI rank memory allocation (min/avg/max) = 5.441 | 5.816 | 6.074 Mbytes
Step PotEng KinEng TotEng v_fx v_fy v_fz 
    2039   -1152448.9            0   -1152448.9 -0.0049914303 -0.085828856 0.0097637051 
    2224     -1152449            0     -1152449 -1.0271376e-05 -2.2484648e-05 3.8290983e-06 
Loop time of 2.17639 on 104 procs for 185 steps with 288751 atoms

99.9% CPU use with 104 MPI tasks x 1 OpenMP threads

Minimization stats:
  Stopping criterion = energy tolerance
  Energy initial, next-to-last, final = 
     -1152448.94924709  -1152448.95149268  -1152448.95149268
  Force two-norm initial, final = 0.21548706 0.00011410793
  Force max component initial, final = 0.09068497 3.5124041e-05
  Final line search alpha, max atom move = 1.0000000 3.5124041e-05
  Iterations, force evaluations = 185 370

MPI task timing breakdown:
Section |  min time  |  avg time  |  max time  |%varavg| %total
---------------------------------------------------------------
Pair    | 0.55589    | 1.5605     | 2.0459     |  33.9 | 71.70
Neigh   | 0          | 0          | 0          |   0.0 |  0.00
Comm    | 0.034132   | 0.35853    | 1.0549     |  48.5 | 16.47
Output  | 0          | 0          | 0          |   0.0 |  0.00
Modify  | 2.2729e-05 | 0.0030544  | 0.0065335  |   2.6 |  0.14
Other   |            | 0.2543     |            |       | 11.68

Nlocal:        2776.45 ave        3958 max           0 min
Histogram: 8 4 4 0 4 12 8 2 28 34
Nghost:        3879.10 ave        5424 max         232 min
Histogram: 8 0 8 0 16 0 8 8 16 40
Neighs:        79213.5 ave      115373 max           0 min
Histogram: 8 4 4 0 10 6 8 8 24 32

Total # of neighbors = 8238201
Ave neighs/atom = 28.530467
Neighbor list builds = 0
Dangerous builds = 0
The dot product: 1.92121506047017e-07
Setting atom values ...
  1 settings made for x
  1 settings made for y
  1 settings made for z
Setting up cg style minimization ...
  Unit style    : metal
  Current step  : 2224
Per MPI rank memory allocation (min/avg/max) = 5.441 | 5.816 | 6.074 Mbytes
Step PotEng KinEng TotEng v_fx v_fy v_fz 
    2224   -1152448.9            0   -1152448.9 -0.0060073451 -0.090295545 0.0070076004 
    2403   -1152448.9            0   -1152448.9 1.2267561e-05 3.1491776e-05 -3.8254108e-06 
Loop time of 2.10046 on 104 procs for 179 steps with 288751 atoms

99.9% CPU use with 104 MPI tasks x 1 OpenMP threads

Minimization stats:
  Stopping criterion = energy tolerance
  Energy initial, next-to-last, final = 
     -1152448.94462715  -1152448.94684315  -1152448.94684315
  Force two-norm initial, final = 0.21407203 0.00014295547
  Force max component initial, final = 0.090295545 3.9210448e-05
  Final line search alpha, max atom move = 1.0000000 3.9210448e-05
  Iterations, force evaluations = 179 358

MPI task timing breakdown:
Section |  min time  |  avg time  |  max time  |%varavg| %total
---------------------------------------------------------------
Pair    | 0.53855    | 1.5017     | 1.9666     |  33.2 | 71.49
Neigh   | 0          | 0          | 0          |   0.0 |  0.00
Comm    | 0.037358   | 0.34143    | 1.02       |  48.2 | 16.26
Output  | 0          | 0          | 0          |   0.0 |  0.00
Modify  | 2.1311e-05 | 0.0029564  | 0.0062855  |   2.5 |  0.14
Other   |            | 0.2544     |            |       | 12.11

Nlocal:        2776.45 ave        3959 max           0 min
Histogram: 8 4 4 0 4 12 8 2 28 34
Nghost:        3879.10 ave        5424 max         232 min
Histogram: 8 0 8 0 16 0 8 8 16 40
Neighs:        79213.5 ave      115396 max           0 min
Histogram: 8 4 4 0 10 6 8 8 24 32

Total # of neighbors = 8238208
Ave neighs/atom = 28.530492
Neighbor list builds = 0
Dangerous builds = 0
The dot product: -2.93446307323785e-07
Setting atom values ...
  1 settings made for x
  1 settings made for y
  1 settings made for z
Setting up cg style minimization ...
  Unit style    : metal
  Current step  : 2403
Per MPI rank memory allocation (min/avg/max) = 5.441 | 5.816 | 6.074 Mbytes
Step PotEng KinEng TotEng v_fx v_fy v_fz 
    2403   -1152448.9            0   -1152448.9 -0.0068653857 -0.093218915  0.003850071 
    2561   -1152448.9            0   -1152448.9 -2.4045292e-05 -6.0004568e-05 5.0046465e-06 
Loop time of 1.84548 on 104 procs for 158 steps with 288751 atoms

99.9% CPU use with 104 MPI tasks x 1 OpenMP threads

Minimization stats:
  Stopping criterion = energy tolerance
  Energy initial, next-to-last, final = 
     -1152448.93932125  -1152448.94142578  -1152448.94142578
  Force two-norm initial, final = 0.21188353 0.00022047165
  Force max component initial, final = 0.093218915 6.0004568e-05
  Final line search alpha, max atom move = 1.0000000 6.0004568e-05
  Iterations, force evaluations = 158 316

MPI task timing breakdown:
Section |  min time  |  avg time  |  max time  |%varavg| %total
---------------------------------------------------------------
Pair    | 0.47146    | 1.3309     | 1.7387     |  31.4 | 72.12
Neigh   | 0          | 0          | 0          |   0.0 |  0.00
Comm    | 0.028007   | 0.3033     | 0.90083    |  45.3 | 16.43
Output  | 0          | 0          | 0          |   0.0 |  0.00
Modify  | 1.922e-05  | 0.0026098  | 0.0055477  |   2.4 |  0.14
Other   |            | 0.2087     |            |       | 11.31

Nlocal:        2776.45 ave        3959 max           0 min
Histogram: 8 4 4 0 4 12 8 2 28 34
Nghost:        3879.08 ave        5425 max         232 min
Histogram: 8 0 8 0 16 0 8 8 16 40
Neighs:        79213.5 ave      115395 max           0 min
Histogram: 8 4 4 0 10 6 8 8 24 32

Total # of neighbors = 8238205
Ave neighs/atom = 28.530481
Neighbor list builds = 0
Dangerous builds = 0
The dot product: 5.05131915948842e-07
Setting atom values ...
  1 settings made for x
  1 settings made for y
  1 settings made for z
Setting up cg style minimization ...
  Unit style    : metal
  Current step  : 2561
Per MPI rank memory allocation (min/avg/max) = 5.441 | 5.816 | 6.074 Mbytes
Step PotEng KinEng TotEng v_fx v_fy v_fz 
    2561   -1152448.9            0   -1152448.9 -0.006123534 -0.094060971 0.00077400178 
    2713   -1152448.9            0   -1152448.9 -7.5945768e-07 -5.330769e-06 9.583838e-08 
Loop time of 1.7758 on 104 procs for 152 steps with 288751 atoms

99.9% CPU use with 104 MPI tasks x 1 OpenMP threads

Minimization stats:
  Stopping criterion = energy tolerance
  Energy initial, next-to-last, final = 
     -1152448.93316203  -1152448.93517934  -1152448.93517934
  Force two-norm initial, final = 0.2096247 0.00022547384
  Force max component initial, final = 0.094060971 2.2466165e-05
  Final line search alpha, max atom move = 1.0000000 2.2466165e-05
  Iterations, force evaluations = 152 304

MPI task timing breakdown:
Section |  min time  |  avg time  |  max time  |%varavg| %total
---------------------------------------------------------------
Pair    | 0.45718    | 1.277      | 1.6631     |  30.6 | 71.91
Neigh   | 0          | 0          | 0          |   0.0 |  0.00
Comm    | 0.027127   | 0.28947    | 0.85935    |  44.4 | 16.30
Output  | 0          | 0          | 0          |   0.0 |  0.00
Modify  | 1.8095e-05 | 0.0025114  | 0.0053446  |   2.4 |  0.14
Other   |            | 0.2068     |            |       | 11.65

Nlocal:        2776.45 ave        3959 max           0 min
Histogram: 8 4 4 0 4 12 8 2 28 34
Nghost:        3879.08 ave        5425 max         232 min
Histogram: 8 0 8 0 16 0 8 8 16 40
Neighs:        79213.5 ave      115394 max           0 min
Histogram: 8 4 4 0 10 6 8 8 24 32

Total # of neighbors = 8238202
Ave neighs/atom = 28.530471
Neighbor list builds = 0
Dangerous builds = 0
The dot product: 3.99002106723343e-08
Setting atom values ...
  1 settings made for x
  1 settings made for y
  1 settings made for z
Setting up cg style minimization ...
  Unit style    : metal
  Current step  : 2713
Per MPI rank memory allocation (min/avg/max) = 5.441 | 5.816 | 6.074 Mbytes
Step PotEng KinEng TotEng v_fx v_fy v_fz 
    2713   -1152448.9            0   -1152448.9 -0.0077306824 -0.092176242 -0.0015324435 
    2879   -1152448.9            0   -1152448.9 4.1441509e-06 1.2935731e-05 -1.7476386e-07 
Loop time of 1.95886 on 104 procs for 166 steps with 288751 atoms

99.9% CPU use with 104 MPI tasks x 1 OpenMP threads

Minimization stats:
  Stopping criterion = energy tolerance
  Energy initial, next-to-last, final = 
      -1152448.9260967  -1152448.92801242  -1152448.92801242
  Force two-norm initial, final = 0.20652153 0.00012741636
  Force max component initial, final = 0.092176242 1.2935731e-05
  Final line search alpha, max atom move = 1.0000000 1.2935731e-05
  Iterations, force evaluations = 166 332

MPI task timing breakdown:
Section |  min time  |  avg time  |  max time  |%varavg| %total
---------------------------------------------------------------
Pair    | 0.50024    | 1.4003     | 1.8316     |  32.1 | 71.49
Neigh   | 0          | 0          | 0          |   0.0 |  0.00
Comm    | 0.031026   | 0.3219     | 0.94982    |  46.1 | 16.43
Output  | 0          | 0          | 0          |   0.0 |  0.00
Modify  | 2.0189e-05 | 0.0027502  | 0.0058513  |   2.5 |  0.14
Other   |            | 0.2339     |            |       | 11.94

Nlocal:        2776.45 ave        3959 max           0 min
Histogram: 8 4 4 0 4 12 8 2 28 34
Nghost:        3879.08 ave        5424 max         232 min
Histogram: 8 0 8 0 16 0 8 8 16 40
Neighs:        79213.5 ave      115393 max           0 min
Histogram: 8 4 4 0 10 6 8 8 24 32

Total # of neighbors = 8238200
Ave neighs/atom = 28.530464
Neighbor list builds = 0
Dangerous builds = 0
The dot product: -8.54478293420578e-08
Setting atom values ...
  1 settings made for x
  1 settings made for y
  1 settings made for z
Setting up cg style minimization ...
  Unit style    : metal
  Current step  : 2879
Per MPI rank memory allocation (min/avg/max) = 5.441 | 5.816 | 6.074 Mbytes
Step PotEng KinEng TotEng v_fx v_fy v_fz 
    2879   -1152448.9            0   -1152448.9 -0.015965396 -0.086563451 -0.0022725558 
    3000   -1152448.9            0   -1152448.9 -1.7678321e-05 -2.4954577e-05 1.0192286e-06 
    3049   -1152448.9            0   -1152448.9 1.0432443e-05 2.6235814e-05 -2.7495192e-08 
Loop time of 1.98107 on 104 procs for 170 steps with 288751 atoms

99.9% CPU use with 104 MPI tasks x 1 OpenMP threads

Minimization stats:
  Stopping criterion = energy tolerance
  Energy initial, next-to-last, final = 
     -1152448.91780289  -1152448.91967597  -1152448.91967597
  Force two-norm initial, final = 0.202863 0.00012367875
  Force max component initial, final = 0.086563451 3.0285972e-05
  Final line search alpha, max atom move = 1.0000000 3.0285972e-05
  Iterations, force evaluations = 170 340

MPI task timing breakdown:
Section |  min time  |  avg time  |  max time  |%varavg| %total
---------------------------------------------------------------
Pair    | 0.50881    | 1.4258     | 1.8642     |  32.4 | 71.97
Neigh   | 0          | 0          | 0          |   0.0 |  0.00
Comm    | 0.029923   | 0.32278    | 0.96268    |  47.2 | 16.29
Output  | 0.0002565  | 0.00026057 | 0.00039998 |   0.0 |  0.01
Modify  | 2.1262e-05 | 0.00281    | 0.0059589  |   2.5 |  0.14
Other   |            | 0.2294     |            |       | 11.58

Nlocal:        2776.45 ave        3959 max           0 min
Histogram: 8 4 4 0 4 12 8 2 28 34
Nghost:        3879.07 ave        5424 max         232 min
Histogram: 8 0 8 0 16 0 8 8 16 40
Neighs:        79213.4 ave      115395 max           0 min
Histogram: 8 4 4 0 10 6 8 8 24 32

Total # of neighbors = 8238198
Ave neighs/atom = 28.530457
Neighbor list builds = 0
Dangerous builds = 0
The dot product: -1.45590084593174e-07
Setting atom values ...
  1 settings made for x
  1 settings made for y
  1 settings made for z
Setting up cg style minimization ...
  Unit style    : metal
  Current step  : 3049
Per MPI rank memory allocation (min/avg/max) = 5.441 | 5.816 | 6.074 Mbytes
Step PotEng KinEng TotEng v_fx v_fy v_fz 
    3049   -1152448.9            0   -1152448.9 -0.022139374 -0.082458914 -0.0026903369 
    3197   -1152448.9            0   -1152448.9 1.1063917e-05 2.5938374e-05 3.3626369e-07 
Loop time of 1.7606 on 104 procs for 148 steps with 288751 atoms

99.9% CPU use with 104 MPI tasks x 1 OpenMP threads

Minimization stats:
  Stopping criterion = energy tolerance
  Energy initial, next-to-last, final = 
      -1152448.9081392  -1152448.91000537  -1152448.91000537
  Force two-norm initial, final = 0.20091727 0.00025463343
  Force max component initial, final = 0.082458914 5.1656240e-05
  Final line search alpha, max atom move = 1.0000000 5.1656240e-05
  Iterations, force evaluations = 148 296

MPI task timing breakdown:
Section |  min time  |  avg time  |  max time  |%varavg| %total
---------------------------------------------------------------
Pair    | 0.4445     | 1.2525     | 1.6494     |  30.3 | 71.14
Neigh   | 0          | 0          | 0          |   0.0 |  0.00
Comm    | 0.027757   | 0.29143    | 0.86443    |  43.2 | 16.55
Output  | 0          | 0          | 0          |   0.0 |  0.00
Modify  | 1.7645e-05 | 0.0024502  | 0.0051995  |   2.3 |  0.14
Other   |            | 0.2143     |            |       | 12.17

Nlocal:        2776.45 ave        3959 max           0 min
Histogram: 8 4 4 0 4 12 8 2 28 34
Nghost:        3879.09 ave        5424 max         232 min
Histogram: 8 0 8 0 16 0 8 8 16 40
Neighs:        79213.4 ave      115394 max           0 min
Histogram: 8 4 4 0 10 6 8 8 24 32

Total # of neighbors = 8238198
Ave neighs/atom = 28.530457
Neighbor list builds = 0
Dangerous builds = 0
The dot product: -1.24042667361646e-07
Setting atom values ...
  1 settings made for x
  1 settings made for y
  1 settings made for z
Setting up cg style minimization ...
  Unit style    : metal
  Current step  : 3197
Per MPI rank memory allocation (min/avg/max) = 5.441 | 5.816 | 6.074 Mbytes
Step PotEng KinEng TotEng v_fx v_fy v_fz 
    3197   -1152448.9            0   -1152448.9 -0.025360466 -0.080186723 -0.0032322853 
    3407   -1152448.9            0   -1152448.9 -7.9196486e-06 -2.1202642e-05 -7.1081326e-07 
Loop time of 2.45983 on 104 procs for 210 steps with 288751 atoms

99.9% CPU use with 104 MPI tasks x 1 OpenMP threads

Minimization stats:
  Stopping criterion = energy tolerance
  Energy initial, next-to-last, final = 
     -1152448.89711246  -1152448.89897807  -1152448.89897807
  Force two-norm initial, final = 0.19977631 6.2191643e-05
  Force max component initial, final = 0.083567906 2.1202642e-05
  Final line search alpha, max atom move = 1.0000000 2.1202642e-05
  Iterations, force evaluations = 210 420

MPI task timing breakdown:
Section |  min time  |  avg time  |  max time  |%varavg| %total
---------------------------------------------------------------
Pair    | 0.63069    | 1.7656     | 2.3121     |  36.0 | 71.78
Neigh   | 0          | 0          | 0          |   0.0 |  0.00
Comm    | 0.041345   | 0.40097    | 1.1978     |  52.4 | 16.30
Output  | 0          | 0          | 0          |   0.0 |  0.00
Modify  | 2.4997e-05 | 0.0034695  | 0.0074045  |   2.8 |  0.14
Other   |            | 0.2898     |            |       | 11.78

Nlocal:        2776.45 ave        3959 max           0 min
Histogram: 8 4 4 0 4 12 8 2 28 34
Nghost:        3879.09 ave        5424 max         232 min
Histogram: 8 0 8 0 16 0 8 8 16 40
Neighs:        79213.5 ave      115403 max           0 min
Histogram: 8 4 4 0 10 6 8 8 24 32

Total # of neighbors = 8238199
Ave neighs/atom = 28.530461
Neighbor list builds = 0
Dangerous builds = 0
The dot product: 7.8560290998724e-08
Setting atom values ...
  1 settings made for x
  1 settings made for y
  1 settings made for z
Setting up cg style minimization ...
  Unit style    : metal
  Current step  : 3407
Per MPI rank memory allocation (min/avg/max) = 5.441 | 5.816 | 6.074 Mbytes
Step PotEng KinEng TotEng v_fx v_fy v_fz 
    3407   -1152448.9            0   -1152448.9 -0.027340824 -0.077994122 -0.0036314834 
    3573   -1152448.9            0   -1152448.9 5.9247238e-06 2.1934039e-05 1.2203383e-06 
Loop time of 2.00594 on 104 procs for 166 steps with 288751 atoms

99.9% CPU use with 104 MPI tasks x 1 OpenMP threads

Minimization stats:
  Stopping criterion = energy tolerance
  Energy initial, next-to-last, final = 
     -1152448.88474505  -1152448.88664901  -1152448.88664901
  Force two-norm initial, final = 0.19896191 0.00021129774
  Force max component initial, final = 0.085133747 3.0728346e-05
  Final line search alpha, max atom move = 1.0000000 3.0728346e-05
  Iterations, force evaluations = 166 332

MPI task timing breakdown:
Section |  min time  |  avg time  |  max time  |%varavg| %total
---------------------------------------------------------------
Pair    | 0.50073    | 1.407      | 1.8432     |  32.1 | 70.14
Neigh   | 0          | 0          | 0          |   0.0 |  0.00
Comm    | 0.032323   | 0.3317     | 0.96582    |  44.9 | 16.54
Output  | 0          | 0          | 0          |   0.0 |  0.00
Modify  | 1.9846e-05 | 0.0027465  | 0.0058335  |   2.5 |  0.14
Other   |            | 0.2645     |            |       | 13.19

Nlocal:        2776.45 ave        3959 max           0 min
Histogram: 8 4 4 0 4 12 8 2 28 34
Nghost:        3879.09 ave        5424 max         232 min
Histogram: 8 0 8 0 16 0 8 8 16 40
Neighs:        79213.4 ave      115401 max           0 min
Histogram: 8 4 4 0 10 6 8 8 24 32

Total # of neighbors = 8238198
Ave neighs/atom = 28.530457
Neighbor list builds = 0
Dangerous builds = 0
The dot product: -2.04616066456685e-08
Setting atom values ...
  1 settings made for x
  1 settings made for y
  1 settings made for z
Setting up cg style minimization ...
  Unit style    : metal
  Current step  : 3573
Per MPI rank memory allocation (min/avg/max) = 5.441 | 5.816 | 6.074 Mbytes
Step PotEng KinEng TotEng v_fx v_fy v_fz 
    3573   -1152448.9            0   -1152448.9 -0.027066265 -0.073757065 -0.0034993268 
    3726   -1152448.9            0   -1152448.9 -1.0674968e-06 -1.0522155e-07 1.0849919e-07 
Loop time of 1.78438 on 104 procs for 153 steps with 288751 atoms

99.9% CPU use with 104 MPI tasks x 1 OpenMP threads

Minimization stats:
  Stopping criterion = energy tolerance
  Energy initial, next-to-last, final = 
     -1152448.87121082  -1152448.87367289  -1152448.87367289
  Force two-norm initial, final = 0.19762571 0.00010346622
  Force max component initial, final = 0.086049336 7.0419197e-06
  Final line search alpha, max atom move = 1.0000000 7.0419197e-06
  Iterations, force evaluations = 153 306

MPI task timing breakdown:
Section |  min time  |  avg time  |  max time  |%varavg| %total
---------------------------------------------------------------
Pair    | 0.46004    | 1.2898     | 1.6833     |  30.8 | 72.28
Neigh   | 0          | 0          | 0          |   0.0 |  0.00
Comm    | 0.028413   | 0.29064    | 0.86749    |  45.2 | 16.29
Output  | 0          | 0          | 0          |   0.0 |  0.00
Modify  | 1.8514e-05 | 0.0025255  | 0.0053656  |   2.4 |  0.14
Other   |            | 0.2014     |            |       | 11.29

Nlocal:        2776.45 ave        3959 max           0 min
Histogram: 8 4 4 0 4 12 8 2 28 34
Nghost:        3879.09 ave        5424 max         232 min
Histogram: 8 0 8 0 16 0 8 8 16 40
Neighs:        79213.4 ave      115400 max           0 min
Histogram: 8 4 4 0 10 6 8 8 24 32

Total # of neighbors = 8238194
Ave neighs/atom = 28.530443
Neighbor list builds = 0
Dangerous builds = 0
The dot product: -9.29522962874091e-09
Setting atom values ...
  1 settings made for x
  1 settings made for y
  1 settings made for z
Setting up cg style minimization ...
  Unit style    : metal
  Current step  : 3726
Per MPI rank memory allocation (min/avg/max) = 5.441 | 5.816 | 6.074 Mbytes
Step PotEng KinEng TotEng v_fx v_fy v_fz 
    3726   -1152448.9            0   -1152448.9 -0.014129458 -0.051874399 -0.00086217867 
    3901   -1152448.9            0   -1152448.9 2.7776828e-05 7.2624562e-05 1.7734344e-07 
Loop time of 2.05447 on 104 procs for 175 steps with 288751 atoms

99.9% CPU use with 104 MPI tasks x 1 OpenMP threads

Minimization stats:
  Stopping criterion = energy tolerance
  Energy initial, next-to-last, final = 
     -1152448.85801168  -1152448.86038971  -1152448.86038971
  Force two-norm initial, final = 0.1929404 0.00026750571
  Force max component initial, final = 0.08239934 9.1955223e-05
  Final line search alpha, max atom move = 1.0000000 9.1955223e-05
  Iterations, force evaluations = 175 350

MPI task timing breakdown:
Section |  min time  |  avg time  |  max time  |%varavg| %total
---------------------------------------------------------------
Pair    | 0.5243     | 1.4715     | 1.9249     |  32.8 | 71.62
Neigh   | 0          | 0          | 0          |   0.0 |  0.00
Comm    | 0.033922   | 0.33703    | 1.0024     |  47.1 | 16.40
Output  | 0          | 0          | 0          |   0.0 |  0.00
Modify  | 2.1561e-05 | 0.0028895  | 0.006177   |   2.5 |  0.14
Other   |            | 0.2431     |            |       | 11.83

Nlocal:        2776.45 ave        3960 max           0 min
Histogram: 8 4 4 0 4 12 8 2 28 34
Nghost:        3879.16 ave        5425 max         232 min
Histogram: 8 0 8 0 16 0 8 8 16 40
Neighs:        79213.4 ave      115423 max           0 min
Histogram: 8 4 4 0 10 6 8 8 24 32

Total # of neighbors = 8238193
Ave neighs/atom = 28.530440
Neighbor list builds = 0
Dangerous builds = 0
The dot product: 1.14093953007505e-06
Setting atom values ...
  1 settings made for x
  1 settings made for y
  1 settings made for z
Setting up cg style minimization ...
  Unit style    : metal
  Current step  : 3901
Per MPI rank memory allocation (min/avg/max) = 5.441 | 5.816 | 6.074 Mbytes
Step PotEng KinEng TotEng v_fx v_fy v_fz 
    3901   -1152448.8            0   -1152448.8  -0.01676424 -0.053338148 0.0013697768 
    4000   -1152448.8            0   -1152448.8 7.7881496e-05 0.0001638747 -7.9886857e-06 
    4067   -1152448.8            0   -1152448.8 -3.0150243e-05 -7.6545442e-05 2.8388774e-06 
Loop time of 1.93408 on 104 procs for 166 steps with 288751 atoms

99.9% CPU use with 104 MPI tasks x 1 OpenMP threads

Minimization stats:
  Stopping criterion = energy tolerance
  Energy initial, next-to-last, final = 
     -1152448.84364461  -1152448.84571506  -1152448.84571506
  Force two-norm initial, final = 0.19653366 0.00023545485
  Force max component initial, final = 0.080697574 8.3763363e-05
  Final line search alpha, max atom move = 1.0000000 8.3763363e-05
  Iterations, force evaluations = 166 332

MPI task timing breakdown:
Section |  min time  |  avg time  |  max time  |%varavg| %total
---------------------------------------------------------------
Pair    | 0.49712    | 1.3932     | 1.8154     |  32.0 | 72.03
Neigh   | 0          | 0          | 0          |   0.0 |  0.00
Comm    | 0.029659   | 0.31401    | 0.9408     |  46.8 | 16.24
Output  | 0.00023158 | 0.0002388  | 0.00036801 |   0.0 |  0.01
Modify  | 1.9765e-05 | 0.0027432  | 0.0058153  |   2.5 |  0.14
Other   |            | 0.2239     |            |       | 11.58

Nlocal:        2776.45 ave        3960 max           0 min
Histogram: 8 4 4 0 4 12 8 2 28 34
Nghost:        3879.16 ave        5425 max         232 min
Histogram: 8 0 8 0 16 0 8 8 16 40
Neighs:        79213.4 ave      115436 max           0 min
Histogram: 8 4 4 0 10 6 8 8 24 32

Total # of neighbors = 8238192
Ave neighs/atom = 28.530436
Neighbor list builds = 0
Dangerous builds = 0
The dot product: -8.80659600360628e-07
Setting atom values ...
  1 settings made for x
  1 settings made for y
  1 settings made for z
Setting up cg style minimization ...
  Unit style    : metal
  Current step  : 4067
Per MPI rank memory allocation (min/avg/max) = 5.441 | 5.816 | 6.074 Mbytes
Step PotEng KinEng TotEng v_fx v_fy v_fz 
    4067   -1152448.8            0   -1152448.8 -0.022091331 -0.057866887 0.0035738338 
    4258   -1152448.8            0   -1152448.8 5.0199882e-06 1.2972004e-05 -8.1137799e-07 
Loop time of 2.24427 on 104 procs for 191 steps with 288751 atoms

99.9% CPU use with 104 MPI tasks x 1 OpenMP threads

Minimization stats:
  Stopping criterion = energy tolerance
  Energy initial, next-to-last, final = 
     -1152448.82760095   -1152448.8297594   -1152448.8297594
  Force two-norm initial, final = 0.20048716 0.00011488994
  Force max component initial, final = 0.084800458 2.5378287e-05
  Final line search alpha, max atom move = 1.0000000 2.5378287e-05
  Iterations, force evaluations = 191 382

MPI task timing breakdown:
Section |  min time  |  avg time  |  max time  |%varavg| %total
---------------------------------------------------------------
Pair    | 0.57266    | 1.6143     | 2.1107     |  34.6 | 71.93
Neigh   | 0          | 0          | 0          |   0.0 |  0.00
Comm    | 0.034622   | 0.36858    | 1.0961     |  49.7 | 16.42
Output  | 0          | 0          | 0          |   0.0 |  0.00
Modify  | 2.3101e-05 | 0.0031638  | 0.0066753  |   2.6 |  0.14
Other   |            | 0.2582     |            |       | 11.51

Nlocal:        2776.45 ave        3960 max           0 min
Histogram: 8 4 4 0 4 12 8 2 28 34
Nghost:        3879.14 ave        5425 max         232 min
Histogram: 8 0 8 0 16 0 8 8 16 40
Neighs:        79213.4 ave      115429 max           0 min
Histogram: 8 4 4 0 10 6 8 8 24 32

Total # of neighbors = 8238191
Ave neighs/atom = 28.530433
Neighbor list builds = 0
Dangerous builds = 0
The dot product: 1.39101317896656e-07
Setting atom values ...
  1 settings made for x
  1 settings made for y
  1 settings made for z
Setting up cg style minimization ...
  Unit style    : metal
  Current step  : 4258
Per MPI rank memory allocation (min/avg/max) = 5.441 | 5.816 | 6.074 Mbytes
Step PotEng KinEng TotEng v_fx v_fy v_fz 
    4258   -1152448.8            0   -1152448.8 -0.024568276 -0.058307838 0.0053390588 
    4451   -1152448.8            0   -1152448.8 8.6016074e-06 2.9615906e-05 -2.1057669e-06 
Loop time of 2.24456 on 104 procs for 193 steps with 288751 atoms

99.9% CPU use with 104 MPI tasks x 1 OpenMP threads

Minimization stats:
  Stopping criterion = energy tolerance
  Energy initial, next-to-last, final = 
     -1152448.81038443  -1152448.81240929  -1152448.81240929
  Force two-norm initial, final = 0.20262283 0.0001008554
  Force max component initial, final = 0.088221064 2.9615906e-05
  Final line search alpha, max atom move = 1.0000000 2.9615906e-05
  Iterations, force evaluations = 193 386

MPI task timing breakdown:
Section |  min time  |  avg time  |  max time  |%varavg| %total
---------------------------------------------------------------
Pair    | 0.57984    | 1.6211     | 2.1184     |  34.5 | 72.22
Neigh   | 0          | 0          | 0          |   0.0 |  0.00
Comm    | 0.033957   | 0.36628    | 1.0939     |  50.3 | 16.32
Output  | 0          | 0          | 0          |   0.0 |  0.00
Modify  | 2.2809e-05 | 0.0031853  | 0.0067656  |   2.7 |  0.14
Other   |            | 0.254      |            |       | 11.31

Nlocal:        2776.45 ave        3960 max           0 min
Histogram: 8 4 4 0 4 12 8 2 28 34
Nghost:        3879.12 ave        5425 max         232 min
Histogram: 8 0 8 0 16 0 8 8 16 40
Neighs:        79213.4 ave      115429 max           0 min
Histogram: 8 4 4 0 10 6 8 8 24 32

Total # of neighbors = 8238192
Ave neighs/atom = 28.530436
Neighbor list builds = 0
Dangerous builds = 0
The dot product: 1.71950917371187e-07
Setting atom values ...
  1 settings made for x
  1 settings made for y
  1 settings made for z
Setting up cg style minimization ...
  Unit style    : metal
  Current step  : 4451
Per MPI rank memory allocation (min/avg/max) = 5.441 | 5.816 | 6.074 Mbytes
Step PotEng KinEng TotEng v_fx v_fy v_fz 
    4451   -1152448.8            0   -1152448.8 -0.028367859 -0.065934279 0.0069533532 
    4626   -1152448.8            0   -1152448.8 9.0090185e-06 2.8667321e-05 -2.4980808e-06 
Loop time of 2.06993 on 104 procs for 175 steps with 288751 atoms

99.9% CPU use with 104 MPI tasks x 1 OpenMP threads

Minimization stats:
  Stopping criterion = energy tolerance
  Energy initial, next-to-last, final = 
     -1152448.79164561  -1152448.79362727  -1152448.79362727
  Force two-norm initial, final = 0.20628069 0.00012828385
  Force max component initial, final = 0.090115168 2.8667321e-05
  Final line search alpha, max atom move = 1.0000000 2.8667321e-05
  Iterations, force evaluations = 175 350

MPI task timing breakdown:
Section |  min time  |  avg time  |  max time  |%varavg| %total
---------------------------------------------------------------
Pair    | 0.5244     | 1.4815     | 1.9461     |  33.2 | 71.57
Neigh   | 0          | 0          | 0          |   0.0 |  0.00
Comm    | 0.031528   | 0.34267    | 1.0146     |  47.3 | 16.55
Output  | 0          | 0          | 0          |   0.0 |  0.00
Modify  | 2.0931e-05 | 0.0028982  | 0.0061634  |   2.5 |  0.14
Other   |            | 0.2429     |            |       | 11.73

Nlocal:        2776.45 ave        3960 max           0 min
Histogram: 8 4 4 0 4 12 8 2 28 34
Nghost:        3879.12 ave        5425 max         232 min
Histogram: 8 0 8 0 16 0 8 8 16 40
Neighs:        79213.4 ave      115429 max           0 min
Histogram: 8 4 4 0 10 6 8 8 24 32

Total # of neighbors = 8238190
Ave neighs/atom = 28.530429
Neighbor list builds = 0
Dangerous builds = 0
The dot product: 6.69419779885371e-08
Setting atom values ...
  1 settings made for x
  1 settings made for y
  1 settings made for z
Setting up cg style minimization ...
  Unit style    : metal
  Current step  : 4626
Per MPI rank memory allocation (min/avg/max) = 5.441 | 5.816 | 6.074 Mbytes
Step PotEng KinEng TotEng v_fx v_fy v_fz 
    4626   -1152448.8            0   -1152448.8 -0.031489023 -0.071773184 0.0079946349 
    4813   -1152448.8            0   -1152448.8 2.3261992e-06 8.0370632e-06 -7.0716891e-07 
Loop time of 2.20446 on 104 procs for 187 steps with 288751 atoms

99.9% CPU use with 104 MPI tasks x 1 OpenMP threads

Minimization stats:
  Stopping criterion = energy tolerance
  Energy initial, next-to-last, final = 
     -1152448.77145257  -1152448.77334397  -1152448.77334397
  Force two-norm initial, final = 0.20876787 6.5835544e-05
  Force max component initial, final = 0.090784226 8.0370632e-06
  Final line search alpha, max atom move = 1.0000000 8.0370632e-06
  Iterations, force evaluations = 187 374

MPI task timing breakdown:
Section |  min time  |  avg time  |  max time  |%varavg| %total
---------------------------------------------------------------
Pair    | 0.56442    | 1.5747     | 2.0476     |  33.9 | 71.43
Neigh   | 0          | 0          | 0          |   0.0 |  0.00
Comm    | 0.036533   | 0.35844    | 1.0709     |  49.3 | 16.26
Output  | 0          | 0          | 0          |   0.0 |  0.00
Modify  | 2.464e-05  | 0.0030943  | 0.0065864  |   2.6 |  0.14
Other   |            | 0.2682     |            |       | 12.17

Nlocal:        2776.45 ave        3960 max           0 min
Histogram: 8 4 4 0 4 12 8 2 28 34
Nghost:        3879.07 ave        5424 max         232 min
Histogram: 8 0 8 0 16 0 8 8 16 40
Neighs:        79213.4 ave      115433 max           0 min
Histogram: 8 4 4 0 10 6 8 8 24 32

Total # of neighbors = 8238189
Ave neighs/atom = 28.530426
Neighbor list builds = 0
Dangerous builds = 0
The dot product: -1.01750599962468e-08
Setting atom values ...
  1 settings made for x
  1 settings made for y
  1 settings made for z
Setting up cg style minimization ...
  Unit style    : metal
  Current step  : 4813
Per MPI rank memory allocation (min/avg/max) = 5.441 | 5.816 | 6.074 Mbytes
Step PotEng KinEng TotEng v_fx v_fy v_fz 
    4813   -1152448.7            0   -1152448.7 -0.035148349  -0.07752639 0.0085613092 
    4962   -1152448.8            0   -1152448.8 5.2086845e-06 1.9199162e-05 -1.5890005e-06 
Loop time of 1.76816 on 104 procs for 149 steps with 288751 atoms

99.9% CPU use with 104 MPI tasks x 1 OpenMP threads

Minimization stats:
  Stopping criterion = energy tolerance
  Energy initial, next-to-last, final = 
     -1152448.74966939  -1152448.75153218  -1152448.75153218
  Force two-norm initial, final = 0.21075056 0.00019807401
  Force max component initial, final = 0.090256523 4.8512161e-05
  Final line search alpha, max atom move = 1.0000000 4.8512161e-05
  Iterations, force evaluations = 149 298

MPI task timing breakdown:
Section |  min time  |  avg time  |  max time  |%varavg| %total
---------------------------------------------------------------
Pair    | 0.44957    | 1.259      | 1.6638     |  30.4 | 71.20
Neigh   | 0          | 0          | 0          |   0.0 |  0.00
Comm    | 0.026002   | 0.29359    | 0.86436    |  43.0 | 16.60
Output  | 0          | 0          | 0          |   0.0 |  0.00
Modify  | 1.7642e-05 | 0.0024605  | 0.0052189  |   2.3 |  0.14
Other   |            | 0.2131     |            |       | 12.05

Nlocal:        2776.45 ave        3960 max           0 min
Histogram: 8 4 4 0 4 12 8 2 28 34
Nghost:        3879.07 ave        5423 max         232 min
Histogram: 8 0 8 0 16 0 8 8 16 40
Neighs:        79213.3 ave      115433 max           0 min
Histogram: 8 4 4 0 10 6 8 8 24 32

Total # of neighbors = 8238188
Ave neighs/atom = 28.530422
Neighbor list builds = 0
Dangerous builds = 0
The dot product: -6.76378372229901e-08
Setting atom values ...
  1 settings made for x
  1 settings made for y
  1 settings made for z
Setting up cg style minimization ...
  Unit style    : metal
  Current step  : 4962
Per MPI rank memory allocation (min/avg/max) = 5.441 | 5.816 | 6.074 Mbytes
Step PotEng KinEng TotEng v_fx v_fy v_fz 
    4962   -1152448.7            0   -1152448.7 -0.037316944 -0.081136576 0.0083976279 
    5000   -1152448.7            0   -1152448.7 -6.186031e-06 -4.9321958e-05 2.7133446e-06 
    5115   -1152448.7            0   -1152448.7 2.3929761e-05 6.4484466e-05 -5.843796e-06 
Loop time of 1.79424 on 104 procs for 153 steps with 288751 atoms

99.9% CPU use with 104 MPI tasks x 1 OpenMP threads

Minimization stats:
  Stopping criterion = energy tolerance
  Energy initial, next-to-last, final = 
     -1152448.72635956  -1152448.72819988  -1152448.72819988
  Force two-norm initial, final = 0.21132835 0.00018452805
  Force max component initial, final = 0.088837335 7.2975183e-05
  Final line search alpha, max atom move = 1.0000000 7.2975183e-05
  Iterations, force evaluations = 153 306

MPI task timing breakdown:
Section |  min time  |  avg time  |  max time  |%varavg| %total
---------------------------------------------------------------
Pair    | 0.46403    | 1.2905     | 1.6831     |  30.7 | 71.93
Neigh   | 0          | 0          | 0          |   0.0 |  0.00
Comm    | 0.029392   | 0.29198    | 0.87786    |  45.0 | 16.27
Output  | 0.0001655  | 0.00016847 | 0.00026113 |   0.0 |  0.01
Modify  | 1.8465e-05 | 0.002531   | 0.0053904  |   2.4 |  0.14
Other   |            | 0.209      |            |       | 11.65

Nlocal:        2776.45 ave        3960 max           0 min
Histogram: 8 4 4 0 4 12 8 2 28 34
Nghost:        3879.07 ave        5423 max         232 min
Histogram: 8 0 8 0 16 0 8 8 16 40
Neighs:        79213.3 ave      115416 max           0 min
Histogram: 8 4 4 0 10 6 8 8 24 32

Total # of neighbors = 8238186
Ave neighs/atom = 28.530415
Neighbor list builds = 0
Dangerous builds = 0
The dot product: -3.48883223473058e-07
Setting atom values ...
  1 settings made for x
  1 settings made for y
  1 settings made for z
Setting up cg style minimization ...
  Unit style    : metal
  Current step  : 5115
Per MPI rank memory allocation (min/avg/max) = 5.441 | 5.816 | 6.074 Mbytes
Step PotEng KinEng TotEng v_fx v_fy v_fz 
    5115   -1152448.7            0   -1152448.7 -0.037908126 -0.083333375 0.0076930956 
    5262   -1152448.7            0   -1152448.7 1.4780239e-05 3.265575e-05 -3.0044567e-06 
Loop time of 1.72242 on 104 procs for 147 steps with 288751 atoms

99.9% CPU use with 104 MPI tasks x 1 OpenMP threads

Minimization stats:
  Stopping criterion = energy tolerance
  Energy initial, next-to-last, final = 
     -1152448.70155057  -1152448.70336234  -1152448.70336234
  Force two-norm initial, final = 0.21086142 0.00022311799
  Force max component initial, final = 0.086906545 5.8684128e-05
  Final line search alpha, max atom move = 1.0000000 5.8684128e-05
  Iterations, force evaluations = 147 294

MPI task timing breakdown:
Section |  min time  |  avg time  |  max time  |%varavg| %total
---------------------------------------------------------------
Pair    | 0.44279    | 1.2415     | 1.6159     |  30.2 | 72.08
Neigh   | 0          | 0          | 0          |   0.0 |  0.00
Comm    | 0.027368   | 0.28375    | 0.83636    |  43.5 | 16.47
Output  | 0          | 0          | 0          |   0.0 |  0.00
Modify  | 1.7784e-05 | 0.0024314  | 0.0051706  |   2.3 |  0.14
Other   |            | 0.1947     |            |       | 11.31

Nlocal:        2776.45 ave        3960 max           0 min
Histogram: 8 4 4 0 4 12 8 2 28 34
Nghost:        3879.09 ave        5423 max         232 min
Histogram: 8 0 8 0 16 0 8 8 16 40
Neighs:        79213.3 ave      115416 max           0 min
Histogram: 8 4 4 0 10 6 8 8 24 32

Total # of neighbors = 8238188
Ave neighs/atom = 28.530422
Neighbor list builds = 0
Dangerous builds = 0
The dot product: -2.22001492387561e-07
Setting atom values ...
  1 settings made for x
  1 settings made for y
  1 settings made for z
Setting up cg style minimization ...
  Unit style    : metal
  Current step  : 5262
Per MPI rank memory allocation (min/avg/max) = 5.441 | 5.816 | 6.074 Mbytes
Step PotEng KinEng TotEng v_fx v_fy v_fz 
    5262   -1152448.7            0   -1152448.7 -0.037038375 -0.084794212 0.0066261568 
    5426   -1152448.7            0   -1152448.7 -9.8529108e-06 -2.2473521e-05 1.7608358e-06 
Loop time of 1.90248 on 104 procs for 164 steps with 288751 atoms

99.9% CPU use with 104 MPI tasks x 1 OpenMP threads

Minimization stats:
  Stopping criterion = energy tolerance
  Energy initial, next-to-last, final = 
     -1152448.67526443   -1152448.6770412   -1152448.6770412
  Force two-norm initial, final = 0.20978319 0.00011527682
  Force max component initial, final = 0.084794212 2.3510613e-05
  Final line search alpha, max atom move = 1.0000000 2.3510613e-05
  Iterations, force evaluations = 164 328

MPI task timing breakdown:
Section |  min time  |  avg time  |  max time  |%varavg| %total
---------------------------------------------------------------
Pair    | 0.4908     | 1.379      | 1.795      |  31.8 | 72.49
Neigh   | 0          | 0          | 0          |   0.0 |  0.00
Comm    | 0.029531   | 0.30984    | 0.92804    |  46.6 | 16.29
Output  | 0          | 0          | 0          |   0.0 |  0.00
Modify  | 1.9672e-05 | 0.0027138  | 0.005741   |   2.4 |  0.14
Other   |            | 0.2109     |            |       | 11.08

Nlocal:        2776.45 ave        3960 max           0 min
Histogram: 8 4 4 0 4 12 8 2 28 34
Nghost:        3879.13 ave        5424 max         232 min
Histogram: 8 0 8 0 16 0 8 8 16 40
Neighs:        79213.3 ave      115419 max           0 min
Histogram: 8 4 4 0 10 6 8 8 24 32

Total # of neighbors = 8238186
Ave neighs/atom = 28.530415
Neighbor list builds = 0
Dangerous builds = 0
The dot product: 1.6688978819527e-07
Setting atom values ...
  1 settings made for x
  1 settings made for y
  1 settings made for z
Setting up cg style minimization ...
  Unit style    : metal
  Current step  : 5426
Per MPI rank memory allocation (min/avg/max) = 5.441 | 5.816 | 6.074 Mbytes
Step PotEng KinEng TotEng v_fx v_fy v_fz 
    5426   -1152448.6            0   -1152448.6 -0.034673466 -0.085749701 0.0052991728 
    5600   -1152448.6            0   -1152448.6 -2.5138826e-06 -4.0469285e-06 3.5501054e-07 
Loop time of 2.03489 on 104 procs for 174 steps with 288751 atoms

99.9% CPU use with 104 MPI tasks x 1 OpenMP threads

Minimization stats:
  Stopping criterion = energy tolerance
  Energy initial, next-to-last, final = 
     -1152448.64752829  -1152448.64926406  -1152448.64926406
  Force two-norm initial, final = 0.20828315 8.2229569e-05
  Force max component initial, final = 0.085749701 4.0957033e-06
  Final line search alpha, max atom move = 1.0000000 4.0957033e-06
  Iterations, force evaluations = 174 348

MPI task timing breakdown:
Section |  min time  |  avg time  |  max time  |%varavg| %total
---------------------------------------------------------------
Pair    | 0.52199    | 1.4662     | 1.9167     |  32.8 | 72.05
Neigh   | 0          | 0          | 0          |   0.0 |  0.00
Comm    | 0.03226    | 0.33415    | 0.99552    |  47.5 | 16.42
Output  | 0          | 0          | 0          |   0.0 |  0.00
Modify  | 2.0867e-05 | 0.002874   | 0.0060853  |   2.5 |  0.14
Other   |            | 0.2317     |            |       | 11.39

Nlocal:        2776.45 ave        3960 max           0 min
Histogram: 8 4 4 0 4 12 8 2 28 34
Nghost:        3879.16 ave        5424 max         232 min
Histogram: 8 0 8 0 16 0 8 8 16 40
Neighs:        79213.3 ave      115419 max           0 min
Histogram: 8 4 4 0 10 6 8 8 24 32

Total # of neighbors = 8238188
Ave neighs/atom = 28.530422
Neighbor list builds = 0
Dangerous builds = 0
The dot product: 3.58028958688414e-08
Setting atom values ...
  1 settings made for x
  1 settings made for y
  1 settings made for z
Setting up cg style minimization ...
  Unit style    : metal
  Current step  : 5600
Per MPI rank memory allocation (min/avg/max) = 5.441 | 5.816 | 6.074 Mbytes
Step PotEng KinEng TotEng v_fx v_fy v_fz 
    5600   -1152448.6            0   -1152448.6 -0.030562495 -0.086296322 0.0037604951 
    5754   -1152448.6            0   -1152448.6 1.4413028e-05 3.0405266e-05 -1.7313633e-06 
Loop time of 1.81996 on 104 procs for 154 steps with 288751 atoms

99.9% CPU use with 104 MPI tasks x 1 OpenMP threads

Minimization stats:
  Stopping criterion = energy tolerance
  Energy initial, next-to-last, final = 
     -1152448.61837493  -1152448.62006641  -1152448.62006641
  Force two-norm initial, final = 0.20642672 0.00016981412
  Force max component initial, final = 0.086296322 3.0405266e-05
  Final line search alpha, max atom move = 1.0000000 3.0405266e-05
  Iterations, force evaluations = 154 308

MPI task timing breakdown:
Section |  min time  |  avg time  |  max time  |%varavg| %total
---------------------------------------------------------------
Pair    | 0.4641     | 1.3        | 1.706      |  31.0 | 71.43
Neigh   | 0          | 0          | 0          |   0.0 |  0.00
Comm    | 0.038255   | 0.2974     | 0.88259    |  44.4 | 16.34
Output  | 0          | 0          | 0          |   0.0 |  0.00
Modify  | 1.832e-05  | 0.0025463  | 0.0053893  |   2.4 |  0.14
Other   |            | 0.22       |            |       | 12.09

Nlocal:        2776.45 ave        3960 max           0 min
Histogram: 8 4 4 0 4 12 8 2 28 34
Nghost:        3879.12 ave        5424 max         232 min
Histogram: 8 0 8 0 16 0 8 8 16 40
Neighs:        79213.3 ave      115419 max           0 min
Histogram: 8 4 4 0 10 6 8 8 24 32

Total # of neighbors = 8238188
Ave neighs/atom = 28.530422
Neighbor list builds = 0
Dangerous builds = 0
The dot product: -2.59373361760918e-07
Setting atom values ...
  1 settings made for x
  1 settings made for y
  1 settings made for z
Setting up cg style minimization ...
  Unit style    : metal
  Current step  : 5754
Per MPI rank memory allocation (min/avg/max) = 5.441 | 5.816 | 6.074 Mbytes
Step PotEng KinEng TotEng v_fx v_fy v_fz 
    5754   -1152448.6            0   -1152448.6 -0.024788812 -0.086534055 0.0020704078 
    5905   -1152448.6            0   -1152448.6 -4.5605727e-06 -1.9547806e-06 4.6487594e-07 
Loop time of 1.77817 on 104 procs for 151 steps with 288751 atoms

99.9% CPU use with 104 MPI tasks x 1 OpenMP threads

Minimization stats:
  Stopping criterion = energy tolerance
  Energy initial, next-to-last, final = 
     -1152448.58784881  -1152448.58949754  -1152448.58949754
  Force two-norm initial, final = 0.20446472 0.0001875195
  Force max component initial, final = 0.086534055 2.7606557e-05
  Final line search alpha, max atom move = 1.0000000 2.7606557e-05
  Iterations, force evaluations = 151 302

MPI task timing breakdown:
Section |  min time  |  avg time  |  max time  |%varavg| %total
---------------------------------------------------------------
Pair    | 0.45351    | 1.2773     | 1.6754     |  30.7 | 71.83
Neigh   | 0          | 0          | 0          |   0.0 |  0.00
Comm    | 0.028097   | 0.29241    | 0.86286    |  44.1 | 16.44
Output  | 0          | 0          | 0          |   0.0 |  0.00
Modify  | 1.8201e-05 | 0.0024984  | 0.0053131  |   2.4 |  0.14
Other   |            | 0.2059     |            |       | 11.58

Nlocal:        2776.45 ave        3960 max           0 min
Histogram: 8 4 4 0 4 12 8 2 28 34
Nghost:        3879.09 ave        5424 max         232 min
Histogram: 8 0 8 0 16 0 8 8 16 40
Neighs:        79213.3 ave      115427 max           0 min
Histogram: 8 4 4 0 10 6 8 8 24 32

Total # of neighbors = 8238187
Ave neighs/atom = 28.530419
Neighbor list builds = 0
Dangerous builds = 0
The dot product: 2.95801854615526e-08
Setting atom values ...
  1 settings made for x
  1 settings made for y
  1 settings made for z
Setting up cg style minimization ...
  Unit style    : metal
  Current step  : 5905
Per MPI rank memory allocation (min/avg/max) = 5.441 | 5.816 | 6.074 Mbytes
Step PotEng KinEng TotEng v_fx v_fy v_fz 
    5905   -1152448.6            0   -1152448.6  -0.01752787 -0.086483128 0.00025252396 
    6000   -1152448.6            0   -1152448.6 -1.1944509e-05 -3.8803822e-05 5.1899699e-07 
    6062   -1152448.6            0   -1152448.6 -1.7972102e-05 -3.9845486e-05 1.1003987e-06 
Loop time of 1.83288 on 104 procs for 157 steps with 288751 atoms

99.9% CPU use with 104 MPI tasks x 1 OpenMP threads

Minimization stats:
  Stopping criterion = energy tolerance
  Energy initial, next-to-last, final = 
     -1152448.55605443  -1152448.55766892  -1152448.55766892
  Force two-norm initial, final = 0.20240687 0.00014676688
  Force max component initial, final = 0.087690109 3.9845486e-05
  Final line search alpha, max atom move = 1.0000000 3.9845486e-05
  Iterations, force evaluations = 157 314

MPI task timing breakdown:
Section |  min time  |  avg time  |  max time  |%varavg| %total
---------------------------------------------------------------
Pair    | 0.47194    | 1.3183     | 1.7234     |  31.1 | 71.93
Neigh   | 0          | 0          | 0          |   0.0 |  0.00
Comm    | 0.027981   | 0.29883    | 0.89246    |  45.3 | 16.30
Output  | 0.00016806 | 0.00017033 | 0.00029269 |   0.0 |  0.01
Modify  | 1.8809e-05 | 0.002595   | 0.0055054  |   2.4 |  0.14
Other   |            | 0.213      |            |       | 11.62

Nlocal:        2776.45 ave        3960 max           0 min
Histogram: 8 4 4 0 4 12 8 2 28 34
Nghost:        3879.03 ave        5424 max         232 min
Histogram: 8 0 8 0 16 0 8 8 16 40
Neighs:        79213.4 ave      115419 max           0 min
Histogram: 8 4 4 0 10 6 8 8 24 32

Total # of neighbors = 8238192
Ave neighs/atom = 28.530436
Neighbor list builds = 0
Dangerous builds = 0
The dot product: 3.93556332550054e-07
Setting atom values ...
  1 settings made for x
  1 settings made for y
  1 settings made for z
Setting up cg style minimization ...
  Unit style    : metal
  Current step  : 6062
Per MPI rank memory allocation (min/avg/max) = 5.441 | 5.816 | 6.074 Mbytes
Step PotEng KinEng TotEng v_fx v_fy v_fz 
    6062   -1152448.5            0   -1152448.5 0.00050670382 -0.091914788 -0.0029487075 
    6347   -1152448.6            0   -1152448.6 -5.2590338e-06 -1.4689903e-05 5.6055252e-08 
Loop time of 3.3357 on 104 procs for 285 steps with 288751 atoms

99.9% CPU use with 104 MPI tasks x 1 OpenMP threads

Minimization stats:
  Stopping criterion = energy tolerance
  Energy initial, next-to-last, final = 
     -1152448.52328849   -1152448.6139079   -1152448.6139079
  Force two-norm initial, final = 0.20363106 6.6898480e-05
  Force max component initial, final = 0.091914788 1.5569316e-05
  Final line search alpha, max atom move = 1.0000000 1.5569316e-05
  Iterations, force evaluations = 285 569

MPI task timing breakdown:
Section |  min time  |  avg time  |  max time  |%varavg| %total
---------------------------------------------------------------
Pair    | 0.86175    | 2.4043     | 3.1381     |  41.9 | 72.08
Neigh   | 2.025e-05  | 0.0058889  | 0.0085154  |   3.2 |  0.18
Comm    | 0.052508   | 0.54974    | 1.6258     |  60.9 | 16.48
Output  | 0          | 0          | 0          |   0.0 |  0.00
Modify  | 3.4917e-05 | 0.0047024  | 0.0099955  |   3.2 |  0.14
Other   |            | 0.371      |            |       | 11.12

Nlocal:        2776.45 ave        3960 max           0 min
Histogram: 8 4 4 0 4 12 8 2 28 34
Nghost:        3879.01 ave        5424 max         232 min
Histogram: 8 0 8 0 16 0 8 8 16 40
Neighs:        79213.5 ave      115419 max           0 min
Histogram: 8 4 4 0 10 6 8 8 24 32

Total # of neighbors = 8238207
Ave neighs/atom = 28.530488
Neighbor list builds = 2
Dangerous builds = 0
The dot product: 1.4965016388497e-06
Setting atom values ...
  1 settings made for x
  1 settings made for y
  1 settings made for z
Setting up cg style minimization ...
  Unit style    : metal
  Current step  : 6347
Per MPI rank memory allocation (min/avg/max) = 5.441 | 5.816 | 6.074 Mbytes
Step PotEng KinEng TotEng v_fx v_fy v_fz 
    6347   -1152448.6            0   -1152448.6  0.079128895  -0.14213815 -0.084784577 
    6625     -1152449            0     -1152449 -3.4969826e-05 1.1463529e-05 2.0807856e-05 
Loop time of 3.27641 on 104 procs for 278 steps with 288751 atoms

99.9% CPU use with 104 MPI tasks x 1 OpenMP threads

Minimization stats:
  Stopping criterion = energy tolerance
  Energy initial, next-to-last, final = 
      -1152448.6072773  -1152448.99929896  -1152448.99929896
  Force two-norm initial, final = 0.2312721 0.00019755653
  Force max component initial, final = 0.14213815 5.7931164e-05
  Final line search alpha, max atom move = 1.0000000 5.7931164e-05
  Iterations, force evaluations = 278 555

MPI task timing breakdown:
Section |  min time  |  avg time  |  max time  |%varavg| %total
---------------------------------------------------------------
Pair    | 0.86235    | 2.341      | 3.0492     |  40.8 | 71.45
Neigh   | 6.0135e-05 | 0.017641   | 0.025857   |   5.5 |  0.54
Comm    | 0.052684   | 0.53169    | 1.5678     |  59.8 | 16.23
Output  | 0          | 0          | 0          |   0.0 |  0.00
Modify  | 3.2987e-05 | 0.0045893  | 0.0097491  |   3.2 |  0.14
Other   |            | 0.3815     |            |       | 11.64

Nlocal:        2776.45 ave        3960 max           0 min
Histogram: 8 4 4 0 4 12 8 2 28 34
Nghost:        3879.08 ave        5425 max         232 min
Histogram: 8 0 8 0 16 0 8 8 16 40
Neighs:        79213.6 ave      115438 max           0 min
Histogram: 8 4 4 0 10 6 8 8 24 32

Total # of neighbors = 8238217
Ave neighs/atom = 28.530523
Neighbor list builds = 6
Dangerous builds = 0
The dot product: -1.25582411372157e-05
Setting atom values ...
  1 settings made for x
  1 settings made for y
  1 settings made for z
Setting up cg style minimization ...
  Unit style    : metal
  Current step  : 6625
Per MPI rank memory allocation (min/avg/max) = 5.441 | 5.816 | 6.074 Mbytes
Step PotEng KinEng TotEng v_fx v_fy v_fz 
    6625     -1152449            0     -1152449   0.19843623   0.56172761   0.80936447 
    6910   -1152449.2            0   -1152449.2 -5.2360914e-07 1.0298115e-05 1.814083e-05 
Loop time of 3.38385 on 104 procs for 285 steps with 288751 atoms

99.9% CPU use with 104 MPI tasks x 1 OpenMP threads

Minimization stats:
  Stopping criterion = energy tolerance
  Energy initial, next-to-last, final = 
     -1152449.02286631  -1152449.18273321  -1152449.18273321
  Force two-norm initial, final = 1.0166458 7.3522658e-05
  Force max component initial, final = 0.80936447 1.8140830e-05
  Final line search alpha, max atom move = 1.0000000 1.8140830e-05
  Iterations, force evaluations = 285 570

MPI task timing breakdown:
Section |  min time  |  avg time  |  max time  |%varavg| %total
---------------------------------------------------------------
Pair    | 0.86228    | 2.4053     | 3.1734     |  41.9 | 71.08
Neigh   | 2.0111e-05 | 0.0058915  | 0.0085543  |   3.2 |  0.17
Comm    | 0.053493   | 0.55956    | 1.6573     |  59.5 | 16.54
Output  | 0          | 0          | 0          |   0.0 |  0.00
Modify  | 3.3844e-05 | 0.0046994  | 0.0099626  |   3.2 |  0.14
Other   |            | 0.4084     |            |       | 12.07

Nlocal:        2776.45 ave        3961 max           0 min
Histogram: 8 4 4 0 6 10 8 4 26 34
Nghost:        3879.04 ave        5426 max         232 min
Histogram: 8 0 8 0 16 0 8 8 16 40
Neighs:        79213.5 ave      115518 max           0 min
Histogram: 8 4 4 0 10 6 8 8 24 32

Total # of neighbors = 8238205
Ave neighs/atom = 28.530481
Neighbor list builds = 2
Dangerous builds = 0
The dot product: 6.15034882750637e-06
Setting atom values ...
  1 settings made for x
  1 settings made for y
  1 settings made for z
Setting up cg style minimization ...
  Unit style    : metal
  Current step  : 6910
Per MPI rank memory allocation (min/avg/max) = 5.441 | 5.816 | 6.074 Mbytes
Step PotEng KinEng TotEng v_fx v_fy v_fz 
    6910   -1152449.2            0   -1152449.2  -0.10375651  -0.35699918  -0.24567119 
    7000   -1152449.2            0   -1152449.2 0.00061740554 0.00022060457 -0.00023332903 
    7223   -1152449.2            0   -1152449.2 -2.3153322e-06 9.5087629e-07 2.4583998e-06 
Loop time of 3.65331 on 104 procs for 313 steps with 288751 atoms

99.9% CPU use with 104 MPI tasks x 1 OpenMP threads

Minimization stats:
  Stopping criterion = energy tolerance
  Energy initial, next-to-last, final = 
     -1152449.20665107  -1152449.23244452  -1152449.23244452
  Force two-norm initial, final = 0.47636735 1.0170016e-05
  Force max component initial, final = 0.35699918 3.3568406e-06
  Final line search alpha, max atom move = 1.0000000 3.3568406e-06
  Iterations, force evaluations = 313 626

MPI task timing breakdown:
Section |  min time  |  avg time  |  max time  |%varavg| %total
---------------------------------------------------------------
Pair    | 0.9444     | 2.63       | 3.4364     |  43.9 | 71.99
Neigh   | 1.0239e-05 | 0.0029553  | 0.004311   |   2.2 |  0.08
Comm    | 0.056716   | 0.59456    | 1.7687     |  64.0 | 16.27
Output  | 0.00021922 | 0.00022639 | 0.00035874 |   0.0 |  0.01
Modify  | 3.9278e-05 | 0.0051663  | 0.010977   |   3.4 |  0.14
Other   |            | 0.4204     |            |       | 11.51

Nlocal:        2776.45 ave        3961 max           0 min
Histogram: 8 4 4 0 6 10 8 4 26 34
Nghost:        3879.02 ave        5425 max         232 min
Histogram: 8 0 8 0 16 0 8 8 16 40
Neighs:        79213.4 ave      115484 max           0 min
Histogram: 8 4 4 0 10 6 8 8 24 32

Total # of neighbors = 8238197
Ave neighs/atom = 28.530454
Neighbor list builds = 1
Dangerous builds = 0
The dot product: -1.46925388962143e-07
Setting atom values ...
  1 settings made for x
  1 settings made for y
  1 settings made for z
Setting up cg style minimization ...
  Unit style    : metal
  Current step  : 7223
Per MPI rank memory allocation (min/avg/max) = 5.441 | 5.816 | 6.074 Mbytes
Step PotEng KinEng TotEng v_fx v_fy v_fz 
    7223   -1152449.3            0   -1152449.3  0.039179524  0.071802186  0.052535319 
    7452   -1152449.3            0   -1152449.3 -8.1480421e-06 7.518696e-06 1.4069704e-05 
Loop time of 2.70207 on 104 procs for 229 steps with 288751 atoms

99.9% CPU use with 104 MPI tasks x 1 OpenMP threads

Minimization stats:
  Stopping criterion = energy tolerance
  Energy initial, next-to-last, final = 
     -1152449.25385766  -1152449.25827017  -1152449.25827017
  Force two-norm initial, final = 0.1860402 5.4346918e-05
  Force max component initial, final = 0.08803245 1.4069704e-05
  Final line search alpha, max atom move = 1.0000000 1.4069704e-05
  Iterations, force evaluations = 229 458

MPI task timing breakdown:
Section |  min time  |  avg time  |  max time  |%varavg| %total
---------------------------------------------------------------
Pair    | 0.68435    | 1.9335     | 2.5372     |  37.8 | 71.56
Neigh   | 0          | 0          | 0          |   0.0 |  0.00
Comm    | 0.041458   | 0.44495    | 1.3084     |  54.2 | 16.47
Output  | 0          | 0          | 0          |   0.0 |  0.00
Modify  | 2.8011e-05 | 0.0037797  | 0.0080335  |   2.9 |  0.14
Other   |            | 0.3198     |            |       | 11.84

Nlocal:        2776.45 ave        3961 max           0 min
Histogram: 8 4 4 0 6 10 8 4 26 34
Nghost:        3879.01 ave        5425 max         232 min
Histogram: 8 0 8 0 16 0 8 8 16 40
Neighs:        79213.5 ave      115500 max           0 min
Histogram: 8 4 4 0 10 6 8 8 24 32

Total # of neighbors = 8238205
Ave neighs/atom = 28.530481
Neighbor list builds = 0
Dangerous builds = 0
The dot product: 3.96793980635949e-07
Setting atom values ...
  1 settings made for x
  1 settings made for y
  1 settings made for z
Setting up cg style minimization ...
  Unit style    : metal
  Current step  : 7452
Per MPI rank memory allocation (min/avg/max) = 5.441 | 5.816 | 6.074 Mbytes
Step PotEng KinEng TotEng v_fx v_fy v_fz 
    7452   -1152449.3            0   -1152449.3 -0.025709954 -0.058889198 -0.042806186 
    7651   -1152449.3            0   -1152449.3 -9.7622838e-06 -3.5053578e-06 3.2421446e-06 
[...]

Nlocal:        2776.45 ave        3947 max           0 min
Histogram: 8 4 4 0 4 12 8 0 28 36
Nghost:        3878.76 ave        5422 max         232 min
Histogram: 8 0 8 0 16 0 8 8 16 40
Neighs:        79213.4 ave      115087 max           0 min
Histogram: 8 4 4 0 10 6 8 8 24 32

Total # of neighbors = 8238193
Ave neighs/atom = 28.530440
Neighbor list builds = 0
Dangerous builds = 0
The dot product: -4.92917234786552e-09
Setting atom values ...
  1 settings made for x
  1 settings made for y
  1 settings made for z
Setting up cg style minimization ...
  Unit style    : metal
  Current step  : 13026
Per MPI rank memory allocation (min/avg/max) = 5.441 | 5.816 | 6.074 Mbytes
Step PotEng KinEng TotEng v_fx v_fy v_fz 
   13026   -1152449.4            0   -1152449.4 0.0017911934  0.023560894  0.032810418 
   13200   -1152449.4            0   -1152449.4 3.2678329e-05 1.4362376e-06 -2.0453496e-05 
Loop time of 2.04283 on 104 procs for 174 steps with 288751 atoms

99.9% CPU use with 104 MPI tasks x 1 OpenMP threads

Minimization stats:
  Stopping criterion = energy tolerance
  Energy initial, next-to-last, final = 
     -1152449.41674762   -1152449.4180629   -1152449.4180629
  Force two-norm initial, final = 0.1670664 0.00015333577
  Force max component initial, final = 0.086519021 3.5934076e-05
  Final line search alpha, max atom move = 1.0000000 3.5934076e-05
  Iterations, force evaluations = 174 348

MPI task timing breakdown:
Section |  min time  |  avg time  |  max time  |%varavg| %total
---------------------------------------------------------------
Pair    | 0.52405    | 1.468      | 1.9276     |  33.0 | 71.86
Neigh   | 0          | 0          | 0          |   0.0 |  0.00
Comm    | 0.030963   | 0.33785    | 1.0055     |  47.6 | 16.54
Output  | 0          | 0          | 0          |   0.0 |  0.00
Modify  | 2.1123e-05 | 0.0028873  | 0.0061342  |   2.5 |  0.14
Other   |            | 0.2341     |            |       | 11.46

Nlocal:        2776.45 ave        3946 max           0 min
Histogram: 8 4 4 0 4 12 8 0 28 36
Nghost:        3878.74 ave        5423 max         232 min
Histogram: 8 0 8 0 16 0 8 8 16 40
Neighs:        79213.4 ave      115113 max           0 min
Histogram: 8 4 4 0 10 6 8 8 24 32

Total # of neighbors = 8238193
Ave neighs/atom = 28.530440
Neighbor list builds = 0
Dangerous builds = 0
The dot product: -7.01575888567464e-08
Setting atom values ...
  1 settings made for x
  1 settings made for y
  1 settings made for z
Setting up cg style minimization ...
  Unit style    : metal
  Current step  : 13200
Per MPI rank memory allocation (min/avg/max) = 5.441 | 5.816 | 6.074 Mbytes
Step PotEng KinEng TotEng v_fx v_fy v_fz 
   13200   -1152449.4            0   -1152449.4 0.0035750155  0.023436092  0.031479123 
   13387   -1152449.4            0   -1152449.4 6.7915713e-07 -6.8680785e-08 -5.6964942e-07 
Loop time of 2.19471 on 104 procs for 187 steps with 288751 atoms

99.9% CPU use with 104 MPI tasks x 1 OpenMP threads

Minimization stats:
  Stopping criterion = energy tolerance
  Energy initial, next-to-last, final = 
     -1152449.40802902  -1152449.40931785  -1152449.40931785
  Force two-norm initial, final = 0.16572838 9.2707648e-05
  Force max component initial, final = 0.087620915 2.6726041e-06
  Final line search alpha, max atom move = 1.0000000 2.6726041e-06
  Iterations, force evaluations = 187 374

MPI task timing breakdown:
Section |  min time  |  avg time  |  max time  |%varavg| %total
---------------------------------------------------------------
Pair    | 0.56576    | 1.5709     | 2.0668     |  33.9 | 71.58
Neigh   | 0          | 0          | 0          |   0.0 |  0.00
Comm    | 0.033362   | 0.35547    | 1.0529     |  48.9 | 16.20
Output  | 0          | 0          | 0          |   0.0 |  0.00
Modify  | 2.3196e-05 | 0.0030979  | 0.0065876  |   2.6 |  0.14
Other   |            | 0.2652     |            |       | 12.08

Nlocal:        2776.45 ave        3947 max           0 min
Histogram: 8 4 4 0 4 12 8 0 28 36
Nghost:        3878.74 ave        5423 max         232 min
Histogram: 8 0 8 0 16 0 8 8 16 40
Neighs:        79213.4 ave      115088 max           0 min
Histogram: 8 4 4 0 10 6 8 8 24 32

Total # of neighbors = 8238196
Ave neighs/atom = 28.530450
Neighbor list builds = 0
Dangerous builds = 0
The dot product: -1.50579005853214e-09
Setting atom values ...
  1 settings made for x
  1 settings made for y
  1 settings made for z
Setting up cg style minimization ...
  Unit style    : metal
  Current step  : 13387
Per MPI rank memory allocation (min/avg/max) = 5.441 | 5.816 | 6.074 Mbytes
Step PotEng KinEng TotEng v_fx v_fy v_fz 
   13387   -1152449.4            0   -1152449.4 0.0051014651  0.023275814   0.03026087 
   13563   -1152449.4            0   -1152449.4 3.1955147e-05 9.6397064e-06 -8.1963854e-06 
Loop time of 2.06689 on 104 procs for 176 steps with 288751 atoms

99.9% CPU use with 104 MPI tasks x 1 OpenMP threads

Minimization stats:
  Stopping criterion = energy tolerance
  Energy initial, next-to-last, final = 
     -1152449.39791312  -1152449.39918078  -1152449.39918078
  Force two-norm initial, final = 0.16468155 0.00014252674
  Force max component initial, final = 0.088685647 3.3924201e-05
  Final line search alpha, max atom move = 1.0000000 3.3924201e-05
  Iterations, force evaluations = 176 352

MPI task timing breakdown:
Section |  min time  |  avg time  |  max time  |%varavg| %total
---------------------------------------------------------------
Pair    | 0.53287    | 1.4849     | 1.9446     |  33.1 | 71.84
Neigh   | 0          | 0          | 0          |   0.0 |  0.00
Comm    | 0.031271   | 0.34056    | 1.016      |  47.8 | 16.48
Output  | 0          | 0          | 0          |   0.0 |  0.00
Modify  | 2.1758e-05 | 0.0029103  | 0.0061752  |   2.5 |  0.14
Other   |            | 0.2385     |            |       | 11.54

Nlocal:        2776.45 ave        3946 max           0 min
Histogram: 8 4 4 0 4 12 8 0 28 36
Nghost:        3878.70 ave        5422 max         232 min
Histogram: 8 0 8 0 16 0 8 8 16 40
Neighs:        79213.4 ave      115117 max           0 min
Histogram: 8 4 4 0 10 6 8 8 24 32

Total # of neighbors = 8238195
Ave neighs/atom = 28.530447
Neighbor list builds = 0
Dangerous builds = 0
The dot product: -2.51576498372821e-08
Setting atom values ...
  1 settings made for x
  1 settings made for y
  1 settings made for z
Setting up cg style minimization ...
  Unit style    : metal
  Current step  : 13563
Per MPI rank memory allocation (min/avg/max) = 5.441 | 5.816 | 6.074 Mbytes
Step PotEng KinEng TotEng v_fx v_fy v_fz 
   13563   -1152449.4            0   -1152449.4 0.0064671109  0.023104354  0.029128294 
   13720   -1152449.4            0   -1152449.4 5.8209503e-05 2.4008483e-05 -5.5986953e-06 
Loop time of 1.82752 on 104 procs for 157 steps with 288751 atoms

99.9% CPU use with 104 MPI tasks x 1 OpenMP threads

Minimization stats:
  Stopping criterion = energy tolerance
  Energy initial, next-to-last, final = 
      -1152449.3863775  -1152449.38762956  -1152449.38762956
  Force two-norm initial, final = 0.16391832 0.00026677058
  Force max component initial, final = 0.089711414 5.8209503e-05
  Final line search alpha, max atom move = 1.0000000 5.8209503e-05
  Iterations, force evaluations = 157 314

MPI task timing breakdown:
Section |  min time  |  avg time  |  max time  |%varavg| %total
---------------------------------------------------------------
Pair    | 0.47314    | 1.3177     | 1.7192     |  31.1 | 72.10
Neigh   | 0          | 0          | 0          |   0.0 |  0.00
Comm    | 0.03218    | 0.29717    | 0.88973    |  45.4 | 16.26
Output  | 0          | 0          | 0          |   0.0 |  0.00
Modify  | 1.9123e-05 | 0.0025995  | 0.0055029  |   2.4 |  0.14
Other   |            | 0.2101     |            |       | 11.50

Nlocal:        2776.45 ave        3947 max           0 min
Histogram: 8 4 4 0 4 12 8 0 28 36
Nghost:        3878.70 ave        5422 max         232 min
Histogram: 8 0 8 0 16 0 8 8 16 40
Neighs:        79213.4 ave      115087 max           0 min
Histogram: 8 4 4 0 10 6 8 8 24 32

Total # of neighbors = 8238194
Ave neighs/atom = 28.530443
Neighbor list builds = 0
Dangerous builds = 0
The dot product: -1.57814688488041e-08
Setting atom values ...
  1 settings made for x
  1 settings made for y
  1 settings made for z
Setting up cg style minimization ...
  Unit style    : metal
  Current step  : 13720
Per MPI rank memory allocation (min/avg/max) = 5.441 | 5.816 | 6.074 Mbytes
Step PotEng KinEng TotEng v_fx v_fy v_fz 
   13720   -1152449.4            0   -1152449.4 0.0075998979  0.022914219  0.028122913 
   13929   -1152449.4            0   -1152449.4 -1.7395268e-07 3.890267e-06 5.7969372e-06 
Loop time of 2.45628 on 104 procs for 209 steps with 288751 atoms

99.9% CPU use with 104 MPI tasks x 1 OpenMP threads

Minimization stats:
  Stopping criterion = energy tolerance
  Energy initial, next-to-last, final = 
     -1152449.37340567  -1152449.37464735  -1152449.37464735
  Force two-norm initial, final = 0.16340849 4.6371184e-05
  Force max component initial, final = 0.09074347 5.7969372e-06
  Final line search alpha, max atom move = 1.0000000 5.7969372e-06
  Iterations, force evaluations = 209 418

MPI task timing breakdown:
Section |  min time  |  avg time  |  max time  |%varavg| %total
---------------------------------------------------------------
Pair    | 0.63006    | 1.7557     | 2.3178     |  35.9 | 71.48
Neigh   | 0          | 0          | 0          |   0.0 |  0.00
Comm    | 0.036901   | 0.39978    | 1.1821     |  51.7 | 16.28
Output  | 0          | 0          | 0          |   0.0 |  0.00
Modify  | 2.5109e-05 | 0.0034569  | 0.0073784  |   2.8 |  0.14
Other   |            | 0.2973     |            |       | 12.10

Nlocal:        2776.45 ave        3947 max           0 min
Histogram: 8 4 4 0 4 12 8 0 28 36
Nghost:        3878.70 ave        5422 max         232 min
Histogram: 8 0 8 0 16 0 8 8 16 40
Neighs:        79213.4 ave      115135 max           0 min
Histogram: 8 4 4 0 10 6 8 8 24 32

Total # of neighbors = 8238192
Ave neighs/atom = 28.530436
Neighbor list builds = 0
Dangerous builds = 0
The dot product: 9.67623841636887e-09
Setting atom values ...
  1 settings made for x
  1 settings made for y
  1 settings made for z
Setting up cg style minimization ...
  Unit style    : metal
  Current step  : 13929
Per MPI rank memory allocation (min/avg/max) = 5.441 | 5.816 | 6.074 Mbytes
Step PotEng KinEng TotEng v_fx v_fy v_fz 
   13929   -1152449.4            0   -1152449.4  0.008447715  0.022651186  0.027201764 
   14000   -1152449.4            0   -1152449.4 0.00014778891 4.166094e-06 -9.7294545e-05 
   14075   -1152449.4            0   -1152449.4 -4.6229242e-05 1.5126911e-05 5.4451658e-05 
Loop time of 1.7359 on 104 procs for 146 steps with 288751 atoms

99.9% CPU use with 104 MPI tasks x 1 OpenMP threads

Minimization stats:
  Stopping criterion = energy tolerance
  Energy initial, next-to-last, final = 
     -1152449.35898603  -1152449.36022173  -1152449.36022173
  Force two-norm initial, final = 0.16303596 0.00032883338
  Force max component initial, final = 0.091729211 5.4451658e-05
  Final line search alpha, max atom move = 1.0000000 5.4451658e-05
  Iterations, force evaluations = 146 292

MPI task timing breakdown:
Section |  min time  |  avg time  |  max time  |%varavg| %total
---------------------------------------------------------------
Pair    | 0.44066    | 1.2312     | 1.6169     |  30.2 | 70.93
Neigh   | 0          | 0          | 0          |   0.0 |  0.00
Comm    | 0.02555    | 0.28272    | 0.82212    |  42.6 | 16.29
Output  | 0.00014623 | 0.00015594 | 0.00030594 |   0.0 |  0.01
Modify  | 1.8198e-05 | 0.0024216  | 0.0051219  |   2.3 |  0.14
Other   |            | 0.2194     |            |       | 12.64

Nlocal:        2776.45 ave        3946 max           0 min
Histogram: 8 4 4 0 4 12 8 0 28 36
Nghost:        3878.74 ave        5423 max         232 min
Histogram: 8 0 8 0 16 0 8 8 16 40
Neighs:        79213.4 ave      115105 max           0 min
Histogram: 8 4 4 0 10 6 8 8 24 32

Total # of neighbors = 8238191
Ave neighs/atom = 28.530433
Neighbor list builds = 0
Dangerous builds = 0
The dot product: 8.06180858457488e-08
Setting atom values ...
  1 settings made for x
  1 settings made for y
  1 settings made for z
Setting up cg style minimization ...
  Unit style    : metal
  Current step  : 14075
Per MPI rank memory allocation (min/avg/max) = 5.441 | 5.816 | 6.074 Mbytes
Step PotEng KinEng TotEng v_fx v_fy v_fz 
   14075   -1152449.3            0   -1152449.3 0.0091358321   0.02240333  0.026409868 
   14248   -1152449.3            0   -1152449.3 -2.2792912e-05 -5.0287948e-06 8.6056108e-06 
Loop time of 2.02309 on 104 procs for 173 steps with 288751 atoms

99.9% CPU use with 104 MPI tasks x 1 OpenMP threads

Minimization stats:
  Stopping criterion = energy tolerance
  Energy initial, next-to-last, final = 
     -1152449.34310949  -1152449.34434484  -1152449.34434484
  Force two-norm initial, final = 0.16286143 0.00017502824
  Force max component initial, final = 0.092656672 2.9898603e-05
  Final line search alpha, max atom move = 1.0000000 2.9898603e-05
  Iterations, force evaluations = 173 346

MPI task timing breakdown:
Section |  min time  |  avg time  |  max time  |%varavg| %total
---------------------------------------------------------------
Pair    | 0.518      | 1.4559     | 1.9066     |  32.8 | 71.96
Neigh   | 0          | 0          | 0          |   0.0 |  0.00
Comm    | 0.031523   | 0.3346     | 0.99412    |  47.2 | 16.54
Output  | 0          | 0          | 0          |   0.0 |  0.00
Modify  | 2.1109e-05 | 0.0028687  | 0.0061169  |   2.5 |  0.14
Other   |            | 0.2297     |            |       | 11.36

Nlocal:        2776.45 ave        3947 max           0 min
Histogram: 8 4 4 0 4 12 8 0 28 36
Nghost:        3878.74 ave        5423 max         232 min
Histogram: 8 0 8 0 16 0 8 8 16 40
Neighs:        79213.4 ave      115134 max           0 min
Histogram: 8 4 4 0 10 6 8 8 24 32

Total # of neighbors = 8238191
Ave neighs/atom = 28.530433
Neighbor list builds = 0
Dangerous builds = 0
The dot product: 8.03893617898777e-09
Setting atom values ...
  1 settings made for x
  1 settings made for y
  1 settings made for z
Setting up cg style minimization ...
  Unit style    : metal
  Current step  : 14248
Per MPI rank memory allocation (min/avg/max) = 5.441 | 5.816 | 6.074 Mbytes
Step PotEng KinEng TotEng v_fx v_fy v_fz 
   14248   -1152449.3            0   -1152449.3 0.0097653127  0.022049467   0.02549364 
   14409   -1152449.3            0   -1152449.3 -3.7932118e-05 -4.2928707e-05 -3.6359847e-05 
Loop time of 1.88329 on 104 procs for 161 steps with 288751 atoms

99.9% CPU use with 104 MPI tasks x 1 OpenMP threads

Minimization stats:
  Stopping criterion = energy tolerance
  Energy initial, next-to-last, final = 
      -1152449.3257734  -1152449.32701191  -1152449.32701191
  Force two-norm initial, final = 0.16279152 0.00026138586
  Force max component initial, final = 0.093562122 4.9453719e-05
  Final line search alpha, max atom move = 1.0000000 4.9453719e-05
  Iterations, force evaluations = 161 322

MPI task timing breakdown:
Section |  min time  |  avg time  |  max time  |%varavg| %total
---------------------------------------------------------------
Pair    | 0.48518    | 1.3524     | 1.7762     |  31.5 | 71.81
Neigh   | 0          | 0          | 0          |   0.0 |  0.00
Comm    | 0.028919   | 0.30608    | 0.90868    |  45.6 | 16.25
Output  | 0          | 0          | 0          |   0.0 |  0.00
Modify  | 1.9292e-05 | 0.00267    | 0.0056601  |   2.4 |  0.14
Other   |            | 0.2221     |            |       | 11.80

Nlocal:        2776.45 ave        3947 max           0 min
Histogram: 8 4 4 0 4 12 8 0 28 36
Nghost:        3878.74 ave        5423 max         232 min
Histogram: 8 0 8 0 16 0 8 8 16 40
Neighs:        79213.4 ave      115126 max           0 min
Histogram: 8 4 4 0 10 6 8 8 24 32

Total # of neighbors = 8238192
Ave neighs/atom = 28.530436
Neighbor list builds = 0
Dangerous builds = 0
The dot product: -4.55907361148817e-08
Setting atom values ...
  1 settings made for x
  1 settings made for y
  1 settings made for z
Setting up cg style minimization ...
  Unit style    : metal
  Current step  : 14409
Per MPI rank memory allocation (min/avg/max) = 5.441 | 5.816 | 6.074 Mbytes
Step PotEng KinEng TotEng v_fx v_fy v_fz 
   14409   -1152449.3            0   -1152449.3  0.010254129   0.02163845  0.024581557 
   14700   -1152449.3            0   -1152449.3 9.229645e-08 1.7850304e-07 1.9736824e-07 
Loop time of 3.4161 on 104 procs for 291 steps with 288751 atoms

99.9% CPU use with 104 MPI tasks x 1 OpenMP threads

Minimization stats:
  Stopping criterion = energy tolerance
  Energy initial, next-to-last, final = 
     -1152449.30697453  -1152449.30822429  -1152449.30822429
  Force two-norm initial, final = 0.16289177 1.0581969e-06
  Force max component initial, final = 0.094447607 2.5329726e-07
  Final line search alpha, max atom move = 1.0000000 2.5329726e-07
  Iterations, force evaluations = 291 582

MPI task timing breakdown:
Section |  min time  |  avg time  |  max time  |%varavg| %total
---------------------------------------------------------------
Pair    | 0.87587    | 2.449      | 3.2087     |  42.5 | 71.69
Neigh   | 0          | 0          | 0          |   0.0 |  0.00
Comm    | 0.050466   | 0.56472    | 1.6682     |  61.1 | 16.53
Output  | 0          | 0          | 0          |   0.0 |  0.00
Modify  | 3.4552e-05 | 0.004816   | 0.010224   |   3.3 |  0.14
Other   |            | 0.3975     |            |       | 11.64

Nlocal:        2776.45 ave        3946 max           0 min
Histogram: 8 4 4 0 4 12 8 0 28 36
Nghost:        3878.64 ave        5423 max         232 min
Histogram: 8 0 8 0 16 0 8 8 16 40
Neighs:        79213.4 ave      115097 max           0 min
Histogram: 8 4 4 0 10 6 8 8 24 32

Total # of neighbors = 8238192
Ave neighs/atom = 28.530436
Neighbor list builds = 0
Dangerous builds = 0
The dot product: 9.98188774138841e-11
Setting up cg style minimization ...
  Unit style    : metal
  Current step  : 14700
Per MPI rank memory allocation (min/avg/max) = 5.441 | 5.816 | 6.074 Mbytes
Step PotEng KinEng TotEng v_fx v_fy v_fz 
   14700   -1152449.3            0   -1152449.3   0.35864673  -0.74996653   0.51056626 
   15000   -1152449.4            0   -1152449.4 7.7381118e-07 1.8460786e-07 1.5780922e-06 
   15017   -1152449.4            0   -1152449.4 9.7812637e-07 -9.8305841e-08 -6.2366884e-07 
Loop time of 3.73076 on 104 procs for 317 steps with 288751 atoms

99.9% CPU use with 104 MPI tasks x 1 OpenMP threads

Minimization stats:
  Stopping criterion = energy tolerance
  Energy initial, next-to-last, final = 
     -1152449.30822429  -1152449.44108925  -1152449.44108925
  Force two-norm initial, final = 0.97557941 9.9244126e-06
  Force max component initial, final = 0.74996653 1.4690296e-06
  Final line search alpha, max atom move = 1.0000000 1.4690296e-06
  Iterations, force evaluations = 317 634

MPI task timing breakdown:
Section |  min time  |  avg time  |  max time  |%varavg| %total
---------------------------------------------------------------
Pair    | 0.95646    | 2.6595     | 3.4957     |  44.1 | 71.29
Neigh   | 1.0055e-05 | 0.0029404  | 0.0043017  |   2.2 |  0.08
Comm    | 0.055616   | 0.60566    | 1.7895     |  63.5 | 16.23
Output  | 0.00014986 | 0.00015778 | 0.00038581 |   0.0 |  0.00
Modify  | 3.5781e-05 | 0.0034189  | 0.0086701  |   3.6 |  0.09
Other   |            | 0.4591     |            |       | 12.30

Nlocal:        2776.45 ave        3947 max           0 min
Histogram: 8 4 4 0 4 12 8 0 28 36
Nghost:        3878.57 ave        5423 max         232 min
Histogram: 8 0 8 0 16 0 8 8 16 40
Neighs:        79213.4 ave      115132 max           0 min
Histogram: 8 4 4 0 10 6 8 8 24 32

Total # of neighbors = 8238190
Ave neighs/atom = 28.530429
Neighbor list builds = 1
Dangerous builds = 0
