LAMMPS (29 Oct 2020)
OMP_NUM_THREADS environment is not set. Defaulting to 1 thread. (../comm.cpp:94)
  using 1 OpenMP thread(s) per MPI task
OMP_NUM_THREADS environment is not set. Defaulting to 1 thread. (../comm.cpp:94)
  using 1 OpenMP thread(s) per MPI task
Reading data file ...
  orthogonal box = (-122.39241 -121.13707 -37.090501) to (122.39241 121.13707 37.090501)
  13 by 4 by 2 MPI processor grid
  reading atoms ...
  288751 atoms
  read_data CPU = 0.496 seconds
199981 atoms in group inner
88770 atoms in group outer
1 atoms in group carbon
Neighbor list info ...
  update every 1 steps, delay 0 steps, check yes
  max neighbors/atom: 2000, page size: 100000
  master list distance cutoff = 5.6
  ghost atom cutoff = 5.6
  binsize = 2.8, bins = 88 87 27
  1 neighbor lists, perpetual/occasional/extra = 1 0 0
  (1) pair eam/alloy, perpetual
      attributes: half, newton on
      pair build: half/bin/atomonly/newton
      stencil: half/bin/3d/newton
      bin: standard
Setting up cg style minimization ...
  Unit style    : metal
  Current step  : 0
Per MPI rank memory allocation (min/avg/max) = 5.441 | 5.816 | 6.074 Mbytes
Step v_fx v_fy v_fz PotEng KinEng TotEng 
       0    25.874427    15.018447    50.604212   -1152433.3            0   -1152433.3 
     171 1.0584822e-05 1.9430147e-06 -1.2515512e-05   -1152449.5            0   -1152449.5 
Loop time of 1.97932 on 104 procs for 171 steps with 288751 atoms

99.8% CPU use with 104 MPI tasks x 1 OpenMP threads

Minimization stats:
  Stopping criterion = energy tolerance
  Energy initial, next-to-last, final = 
     -1152433.25154955  -1152449.45035285  -1152449.45035285
  Force two-norm initial, final = 88.106288 0.00012017159
  Force max component initial, final = 57.793349 2.8738788e-05
  Final line search alpha, max atom move = 1.0000000 2.8738788e-05
  Iterations, force evaluations = 171 334

MPI task timing breakdown:
Section |  min time  |  avg time  |  max time  |%varavg| %total
---------------------------------------------------------------
Pair    | 0.52875    | 1.4082     | 1.8317     |  31.4 | 71.15
Neigh   | 5.1397e-05 | 0.014712   | 0.021562   |   5.0 |  0.74
Comm    | 0.03228    | 0.31991    | 0.95337    |  46.8 | 16.16
Output  | 0          | 0          | 0          |   0.0 |  0.00
Modify  | 2.0141e-05 | 0.0018076  | 0.0046574  |   2.7 |  0.09
Other   |            | 0.2346     |            |       | 11.85

Nlocal:        2776.45 ave        3958 max           0 min
Histogram: 8 4 4 0 4 12 8 2 28 34
Nghost:        3879.03 ave        5424 max         232 min
Histogram: 8 0 8 0 16 0 8 8 16 40
Neighs:        79213.6 ave      115382 max           0 min
Histogram: 8 4 4 0 10 6 8 8 24 32

Total # of neighbors = 8238211
Ave neighs/atom = 28.530502
Neighbor list builds = 5
Dangerous builds = 0
Setting atom values ...
  1 settings made for x
  1 settings made for y
  1 settings made for z
Setting up cg style minimization ...
  Unit style    : metal
  Current step  : 171
Per MPI rank memory allocation (min/avg/max) = 5.441 | 5.816 | 6.074 Mbytes
Step PotEng KinEng TotEng v_fx v_fy v_fz 
     171   -1152449.4            0   -1152449.4 0.0014121272 -0.013341798 -0.013635492 
     303   -1152449.5            0   -1152449.5 -2.2363736e-05 -6.5648482e-06 2.9577008e-05 
Loop time of 1.55982 on 104 procs for 132 steps with 288751 atoms

99.9% CPU use with 104 MPI tasks x 1 OpenMP threads

Minimization stats:
  Stopping criterion = energy tolerance
  Energy initial, next-to-last, final = 
     -1152449.44962151   -1152449.4501068   -1152449.4501068
  Force two-norm initial, final = 0.10163157 0.00024327598
  Force max component initial, final = 0.051245988 6.7899392e-05
  Final line search alpha, max atom move = 1.0000000 6.7899392e-05
  Iterations, force evaluations = 132 264

MPI task timing breakdown:
Section |  min time  |  avg time  |  max time  |%varavg| %total
---------------------------------------------------------------
Pair    | 0.3997     | 1.1165     | 1.4603     |  28.6 | 71.58
Neigh   | 0          | 0          | 0          |   0.0 |  0.00
Comm    | 0.024131   | 0.25442    | 0.75877    |  42.0 | 16.31
Output  | 0          | 0          | 0          |   0.0 |  0.00
Modify  | 1.6701e-05 | 0.0021798  | 0.0046684  |   2.2 |  0.14
Other   |            | 0.1867     |            |       | 11.97

Nlocal:        2776.45 ave        3957 max           0 min
Histogram: 8 4 4 0 4 12 8 2 28 34
Nghost:        3879.03 ave        5424 max         232 min
Histogram: 8 0 8 0 16 0 8 8 16 40
Neighs:        79213.4 ave      115364 max           0 min
Histogram: 8 4 4 0 10 6 8 8 24 32

Total # of neighbors = 8238198
Ave neighs/atom = 28.530457
Neighbor list builds = 0
Dangerous builds = 0
Setting atom values ...
  1 settings made for x
  1 settings made for y
  1 settings made for z
Setting up cg style minimization ...
  Unit style    : metal
  Current step  : 303
Per MPI rank memory allocation (min/avg/max) = 5.441 | 5.816 | 6.074 Mbytes
Step PotEng KinEng TotEng v_fx v_fy v_fz 
     303   -1152449.4            0   -1152449.4 -0.0058854323 -0.026925609  -0.02232351 
     492   -1152449.4            0   -1152449.4 2.6427861e-07 5.0229867e-07 6.4929446e-08 
Loop time of 2.19715 on 104 procs for 189 steps with 288751 atoms

99.9% CPU use with 104 MPI tasks x 1 OpenMP threads

Minimization stats:
  Stopping criterion = energy tolerance
  Energy initial, next-to-last, final = 
     -1152449.44694897  -1152449.44851551  -1152449.44851551
  Force two-norm initial, final = 0.18291124 6.8536176e-05
  Force max component initial, final = 0.083663619 1.9710070e-06
  Final line search alpha, max atom move = 1.0000000 1.9710070e-06
  Iterations, force evaluations = 189 378

MPI task timing breakdown:
Section |  min time  |  avg time  |  max time  |%varavg| %total
---------------------------------------------------------------
Pair    | 0.57502    | 1.5852     | 2.0681     |  34.0 | 72.15
Neigh   | 0          | 0          | 0          |   0.0 |  0.00
Comm    | 0.032981   | 0.35562    | 1.0685     |  50.3 | 16.19
Output  | 0          | 0          | 0          |   0.0 |  0.00
Modify  | 2.4016e-05 | 0.0031169  | 0.006641   |   2.6 |  0.14
Other   |            | 0.2533     |            |       | 11.53

Nlocal:        2776.45 ave        3957 max           0 min
Histogram: 8 4 4 0 4 12 8 2 28 34
Nghost:        3879.03 ave        5424 max         232 min
Histogram: 8 0 8 0 16 0 8 8 16 40
Neighs:        79213.5 ave      115365 max           0 min
Histogram: 8 4 4 0 10 6 8 8 24 32

Total # of neighbors = 8238201
Ave neighs/atom = 28.530467
Neighbor list builds = 0
Dangerous builds = 0
The dot product: -8.8734908638015e-10
Setting atom values ...
  1 settings made for x
  1 settings made for y
  1 settings made for z
Setting up cg style minimization ...
  Unit style    : metal
  Current step  : 492
Per MPI rank memory allocation (min/avg/max) = 5.441 | 5.816 | 6.074 Mbytes
Step PotEng KinEng TotEng v_fx v_fy v_fz 
     492   -1152449.4            0   -1152449.4 -0.013145458 -0.029846764 -0.019261535 
     619   -1152449.4            0   -1152449.4 -2.357093e-06 -6.355636e-07 6.5297165e-06 
Loop time of 1.51338 on 104 procs for 127 steps with 288751 atoms

99.9% CPU use with 104 MPI tasks x 1 OpenMP threads

Minimization stats:
  Stopping criterion = energy tolerance
  Energy initial, next-to-last, final = 
     -1152449.44392373  -1152449.44547859  -1152449.44547859
  Force two-norm initial, final = 0.18205609 0.00010142226
  Force max component initial, final = 0.075073361 2.4461369e-05
  Final line search alpha, max atom move = 1.0000000 2.4461369e-05
  Iterations, force evaluations = 127 254

MPI task timing breakdown:
Section |  min time  |  avg time  |  max time  |%varavg| %total
---------------------------------------------------------------
Pair    | 0.38372    | 1.0799     | 1.4105     |  28.4 | 71.36
Neigh   | 0          | 0          | 0          |   0.0 |  0.00
Comm    | 0.021307   | 0.2462     | 0.73962    |  40.4 | 16.27
Output  | 0          | 0          | 0          |   0.0 |  0.00
Modify  | 1.6438e-05 | 0.0020981  | 0.004475   |   2.2 |  0.14
Other   |            | 0.1852     |            |       | 12.24

Nlocal:        2776.45 ave        3957 max           0 min
Histogram: 8 4 4 0 4 12 8 2 28 34
Nghost:        3879.03 ave        5424 max         232 min
Histogram: 8 0 8 0 16 0 8 8 16 40
Neighs:        79213.5 ave      115369 max           0 min
Histogram: 8 4 4 0 10 6 8 8 24 32

Total # of neighbors = 8238201
Ave neighs/atom = 28.530467
Neighbor list builds = 0
Dangerous builds = 0
The dot product: -2.50771790939573e-08
Setting atom values ...
  1 settings made for x
  1 settings made for y
  1 settings made for z
Setting up cg style minimization ...
  Unit style    : metal
  Current step  : 619
Per MPI rank memory allocation (min/avg/max) = 5.441 | 5.816 | 6.074 Mbytes
Step PotEng KinEng TotEng v_fx v_fy v_fz 
     619   -1152449.4            0   -1152449.4 -0.019031475 -0.031743495 -0.013124976 
     757   -1152449.4            0   -1152449.4 -2.9443082e-06 -4.1303663e-07 1.3113525e-05 
Loop time of 1.59456 on 104 procs for 138 steps with 288751 atoms

99.9% CPU use with 104 MPI tasks x 1 OpenMP threads

Minimization stats:
  Stopping criterion = energy tolerance
  Energy initial, next-to-last, final = 
     -1152449.43942455  -1152449.44096421  -1152449.44096421
  Force two-norm initial, final = 0.18130194 5.2101538e-05
  Force max component initial, final = 0.068902393 1.4482561e-05
  Final line search alpha, max atom move = 1.0000000 1.4482561e-05
  Iterations, force evaluations = 138 276

MPI task timing breakdown:
Section |  min time  |  avg time  |  max time  |%varavg| %total
---------------------------------------------------------------
Pair    | 0.41889    | 1.1551     | 1.5046     |  29.0 | 72.44
Neigh   | 0          | 0          | 0          |   0.0 |  0.00
Comm    | 0.024844   | 0.25782    | 0.7826     |  43.2 | 16.17
Output  | 0          | 0          | 0          |   0.0 |  0.00
Modify  | 1.8162e-05 | 0.002277   | 0.0048943  |   2.3 |  0.14
Other   |            | 0.1794     |            |       | 11.25

Nlocal:        2776.45 ave        3956 max           0 min
Histogram: 8 4 4 0 4 12 8 0 30 34
Nghost:        3879.03 ave        5424 max         232 min
Histogram: 8 0 8 0 16 0 8 8 16 40
Neighs:        79213.5 ave      115330 max           0 min
Histogram: 8 4 4 0 10 6 8 8 24 32

Total # of neighbors = 8238201
Ave neighs/atom = 28.530467
Neighbor list builds = 0
Dangerous builds = 0
The dot product: -4.81565039657339e-08
Setting atom values ...
  1 settings made for x
  1 settings made for y
  1 settings made for z
Setting up cg style minimization ...
  Unit style    : metal
  Current step  : 757
Per MPI rank memory allocation (min/avg/max) = 5.441 | 5.816 | 6.074 Mbytes
Step PotEng KinEng TotEng v_fx v_fy v_fz 
     757   -1152449.4            0   -1152449.4 -0.023478032 -0.033238279 -0.0059825293 
     919   -1152449.4            0   -1152449.4 -3.8793238e-06 -3.0413294e-06 1.2026191e-05 
Loop time of 1.88137 on 104 procs for 162 steps with 288751 atoms

99.9% CPU use with 104 MPI tasks x 1 OpenMP threads

Minimization stats:
  Stopping criterion = energy tolerance
  Energy initial, next-to-last, final = 
     -1152449.43341089  -1152449.43493229  -1152449.43493229
  Force two-norm initial, final = 0.18066094 7.0668364e-05
  Force max component initial, final = 0.063855708 1.3360999e-05
  Final line search alpha, max atom move = 1.0000000 1.3360999e-05
  Iterations, force evaluations = 162 324

MPI task timing breakdown:
Section |  min time  |  avg time  |  max time  |%varavg| %total
---------------------------------------------------------------
Pair    | 0.489      | 1.3645     | 1.7727     |  31.6 | 72.53
Neigh   | 0          | 0          | 0          |   0.0 |  0.00
Comm    | 0.027679   | 0.30381    | 0.92857    |  47.1 | 16.15
Output  | 0          | 0          | 0          |   0.0 |  0.00
Modify  | 2.0916e-05 | 0.0026758  | 0.0057426  |   2.4 |  0.14
Other   |            | 0.2104     |            |       | 11.18

Nlocal:        2776.45 ave        3955 max           0 min
Histogram: 8 4 4 0 4 12 8 0 30 34
Nghost:        3879.03 ave        5424 max         232 min
Histogram: 8 0 8 0 16 0 8 8 16 40
Neighs:        79213.5 ave      115287 max           0 min
Histogram: 8 4 4 0 10 6 8 8 24 32

Total # of neighbors = 8238202
Ave neighs/atom = 28.530471
Neighbor list builds = 0
Dangerous builds = 0
The dot product: -2.80461421595671e-08
Setting atom values ...
  1 settings made for x
  1 settings made for y
  1 settings made for z
Setting up cg style minimization ...
  Unit style    : metal
  Current step  : 919
Per MPI rank memory allocation (min/avg/max) = 5.441 | 5.816 | 6.074 Mbytes
Step PotEng KinEng TotEng v_fx v_fy v_fz 
     919   -1152449.4            0   -1152449.4 -0.027097358 -0.034747531 0.0011199601 
    1000   -1152449.4            0   -1152449.4 -2.6788528e-05 -4.655023e-05 -9.9837896e-05 
    1061   -1152449.4            0   -1152449.4 -2.6434636e-06 -3.9701955e-07 2.4874445e-05 
Loop time of 1.63831 on 104 procs for 142 steps with 288751 atoms

99.9% CPU use with 104 MPI tasks x 1 OpenMP threads

Minimization stats:
  Stopping criterion = energy tolerance
  Energy initial, next-to-last, final = 
     -1152449.42584826  -1152449.42735175  -1152449.42735175
  Force two-norm initial, final = 0.18015305 9.2642138e-05
  Force max component initial, final = 0.062770947 2.4874445e-05
  Final line search alpha, max atom move = 1.0000000 2.4874445e-05
  Iterations, force evaluations = 142 284

MPI task timing breakdown:
Section |  min time  |  avg time  |  max time  |%varavg| %total
---------------------------------------------------------------
Pair    | 0.42892    | 1.1889     | 1.5471     |  29.5 | 72.57
Neigh   | 0          | 0          | 0          |   0.0 |  0.00
Comm    | 0.02507    | 0.26606    | 0.80153    |  43.7 | 16.24
Output  | 0.00014749 | 0.0001566  | 0.00026704 |   0.0 |  0.01
Modify  | 1.8436e-05 | 0.0023446  | 0.0050069  |   2.3 |  0.14
Other   |            | 0.1809     |            |       | 11.04

Nlocal:        2776.45 ave        3955 max           0 min
Histogram: 8 4 4 0 4 12 8 0 30 34
Nghost:        3879.03 ave        5424 max         232 min
Histogram: 8 0 8 0 16 0 8 8 16 40
Neighs:        79213.5 ave      115284 max           0 min
Histogram: 8 4 4 0 10 6 8 8 24 32

Total # of neighbors = 8238204
Ave neighs/atom = 28.530478
Neighbor list builds = 0
Dangerous builds = 0
The dot product: -5.92905054980346e-08
Setting atom values ...
  1 settings made for x
  1 settings made for y
  1 settings made for z
Setting up cg style minimization ...
  Unit style    : metal
  Current step  : 1061
Per MPI rank memory allocation (min/avg/max) = 5.441 | 5.816 | 6.074 Mbytes
Step PotEng KinEng TotEng v_fx v_fy v_fz 
    1061   -1152449.4            0   -1152449.4 -0.030509831 -0.036489164 0.0079732016 
    1232   -1152449.4            0   -1152449.4 1.1443991e-08 -2.7550297e-06 -3.4716741e-05 
Loop time of 1.98622 on 104 procs for 171 steps with 288751 atoms

99.9% CPU use with 104 MPI tasks x 1 OpenMP threads

Minimization stats:
  Stopping criterion = energy tolerance
  Energy initial, next-to-last, final = 
     -1152449.41671469  -1152449.41820312  -1152449.41820312
  Force two-norm initial, final = 0.17980925 0.00012472721
  Force max component initial, final = 0.063138416 3.4716741e-05
  Final line search alpha, max atom move = 1.0000000 3.4716741e-05
  Iterations, force evaluations = 171 342

MPI task timing breakdown:
Section |  min time  |  avg time  |  max time  |%varavg| %total
---------------------------------------------------------------
Pair    | 0.51918    | 1.438      | 1.8722     |  32.3 | 72.40
Neigh   | 0          | 0          | 0          |   0.0 |  0.00
Comm    | 0.03252    | 0.3211     | 0.96756    |  48.0 | 16.17
Output  | 0          | 0          | 0          |   0.0 |  0.00
Modify  | 2.1949e-05 | 0.0028171  | 0.0059995  |   2.5 |  0.14
Other   |            | 0.2244     |            |       | 11.30

Nlocal:        2776.45 ave        3954 max           0 min
Histogram: 8 4 4 0 4 12 8 0 30 34
Nghost:        3879.01 ave        5424 max         232 min
Histogram: 8 0 8 0 16 0 8 8 16 40
Neighs:        79213.5 ave      115261 max           0 min
Histogram: 8 4 4 0 10 6 8 8 24 32

Total # of neighbors = 8238204
Ave neighs/atom = 28.530478
Neighbor list builds = 0
Dangerous builds = 0
The dot product: 7.00660278226261e-08
Setting atom values ...
  1 settings made for x
  1 settings made for y
  1 settings made for z
Setting up cg style minimization ...
  Unit style    : metal
  Current step  : 1232
Per MPI rank memory allocation (min/avg/max) = 5.441 | 5.816 | 6.074 Mbytes
Step PotEng KinEng TotEng v_fx v_fy v_fz 
    1232   -1152449.4            0   -1152449.4 -0.034215989 -0.038589253  0.014622269 
    1360   -1152449.4            0   -1152449.4 -1.0720089e-05 -1.0701136e-05 2.9215682e-05 
Loop time of 1.47795 on 104 procs for 128 steps with 288751 atoms

99.9% CPU use with 104 MPI tasks x 1 OpenMP threads

Minimization stats:
  Stopping criterion = energy tolerance
  Energy initial, next-to-last, final = 
     -1152449.40600543   -1152449.4074826   -1152449.4074826
  Force two-norm initial, final = 0.17967668 0.00012298021
  Force max component initial, final = 0.062516857 3.0444812e-05
  Final line search alpha, max atom move = 1.0000000 3.0444812e-05
  Iterations, force evaluations = 128 256

MPI task timing breakdown:
Section |  min time  |  avg time  |  max time  |%varavg| %total
---------------------------------------------------------------
Pair    | 0.38582    | 1.0727     | 1.3975     |  28.0 | 72.58
Neigh   | 0          | 0          | 0          |   0.0 |  0.00
Comm    | 0.023471   | 0.23977    | 0.72475    |  41.8 | 16.22
Output  | 0          | 0          | 0          |   0.0 |  0.00
Modify  | 1.7129e-05 | 0.0021185  | 0.0044972  |   2.2 |  0.14
Other   |            | 0.1633     |            |       | 11.05

Nlocal:        2776.45 ave        3951 max           0 min
Histogram: 8 4 4 0 4 12 8 0 30 34
Nghost:        3879.01 ave        5424 max         232 min
Histogram: 8 0 8 0 16 0 8 8 16 40
Neighs:        79213.5 ave      115175 max           0 min
Histogram: 8 4 4 0 10 6 8 8 24 32

Total # of neighbors = 8238201
Ave neighs/atom = 28.530467
Neighbor list builds = 0
Dangerous builds = 0
The dot product: 3.89239173823878e-08
Setting atom values ...
  1 settings made for x
  1 settings made for y
  1 settings made for z
Setting up cg style minimization ...
  Unit style    : metal
  Current step  : 1360
Per MPI rank memory allocation (min/avg/max) = 5.441 | 5.816 | 6.074 Mbytes
Step PotEng KinEng TotEng v_fx v_fy v_fz 
    1360   -1152449.4            0   -1152449.4 -0.038787145 -0.041226151  0.021706761 
    1506   -1152449.4            0   -1152449.4 3.7718541e-06 4.6015828e-06 1.0724832e-05 
Loop time of 1.69259 on 104 procs for 146 steps with 288751 atoms

99.9% CPU use with 104 MPI tasks x 1 OpenMP threads

Minimization stats:
  Stopping criterion = energy tolerance
  Energy initial, next-to-last, final = 
      -1152449.3937317  -1152449.39520917  -1152449.39520917
  Force two-norm initial, final = 0.18003038 4.7984357e-05
  Force max component initial, final = 0.063486625 1.1239283e-05
  Final line search alpha, max atom move = 1.0000000 1.1239283e-05
  Iterations, force evaluations = 146 292

MPI task timing breakdown:
Section |  min time  |  avg time  |  max time  |%varavg| %total
---------------------------------------------------------------
Pair    | 0.44003    | 1.2325     | 1.6004     |  30.1 | 72.82
Neigh   | 0          | 0          | 0          |   0.0 |  0.00
Comm    | 0.025921   | 0.27466    | 0.83516    |  44.5 | 16.23
Output  | 0          | 0          | 0          |   0.0 |  0.00
Modify  | 1.931e-05  | 0.0024089  | 0.0051573  |   2.3 |  0.14
Other   |            | 0.183      |            |       | 10.81

Nlocal:        2776.45 ave        3950 max           0 min
Histogram: 8 4 4 0 4 12 8 0 28 36
Nghost:        3879.01 ave        5424 max         232 min
Histogram: 8 0 8 0 16 0 8 8 16 40
Neighs:        79213.4 ave      115142 max           0 min
Histogram: 8 4 4 0 10 6 8 8 24 32

Total # of neighbors = 8238197
Ave neighs/atom = 28.530454
Neighbor list builds = 0
Dangerous builds = 0
The dot product: -2.89218302392121e-08
Setting atom values ...
  1 settings made for x
  1 settings made for y
  1 settings made for z
Setting up cg style minimization ...
  Unit style    : metal
  Current step  : 1506
Per MPI rank memory allocation (min/avg/max) = 5.441 | 5.816 | 6.074 Mbytes
Step PotEng KinEng TotEng v_fx v_fy v_fz 
    1506   -1152449.4            0   -1152449.4 -0.045747995 -0.045362361  0.030872527 
    1632   -1152449.4            0   -1152449.4 1.3473342e-05 1.4422111e-05 1.3610424e-05 
Loop time of 1.47393 on 104 procs for 126 steps with 288751 atoms

99.9% CPU use with 104 MPI tasks x 1 OpenMP threads

Minimization stats:
  Stopping criterion = energy tolerance
  Energy initial, next-to-last, final = 
     -1152449.37994571  -1152449.38146202  -1152449.38146202
  Force two-norm initial, final = 0.18172279 0.00011331375
  Force max component initial, final = 0.066706209 2.7450371e-05
  Final line search alpha, max atom move = 1.0000000 2.7450371e-05
  Iterations, force evaluations = 126 252

MPI task timing breakdown:
Section |  min time  |  avg time  |  max time  |%varavg| %total
---------------------------------------------------------------
Pair    | 0.38063    | 1.0588     | 1.3815     |  27.9 | 71.83
Neigh   | 0          | 0          | 0          |   0.0 |  0.00
Comm    | 0.023268   | 0.23947    | 0.71687    |  41.2 | 16.25
Output  | 0          | 0          | 0          |   0.0 |  0.00
Modify  | 1.7025e-05 | 0.0020793  | 0.0044367  |   2.2 |  0.14
Other   |            | 0.1736     |            |       | 11.78

Nlocal:        2776.45 ave        3948 max           0 min
Histogram: 8 4 4 0 4 12 8 0 28 36
Nghost:        3879.01 ave        5424 max         232 min
Histogram: 8 0 8 0 16 0 8 8 16 40
Neighs:        79213.4 ave      115078 max           0 min
Histogram: 8 4 4 0 10 6 8 8 24 32

Total # of neighbors = 8238198
Ave neighs/atom = 28.530457
Neighbor list builds = 0
Dangerous builds = 0
The dot product: -1.193942459967e-07
Setting atom values ...
  1 settings made for x
  1 settings made for y
  1 settings made for z
Setting up cg style minimization ...
  Unit style    : metal
  Current step  : 1632
Per MPI rank memory allocation (min/avg/max) = 5.441 | 5.816 | 6.074 Mbytes
Step PotEng KinEng TotEng v_fx v_fy v_fz 
    1632   -1152449.4            0   -1152449.4 -0.059399085 -0.053179166  0.046859044 
    1781   -1152449.4            0   -1152449.4 -7.5194958e-06 -7.2138367e-06 -1.828515e-06 
Loop time of 1.73212 on 104 procs for 149 steps with 288751 atoms

99.9% CPU use with 104 MPI tasks x 1 OpenMP threads

Minimization stats:
  Stopping criterion = energy tolerance
  Energy initial, next-to-last, final = 
     -1152449.36485226  -1152449.36681768  -1152449.36681768
  Force two-norm initial, final = 0.18849665 0.00011610149
  Force max component initial, final = 0.070217416 1.0193684e-05
  Final line search alpha, max atom move = 1.0000000 1.0193684e-05
  Iterations, force evaluations = 149 298

MPI task timing breakdown:
Section |  min time  |  avg time  |  max time  |%varavg| %total
---------------------------------------------------------------
Pair    | 0.45087    | 1.2552     | 1.6345     |  30.3 | 72.47
Neigh   | 0          | 0          | 0          |   0.0 |  0.00
Comm    | 0.028014   | 0.28391    | 0.85409    |  45.0 | 16.39
Output  | 0          | 0          | 0          |   0.0 |  0.00
Modify  | 2.0311e-05 | 0.0024578  | 0.0053071  |   2.4 |  0.14
Other   |            | 0.1906     |            |       | 11.00

Nlocal:        2776.45 ave        3943 max           0 min
Histogram: 8 4 4 0 4 12 8 0 28 36
Nghost:        3879.01 ave        5424 max         232 min
Histogram: 8 0 8 0 16 0 8 8 16 40
Neighs:        79213.4 ave      114903 max           0 min
Histogram: 8 4 4 0 10 6 8 8 22 34

Total # of neighbors = 8238195
Ave neighs/atom = 28.530447
Neighbor list builds = 0
Dangerous builds = 0
The dot product: 1.99167347011829e-07
Setting atom values ...
  1 settings made for x
  1 settings made for y
  1 settings made for z
Setting up cg style minimization ...
  Unit style    : metal
  Current step  : 1781
Per MPI rank memory allocation (min/avg/max) = 5.441 | 5.816 | 6.074 Mbytes
Step PotEng KinEng TotEng v_fx v_fy v_fz 
    1781   -1152449.4            0   -1152449.4  -0.11466384 -0.073340982  0.098557227 
    1987   -1152449.4            0   -1152449.4 -7.9258088e-06 -4.9844416e-06 7.388946e-06 
Loop time of 2.37409 on 104 procs for 206 steps with 288751 atoms

99.9% CPU use with 104 MPI tasks x 1 OpenMP threads

Minimization stats:
  Stopping criterion = energy tolerance
  Energy initial, next-to-last, final = 
     -1152449.35033725  -1152449.35742959  -1152449.35742959
  Force two-norm initial, final = 0.23087533 0.0001143169
  Force max component initial, final = 0.11466384 2.3911590e-05
  Final line search alpha, max atom move = 1.0000000 2.3911590e-05
  Iterations, force evaluations = 206 412

MPI task timing breakdown:
Section |  min time  |  avg time  |  max time  |%varavg| %total
---------------------------------------------------------------
Pair    | 0.62299    | 1.7206     | 2.2361     |  35.3 | 72.47
Neigh   | 1.0213e-05 | 0.0029543  | 0.0043015  |   2.2 |  0.12
Comm    | 0.03781    | 0.38543    | 1.1617     |  52.4 | 16.23
Output  | 0          | 0          | 0          |   0.0 |  0.00
Modify  | 2.767e-05  | 0.0033938  | 0.0072494  |   2.7 |  0.14
Other   |            | 0.2617     |            |       | 11.02

Nlocal:        2776.45 ave        3941 max           0 min
Histogram: 8 4 4 0 4 12 8 0 28 36
Nghost:        3879.03 ave        5424 max         232 min
Histogram: 8 0 8 0 16 0 8 8 16 40
Neighs:        79213.4 ave      114848 max           0 min
Histogram: 8 4 4 0 10 6 8 8 22 34

Total # of neighbors = 8238192
Ave neighs/atom = 28.530436
Neighbor list builds = 1
Dangerous builds = 0
The dot product: 8.42584026239755e-07
Setting atom values ...
  1 settings made for x
  1 settings made for y
  1 settings made for z
Setting up cg style minimization ...
  Unit style    : metal
  Current step  : 1987
Per MPI rank memory allocation (min/avg/max) = 5.441 | 5.816 | 6.074 Mbytes
Step PotEng KinEng TotEng v_fx v_fy v_fz 
    1987   -1152449.3            0   -1152449.3  -0.19368126 -0.048621046   0.10924324 
    2000   -1152449.4            0   -1152449.4 -0.0012842975 3.5364252e-05 0.0018887571 
    2235   -1152449.4            0   -1152449.4 2.2608441e-07 2.4566472e-06 7.6829642e-06 
Loop time of 2.94093 on 104 procs for 248 steps with 288751 atoms

99.8% CPU use with 104 MPI tasks x 1 OpenMP threads

Minimization stats:
  Stopping criterion = energy tolerance
  Energy initial, next-to-last, final = 
     -1152449.34423189  -1152449.35113196  -1152449.35113196
  Force two-norm initial, final = 0.26778032 2.3750266e-05
  Force max component initial, final = 0.19368126 7.6829642e-06
  Final line search alpha, max atom move = 1.0000000 7.6829642e-06
  Iterations, force evaluations = 248 496

MPI task timing breakdown:
Section |  min time  |  avg time  |  max time  |%varavg| %total
---------------------------------------------------------------
Pair    | 0.75567    | 2.0906     | 2.7109     |  39.0 | 71.09
Neigh   | 1.0137e-05 | 0.0029535  | 0.0042898  |   2.2 |  0.10
Comm    | 0.045902   | 0.46975    | 1.4223     |  57.6 | 15.97
Output  | 9.806e-05  | 0.00010057 | 0.00018016 |   0.0 |  0.00
Modify  | 3.3644e-05 | 0.0041409  | 0.012336   |   3.2 |  0.14
Other   |            | 0.3734     |            |       | 12.70

Nlocal:        2776.45 ave        3944 max           0 min
Histogram: 8 4 4 0 4 12 8 0 28 36
Nghost:        3879.03 ave        5427 max         232 min
Histogram: 8 0 8 0 16 0 8 8 16 40
Neighs:        79213.5 ave      114938 max           0 min
Histogram: 8 4 4 0 10 6 8 8 22 34

Total # of neighbors = 8238199
Ave neighs/atom = 28.530461
Neighbor list builds = 1
Dangerous builds = 0
The dot product: 1.46930264323561e-07
Setting atom values ...
  1 settings made for x
  1 settings made for y
  1 settings made for z
Setting up cg style minimization ...
  Unit style    : metal
  Current step  : 2235
Per MPI rank memory allocation (min/avg/max) = 5.441 | 5.816 | 6.074 Mbytes
Step PotEng KinEng TotEng v_fx v_fy v_fz 
    2235   -1152449.3            0   -1152449.3  -0.12815866 -0.006169317   0.05309716 
    2407   -1152449.3            0   -1152449.3 2.5684776e-06 1.5737072e-06 2.644082e-06 
Loop time of 1.98613 on 104 procs for 172 steps with 288751 atoms

99.9% CPU use with 104 MPI tasks x 1 OpenMP threads

Minimization stats:
  Stopping criterion = energy tolerance
  Energy initial, next-to-last, final = 
     -1152449.33941175  -1152449.34314099  -1152449.34314099
  Force two-norm initial, final = 0.19528776 3.1463391e-05
  Force max component initial, final = 0.12815866 4.0972268e-06
  Final line search alpha, max atom move = 1.0000000 4.0972268e-06
  Iterations, force evaluations = 172 344

MPI task timing breakdown:
Section |  min time  |  avg time  |  max time  |%varavg| %total
---------------------------------------------------------------
Pair    | 0.51786    | 1.439      | 1.882      |  32.5 | 72.45
Neigh   | 0          | 0          | 0          |   0.0 |  0.00
Comm    | 0.02984    | 0.32305    | 0.97348    |  48.2 | 16.27
Output  | 0          | 0          | 0          |   0.0 |  0.00
Modify  | 2.3291e-05 | 0.0028366  | 0.0060536  |   2.5 |  0.14
Other   |            | 0.2212     |            |       | 11.14

Nlocal:        2776.45 ave        3944 max           0 min
Histogram: 8 4 4 0 4 12 8 1 27 36
Nghost:        3879.14 ave        5424 max         232 min
Histogram: 8 0 8 0 16 0 8 8 16 40
Neighs:        79213.5 ave      114947 max           0 min
Histogram: 8 4 4 0 10 6 8 8 22 34

Total # of neighbors = 8238202
Ave neighs/atom = 28.530471
Neighbor list builds = 0
Dangerous builds = 0
The dot product: -3.00638194635669e-08
Setting atom values ...
  1 settings made for x
  1 settings made for y
  1 settings made for z
Setting up cg style minimization ...
  Unit style    : metal
  Current step  : 2407
Per MPI rank memory allocation (min/avg/max) = 5.441 | 5.816 | 6.074 Mbytes
Step PotEng KinEng TotEng v_fx v_fy v_fz 
    2407   -1152449.3            0   -1152449.3 -0.057021746  0.010476855  0.034874245 
    2680   -1152449.3            0   -1152449.3 -3.5205452e-06 -3.5455734e-07 -3.1562602e-08 
Loop time of 3.17077 on 104 procs for 273 steps with 288751 atoms

99.9% CPU use with 104 MPI tasks x 1 OpenMP threads

Minimization stats:
  Stopping criterion = energy tolerance
  Energy initial, next-to-last, final = 
      -1152449.3341714  -1152449.34575765  -1152449.34575765
  Force two-norm initial, final = 0.16096103 2.5758000e-05
  Force max component initial, final = 0.072693445 4.1276831e-06
  Final line search alpha, max atom move = 1.0000000 4.1276831e-06
  Iterations, force evaluations = 273 546

MPI task timing breakdown:
Section |  min time  |  avg time  |  max time  |%varavg| %total
---------------------------------------------------------------
Pair    | 0.82892    | 2.2932     | 2.9669     |  40.7 | 72.32
Neigh   | 1.0247e-05 | 0.0029447  | 0.0042901  |   2.2 |  0.09
Comm    | 0.052181   | 0.51295    | 1.5754     |  61.1 | 16.18
Output  | 0          | 0          | 0          |   0.0 |  0.00
Modify  | 3.5057e-05 | 0.0044931  | 0.0096142  |   3.2 |  0.14
Other   |            | 0.3572     |            |       | 11.26

Nlocal:        2776.45 ave        3951 max           0 min
Histogram: 8 4 4 0 4 12 8 1 29 34
Nghost:        3879.12 ave        5424 max         232 min
Histogram: 8 0 8 0 16 0 8 8 16 40
Neighs:        79213.5 ave      115144 max           0 min
Histogram: 8 4 4 0 10 6 8 8 24 32

Total # of neighbors = 8238202
Ave neighs/atom = 28.530471
Neighbor list builds = 1
Dangerous builds = 0
The dot product: 4.52475811465164e-08
Setting atom values ...
  1 settings made for x
  1 settings made for y
  1 settings made for z
Setting up cg style minimization ...
  Unit style    : metal
  Current step  : 2680
Per MPI rank memory allocation (min/avg/max) = 5.441 | 5.816 | 6.074 Mbytes
Step PotEng KinEng TotEng v_fx v_fy v_fz 
    2680   -1152449.3            0   -1152449.3 0.0084086721 -0.021256859 -0.035885879 
    2773   -1152449.3            0   -1152449.3 2.5583706e-05 2.9715149e-05 4.7224202e-05 
Loop time of 1.08235 on 104 procs for 93 steps with 288751 atoms

99.9% CPU use with 104 MPI tasks x 1 OpenMP threads

Minimization stats:
  Stopping criterion = energy tolerance
  Energy initial, next-to-last, final = 
        -1152449.34784  -1152449.34882027  -1152449.34882027
  Force two-norm initial, final = 0.13118992 0.00024413566
  Force max component initial, final = 0.05241546 4.9186368e-05
  Final line search alpha, max atom move = 1.0000000 4.9186368e-05
  Iterations, force evaluations = 93 186

MPI task timing breakdown:
Section |  min time  |  avg time  |  max time  |%varavg| %total
---------------------------------------------------------------
Pair    | 0.28157    | 0.78035    | 1.0199     |  23.9 | 72.10
Neigh   | 0          | 0          | 0          |   0.0 |  0.00
Comm    | 0.016816   | 0.17507    | 0.52427    |  35.2 | 16.18
Output  | 0          | 0          | 0          |   0.0 |  0.00
Modify  | 1.207e-05  | 0.0015353  | 0.0032726  |   1.8 |  0.14
Other   |            | 0.1254     |            |       | 11.58

Nlocal:        2776.45 ave        3960 max           0 min
Histogram: 8 4 4 0 4 12 8 3 27 34
Nghost:        3879.03 ave        5424 max         232 min
Histogram: 8 0 8 0 16 0 8 8 16 40
Neighs:        79213.4 ave      115436 max           0 min
Histogram: 8 4 4 0 10 6 8 8 24 32

Total # of neighbors = 8238191
Ave neighs/atom = 28.530433
Neighbor list builds = 0
Dangerous builds = 0
The dot product: -1.61434154223474e-07
Setting atom values ...
  1 settings made for x
  1 settings made for y
  1 settings made for z
Setting up cg style minimization ...
  Unit style    : metal
  Current step  : 2773
Per MPI rank memory allocation (min/avg/max) = 5.441 | 5.816 | 6.074 Mbytes
Step PotEng KinEng TotEng v_fx v_fy v_fz 
    2773   -1152449.3            0   -1152449.3 -0.0010673072 -0.011148311 -0.018835799 
    2953   -1152449.4            0   -1152449.4 -2.2812416e-05 -6.8289728e-06 -9.5602098e-06 
Loop time of 2.12255 on 104 procs for 180 steps with 288751 atoms

99.9% CPU use with 104 MPI tasks x 1 OpenMP threads

Minimization stats:
  Stopping criterion = energy tolerance
  Energy initial, next-to-last, final = 
     -1152449.34991409  -1152449.35081826  -1152449.35081826
  Force two-norm initial, final = 0.12513747 0.00013193184
  Force max component initial, final = 0.052931129 3.0842809e-05
  Final line search alpha, max atom move = 1.0000000 3.0842809e-05
  Iterations, force evaluations = 180 360

MPI task timing breakdown:
Section |  min time  |  avg time  |  max time  |%varavg| %total
---------------------------------------------------------------
Pair    | 0.5474     | 1.5192     | 1.9727     |  33.2 | 71.58
Neigh   | 0          | 0          | 0          |   0.0 |  0.00
Comm    | 0.031837   | 0.34168    | 1.0266     |  49.2 | 16.10
Output  | 0          | 0          | 0          |   0.0 |  0.00
Modify  | 2.4353e-05 | 0.0029692  | 0.0063321  |   2.6 |  0.14
Other   |            | 0.2587     |            |       | 12.19

Nlocal:        2776.45 ave        3960 max           0 min
Histogram: 8 4 4 0 4 12 8 2 28 34
Nghost:        3879.03 ave        5424 max         232 min
Histogram: 8 0 8 0 16 0 8 8 16 40
Neighs:        79213.4 ave      115436 max           0 min
Histogram: 8 4 4 0 10 6 8 8 24 32

Total # of neighbors = 8238193
Ave neighs/atom = 28.530440
Neighbor list builds = 0
Dangerous builds = 0
The dot product: 6.99147965790023e-09
Setting atom values ...
  1 settings made for x
  1 settings made for y
  1 settings made for z
Setting up cg style minimization ...
  Unit style    : metal
  Current step  : 2953
Per MPI rank memory allocation (min/avg/max) = 5.441 | 5.816 | 6.074 Mbytes
Step PotEng KinEng TotEng v_fx v_fy v_fz 
    2953   -1152449.4            0   -1152449.4 -0.00064629673 -0.011944647 -0.020250567 
    3000   -1152449.4            0   -1152449.4 -6.5614698e-05 -4.8946482e-05 -7.7431428e-05 
    3137   -1152449.4            0   -1152449.4 1.1266042e-05 -1.311945e-05 -2.3298037e-05 
Loop time of 2.13691 on 104 procs for 184 steps with 288751 atoms

99.9% CPU use with 104 MPI tasks x 1 OpenMP threads

Minimization stats:
  Stopping criterion = energy tolerance
  Energy initial, next-to-last, final = 
     -1152449.35066887  -1152449.35157003  -1152449.35157003
  Force two-norm initial, final = 0.12555721 0.00011458706
  Force max component initial, final = 0.052543147 2.3298037e-05
  Final line search alpha, max atom move = 1.0000000 2.3298037e-05
  Iterations, force evaluations = 184 368

MPI task timing breakdown:
Section |  min time  |  avg time  |  max time  |%varavg| %total
---------------------------------------------------------------
Pair    | 0.55621    | 1.5431     | 2.0228     |  33.6 | 72.21
Neigh   | 0          | 0          | 0          |   0.0 |  0.00
Comm    | 0.03182    | 0.34704    | 1.0421     |  49.6 | 16.24
Output  | 0.00010941 | 0.00011176 | 0.00020822 |   0.0 |  0.01
Modify  | 2.4175e-05 | 0.003027   | 0.0064604  |   2.6 |  0.14
Other   |            | 0.2436     |            |       | 11.40

Nlocal:        2776.45 ave        3959 max           0 min
Histogram: 8 4 4 0 4 12 8 2 28 34
Nghost:        3879.03 ave        5424 max         232 min
Histogram: 8 0 8 0 16 0 8 8 16 40
Neighs:        79213.4 ave      115396 max           0 min
Histogram: 8 4 4 0 10 6 8 8 24 32

Total # of neighbors = 8238189
Ave neighs/atom = 28.530426
Neighbor list builds = 0
Dangerous builds = 0
The dot product: 1.20642515372657e-08
Setting atom values ...
  1 settings made for x
  1 settings made for y
  1 settings made for z
Setting up cg style minimization ...
  Unit style    : metal
  Current step  : 3137
Per MPI rank memory allocation (min/avg/max) = 5.441 | 5.816 | 6.074 Mbytes
Step PotEng KinEng TotEng v_fx v_fy v_fz 
    3137   -1152449.4            0   -1152449.4 -0.0010245286 -0.011331575 -0.019237944 
    3294   -1152449.4            0   -1152449.4 2.3286419e-05 -2.8035327e-05 -4.9853553e-05 
Loop time of 1.82187 on 104 procs for 157 steps with 288751 atoms

99.9% CPU use with 104 MPI tasks x 1 OpenMP threads

Minimization stats:
  Stopping criterion = energy tolerance
  Energy initial, next-to-last, final = 
     -1152449.35010203  -1152449.35099487  -1152449.35099487
  Force two-norm initial, final = 0.12499082 0.00026787789
  Force max component initial, final = 0.052397032 4.9853553e-05
  Final line search alpha, max atom move = 1.0000000 4.9853553e-05
  Iterations, force evaluations = 157 314

MPI task timing breakdown:
Section |  min time  |  avg time  |  max time  |%varavg| %total
---------------------------------------------------------------
Pair    | 0.47409    | 1.324      | 1.7269     |  31.1 | 72.67
Neigh   | 0          | 0          | 0          |   0.0 |  0.00
Comm    | 0.028031   | 0.2952     | 0.89953    |  46.2 | 16.20
Output  | 0          | 0          | 0          |   0.0 |  0.00
Modify  | 2.1073e-05 | 0.0025869  | 0.0055189  |   2.4 |  0.14
Other   |            | 0.2001     |            |       | 10.98

Nlocal:        2776.45 ave        3959 max           0 min
Histogram: 8 4 4 0 4 12 8 2 28 34
Nghost:        3879.03 ave        5424 max         232 min
Histogram: 8 0 8 0 16 0 8 8 16 40
Neighs:        79213.4 ave      115397 max           0 min
Histogram: 8 4 4 0 10 6 8 8 24 32

Total # of neighbors = 8238191
Ave neighs/atom = 28.530433
Neighbor list builds = 0
Dangerous builds = 0
The dot product: 2.49502404649937e-08
Setting atom values ...
  1 settings made for x
  1 settings made for y
  1 settings made for z
Setting up cg style minimization ...
  Unit style    : metal
  Current step  : 3294
Per MPI rank memory allocation (min/avg/max) = 5.441 | 5.816 | 6.074 Mbytes
Step PotEng KinEng TotEng v_fx v_fy v_fz 
    3294   -1152449.3            0   -1152449.3 -0.0013475204 -0.010444696 -0.017753782 
    3448   -1152449.3            0   -1152449.3 -4.9594104e-06 -1.066108e-05 -1.7811881e-05 
Loop time of 1.78813 on 104 procs for 154 steps with 288751 atoms

99.9% CPU use with 104 MPI tasks x 1 OpenMP threads

Minimization stats:
  Stopping criterion = energy tolerance
  Energy initial, next-to-last, final = 
     -1152449.34818767   -1152449.3490681   -1152449.3490681
  Force two-norm initial, final = 0.12404443 0.00028406787
  Force max component initial, final = 0.052260331 2.0108449e-05
  Final line search alpha, max atom move = 1.0000000 2.0108449e-05
  Iterations, force evaluations = 154 308

MPI task timing breakdown:
Section |  min time  |  avg time  |  max time  |%varavg| %total
---------------------------------------------------------------
Pair    | 0.46406    | 1.2946     | 1.6952     |  30.9 | 72.40
Neigh   | 0          | 0          | 0          |   0.0 |  0.00
Comm    | 0.026318   | 0.29137    | 0.88317    |  45.9 | 16.29
Output  | 0          | 0          | 0          |   0.0 |  0.00
Modify  | 2.0473e-05 | 0.002541   | 0.0054301  |   2.4 |  0.14
Other   |            | 0.1996     |            |       | 11.16

Nlocal:        2776.45 ave        3958 max           0 min
Histogram: 8 4 4 0 4 12 8 2 28 34
Nghost:        3879.05 ave        5424 max         232 min
Histogram: 8 0 8 0 16 0 8 8 16 40
Neighs:        79213.4 ave      115397 max           0 min
Histogram: 8 4 4 0 10 6 8 8 24 32

Total # of neighbors = 8238191
Ave neighs/atom = 28.530433
Neighbor list builds = 0
Dangerous builds = 0
The dot product: 1.12075913052153e-08
Setting atom values ...
  1 settings made for x
  1 settings made for y
  1 settings made for z
Setting up cg style minimization ...
  Unit style    : metal
  Current step  : 3448
Per MPI rank memory allocation (min/avg/max) = 5.441 | 5.816 | 6.074 Mbytes
Step PotEng KinEng TotEng v_fx v_fy v_fz 
    3448   -1152449.3            0   -1152449.3 -0.0014760635 -0.0093987472 -0.015997225 
    3658   -1152449.3            0   -1152449.3 -1.3450569e-05 -4.0384998e-06 -5.7806995e-06 
Loop time of 2.41184 on 104 procs for 210 steps with 288751 atoms

99.9% CPU use with 104 MPI tasks x 1 OpenMP threads

Minimization stats:
  Stopping criterion = energy tolerance
  Energy initial, next-to-last, final = 
     -1152449.34491761  -1152449.34578382  -1152449.34578382
  Force two-norm initial, final = 0.12305009 5.5258906e-05
  Force max component initial, final = 0.052157963 1.3450569e-05
  Final line search alpha, max atom move = 1.0000000 1.3450569e-05
  Iterations, force evaluations = 210 420

MPI task timing breakdown:
Section |  min time  |  avg time  |  max time  |%varavg| %total
---------------------------------------------------------------
Pair    | 0.63251    | 1.7596     | 2.2855     |  35.8 | 72.96
Neigh   | 0          | 0          | 0          |   0.0 |  0.00
Comm    | 0.036645   | 0.38972    | 1.1782     |  53.5 | 16.16
Output  | 0          | 0          | 0          |   0.0 |  0.00
Modify  | 2.6948e-05 | 0.0034494  | 0.0073715  |   2.8 |  0.14
Other   |            | 0.2591     |            |       | 10.74

Nlocal:        2776.45 ave        3957 max           0 min
Histogram: 8 4 4 0 4 12 8 2 28 34
Nghost:        3879.08 ave        5424 max         232 min
Histogram: 8 0 8 0 16 0 8 8 16 40
Neighs:        79213.4 ave      115328 max           0 min
Histogram: 8 4 4 0 10 6 8 8 24 32

Total # of neighbors = 8238190
Ave neighs/atom = 28.530429
Neighbor list builds = 0
Dangerous builds = 0
The dot product: 6.31623665897964e-09
Setting atom values ...
  1 settings made for x
  1 settings made for y
  1 settings made for z
Setting up cg style minimization ...
  Unit style    : metal
  Current step  : 3658
Per MPI rank memory allocation (min/avg/max) = 5.441 | 5.816 | 6.074 Mbytes
Step PotEng KinEng TotEng v_fx v_fy v_fz 
    3658   -1152449.3            0   -1152449.3 -0.0012556719 -0.008360341 -0.014265884 
    3851   -1152449.3            0   -1152449.3 2.3194616e-05 -1.5871432e-05 -2.923653e-05 
Loop time of 2.23289 on 104 procs for 193 steps with 288751 atoms

99.9% CPU use with 104 MPI tasks x 1 OpenMP threads

Minimization stats:
  Stopping criterion = energy tolerance
  Energy initial, next-to-last, final = 
      -1152449.3402813  -1152449.34113547  -1152449.34113547
  Force two-norm initial, final = 0.12229449 9.6078900e-05
  Force max component initial, final = 0.052036367 3.0905942e-05
  Final line search alpha, max atom move = 1.0000000 3.0905942e-05
  Iterations, force evaluations = 193 386

MPI task timing breakdown:
Section |  min time  |  avg time  |  max time  |%varavg| %total
---------------------------------------------------------------
Pair    | 0.58123    | 1.6152     | 2.1062     |  34.4 | 72.34
Neigh   | 0          | 0          | 0          |   0.0 |  0.00
Comm    | 0.033673   | 0.36312    | 1.0918     |  50.8 | 16.26
Output  | 0          | 0          | 0          |   0.0 |  0.00
Modify  | 2.5079e-05 | 0.0031779  | 0.0067883  |   2.7 |  0.14
Other   |            | 0.2514     |            |       | 11.26

Nlocal:        2776.45 ave        3956 max           0 min
Histogram: 8 4 4 0 4 12 8 0 30 34
Nghost:        3879.08 ave        5426 max         232 min
Histogram: 8 0 8 0 16 0 8 8 16 40
Neighs:        79213.4 ave      115300 max           0 min
Histogram: 8 4 4 0 10 6 8 8 24 32

Total # of neighbors = 8238190
Ave neighs/atom = 28.530429
Neighbor list builds = 0
Dangerous builds = 0
The dot product: 7.09741206126657e-09
Setting atom values ...
  1 settings made for x
  1 settings made for y
  1 settings made for z
Setting up cg style minimization ...
  Unit style    : metal
  Current step  : 3851
Per MPI rank memory allocation (min/avg/max) = 5.441 | 5.816 | 6.074 Mbytes
Step PotEng KinEng TotEng v_fx v_fy v_fz 
    3851   -1152449.3            0   -1152449.3 -0.00061490307 -0.007389947 -0.012676225 
    4000   -1152449.3            0   -1152449.3 2.9852347e-05 -3.6901543e-06 -8.8430247e-06 
    4017   -1152449.3            0   -1152449.3 3.7916499e-05 -7.5024015e-06 -1.6080718e-05 
Loop time of 1.92881 on 104 procs for 166 steps with 288751 atoms

99.9% CPU use with 104 MPI tasks x 1 OpenMP threads

Minimization stats:
  Stopping criterion = energy tolerance
  Energy initial, next-to-last, final = 
     -1152449.33426322    -1152449.335111    -1152449.335111
  Force two-norm initial, final = 0.12191322 0.00022824727
  Force max component initial, final = 0.051883928 3.7916499e-05
  Final line search alpha, max atom move = 1.0000000 3.7916499e-05
  Iterations, force evaluations = 166 332

MPI task timing breakdown:
Section |  min time  |  avg time  |  max time  |%varavg| %total
---------------------------------------------------------------
Pair    | 0.50003    | 1.3971     | 1.8265     |  32.0 | 72.43
Neigh   | 0          | 0          | 0          |   0.0 |  0.00
Comm    | 0.028538   | 0.31351    | 0.94738    |  47.7 | 16.25
Output  | 0.00018784 | 0.00019792 | 0.00033485 |   0.0 |  0.01
Modify  | 2.1502e-05 | 0.0027352  | 0.0058816  |   2.5 |  0.14
Other   |            | 0.2153     |            |       | 11.16

Nlocal:        2776.45 ave        3956 max           0 min
Histogram: 8 4 4 0 4 12 8 0 30 34
Nghost:        3879.06 ave        5424 max         232 min
Histogram: 8 0 8 0 16 0 8 8 16 40
Neighs:        79213.4 ave      115302 max           0 min
Histogram: 8 4 4 0 10 6 8 8 24 32

Total # of neighbors = 8238192
Ave neighs/atom = 28.530436
Neighbor list builds = 0
Dangerous builds = 0
The dot product: -4.3728531273692e-11
Setting up cg style minimization ...
  Unit style    : metal
  Current step  : 4017
Per MPI rank memory allocation (min/avg/max) = 5.441 | 5.816 | 6.074 Mbytes
Step PotEng KinEng TotEng v_fx v_fy v_fz 
    4017   -1152449.3            0   -1152449.3 -0.014006635   0.29026623   -0.1685577 
    4238   -1152449.4            0   -1152449.4 1.0534061e-05 2.7097046e-06 1.3896554e-05 
Loop time of 2.53953 on 104 procs for 221 steps with 288751 atoms

99.9% CPU use with 104 MPI tasks x 1 OpenMP threads

Minimization stats:
  Stopping criterion = energy tolerance
  Energy initial, next-to-last, final = 
       -1152449.335111  -1152449.35157346  -1152449.35157346
  Force two-norm initial, final = 0.33595002 0.00013595198
  Force max component initial, final = 0.29026623 2.4688480e-05
  Final line search alpha, max atom move = 1.0000000 2.4688480e-05
  Iterations, force evaluations = 221 442

MPI task timing breakdown:
Section |  min time  |  avg time  |  max time  |%varavg| %total
---------------------------------------------------------------
Pair    | 0.66877    | 1.8479     | 2.403      |  36.7 | 72.77
Neigh   | 1.0228e-05 | 0.0029552  | 0.0042997  |   2.2 |  0.12
Comm    | 0.038118   | 0.4129     | 1.2445     |  54.7 | 16.26
Output  | 0          | 0          | 0          |   0.0 |  0.00
Modify  | 2.455e-05  | 0.0023668  | 0.0060762  |   3.0 |  0.09
Other   |            | 0.2734     |            |       | 10.76

Nlocal:        2776.45 ave        3955 max           0 min
Histogram: 8 4 4 0 4 12 8 1 29 34
Nghost:        3879.06 ave        5424 max         232 min
Histogram: 8 0 8 0 16 0 8 8 16 40
Neighs:        79213.4 ave      115269 max           0 min
Histogram: 8 4 4 0 10 6 8 8 24 32

Total # of neighbors = 8238194
Ave neighs/atom = 28.530443
Neighbor list builds = 1
Dangerous builds = 0
OMP_NUM_THREADS environment is not set. Defaulting to 1 thread. (../comm.cpp:94)
  using 1 OpenMP thread(s) per MPI task
Reading data file ...
  orthogonal box = (-122.39241 -121.13707 -37.090501) to (122.39241 121.13707 37.090501)
  13 by 4 by 2 MPI processor grid
  reading atoms ...
  288751 atoms
  read_data CPU = 0.349 seconds
199981 atoms in group inner
88770 atoms in group outer
1 atoms in group carbon
Neighbor list info ...
  update every 1 steps, delay 0 steps, check yes
  max neighbors/atom: 2000, page size: 100000
  master list distance cutoff = 5.6
  ghost atom cutoff = 5.6
  binsize = 2.8, bins = 88 87 27
  1 neighbor lists, perpetual/occasional/extra = 1 0 0
  (1) pair eam/alloy, perpetual
      attributes: half, newton on
      pair build: half/bin/atomonly/newton
      stencil: half/bin/3d/newton
      bin: standard
Setting up cg style minimization ...
  Unit style    : metal
  Current step  : 0
Per MPI rank memory allocation (min/avg/max) = 5.441 | 5.816 | 6.074 Mbytes
Step v_fx v_fy v_fz PotEng KinEng TotEng 
       0    25.874427    15.018447    50.604212   -1152433.3            0   -1152433.3 
     171 1.0584822e-05 1.9430147e-06 -1.2515512e-05   -1152449.5            0   -1152449.5 
Loop time of 1.95602 on 104 procs for 171 steps with 288751 atoms

99.9% CPU use with 104 MPI tasks x 1 OpenMP threads

Minimization stats:
  Stopping criterion = energy tolerance
  Energy initial, next-to-last, final = 
     -1152433.25154955  -1152449.45035285  -1152449.45035285
  Force two-norm initial, final = 88.106288 0.00012017159
  Force max component initial, final = 57.793349 2.8738788e-05
  Final line search alpha, max atom move = 1.0000000 2.8738788e-05
  Iterations, force evaluations = 171 334

MPI task timing breakdown:
Section |  min time  |  avg time  |  max time  |%varavg| %total
---------------------------------------------------------------
Pair    | 0.52444    | 1.4088     | 1.8289     |  31.6 | 72.03
Neigh   | 5.0127e-05 | 0.0148     | 0.021298   |   5.0 |  0.76
Comm    | 0.029855   | 0.31657    | 0.96084    |  47.3 | 16.18
Output  | 0          | 0          | 0          |   0.0 |  0.00
Modify  | 1.9341e-05 | 0.0017901  | 0.0045777  |   2.6 |  0.09
Other   |            | 0.214      |            |       | 10.94

Nlocal:        2776.45 ave        3958 max           0 min
Histogram: 8 4 4 0 4 12 8 2 28 34
Nghost:        3879.03 ave        5424 max         232 min
Histogram: 8 0 8 0 16 0 8 8 16 40
Neighs:        79213.6 ave      115382 max           0 min
Histogram: 8 4 4 0 10 6 8 8 24 32

Total # of neighbors = 8238211
Ave neighs/atom = 28.530502
Neighbor list builds = 5
Dangerous builds = 0
Setting atom values ...
  1 settings made for x
  1 settings made for y
  1 settings made for z
Setting up cg style minimization ...
  Unit style    : metal
  Current step  : 171
Per MPI rank memory allocation (min/avg/max) = 5.441 | 5.816 | 6.074 Mbytes
Step PotEng KinEng TotEng v_fx v_fy v_fz 
     171   -1152449.4            0   -1152449.4  0.004197869   0.06294663 -0.051464217 
     361   -1152449.4            0   -1152449.4 1.6696721e-06 6.0147864e-06 -3.586046e-06 
Loop time of 2.21056 on 104 procs for 190 steps with 288751 atoms

99.9% CPU use with 104 MPI tasks x 1 OpenMP threads

Minimization stats:
  Stopping criterion = energy tolerance
  Energy initial, next-to-last, final = 
     -1152449.44451967  -1152449.44848187  -1152449.44848187
  Force two-norm initial, final = 0.30156822 0.00017285835
  Force max component initial, final = 0.13870028 2.6144854e-05
  Final line search alpha, max atom move = 1.0000000 2.6144854e-05
  Iterations, force evaluations = 190 380

MPI task timing breakdown:
Section |  min time  |  avg time  |  max time  |%varavg| %total
---------------------------------------------------------------
Pair    | 0.57133    | 1.5955     | 2.0847     |  34.3 | 72.18
Neigh   | 0          | 0          | 0          |   0.0 |  0.00
Comm    | 0.032578   | 0.36205    | 1.0854     |  50.0 | 16.38
Output  | 0          | 0          | 0          |   0.0 |  0.00
Modify  | 2.3754e-05 | 0.0031242  | 0.0066512  |   2.6 |  0.14
Other   |            | 0.2499     |            |       | 11.30

Nlocal:        2776.45 ave        3957 max           0 min
Histogram: 8 4 4 0 4 12 8 2 28 34
Nghost:        3879.03 ave        5424 max         232 min
Histogram: 8 0 8 0 16 0 8 8 16 40
Neighs:        79213.4 ave      115364 max           0 min
Histogram: 8 4 4 0 10 6 8 8 24 32

Total # of neighbors = 8238197
Ave neighs/atom = 28.530454
Neighbor list builds = 0
Dangerous builds = 0
Setting atom values ...
  1 settings made for x
  1 settings made for y
  1 settings made for z
Setting up cg style minimization ...
  Unit style    : metal
  Current step  : 361
Per MPI rank memory allocation (min/avg/max) = 5.441 | 5.816 | 6.074 Mbytes
Step PotEng KinEng TotEng v_fx v_fy v_fz 
     361   -1152449.4            0   -1152449.4 0.0067557054  0.047144509 -0.045245223 
     549   -1152449.4            0   -1152449.4 -2.0817526e-06 1.6127629e-05 -2.093444e-05 
Loop time of 2.16896 on 104 procs for 188 steps with 288751 atoms

99.9% CPU use with 104 MPI tasks x 1 OpenMP threads

Minimization stats:
  Stopping criterion = energy tolerance
  Energy initial, next-to-last, final = 
     -1152449.44322401  -1152449.44502019  -1152449.44502019
  Force two-norm initial, final = 0.20376342 0.00010290676
  Force max component initial, final = 0.089352114 2.0934440e-05
  Final line search alpha, max atom move = 1.0000000 2.0934440e-05
  Iterations, force evaluations = 188 376

MPI task timing breakdown:
Section |  min time  |  avg time  |  max time  |%varavg| %total
---------------------------------------------------------------
Pair    | 0.56455    | 1.5814     | 2.0564     |  34.2 | 72.91
Neigh   | 0          | 0          | 0          |   0.0 |  0.00
Comm    | 0.032942   | 0.35649    | 1.0672     |  50.1 | 16.44
Output  | 0          | 0          | 0          |   0.0 |  0.00
Modify  | 2.3133e-05 | 0.0030972  | 0.0065833  |   2.6 |  0.14
Other   |            | 0.228      |            |       | 10.51

Nlocal:        2776.45 ave        3957 max           0 min
Histogram: 8 4 4 0 4 12 8 2 28 34
Nghost:        3879.05 ave        5425 max         232 min
Histogram: 8 0 8 0 16 0 8 8 16 40
Neighs:        79213.4 ave      115366 max           0 min
Histogram: 8 4 4 0 10 6 8 8 24 32

Total # of neighbors = 8238194
Ave neighs/atom = 28.530443
Neighbor list builds = 0
Dangerous builds = 0
The dot product: 1.01942491570832e-07
Setting atom values ...
  1 settings made for x
  1 settings made for y
  1 settings made for z
Setting up cg style minimization ...
  Unit style    : metal
  Current step  : 549
Per MPI rank memory allocation (min/avg/max) = 5.441 | 5.816 | 6.074 Mbytes
Step PotEng KinEng TotEng v_fx v_fy v_fz 
     549   -1152449.4            0   -1152449.4 0.0084302746  0.047820442 -0.054797564 
     681   -1152449.4            0   -1152449.4 -2.516302e-05 -4.4962709e-05 2.6820238e-05 
Loop time of 1.52684 on 104 procs for 132 steps with 288751 atoms

99.9% CPU use with 104 MPI tasks x 1 OpenMP threads

Minimization stats:
  Stopping criterion = energy tolerance
  Energy initial, next-to-last, final = 
     -1152449.43818433  -1152449.43993321  -1152449.43993321
  Force two-norm initial, final = 0.20184149 0.00023478931
  Force max component initial, final = 0.084023084 4.8724593e-05
  Final line search alpha, max atom move = 1.0000000 4.8724593e-05
  Iterations, force evaluations = 132 264

MPI task timing breakdown:
Section |  min time  |  avg time  |  max time  |%varavg| %total
---------------------------------------------------------------
Pair    | 0.3995     | 1.106      | 1.4457     |  28.4 | 72.43
Neigh   | 0          | 0          | 0          |   0.0 |  0.00
Comm    | 0.023118   | 0.24852    | 0.75312    |  41.8 | 16.28
Output  | 0          | 0          | 0          |   0.0 |  0.00
Modify  | 1.7306e-05 | 0.0021702  | 0.0046121  |   2.2 |  0.14
Other   |            | 0.1702     |            |       | 11.15

Nlocal:        2776.45 ave        3958 max           0 min
Histogram: 8 4 4 0 4 12 8 2 28 34
Nghost:        3879.07 ave        5424 max         232 min
Histogram: 8 0 8 0 16 0 8 8 16 40
Neighs:        79213.5 ave      115393 max           0 min
Histogram: 8 4 4 0 10 6 8 8 24 32

Total # of neighbors = 8238201
Ave neighs/atom = 28.530467
Neighbor list builds = 0
Dangerous builds = 0
The dot product: -2.38283798783572e-07
Setting atom values ...
  1 settings made for x
  1 settings made for y
  1 settings made for z
Setting up cg style minimization ...
  Unit style    : metal
  Current step  : 681
Per MPI rank memory allocation (min/avg/max) = 5.441 | 5.816 | 6.074 Mbytes
Step PotEng KinEng TotEng v_fx v_fy v_fz 
     681   -1152449.4            0   -1152449.4 0.0093666659  0.045361146 -0.064273281 
     806   -1152449.4            0   -1152449.4 -5.6642814e-06 -5.3781203e-06 -3.3027922e-07 
Loop time of 1.44628 on 104 procs for 125 steps with 288751 atoms

99.9% CPU use with 104 MPI tasks x 1 OpenMP threads

Minimization stats:
  Stopping criterion = energy tolerance
  Energy initial, next-to-last, final = 
     -1152449.43176834  -1152449.43351296  -1152449.43351296
  Force two-norm initial, final = 0.19982931 0.00012822797
  Force max component initial, final = 0.078651041 1.1953190e-05
  Final line search alpha, max atom move = 1.0000000 1.1953190e-05
  Iterations, force evaluations = 125 250

MPI task timing breakdown:
Section |  min time  |  avg time  |  max time  |%varavg| %total
---------------------------------------------------------------
Pair    | 0.37839    | 1.0533     | 1.37       |  27.8 | 72.83
Neigh   | 0          | 0          | 0          |   0.0 |  0.00
Comm    | 0.022118   | 0.23896    | 0.71154    |  40.7 | 16.52
Output  | 0          | 0          | 0          |   0.0 |  0.00
Modify  | 1.5572e-05 | 0.0020594  | 0.0044255  |   2.1 |  0.14
Other   |            | 0.152      |            |       | 10.51

Nlocal:        2776.45 ave        3959 max           0 min
Histogram: 8 4 4 0 4 12 8 2 28 34
Nghost:        3879.07 ave        5424 max         232 min
Histogram: 8 0 8 0 16 0 8 8 16 40
Neighs:        79213.5 ave      115420 max           0 min
Histogram: 8 4 4 0 10 6 8 8 24 32

Total # of neighbors = 8238202
Ave neighs/atom = 28.530471
Neighbor list builds = 0
Dangerous builds = 0
The dot product: -5.57191299410793e-09
Setting atom values ...
  1 settings made for x
  1 settings made for y
  1 settings made for z
Setting up cg style minimization ...
  Unit style    : metal
  Current step  : 806
Per MPI rank memory allocation (min/avg/max) = 5.441 | 5.816 | 6.074 Mbytes
Step PotEng KinEng TotEng v_fx v_fy v_fz 
     806   -1152449.4            0   -1152449.4  0.012447161  0.040765891  -0.06866647 
     926   -1152449.4            0   -1152449.4 2.259383e-05 2.1184889e-05 1.1047886e-06 
Loop time of 1.39091 on 104 procs for 120 steps with 288751 atoms

99.9% CPU use with 104 MPI tasks x 1 OpenMP threads

Minimization stats:
  Stopping criterion = energy tolerance
  Energy initial, next-to-last, final = 
     -1152449.42410039  -1152449.42582321  -1152449.42582321
  Force two-norm initial, final = 0.19604036 0.00014797413
  Force max component initial, final = 0.081287491 2.5210218e-05
  Final line search alpha, max atom move = 1.0000000 2.5210218e-05
  Iterations, force evaluations = 120 240

MPI task timing breakdown:
Section |  min time  |  avg time  |  max time  |%varavg| %total
---------------------------------------------------------------
Pair    | 0.36205    | 1.008      | 1.3149     |  27.2 | 72.47
Neigh   | 0          | 0          | 0          |   0.0 |  0.00
Comm    | 0.021309   | 0.22637    | 0.68197    |  39.9 | 16.28
Output  | 0          | 0          | 0          |   0.0 |  0.00
Modify  | 1.4521e-05 | 0.0019782  | 0.0042155  |   2.1 |  0.14
Other   |            | 0.1545     |            |       | 11.11

Nlocal:        2776.45 ave        3960 max           0 min
Histogram: 8 4 4 0 4 12 8 2 28 34
Nghost:        3879.07 ave        5424 max         232 min
Histogram: 8 0 8 0 16 0 8 8 16 40
Neighs:        79213.5 ave      115450 max           0 min
Histogram: 8 4 4 0 10 6 8 8 24 32

Total # of neighbors = 8238201
Ave neighs/atom = 28.530467
Neighbor list builds = 0
Dangerous builds = 0
The dot product: 3.00716860004673e-08
Setting atom values ...
  1 settings made for x
  1 settings made for y
  1 settings made for z
Setting up cg style minimization ...
  Unit style    : metal
  Current step  : 926
Per MPI rank memory allocation (min/avg/max) = 5.441 | 5.816 | 6.074 Mbytes
Step PotEng KinEng TotEng v_fx v_fy v_fz 
     926   -1152449.4            0   -1152449.4   0.01809814  0.037582819   -0.0707823 
    1000   -1152449.4            0   -1152449.4 -0.00012695138 -2.7313913e-05 -0.0003131184 
    1093   -1152449.4            0   -1152449.4 7.8854406e-06 4.6486746e-06 9.3349194e-06 
Loop time of 1.93142 on 104 procs for 167 steps with 288751 atoms

99.9% CPU use with 104 MPI tasks x 1 OpenMP threads

Minimization stats:
  Stopping criterion = energy tolerance
  Energy initial, next-to-last, final = 
     -1152449.41516621  -1152449.41686792  -1152449.41686792
  Force two-norm initial, final = 0.19248712 0.00020596943
  Force max component initial, final = 0.084882424 3.4839842e-05
  Final line search alpha, max atom move = 1.0000000 3.4839842e-05
  Iterations, force evaluations = 167 334

MPI task timing breakdown:
Section |  min time  |  avg time  |  max time  |%varavg| %total
---------------------------------------------------------------
Pair    | 0.50314    | 1.4034     | 1.8313     |  32.1 | 72.66
Neigh   | 0          | 0          | 0          |   0.0 |  0.00
Comm    | 0.027788   | 0.31847    | 0.97346    |  47.2 | 16.49
Output  | 0.00010325 | 0.00011145 | 0.00021473 |   0.0 |  0.01
Modify  | 2.1253e-05 | 0.0027486  | 0.0058572  |   2.5 |  0.14
Other   |            | 0.2067     |            |       | 10.70

Nlocal:        2776.45 ave        3960 max           0 min
Histogram: 8 4 4 0 4 12 8 2 28 34
Nghost:        3879.07 ave        5424 max         232 min
Histogram: 8 0 8 0 16 0 8 8 16 40
Neighs:        79213.5 ave      115450 max           0 min
Histogram: 8 4 4 0 10 6 8 8 24 32

Total # of neighbors = 8238201
Ave neighs/atom = 28.530467
Neighbor list builds = 0
Dangerous builds = 0
The dot product: -7.90076262924917e-08
Setting atom values ...
  1 settings made for x
  1 settings made for y
  1 settings made for z
Setting up cg style minimization ...
  Unit style    : metal
  Current step  : 1093
Per MPI rank memory allocation (min/avg/max) = 5.441 | 5.816 | 6.074 Mbytes
Step PotEng KinEng TotEng v_fx v_fy v_fz 
    1093   -1152449.4            0   -1152449.4  0.024623923  0.034554906 -0.068656302 
    1282   -1152449.4            0   -1152449.4 2.7243426e-06 -3.6484069e-06 3.422052e-05 
Loop time of 2.20247 on 104 procs for 189 steps with 288751 atoms

99.9% CPU use with 104 MPI tasks x 1 OpenMP threads

Minimization stats:
  Stopping criterion = energy tolerance
  Energy initial, next-to-last, final = 
       -1152449.404949  -1152449.40659391  -1152449.40659391
  Force two-norm initial, final = 0.18799833 9.5235964e-05
  Force max component initial, final = 0.088275076 3.4220520e-05
  Final line search alpha, max atom move = 1.0000000 3.4220520e-05
  Iterations, force evaluations = 189 378

MPI task timing breakdown:
Section |  min time  |  avg time  |  max time  |%varavg| %total
---------------------------------------------------------------
Pair    | 0.56988    | 1.5848     | 2.066      |  34.1 | 71.96
Neigh   | 0          | 0          | 0          |   0.0 |  0.00
Comm    | 0.032889   | 0.35776    | 1.0651     |  49.6 | 16.24
Output  | 0          | 0          | 0          |   0.0 |  0.00
Modify  | 2.3358e-05 | 0.0031082  | 0.0066202  |   2.6 |  0.14
Other   |            | 0.2568     |            |       | 11.66

Nlocal:        2776.45 ave        3960 max           0 min
Histogram: 8 4 4 0 4 12 8 2 28 34
Nghost:        3879.07 ave        5424 max         232 min
Histogram: 8 0 8 0 16 0 8 8 16 40
Neighs:        79213.5 ave      115466 max           0 min
Histogram: 8 4 4 0 10 6 8 8 24 32

Total # of neighbors = 8238199
Ave neighs/atom = 28.530461
Neighbor list builds = 0
Dangerous builds = 0
The dot product: -3.50063899289208e-07
Setting atom values ...
  1 settings made for x
  1 settings made for y
  1 settings made for z
Setting up cg style minimization ...
  Unit style    : metal
  Current step  : 1282
Per MPI rank memory allocation (min/avg/max) = 5.441 | 5.816 | 6.074 Mbytes
Step PotEng KinEng TotEng v_fx v_fy v_fz 
    1282   -1152449.4            0   -1152449.4  0.030272382  0.031809369 -0.062974397 
    1452   -1152449.4            0   -1152449.4 -1.3380974e-05 -1.3629393e-05 2.2833166e-05 
Loop time of 2.00811 on 104 procs for 170 steps with 288751 atoms

99.9% CPU use with 104 MPI tasks x 1 OpenMP threads

Minimization stats:
  Stopping criterion = energy tolerance
  Energy initial, next-to-last, final = 
     -1152449.39336381   -1152449.3949345   -1152449.3949345
  Force two-norm initial, final = 0.1830087 0.00019951467
  Force max component initial, final = 0.091321476 4.1011643e-05
  Final line search alpha, max atom move = 1.0000000 4.1011643e-05
  Iterations, force evaluations = 170 340

MPI task timing breakdown:
Section |  min time  |  avg time  |  max time  |%varavg| %total
---------------------------------------------------------------
Pair    | 0.51363    | 1.4364     | 1.8898     |  32.8 | 71.53
Neigh   | 0          | 0          | 0          |   0.0 |  0.00
Comm    | 0.028108   | 0.33123    | 1.0014     |  46.6 | 16.49
Output  | 0          | 0          | 0          |   0.0 |  0.00
Modify  | 2.1025e-05 | 0.0027954  | 0.005955   |   2.5 |  0.14
Other   |            | 0.2377     |            |       | 11.84

Nlocal:        2776.45 ave        3960 max           0 min
Histogram: 8 4 4 0 4 12 8 2 28 34
Nghost:        3879.07 ave        5426 max         232 min
Histogram: 8 0 8 0 16 0 8 8 16 40
Neighs:        79213.5 ave      115460 max           0 min
Histogram: 8 4 4 0 10 6 8 8 24 32

Total # of neighbors = 8238200
Ave neighs/atom = 28.530464
Neighbor list builds = 0
Dangerous builds = 0
The dot product: -2.81605749406404e-07
Setting atom values ...
  1 settings made for x
  1 settings made for y
  1 settings made for z
Setting up cg style minimization ...
  Unit style    : metal
  Current step  : 1452
Per MPI rank memory allocation (min/avg/max) = 5.441 | 5.816 | 6.074 Mbytes
Step PotEng KinEng TotEng v_fx v_fy v_fz 
    1452   -1152449.4            0   -1152449.4  0.034805904  0.029841263 -0.055815682 
    1638   -1152449.4            0   -1152449.4 8.8439555e-06 7.3122562e-06 5.8680979e-06 
Loop time of 2.15042 on 104 procs for 186 steps with 288751 atoms

99.9% CPU use with 104 MPI tasks x 1 OpenMP threads

Minimization stats:
  Stopping criterion = energy tolerance
  Energy initial, next-to-last, final = 
     -1152449.38034692  -1152449.38184678  -1152449.38184678
  Force two-norm initial, final = 0.17842339 0.00010013186
  Force max component initial, final = 0.094209024 1.2795611e-05
  Final line search alpha, max atom move = 1.0000000 1.2795611e-05
  Iterations, force evaluations = 186 372

MPI task timing breakdown:
Section |  min time  |  avg time  |  max time  |%varavg| %total
---------------------------------------------------------------
Pair    | 0.56198    | 1.5589     | 2.0389     |  33.8 | 72.49
Neigh   | 0          | 0          | 0          |   0.0 |  0.00
Comm    | 0.031221   | 0.35049    | 1.0619     |  49.8 | 16.30
Output  | 0          | 0          | 0          |   0.0 |  0.00
Modify  | 2.283e-05  | 0.0030564  | 0.0065074  |   2.6 |  0.14
Other   |            | 0.238      |            |       | 11.07

Nlocal:        2776.45 ave        3961 max           0 min
Histogram: 8 4 4 0 6 10 8 2 28 34
Nghost:        3879.07 ave        5424 max         232 min
Histogram: 8 0 8 0 16 0 8 8 16 40
Neighs:        79213.5 ave      115493 max           0 min
Histogram: 8 4 4 0 10 6 8 8 24 32

Total # of neighbors = 8238201
Ave neighs/atom = 28.530467
Neighbor list builds = 0
Dangerous builds = 0
The dot product: 4.62513013206537e-10
Setting atom values ...
  1 settings made for x
  1 settings made for y
  1 settings made for z
Setting up cg style minimization ...
  Unit style    : metal
  Current step  : 1638
Per MPI rank memory allocation (min/avg/max) = 5.441 | 5.816 | 6.074 Mbytes
Step PotEng KinEng TotEng v_fx v_fy v_fz 
    1638   -1152449.4            0   -1152449.4  0.038475361   0.02865069 -0.048507274 
    1813   -1152449.4            0   -1152449.4 2.5754264e-06 3.698991e-06 3.8649096e-05 
Loop time of 2.03901 on 104 procs for 175 steps with 288751 atoms

99.9% CPU use with 104 MPI tasks x 1 OpenMP threads

Minimization stats:
  Stopping criterion = energy tolerance
  Energy initial, next-to-last, final = 
     -1152449.36586501  -1152449.36731055  -1152449.36731055
  Force two-norm initial, final = 0.17473793 0.00015311327
  Force max component initial, final = 0.097127101 3.8649096e-05
  Final line search alpha, max atom move = 1.0000000 3.8649096e-05
  Iterations, force evaluations = 175 350

MPI task timing breakdown:
Section |  min time  |  avg time  |  max time  |%varavg| %total
---------------------------------------------------------------
Pair    | 0.52924    | 1.4736     | 1.9242     |  32.9 | 72.27
Neigh   | 0          | 0          | 0          |   0.0 |  0.00
Comm    | 0.030281   | 0.33144    | 1.0003     |  48.4 | 16.25
Output  | 0          | 0          | 0          |   0.0 |  0.00
Modify  | 2.2036e-05 | 0.0028763  | 0.0061291  |   2.5 |  0.14
Other   |            | 0.2311     |            |       | 11.33

Nlocal:        2776.45 ave        3961 max           0 min
Histogram: 8 4 4 0 6 10 8 4 26 34
Nghost:        3879.07 ave        5424 max         232 min
Histogram: 8 0 8 0 16 0 8 8 16 40
Neighs:        79213.5 ave      115472 max           0 min
Histogram: 8 4 4 0 10 6 8 8 24 32

Total # of neighbors = 8238201
Ave neighs/atom = 28.530467
Neighbor list builds = 0
Dangerous builds = 0
The dot product: -2.58896944971474e-07
Setting atom values ...
  1 settings made for x
  1 settings made for y
  1 settings made for z
Setting up cg style minimization ...
  Unit style    : metal
  Current step  : 1813
Per MPI rank memory allocation (min/avg/max) = 5.441 | 5.816 | 6.074 Mbytes
Step PotEng KinEng TotEng v_fx v_fy v_fz 
    1813   -1152449.3            0   -1152449.3  0.041574861  0.028046392 -0.041439039 
    2000   -1152449.4            0   -1152449.4 -9.4350291e-06 -6.1990103e-06 1.1358431e-05 
    2034   -1152449.4            0   -1152449.4 3.1447511e-06 2.0301399e-06 -4.2103201e-06 
Loop time of 2.5556 on 104 procs for 221 steps with 288751 atoms

99.9% CPU use with 104 MPI tasks x 1 OpenMP threads

Minimization stats:
  Stopping criterion = energy tolerance
  Energy initial, next-to-last, final = 
     -1152449.34991006  -1152449.35132019  -1152449.35132019
  Force two-norm initial, final = 0.17198569 2.9358048e-05
  Force max component initial, final = 0.10021615 7.0367022e-06
  Final line search alpha, max atom move = 1.0000000 7.0367022e-06
  Iterations, force evaluations = 221 442

MPI task timing breakdown:
Section |  min time  |  avg time  |  max time  |%varavg| %total
---------------------------------------------------------------
Pair    | 0.66668    | 1.8527     | 2.4231     |  37.0 | 72.49
Neigh   | 0          | 0          | 0          |   0.0 |  0.00
Comm    | 0.037555   | 0.41737    | 1.2616     |  54.1 | 16.33
Output  | 0.00010516 | 0.00011279 | 0.00025993 |   0.0 |  0.00
Modify  | 2.7107e-05 | 0.0036326  | 0.0077213  |   2.8 |  0.14
Other   |            | 0.2818     |            |       | 11.03

Nlocal:        2776.45 ave        3961 max           0 min
Histogram: 8 4 4 0 6 10 8 4 26 34
Nghost:        3879.05 ave        5424 max         232 min
Histogram: 8 0 8 0 16 0 8 8 16 40
Neighs:        79213.5 ave      115474 max           0 min
Histogram: 8 4 4 0 10 6 8 8 24 32

Total # of neighbors = 8238200
Ave neighs/atom = 28.530464
Neighbor list builds = 0
Dangerous builds = 0
The dot product: 4.87751164003927e-08
Setting atom values ...
  1 settings made for x
  1 settings made for y
  1 settings made for z
Setting up cg style minimization ...
  Unit style    : metal
  Current step  : 2034
Per MPI rank memory allocation (min/avg/max) = 5.441 | 5.816 | 6.074 Mbytes
Step PotEng KinEng TotEng v_fx v_fy v_fz 
    2034   -1152449.3            0   -1152449.3  0.044536371  0.027936726 -0.034963542 
    2219   -1152449.3            0   -1152449.3 -1.1311283e-05 -7.5179052e-06 5.2420361e-06 
Loop time of 2.14418 on 104 procs for 185 steps with 288751 atoms

99.9% CPU use with 104 MPI tasks x 1 OpenMP threads

Minimization stats:
  Stopping criterion = energy tolerance
  Energy initial, next-to-last, final = 
     -1152449.33248393  -1152449.33387844  -1152449.33387844
  Force two-norm initial, final = 0.17028052 9.1035208e-05
  Force max component initial, final = 0.10355044 1.1311283e-05
  Final line search alpha, max atom move = 1.0000000 1.1311283e-05
  Iterations, force evaluations = 185 370

MPI task timing breakdown:
Section |  min time  |  avg time  |  max time  |%varavg| %total
---------------------------------------------------------------
Pair    | 0.55863    | 1.5572     | 2.0322     |  33.9 | 72.62
Neigh   | 0          | 0          | 0          |   0.0 |  0.00
Comm    | 0.031609   | 0.35257    | 1.0513     |  49.5 | 16.44
Output  | 0          | 0          | 0          |   0.0 |  0.00
Modify  | 2.3023e-05 | 0.0030379  | 0.0064882  |   2.6 |  0.14
Other   |            | 0.2314     |            |       | 10.79

Nlocal:        2776.45 ave        3961 max           0 min
Histogram: 8 4 4 0 6 10 8 4 26 34
Nghost:        3879.03 ave        5424 max         232 min
Histogram: 8 0 8 0 16 0 8 8 16 40
Neighs:        79213.5 ave      115474 max           0 min
Histogram: 8 4 4 0 10 6 8 8 24 32

Total # of neighbors = 8238200
Ave neighs/atom = 28.530464
Neighbor list builds = 0
Dangerous builds = 0
The dot product: -1.23585042833697e-07
Setting atom values ...
  1 settings made for x
  1 settings made for y
  1 settings made for z
Setting up cg style minimization ...
  Unit style    : metal
  Current step  : 2219
Per MPI rank memory allocation (min/avg/max) = 5.441 | 5.816 | 6.074 Mbytes
Step PotEng KinEng TotEng v_fx v_fy v_fz 
    2219   -1152449.3            0   -1152449.3  0.047524371  0.028118621 -0.029015089 
    2420   -1152449.3            0   -1152449.3 4.8708353e-07 -3.080711e-06 -2.4632554e-05 
Loop time of 2.34221 on 104 procs for 201 steps with 288751 atoms

99.9% CPU use with 104 MPI tasks x 1 OpenMP threads

Minimization stats:
  Stopping criterion = energy tolerance
  Energy initial, next-to-last, final = 
     -1152449.31359125   -1152449.3149833   -1152449.3149833
  Force two-norm initial, final = 0.16956791 6.8911326e-05
  Force max component initial, final = 0.10722662 2.4632554e-05
  Final line search alpha, max atom move = 1.0000000 2.4632554e-05
  Iterations, force evaluations = 201 402

MPI task timing breakdown:
Section |  min time  |  avg time  |  max time  |%varavg| %total
---------------------------------------------------------------
Pair    | 0.6077     | 1.6848     | 2.1999     |  35.2 | 71.93
Neigh   | 0          | 0          | 0          |   0.0 |  0.00
Comm    | 0.035437   | 0.37849    | 1.1364     |  51.6 | 16.16
Output  | 0          | 0          | 0          |   0.0 |  0.00
Modify  | 2.5175e-05 | 0.0033014  | 0.007034   |   2.7 |  0.14
Other   |            | 0.2756     |            |       | 11.77

Nlocal:        2776.45 ave        3961 max           0 min
Histogram: 8 4 4 0 6 10 8 4 26 34
Nghost:        3879.07 ave        5424 max         232 min
Histogram: 8 0 8 0 16 0 8 8 16 40
Neighs:        79213.5 ave      115473 max           0 min
Histogram: 8 4 4 0 10 6 8 8 24 32

Total # of neighbors = 8238199
Ave neighs/atom = 28.530461
Neighbor list builds = 0
Dangerous builds = 0
The dot product: 9.2568713111375e-08
Setting atom values ...
  1 settings made for x
  1 settings made for y
  1 settings made for z
Setting up cg style minimization ...
  Unit style    : metal
  Current step  : 2420
Per MPI rank memory allocation (min/avg/max) = 5.441 | 5.816 | 6.074 Mbytes
Step PotEng KinEng TotEng v_fx v_fy v_fz 
    2420   -1152449.3            0   -1152449.3  0.050419463  0.028208372 -0.024135321 
    2596   -1152449.3            0   -1152449.3 -5.3225826e-06 -1.0660425e-05 -4.7323479e-05 
Loop time of 2.04749 on 104 procs for 176 steps with 288751 atoms

99.9% CPU use with 104 MPI tasks x 1 OpenMP threads

Minimization stats:
  Stopping criterion = energy tolerance
  Energy initial, next-to-last, final = 
     -1152449.29322399  -1152449.29462893  -1152449.29462893
  Force two-norm initial, final = 0.16979434 0.0001401949
  Force max component initial, final = 0.11121791 4.7323479e-05
  Final line search alpha, max atom move = 1.0000000 4.7323479e-05
  Iterations, force evaluations = 176 352

MPI task timing breakdown:
Section |  min time  |  avg time  |  max time  |%varavg| %total
---------------------------------------------------------------
Pair    | 0.53024    | 1.4808     | 1.9272     |  33.0 | 72.32
Neigh   | 0          | 0          | 0          |   0.0 |  0.00
Comm    | 0.030404   | 0.3337     | 1.0104     |  48.5 | 16.30
Output  | 0          | 0          | 0          |   0.0 |  0.00
Modify  | 2.1872e-05 | 0.0029061  | 0.0061814  |   2.5 |  0.14
Other   |            | 0.23       |            |       | 11.24

Nlocal:        2776.45 ave        3961 max           0 min
Histogram: 8 4 4 0 6 10 8 4 26 34
Nghost:        3879.09 ave        5424 max         232 min
Histogram: 8 0 8 0 16 0 8 8 16 40
Neighs:        79213.4 ave      115471 max           0 min
Histogram: 8 4 4 0 10 6 8 8 24 32

Total # of neighbors = 8238196
Ave neighs/atom = 28.530450
Neighbor list builds = 0
Dangerous builds = 0
The dot product: 6.89722699905366e-08
Setting atom values ...
  1 settings made for x
[...]
Histogram: 8 0 8 0 16 0 8 8 16 40
Neighs:        79213.5 ave      114768 max           0 min
Histogram: 8 4 4 0 10 6 8 8 22 34

Total # of neighbors = 8238207
Ave neighs/atom = 28.530488
Neighbor list builds = 0
Dangerous builds = 0
The dot product: 2.04287488308333e-07
Setting atom values ...
  1 settings made for x
  1 settings made for y
  1 settings made for z
Setting up cg style minimization ...
  Unit style    : metal
  Current step  : 27511
Per MPI rank memory allocation (min/avg/max) = 5.441 | 5.816 | 6.074 Mbytes
Step PotEng KinEng TotEng v_fx v_fy v_fz 
   27511   -1152449.4            0   -1152449.4 -0.038322294 -0.039176778  -0.02201145 
   27657   -1152449.4            0   -1152449.4 -6.4376659e-06 -1.0133986e-05 -8.1475599e-06 
Loop time of 1.7128 on 104 procs for 146 steps with 288751 atoms

99.9% CPU use with 104 MPI tasks x 1 OpenMP threads

Minimization stats:
  Stopping criterion = energy tolerance
  Energy initial, next-to-last, final = 
     -1152449.37264958  -1152449.37431556  -1152449.37431556
  Force two-norm initial, final = 0.16770634 6.3590899e-05
  Force max component initial, final = 0.070109483 1.2611029e-05
  Final line search alpha, max atom move = 1.0000000 1.2611029e-05
  Iterations, force evaluations = 146 292

MPI task timing breakdown:
Section |  min time  |  avg time  |  max time  |%varavg| %total
---------------------------------------------------------------
Pair    | 0.45862    | 1.2325     | 1.5982     |  29.5 | 71.96
Neigh   | 0          | 0          | 0          |   0.0 |  0.00
Comm    | 0.027516   | 0.28112    | 0.82735    |  43.1 | 16.41
Output  | 0          | 0          | 0          |   0.0 |  0.00
Modify  | 1.8636e-05 | 0.002413   | 0.0051932  |   2.3 |  0.14
Other   |            | 0.1967     |            |       | 11.49

Nlocal:        2776.45 ave        3945 max           0 min
Histogram: 8 4 4 0 4 12 8 2 24 38
Nghost:        3879.53 ave        5428 max         232 min
Histogram: 8 0 8 0 16 0 8 8 16 40
Neighs:        79213.5 ave      114767 max           0 min
Histogram: 8 4 4 0 10 6 8 8 22 34

Total # of neighbors = 8238205
Ave neighs/atom = 28.530481
Neighbor list builds = 0
Dangerous builds = 0
The dot product: 1.37082140734165e-07
Setting atom values ...
  1 settings made for x
  1 settings made for y
  1 settings made for z
Setting up cg style minimization ...
  Unit style    : metal
  Current step  : 27657
Per MPI rank memory allocation (min/avg/max) = 5.441 | 5.816 | 6.074 Mbytes
Step PotEng KinEng TotEng v_fx v_fy v_fz 
   27657   -1152449.4            0   -1152449.4 -0.035564941 -0.037554604 -0.022289574 
   27738   -1152449.4            0   -1152449.4 -2.0743156e-05 2.7555959e-05 4.9141396e-05 
Loop time of 0.932405 on 104 procs for 81 steps with 288751 atoms

99.9% CPU use with 104 MPI tasks x 1 OpenMP threads

Minimization stats:
  Stopping criterion = energy tolerance
  Energy initial, next-to-last, final = 
      -1152449.3632751  -1152449.36472797  -1152449.36472797
  Force two-norm initial, final = 0.16328752 0.00020129013
  Force max component initial, final = 0.069819935 5.4313466e-05
  Final line search alpha, max atom move = 1.0000000 5.4313466e-05
  Iterations, force evaluations = 81 162

MPI task timing breakdown:
Section |  min time  |  avg time  |  max time  |%varavg| %total
---------------------------------------------------------------
Pair    | 0.24671    | 0.67915    | 0.8833     |  22.2 | 72.84
Neigh   | 0          | 0          | 0          |   0.0 |  0.00
Comm    | 0.014487   | 0.15219    | 0.45945    |  32.8 | 16.32
Output  | 0          | 0          | 0          |   0.0 |  0.00
Modify  | 1.0992e-05 | 0.0013414  | 0.0028631  |   1.7 |  0.14
Other   |            | 0.09972    |            |       | 10.69

Nlocal:        2776.45 ave        3945 max           0 min
Histogram: 8 4 4 0 4 12 8 2 24 38
Nghost:        3879.53 ave        5428 max         232 min
Histogram: 8 0 8 0 16 0 8 8 16 40
Neighs:        79213.5 ave      114767 max           0 min
Histogram: 8 4 4 0 10 6 8 8 22 34

Total # of neighbors = 8238206
Ave neighs/atom = 28.530485
Neighbor list builds = 0
Dangerous builds = 0
The dot product: -3.8254750939936e-09
Setting atom values ...
  1 settings made for x
  1 settings made for y
  1 settings made for z
Setting up cg style minimization ...
  Unit style    : metal
  Current step  : 27738
Per MPI rank memory allocation (min/avg/max) = 5.441 | 5.816 | 6.074 Mbytes
Step PotEng KinEng TotEng v_fx v_fy v_fz 
   27738   -1152449.4            0   -1152449.4 -0.034451421 -0.036359963 -0.021830046 
   27844   -1152449.4            0   -1152449.4 4.8022801e-06 -3.7779297e-05 -5.0929993e-05 
Loop time of 1.22038 on 104 procs for 106 steps with 288751 atoms

99.9% CPU use with 104 MPI tasks x 1 OpenMP threads

Minimization stats:
  Stopping criterion = energy tolerance
  Energy initial, next-to-last, final = 
     -1152449.35338263  -1152449.35475862  -1152449.35475862
  Force two-norm initial, final = 0.16020143 0.00025290608
  Force max component initial, final = 0.069236398 5.7540466e-05
  Final line search alpha, max atom move = 1.0000000 5.7540466e-05
  Iterations, force evaluations = 106 212

MPI task timing breakdown:
Section |  min time  |  avg time  |  max time  |%varavg| %total
---------------------------------------------------------------
Pair    | 0.32194    | 0.88961    | 1.1562     |  25.5 | 72.90
Neigh   | 0          | 0          | 0          |   0.0 |  0.00
Comm    | 0.018639   | 0.20111    | 0.60079    |  37.3 | 16.48
Output  | 0          | 0          | 0          |   0.0 |  0.00
Modify  | 1.346e-05  | 0.0017537  | 0.0037456  |   2.0 |  0.14
Other   |            | 0.1279     |            |       | 10.48

Nlocal:        2776.45 ave        3945 max           0 min
Histogram: 8 4 4 0 4 12 8 2 24 38
Nghost:        3879.53 ave        5428 max         232 min
Histogram: 8 0 8 0 16 0 8 8 16 40
Neighs:        79213.5 ave      114767 max           0 min
Histogram: 8 4 4 0 10 6 8 8 22 34

Total # of neighbors = 8238203
Ave neighs/atom = 28.530474
Neighbor list builds = 0
Dangerous builds = 0
The dot product: 1.64049324499258e-07
Setting atom values ...
  1 settings made for x
  1 settings made for y
  1 settings made for z
Setting up cg style minimization ...
  Unit style    : metal
  Current step  : 27844
Per MPI rank memory allocation (min/avg/max) = 5.441 | 5.816 | 6.074 Mbytes
Step PotEng KinEng TotEng v_fx v_fy v_fz 
   27844   -1152449.3            0   -1152449.3 -0.035863638 -0.035763306 -0.020324927 
   27982   -1152449.3            0   -1152449.3 2.3695509e-05 1.0516037e-05 -3.1272107e-06 
Loop time of 1.5909 on 104 procs for 138 steps with 288751 atoms

99.9% CPU use with 104 MPI tasks x 1 OpenMP threads

Minimization stats:
  Stopping criterion = energy tolerance
  Energy initial, next-to-last, final = 
     -1152449.34298652  -1152449.34437004  -1152449.34437004
  Force two-norm initial, final = 0.15863027 0.00012063936
  Force max component initial, final = 0.0686247 2.3695509e-05
  Final line search alpha, max atom move = 1.0000000 2.3695509e-05
  Iterations, force evaluations = 138 276

MPI task timing breakdown:
Section |  min time  |  avg time  |  max time  |%varavg| %total
---------------------------------------------------------------
Pair    | 0.41897    | 1.1546     | 1.5026     |  29.0 | 72.57
Neigh   | 0          | 0          | 0          |   0.0 |  0.00
Comm    | 0.024145   | 0.25814    | 0.77753    |  42.8 | 16.23
Output  | 0          | 0          | 0          |   0.0 |  0.00
Modify  | 1.7913e-05 | 0.0022879  | 0.0048504  |   2.3 |  0.14
Other   |            | 0.1759     |            |       | 11.06

Nlocal:        2776.45 ave        3945 max           0 min
Histogram: 8 4 4 0 4 12 8 2 24 38
Nghost:        3879.53 ave        5428 max         232 min
Histogram: 8 0 8 0 16 0 8 8 16 40
Neighs:        79213.5 ave      114767 max           0 min
Histogram: 8 4 4 0 10 6 8 8 22 34

Total # of neighbors = 8238204
Ave neighs/atom = 28.530478
Neighbor list builds = 0
Dangerous builds = 0
The dot product: -2.06842909728617e-07
Setting atom values ...
  1 settings made for x
  1 settings made for y
  1 settings made for z
Setting up cg style minimization ...
  Unit style    : metal
  Current step  : 27982
Per MPI rank memory allocation (min/avg/max) = 5.441 | 5.816 | 6.074 Mbytes
Step PotEng KinEng TotEng v_fx v_fy v_fz 
   27982   -1152449.3            0   -1152449.3 -0.043129865 -0.035882755 -0.015703253 
   28000   -1152449.3            0   -1152449.3 -0.00024161289 -1.049781e-05 0.00015308803 
   28219   -1152449.3            0   -1152449.3 -1.0441794e-06 -4.0112861e-08 6.6825097e-07 
Loop time of 2.72463 on 104 procs for 237 steps with 288751 atoms

99.9% CPU use with 104 MPI tasks x 1 OpenMP threads

Minimization stats:
  Stopping criterion = energy tolerance
  Energy initial, next-to-last, final = 
      -1152449.3323839  -1152449.33425096  -1152449.33425096
  Force two-norm initial, final = 0.16065612 2.0019537e-05
  Force max component initial, final = 0.0678818 2.4649983e-06
  Final line search alpha, max atom move = 1.0000000 2.4649983e-06
  Iterations, force evaluations = 237 474

MPI task timing breakdown:
Section |  min time  |  avg time  |  max time  |%varavg| %total
---------------------------------------------------------------
Pair    | 0.71824    | 1.984      | 2.5742     |  38.0 | 72.82
Neigh   | 0          | 0          | 0          |   0.0 |  0.00
Comm    | 0.040728   | 0.44416    | 1.3441     |  56.1 | 16.30
Output  | 0.00010579 | 0.00010879 | 0.00020308 |   0.0 |  0.00
Modify  | 2.9418e-05 | 0.0039137  | 0.0083921  |   3.0 |  0.14
Other   |            | 0.2924     |            |       | 10.73

Nlocal:        2776.45 ave        3945 max           0 min
Histogram: 8 4 4 0 4 12 8 2 24 38
Nghost:        3879.53 ave        5428 max         232 min
Histogram: 8 0 8 0 16 0 8 8 16 40
Neighs:        79213.5 ave      114767 max           0 min
Histogram: 8 4 4 0 10 6 8 8 22 34

Total # of neighbors = 8238204
Ave neighs/atom = 28.530478
Neighbor list builds = 0
Dangerous builds = 0
The dot product: 1.63331956887822e-08
Setting atom values ...
  1 settings made for x
  1 settings made for y
  1 settings made for z
Setting up cg style minimization ...
  Unit style    : metal
  Current step  : 28219
Per MPI rank memory allocation (min/avg/max) = 5.441 | 5.816 | 6.074 Mbytes
Step PotEng KinEng TotEng v_fx v_fy v_fz 
   28219   -1152449.3            0   -1152449.3 -0.055915069 -0.036384953 -0.0081274568 
   28547   -1152449.3            0   -1152449.3 -7.8639021e-07 6.7493622e-07 1.3907126e-06 
Loop time of 3.77191 on 104 procs for 328 steps with 288751 atoms

99.9% CPU use with 104 MPI tasks x 1 OpenMP threads

Minimization stats:
  Stopping criterion = energy tolerance
  Energy initial, next-to-last, final = 
     -1152449.32397612  -1152449.33805871  -1152449.33805871
  Force two-norm initial, final = 0.16854285 7.2786514e-06
  Force max component initial, final = 0.067436069 1.3907126e-06
  Final line search alpha, max atom move = 1.0000000 1.3907126e-06
  Iterations, force evaluations = 328 656

MPI task timing breakdown:
Section |  min time  |  avg time  |  max time  |%varavg| %total
---------------------------------------------------------------
Pair    | 0.99781    | 2.737      | 3.5693     |  44.5 | 72.56
Neigh   | 1.0314e-05 | 0.0029562  | 0.0044024  |   2.2 |  0.08
Comm    | 0.05964    | 0.61321    | 1.8425     |  65.8 | 16.26
Output  | 0          | 0          | 0          |   0.0 |  0.00
Modify  | 4.0936e-05 | 0.0054055  | 0.011553   |   3.5 |  0.14
Other   |            | 0.4133     |            |       | 10.96

Nlocal:        2776.45 ave        3946 max           0 min
Histogram: 8 4 4 0 4 12 8 2 24 38
Nghost:        3879.55 ave        5428 max         232 min
Histogram: 8 0 8 0 16 0 8 8 16 40
Neighs:        79213.4 ave      114797 max           0 min
Histogram: 8 4 4 0 10 6 8 8 22 34

Total # of neighbors = 8238198
Ave neighs/atom = 28.530457
Neighbor list builds = 1
Dangerous builds = 0
The dot product: 4.48064943421992e-08
Setting atom values ...
  1 settings made for x
  1 settings made for y
  1 settings made for z
Setting up cg style minimization ...
  Unit style    : metal
  Current step  : 28547
Per MPI rank memory allocation (min/avg/max) = 5.441 | 5.816 | 6.074 Mbytes
Step PotEng KinEng TotEng v_fx v_fy v_fz 
   28547   -1152449.3            0   -1152449.3 -0.031147278 -0.028554546 -0.016189723 
   28786   -1152449.3            0   -1152449.3 -2.0259037e-06 3.1858456e-07 1.7133389e-06 
Loop time of 2.76153 on 104 procs for 239 steps with 288751 atoms

99.9% CPU use with 104 MPI tasks x 1 OpenMP threads

Minimization stats:
  Stopping criterion = energy tolerance
  Energy initial, next-to-last, final = 
     -1152449.33976971  -1152449.34084325  -1152449.34084325
  Force two-norm initial, final = 0.13966684 1.0962229e-05
  Force max component initial, final = 0.067427332 3.2840340e-06
  Final line search alpha, max atom move = 1.0000000 3.2840340e-06
  Iterations, force evaluations = 239 478

MPI task timing breakdown:
Section |  min time  |  avg time  |  max time  |%varavg| %total
---------------------------------------------------------------
Pair    | 0.72469    | 2.0013     | 2.6028     |  38.2 | 72.47
Neigh   | 0          | 0          | 0          |   0.0 |  0.00
Comm    | 0.042311   | 0.45196    | 1.3584     |  55.8 | 16.37
Output  | 0          | 0          | 0          |   0.0 |  0.00
Modify  | 3.1208e-05 | 0.0039412  | 0.0084221  |   3.0 |  0.14
Other   |            | 0.3044     |            |       | 11.02

Nlocal:        2776.45 ave        3948 max           0 min
Histogram: 8 4 4 0 4 12 8 4 22 38
Nghost:        3879.49 ave        5428 max         232 min
Histogram: 8 0 8 0 16 0 8 8 16 40
Neighs:        79213.4 ave      114849 max           0 min
Histogram: 8 4 4 0 10 6 8 8 20 36

Total # of neighbors = 8238192
Ave neighs/atom = 28.530436
Neighbor list builds = 0
Dangerous builds = 0
The dot product: 2.87478704353043e-09
Setting atom values ...
  1 settings made for x
  1 settings made for y
  1 settings made for z
Setting up cg style minimization ...
  Unit style    : metal
  Current step  : 28786
Per MPI rank memory allocation (min/avg/max) = 5.441 | 5.816 | 6.074 Mbytes
Step PotEng KinEng TotEng v_fx v_fy v_fz 
   28786   -1152449.3            0   -1152449.3 -0.031483378 -0.028607271 -0.016106754 
   28976   -1152449.3            0   -1152449.3 -4.5112254e-06 -7.5384672e-06 -6.6850557e-06 
Loop time of 2.18162 on 104 procs for 190 steps with 288751 atoms

99.9% CPU use with 104 MPI tasks x 1 OpenMP threads

Minimization stats:
  Stopping criterion = energy tolerance
  Energy initial, next-to-last, final = 
     -1152449.34135898  -1152449.34241997  -1152449.34241997
  Force two-norm initial, final = 0.13961513 9.3302199e-05
  Force max component initial, final = 0.065999481 2.2173354e-05
  Final line search alpha, max atom move = 1.0000000 2.2173354e-05
  Iterations, force evaluations = 190 380

MPI task timing breakdown:
Section |  min time  |  avg time  |  max time  |%varavg| %total
---------------------------------------------------------------
Pair    | 0.57797    | 1.5881     | 2.0667     |  34.0 | 72.79
Neigh   | 0          | 0          | 0          |   0.0 |  0.00
Comm    | 0.0334     | 0.35571    | 1.0665     |  50.0 | 16.30
Output  | 0          | 0          | 0          |   0.0 |  0.00
Modify  | 2.3873e-05 | 0.003137   | 0.0067329  |   2.7 |  0.14
Other   |            | 0.2347     |            |       | 10.76

Nlocal:        2776.45 ave        3948 max           0 min
Histogram: 8 4 4 0 4 12 8 4 22 38
Nghost:        3879.49 ave        5428 max         232 min
Histogram: 8 0 8 0 16 0 8 8 16 40
Neighs:        79213.4 ave      114853 max           0 min
Histogram: 8 4 4 0 10 6 8 8 20 36

Total # of neighbors = 8238191
Ave neighs/atom = 28.530433
Neighbor list builds = 0
Dangerous builds = 0
The dot product: 2.54454293028754e-08
Setting atom values ...
  1 settings made for x
  1 settings made for y
  1 settings made for z
Setting up cg style minimization ...
  Unit style    : metal
  Current step  : 28976
Per MPI rank memory allocation (min/avg/max) = 5.441 | 5.816 | 6.074 Mbytes
Step PotEng KinEng TotEng v_fx v_fy v_fz 
   28976   -1152449.3            0   -1152449.3 -0.031569502 -0.028017173 -0.015366868 
   29000   -1152449.3            0   -1152449.3 0.0005068291 0.00016159188 -0.00012044024 
   29149   -1152449.3            0   -1152449.3 -2.5850597e-05 -7.6628919e-06 6.8806286e-06 
Loop time of 2.00524 on 104 procs for 173 steps with 288751 atoms

99.9% CPU use with 104 MPI tasks x 1 OpenMP threads

Minimization stats:
  Stopping criterion = energy tolerance
  Energy initial, next-to-last, final = 
     -1152449.34158152  -1152449.34263595  -1152449.34263595
  Force two-norm initial, final = 0.13930238 0.00017540701
  Force max component initial, final = 0.064572827 4.2397214e-05
  Final line search alpha, max atom move = 1.0000000 4.2397214e-05
  Iterations, force evaluations = 173 346

MPI task timing breakdown:
Section |  min time  |  avg time  |  max time  |%varavg| %total
---------------------------------------------------------------
Pair    | 0.52497    | 1.4521     | 1.8913     |  32.5 | 72.41
Neigh   | 0          | 0          | 0          |   0.0 |  0.00
Comm    | 0.030898   | 0.33041    | 0.98191    |  47.2 | 16.48
Output  | 9.4242e-05 | 0.00010106 | 0.00020328 |   0.0 |  0.01
Modify  | 2.2412e-05 | 0.0028637  | 0.0061617  |   2.5 |  0.14
Other   |            | 0.2198     |            |       | 10.96

Nlocal:        2776.45 ave        3947 max           0 min
Histogram: 8 4 4 0 4 12 8 4 22 38
Nghost:        3879.49 ave        5428 max         232 min
Histogram: 8 0 8 0 16 0 8 8 16 40
Neighs:        79213.4 ave      114830 max           0 min
Histogram: 8 4 4 0 10 6 8 8 20 36

Total # of neighbors = 8238189
Ave neighs/atom = 28.530426
Neighbor list builds = 0
Dangerous builds = 0
The dot product: 6.23246349862839e-08
Setting atom values ...
  1 settings made for x
  1 settings made for y
  1 settings made for z
Setting up cg style minimization ...
  Unit style    : metal
  Current step  : 29149
Per MPI rank memory allocation (min/avg/max) = 5.441 | 5.816 | 6.074 Mbytes
Step PotEng KinEng TotEng v_fx v_fy v_fz 
   29149   -1152449.3            0   -1152449.3 -0.032759602  -0.02753656 -0.014052147 
   29383   -1152449.3            0   -1152449.3 2.246196e-06 -6.1608171e-07 -2.2294626e-06 
Loop time of 2.69326 on 104 procs for 234 steps with 288751 atoms

99.9% CPU use with 104 MPI tasks x 1 OpenMP threads

Minimization stats:
  Stopping criterion = energy tolerance
  Energy initial, next-to-last, final = 
     -1152449.34038903  -1152449.34143398  -1152449.34143398
  Force two-norm initial, final = 0.13882443 1.5874600e-05
  Force max component initial, final = 0.063078301 2.4103590e-06
  Final line search alpha, max atom move = 1.0000000 2.4103590e-06
  Iterations, force evaluations = 234 468

MPI task timing breakdown:
Section |  min time  |  avg time  |  max time  |%varavg| %total
---------------------------------------------------------------
Pair    | 0.71071    | 1.9592     | 2.5522     |  37.8 | 72.75
Neigh   | 0          | 0          | 0          |   0.0 |  0.00
Comm    | 0.041525   | 0.44242    | 1.3237     |  55.2 | 16.43
Output  | 0          | 0          | 0          |   0.0 |  0.00
Modify  | 2.9788e-05 | 0.0038573  | 0.0082333  |   2.9 |  0.14
Other   |            | 0.2878     |            |       | 10.68

Nlocal:        2776.45 ave        3947 max           0 min
Histogram: 8 4 4 0 4 12 8 4 22 38
Nghost:        3879.49 ave        5428 max         232 min
Histogram: 8 0 8 0 16 0 8 8 16 40
Neighs:        79213.4 ave      114838 max           0 min
Histogram: 8 4 4 0 10 6 8 8 20 36

Total # of neighbors = 8238191
Ave neighs/atom = 28.530433
Neighbor list builds = 0
Dangerous builds = 0
The dot product: -2.98469423152499e-09
