LAMMPS (29 Oct 2020)
OMP_NUM_THREADS environment is not set. Defaulting to 1 thread. (../comm.cpp:94)
  using 1 OpenMP thread(s) per MPI task
OMP_NUM_THREADS environment is not set. Defaulting to 1 thread. (../comm.cpp:94)
  using 1 OpenMP thread(s) per MPI task
Reading data file ...
  orthogonal box = (-122.39241 -121.13707 -37.090501) to (122.39241 121.13707 37.090501)
  13 by 4 by 2 MPI processor grid
  reading atoms ...
  288751 atoms
  read_data CPU = 0.397 seconds
199981 atoms in group inner
88770 atoms in group outer
1 atoms in group carbon
Neighbor list info ...
  update every 1 steps, delay 0 steps, check yes
  max neighbors/atom: 2000, page size: 100000
  master list distance cutoff = 5.6
  ghost atom cutoff = 5.6
  binsize = 2.8, bins = 88 87 27
  1 neighbor lists, perpetual/occasional/extra = 1 0 0
  (1) pair eam/alloy, perpetual
      attributes: half, newton on
      pair build: half/bin/atomonly/newton
      stencil: half/bin/3d/newton
      bin: standard
Setting up cg style minimization ...
  Unit style    : metal
  Current step  : 0
Per MPI rank memory allocation (min/avg/max) = 5.441 | 5.816 | 6.074 Mbytes
Step v_fx v_fy v_fz PotEng KinEng TotEng 
       0   -26.197623  -0.81917601    7.8401867   -1152441.9            0   -1152441.9 
     246 3.3099217e-05 5.371538e-06 -3.4659176e-05     -1152449            0     -1152449 
Loop time of 2.8906 on 104 procs for 246 steps with 288751 atoms

99.9% CPU use with 104 MPI tasks x 1 OpenMP threads

Minimization stats:
  Stopping criterion = energy tolerance
  Energy initial, next-to-last, final = 
      -1152441.8606298  -1152448.97218897  -1152448.97218897
  Force two-norm initial, final = 44.898677 0.00015333643
  Force max component initial, final = 33.825627 3.4659176e-05
  Final line search alpha, max atom move = 1.0000000 3.4659176e-05
  Iterations, force evaluations = 246 488

MPI task timing breakdown:
Section |  min time  |  avg time  |  max time  |%varavg| %total
---------------------------------------------------------------
Pair    | 0.78606    | 2.0589     | 2.6728     |  37.7 | 71.23
Neigh   | 9.2351e-05 | 0.02647    | 0.039555   |   6.7 |  0.92
Comm    | 0.053511   | 0.46399    | 1.3841     |  56.7 | 16.05
Output  | 0          | 0          | 0          |   0.0 |  0.00
Modify  | 2.9758e-05 | 0.0026323  | 0.0067772  |   3.2 |  0.09
Other   |            | 0.3386     |            |       | 11.71

Nlocal:        2776.45 ave        3956 max           0 min
Histogram: 8 4 4 0 4 12 8 0 30 34
Nghost:        3879.11 ave        5424 max         232 min
Histogram: 8 0 8 0 16 0 8 8 16 40
Neighs:        79213.6 ave      115286 max           0 min
Histogram: 8 4 4 0 10 6 8 8 24 32

Total # of neighbors = 8238218
Ave neighs/atom = 28.530526
Neighbor list builds = 9
Dangerous builds = 0
Setting atom values ...
  1 settings made for x
  1 settings made for y
  1 settings made for z
Setting up cg style minimization ...
  Unit style    : metal
  Current step  : 246
Per MPI rank memory allocation (min/avg/max) = 5.441 | 5.816 | 6.074 Mbytes
Step PotEng KinEng TotEng v_fx v_fy v_fz 
     246     -1152449            0     -1152449 -0.0016189809 0.0028269366 0.0049660382 
     372     -1152449            0     -1152449 4.4366907e-05 1.2257496e-05 -5.9332737e-05 
Loop time of 1.47854 on 104 procs for 126 steps with 288751 atoms

99.9% CPU use with 104 MPI tasks x 1 OpenMP threads

Minimization stats:
  Stopping criterion = energy tolerance
  Energy initial, next-to-last, final = 
     -1152448.97154965  -1152448.97202122  -1152448.97202122
  Force two-norm initial, final = 0.087700371 0.00019357449
  Force max component initial, final = 0.04188599 5.9332737e-05
  Final line search alpha, max atom move = 1.0000000 5.9332737e-05
  Iterations, force evaluations = 126 252

MPI task timing breakdown:
Section |  min time  |  avg time  |  max time  |%varavg| %total
---------------------------------------------------------------
Pair    | 0.39013    | 1.066      | 1.3908     |  27.7 | 72.10
Neigh   | 0          | 0          | 0          |   0.0 |  0.00
Comm    | 0.024529   | 0.24188    | 0.72437    |  41.0 | 16.36
Output  | 0          | 0          | 0          |   0.0 |  0.00
Modify  | 1.5389e-05 | 0.0020823  | 0.0044774  |   2.2 |  0.14
Other   |            | 0.1686     |            |       | 11.40

Nlocal:        2776.45 ave        3956 max           0 min
Histogram: 8 4 4 0 4 12 8 0 30 34
Nghost:        3879.22 ave        5424 max         232 min
Histogram: 8 0 8 0 16 0 8 8 16 40
Neighs:        79213.5 ave      115287 max           0 min
Histogram: 8 4 4 0 10 6 8 8 24 32

Total # of neighbors = 8238205
Ave neighs/atom = 28.530481
Neighbor list builds = 0
Dangerous builds = 0
Setting atom values ...
  1 settings made for x
  1 settings made for y
  1 settings made for z
Setting up cg style minimization ...
  Unit style    : metal
  Current step  : 372
Per MPI rank memory allocation (min/avg/max) = 5.441 | 5.816 | 6.074 Mbytes
Step PotEng KinEng TotEng v_fx v_fy v_fz 
     372     -1152449            0     -1152449 0.0056754342  0.019634982 0.0020309874 
     550     -1152449            0     -1152449 4.1273991e-05 8.1536854e-06 -3.8627609e-05 
Loop time of 2.07352 on 104 procs for 178 steps with 288751 atoms

99.9% CPU use with 104 MPI tasks x 1 OpenMP threads

Minimization stats:
  Stopping criterion = energy tolerance
  Energy initial, next-to-last, final = 
     -1152448.96937297  -1152448.97109209  -1152448.97109209
  Force two-norm initial, final = 0.15683705 0.00022765666
  Force max component initial, final = 0.089703069 4.8515148e-05
  Final line search alpha, max atom move = 1.0000000 4.8515148e-05
  Iterations, force evaluations = 178 356

MPI task timing breakdown:
Section |  min time  |  avg time  |  max time  |%varavg| %total
---------------------------------------------------------------
Pair    | 0.54522    | 1.4967     | 1.9553     |  33.0 | 72.18
Neigh   | 0          | 0          | 0          |   0.0 |  0.00
Comm    | 0.036005   | 0.33678    | 1.0084     |  48.6 | 16.24
Output  | 0          | 0          | 0          |   0.0 |  0.00
Modify  | 2.156e-05  | 0.0029378  | 0.0062607  |   2.6 |  0.14
Other   |            | 0.2371     |            |       | 11.43

Nlocal:        2776.45 ave        3956 max           0 min
Histogram: 8 4 4 0 4 12 8 0 30 34
Nghost:        3879.18 ave        5424 max         232 min
Histogram: 8 0 8 0 16 0 8 8 16 40
Neighs:        79213.5 ave      115290 max           0 min
Histogram: 8 4 4 0 10 6 8 8 24 32

Total # of neighbors = 8238203
Ave neighs/atom = 28.530474
Neighbor list builds = 0
Dangerous builds = 0
The dot product: -4.86836413803534e-07
Setting atom values ...
  1 settings made for x
  1 settings made for y
  1 settings made for z
Setting up cg style minimization ...
  Unit style    : metal
  Current step  : 550
Per MPI rank memory allocation (min/avg/max) = 5.441 | 5.816 | 6.074 Mbytes
Step PotEng KinEng TotEng v_fx v_fy v_fz 
     550     -1152449            0     -1152449  0.015727879  0.033571238 -0.0041282576 
     742     -1152449            0     -1152449 2.7054098e-05 1.5653037e-06 -1.4732951e-05 
Loop time of 2.2582 on 104 procs for 192 steps with 288751 atoms

99.9% CPU use with 104 MPI tasks x 1 OpenMP threads

Minimization stats:
  Stopping criterion = energy tolerance
  Energy initial, next-to-last, final = 
     -1152448.96764881  -1152448.96946998  -1152448.96946998
  Force two-norm initial, final = 0.16315424 0.00016446502
  Force max component initial, final = 0.096705473 2.7054098e-05
  Final line search alpha, max atom move = 1.0000000 2.7054098e-05
  Iterations, force evaluations = 192 384

MPI task timing breakdown:
Section |  min time  |  avg time  |  max time  |%varavg| %total
---------------------------------------------------------------
Pair    | 0.58833    | 1.6207     | 2.1361     |  34.3 | 71.77
Neigh   | 0          | 0          | 0          |   0.0 |  0.00
Comm    | 0.04194    | 0.36968    | 1.0944     |  50.5 | 16.37
Output  | 0          | 0          | 0          |   0.0 |  0.00
Modify  | 2.3589e-05 | 0.0031638  | 0.0068473  |   2.7 |  0.14
Other   |            | 0.2646     |            |       | 11.72

Nlocal:        2776.45 ave        3956 max           0 min
Histogram: 8 4 4 0 4 12 8 0 30 34
Nghost:        3879.20 ave        5424 max         232 min
Histogram: 8 0 8 0 16 0 8 8 16 40
Neighs:        79213.5 ave      115280 max           0 min
Histogram: 8 4 4 0 10 6 8 8 24 32

Total # of neighbors = 8238201
Ave neighs/atom = 28.530467
Neighbor list builds = 0
Dangerous builds = 0
The dot product: -3.03356265580709e-07
Setting atom values ...
  1 settings made for x
  1 settings made for y
  1 settings made for z
Setting up cg style minimization ...
  Unit style    : metal
  Current step  : 742
Per MPI rank memory allocation (min/avg/max) = 5.441 | 5.816 | 6.074 Mbytes
Step PotEng KinEng TotEng v_fx v_fy v_fz 
     742     -1152449            0     -1152449  0.028698696  0.038049517  -0.00870357 
     960     -1152449            0     -1152449 2.6088967e-05 5.866062e-07 -8.5530266e-06 
Loop time of 2.53173 on 104 procs for 218 steps with 288751 atoms

99.9% CPU use with 104 MPI tasks x 1 OpenMP threads

Minimization stats:
  Stopping criterion = energy tolerance
  Energy initial, next-to-last, final = 
     -1152448.96520703  -1152448.96757517  -1152448.96757517
  Force two-norm initial, final = 0.17276924 9.9814248e-05
  Force max component initial, final = 0.095839955 3.1085789e-05
  Final line search alpha, max atom move = 1.0000000 3.1085789e-05
  Iterations, force evaluations = 218 436

MPI task timing breakdown:
Section |  min time  |  avg time  |  max time  |%varavg| %total
---------------------------------------------------------------
Pair    | 0.66604    | 1.8259     | 2.3865     |  36.4 | 72.12
Neigh   | 0          | 0          | 0          |   0.0 |  0.00
Comm    | 0.041368   | 0.40876    | 1.2251     |  54.0 | 16.15
Output  | 0          | 0          | 0          |   0.0 |  0.00
Modify  | 2.6386e-05 | 0.0035862  | 0.0077024  |   2.8 |  0.14
Other   |            | 0.2935     |            |       | 11.59

Nlocal:        2776.45 ave        3957 max           0 min
Histogram: 8 4 4 0 4 12 8 2 28 34
Nghost:        3879.20 ave        5424 max         232 min
Histogram: 8 0 8 0 16 0 8 8 16 40
Neighs:        79213.5 ave      115325 max           0 min
Histogram: 8 4 4 0 10 6 8 8 24 32

Total # of neighbors = 8238206
Ave neighs/atom = 28.530485
Neighbor list builds = 0
Dangerous builds = 0
The dot product: -6.45661201469944e-07
Setting atom values ...
  1 settings made for x
  1 settings made for y
  1 settings made for z
Setting up cg style minimization ...
  Unit style    : metal
  Current step  : 960
Per MPI rank memory allocation (min/avg/max) = 5.441 | 5.816 | 6.074 Mbytes
Step PotEng KinEng TotEng v_fx v_fy v_fz 
     960     -1152449            0     -1152449  0.034568104   0.03414398 -0.00099737646 
    1000     -1152449            0     -1152449 -0.0010175397 -1.084159e-05 1.0418838e-05 
    1101     -1152449            0     -1152449 -4.3834359e-05 -3.7657991e-06 5.1167195e-07 
Loop time of 1.63958 on 104 procs for 141 steps with 288751 atoms

99.9% CPU use with 104 MPI tasks x 1 OpenMP threads

Minimization stats:
  Stopping criterion = energy tolerance
  Energy initial, next-to-last, final = 
     -1152448.96330291  -1152448.96591744  -1152448.96591744
  Force two-norm initial, final = 0.19164591 0.00015968011
  Force max component initial, final = 0.082655182 4.3834359e-05
  Final line search alpha, max atom move = 1.0000000 4.3834359e-05
  Iterations, force evaluations = 141 282

MPI task timing breakdown:
Section |  min time  |  avg time  |  max time  |%varavg| %total
---------------------------------------------------------------
Pair    | 0.43398    | 1.1883     | 1.5479     |  29.2 | 72.48
Neigh   | 0          | 0          | 0          |   0.0 |  0.00
Comm    | 0.027013   | 0.26512    | 0.79759    |  43.7 | 16.17
Output  | 0.00011206 | 0.00011414 | 0.00021074 |   0.0 |  0.01
Modify  | 1.6928e-05 | 0.0023256  | 0.0049935  |   2.3 |  0.14
Other   |            | 0.1837     |            |       | 11.20

Nlocal:        2776.45 ave        3957 max           0 min
Histogram: 8 4 4 0 4 12 8 2 28 34
Nghost:        3879.14 ave        5424 max         232 min
Histogram: 8 0 8 0 16 0 8 8 16 40
Neighs:        79213.6 ave      115327 max           0 min
Histogram: 8 4 4 0 10 6 8 8 24 32

Total # of neighbors = 8238213
Ave neighs/atom = 28.530509
Neighbor list builds = 0
Dangerous builds = 0
The dot product: 6.6837249820943e-07
Setting atom values ...
  1 settings made for x
  1 settings made for y
  1 settings made for z
Setting up cg style minimization ...
  Unit style    : metal
  Current step  : 1101
Per MPI rank memory allocation (min/avg/max) = 5.441 | 5.816 | 6.074 Mbytes
Step PotEng KinEng TotEng v_fx v_fy v_fz 
    1101     -1152449            0     -1152449  0.047263543   0.03218053 0.0060125509 
    1306     -1152449            0     -1152449 1.9094574e-05 1.5164013e-06 2.7480932e-06 
Loop time of 2.38033 on 104 procs for 205 steps with 288751 atoms

99.9% CPU use with 104 MPI tasks x 1 OpenMP threads

Minimization stats:
  Stopping criterion = energy tolerance
  Energy initial, next-to-last, final = 
     -1152448.96134768  -1152448.96445605  -1152448.96445605
  Force two-norm initial, final = 0.20494753 0.00018571458
  Force max component initial, final = 0.098946637 4.9529812e-05
  Final line search alpha, max atom move = 1.0000000 4.9529812e-05
  Iterations, force evaluations = 205 410

MPI task timing breakdown:
Section |  min time  |  avg time  |  max time  |%varavg| %total
---------------------------------------------------------------
Pair    | 0.63004    | 1.717      | 2.2502     |  35.2 | 72.13
Neigh   | 0          | 0          | 0          |   0.0 |  0.00
Comm    | 0.037255   | 0.38392    | 1.155      |  52.6 | 16.13
Output  | 0          | 0          | 0          |   0.0 |  0.00
Modify  | 2.464e-05  | 0.0033737  | 0.0072215  |   2.7 |  0.14
Other   |            | 0.2761     |            |       | 11.60

Nlocal:        2776.45 ave        3957 max           0 min
Histogram: 8 4 4 0 4 12 8 2 28 34
Nghost:        3879.14 ave        5424 max         232 min
Histogram: 8 0 8 0 16 0 8 8 16 40
Neighs:        79213.6 ave      115329 max           0 min
Histogram: 8 4 4 0 10 6 8 8 24 32

Total # of neighbors = 8238215
Ave neighs/atom = 28.530516
Neighbor list builds = 0
Dangerous builds = 0
The dot product: -2.36661408453524e-07
Setting atom values ...
  1 settings made for x
  1 settings made for y
  1 settings made for z
Setting up cg style minimization ...
  Unit style    : metal
  Current step  : 1306
Per MPI rank memory allocation (min/avg/max) = 5.441 | 5.816 | 6.074 Mbytes
Step PotEng KinEng TotEng v_fx v_fy v_fz 
    1306     -1152449            0     -1152449  0.052786682  0.030269108  0.012617519 
    1465     -1152449            0     -1152449 -2.069121e-05 -1.521714e-06 -5.1888386e-06 
Loop time of 1.88662 on 104 procs for 159 steps with 288751 atoms

99.9% CPU use with 104 MPI tasks x 1 OpenMP threads

Minimization stats:
  Stopping criterion = energy tolerance
  Energy initial, next-to-last, final = 
     -1152448.96032676  -1152448.96294539  -1152448.96294539
  Force two-norm initial, final = 0.21455518 0.0001726944
  Force max component initial, final = 0.10962229 5.4488069e-05
  Final line search alpha, max atom move = 1.0000000 5.4488069e-05
  Iterations, force evaluations = 159 318

MPI task timing breakdown:
Section |  min time  |  avg time  |  max time  |%varavg| %total
---------------------------------------------------------------
Pair    | 0.48823    | 1.3419     | 1.7649     |  31.2 | 71.13
Neigh   | 0          | 0          | 0          |   0.0 |  0.00
Comm    | 0.030815   | 0.30565    | 0.8981     |  45.5 | 16.20
Output  | 0          | 0          | 0          |   0.0 |  0.00
Modify  | 1.9183e-05 | 0.0026213  | 0.0055941  |   2.4 |  0.14
Other   |            | 0.2364     |            |       | 12.53

Nlocal:        2776.45 ave        3957 max           0 min
Histogram: 8 4 4 0 4 12 8 2 28 34
Nghost:        3879.11 ave        5424 max         232 min
Histogram: 8 0 8 0 16 0 8 8 16 40
Neighs:        79213.6 ave      115322 max           0 min
Histogram: 8 4 4 0 10 6 8 8 24 32

Total # of neighbors = 8238214
Ave neighs/atom = 28.530512
Neighbor list builds = 0
Dangerous builds = 0
The dot product: -1.65848370016505e-08
Setting atom values ...
  1 settings made for x
  1 settings made for y
  1 settings made for z
Setting up cg style minimization ...
  Unit style    : metal
  Current step  : 1465
Per MPI rank memory allocation (min/avg/max) = 5.441 | 5.816 | 6.074 Mbytes
Step PotEng KinEng TotEng v_fx v_fy v_fz 
    1465     -1152449            0     -1152449  0.062106636  0.032588956  0.014293489 
    1660     -1152449            0     -1152449 1.0428306e-05 1.1543772e-06 2.5409047e-06 
Loop time of 2.28014 on 104 procs for 195 steps with 288751 atoms

99.9% CPU use with 104 MPI tasks x 1 OpenMP threads

Minimization stats:
  Stopping criterion = energy tolerance
  Energy initial, next-to-last, final = 
     -1152448.95831106   -1152448.9607813   -1152448.9607813
  Force two-norm initial, final = 0.2171456 0.00010933817
  Force max component initial, final = 0.11000547 2.3248117e-05
  Final line search alpha, max atom move = 1.0000000 2.3248117e-05
  Iterations, force evaluations = 195 390

MPI task timing breakdown:
Section |  min time  |  avg time  |  max time  |%varavg| %total
---------------------------------------------------------------
Pair    | 0.59767    | 1.6367     | 2.1341     |  34.4 | 71.78
Neigh   | 0          | 0          | 0          |   0.0 |  0.00
Comm    | 0.03543    | 0.36702    | 1.1138     |  51.2 | 16.10
Output  | 0          | 0          | 0          |   0.0 |  0.00
Modify  | 2.382e-05  | 0.0032112  | 0.0068547  |   2.7 |  0.14
Other   |            | 0.2732     |            |       | 11.98

Nlocal:        2776.45 ave        3958 max           0 min
Histogram: 8 4 4 0 4 12 8 2 28 34
Nghost:        3879.09 ave        5424 max         232 min
Histogram: 8 0 8 0 16 0 8 8 16 40
Neighs:        79213.6 ave      115358 max           0 min
Histogram: 8 4 4 0 10 6 8 8 24 32

Total # of neighbors = 8238212
Ave neighs/atom = 28.530506
Neighbor list builds = 0
Dangerous builds = 0
The dot product: 5.61703579300777e-08
Setting atom values ...
  1 settings made for x
  1 settings made for y
  1 settings made for z
Setting up cg style minimization ...
  Unit style    : metal
  Current step  : 1660
Per MPI rank memory allocation (min/avg/max) = 5.441 | 5.816 | 6.074 Mbytes
Step PotEng KinEng TotEng v_fx v_fy v_fz 
    1660     -1152449            0     -1152449   0.06946689  0.035008952   0.01329518 
    1814     -1152449            0     -1152449 -2.5452555e-05 -2.2387489e-06 -5.3502039e-06 
Loop time of 1.83853 on 104 procs for 154 steps with 288751 atoms

99.9% CPU use with 104 MPI tasks x 1 OpenMP threads

Minimization stats:
  Stopping criterion = energy tolerance
  Energy initial, next-to-last, final = 
     -1152448.95555465  -1152448.95815594  -1152448.95815594
  Force two-norm initial, final = 0.21716999 0.00013265992
  Force max component initial, final = 0.10762825 4.2117498e-05
  Final line search alpha, max atom move = 1.0000000 4.2117498e-05
  Iterations, force evaluations = 154 308

MPI task timing breakdown:
Section |  min time  |  avg time  |  max time  |%varavg| %total
---------------------------------------------------------------
Pair    | 0.47489    | 1.3039     | 1.719      |  30.5 | 70.92
Neigh   | 0          | 0          | 0          |   0.0 |  0.00
Comm    | 0.036407   | 0.29976    | 0.88471    |  44.9 | 16.30
Output  | 0          | 0          | 0          |   0.0 |  0.00
Modify  | 1.9964e-05 | 0.0025402  | 0.0054641  |   2.4 |  0.14
Other   |            | 0.2323     |            |       | 12.64

Nlocal:        2776.45 ave        3958 max           0 min
Histogram: 8 4 4 0 4 12 8 2 28 34
Nghost:        3879.12 ave        5424 max         232 min
Histogram: 8 0 8 0 16 0 8 8 16 40
Neighs:        79213.5 ave      115358 max           0 min
Histogram: 8 4 4 0 10 6 8 8 24 32

Total # of neighbors = 8238208
Ave neighs/atom = 28.530492
Neighbor list builds = 0
Dangerous builds = 0
The dot product: -1.14004532861259e-07
Setting atom values ...
  1 settings made for x
  1 settings made for y
  1 settings made for z
Setting up cg style minimization ...
  Unit style    : metal
  Current step  : 1814
Per MPI rank memory allocation (min/avg/max) = 5.441 | 5.816 | 6.074 Mbytes
Step PotEng KinEng TotEng v_fx v_fy v_fz 
    1814     -1152449            0     -1152449  0.072363108  0.036787885  0.011612319 
    1992     -1152449            0     -1152449 2.1439536e-05 3.2747497e-06 3.8822044e-06 
Loop time of 2.05603 on 104 procs for 178 steps with 288751 atoms

99.9% CPU use with 104 MPI tasks x 1 OpenMP threads

Minimization stats:
  Stopping criterion = energy tolerance
  Energy initial, next-to-last, final = 
     -1152448.95264154  -1152448.95495301  -1152448.95495301
  Force two-norm initial, final = 0.21630214 0.00018212744
  Force max component initial, final = 0.10556139 4.3714489e-05
  Final line search alpha, max atom move = 1.0000000 4.3714489e-05
  Iterations, force evaluations = 178 356

MPI task timing breakdown:
Section |  min time  |  avg time  |  max time  |%varavg| %total
---------------------------------------------------------------
Pair    | 0.54508    | 1.4957     | 1.9473     |  32.9 | 72.75
Neigh   | 0          | 0          | 0          |   0.0 |  0.00
Comm    | 0.032888   | 0.33505    | 1.0196     |  49.2 | 16.30
Output  | 0          | 0          | 0          |   0.0 |  0.00
Modify  | 2.1305e-05 | 0.0029346  | 0.0063421  |   2.6 |  0.14
Other   |            | 0.2223     |            |       | 10.81

Nlocal:        2776.45 ave        3958 max           0 min
Histogram: 8 4 4 0 4 12 8 2 28 34
Nghost:        3879.09 ave        5424 max         232 min
Histogram: 8 0 8 0 16 0 8 8 16 40
Neighs:        79213.5 ave      115358 max           0 min
Histogram: 8 4 4 0 10 6 8 8 24 32

Total # of neighbors = 8238204
Ave neighs/atom = 28.530478
Neighbor list builds = 0
Dangerous builds = 0
The dot product: 1.43855225516309e-07
Setting atom values ...
  1 settings made for x
  1 settings made for y
  1 settings made for z
Setting up cg style minimization ...
  Unit style    : metal
  Current step  : 1992
Per MPI rank memory allocation (min/avg/max) = 5.441 | 5.816 | 6.074 Mbytes
Step PotEng KinEng TotEng v_fx v_fy v_fz 
    1992   -1152448.9            0   -1152448.9  0.077451596  0.038810422 0.0094516636 
    2000     -1152449            0     -1152449 0.0043308416 -0.00017192128 0.00069665127 
    2170     -1152449            0     -1152449 -1.0056193e-05 -8.5416547e-07 -1.5276377e-06 
Loop time of 2.07588 on 104 procs for 178 steps with 288751 atoms

99.9% CPU use with 104 MPI tasks x 1 OpenMP threads

Minimization stats:
  Stopping criterion = energy tolerance
  Energy initial, next-to-last, final = 
     -1152448.94871656  -1152448.95095703  -1152448.95095703
  Force two-norm initial, final = 0.21545157 0.00014604735
  Force max component initial, final = 0.10255728 2.7929928e-05
  Final line search alpha, max atom move = 1.0000000 2.7929928e-05
  Iterations, force evaluations = 178 356

MPI task timing breakdown:
Section |  min time  |  avg time  |  max time  |%varavg| %total
---------------------------------------------------------------
Pair    | 0.54808    | 1.4993     | 1.9651     |  32.9 | 72.22
Neigh   | 0          | 0          | 0          |   0.0 |  0.00
Comm    | 0.036491   | 0.33978    | 1.0172     |  48.6 | 16.37
Output  | 0.00016062 | 0.0001624  | 0.00022254 |   0.0 |  0.01
Modify  | 2.1478e-05 | 0.002928   | 0.0062643  |   2.6 |  0.14
Other   |            | 0.2337     |            |       | 11.26

Nlocal:        2776.45 ave        3959 max           0 min
Histogram: 8 4 4 0 4 12 8 2 28 34
Nghost:        3879.09 ave        5424 max         232 min
Histogram: 8 0 8 0 16 0 8 8 16 40
Neighs:        79213.5 ave      115395 max           0 min
Histogram: 8 4 4 0 10 6 8 8 24 32

Total # of neighbors = 8238200
Ave neighs/atom = 28.530464
Neighbor list builds = 0
Dangerous builds = 0
The dot product: -7.95830357563791e-08
Setting atom values ...
  1 settings made for x
  1 settings made for y
  1 settings made for z
Setting up cg style minimization ...
  Unit style    : metal
  Current step  : 2170
Per MPI rank memory allocation (min/avg/max) = 5.441 | 5.816 | 6.074 Mbytes
Step PotEng KinEng TotEng v_fx v_fy v_fz 
    2170   -1152448.9            0   -1152448.9  0.081622008  0.040050716 0.0066228588 
    2352   -1152448.9            0   -1152448.9 9.7719516e-07 6.6288964e-07 6.3723905e-08 
Loop time of 2.11789 on 104 procs for 182 steps with 288751 atoms

99.9% CPU use with 104 MPI tasks x 1 OpenMP threads

Minimization stats:
  Stopping criterion = energy tolerance
  Energy initial, next-to-last, final = 
     -1152448.94400839  -1152448.94621731  -1152448.94621731
  Force two-norm initial, final = 0.21379571 0.00011702677
  Force max component initial, final = 0.098589357 1.1513809e-05
  Final line search alpha, max atom move = 1.0000000 1.1513809e-05
  Iterations, force evaluations = 182 364

MPI task timing breakdown:
Section |  min time  |  avg time  |  max time  |%varavg| %total
---------------------------------------------------------------
Pair    | 0.55489    | 1.5246     | 1.9992     |  33.3 | 71.99
Neigh   | 0          | 0          | 0          |   0.0 |  0.00
Comm    | 0.032448   | 0.34291    | 1.0291     |  49.4 | 16.19
Output  | 0          | 0          | 0          |   0.0 |  0.00
Modify  | 2.2091e-05 | 0.0029942  | 0.0063966  |   2.6 |  0.14
Other   |            | 0.2474     |            |       | 11.68

Nlocal:        2776.45 ave        3959 max           0 min
Histogram: 8 4 4 0 4 12 8 2 28 34
Nghost:        3879.12 ave        5424 max         232 min
Histogram: 8 0 8 0 16 0 8 8 16 40
Neighs:        79213.5 ave      115405 max           0 min
Histogram: 8 4 4 0 10 6 8 8 24 32

Total # of neighbors = 8238209
Ave neighs/atom = 28.530495
Neighbor list builds = 0
Dangerous builds = 0
The dot product: 1.00500608286414e-08
Setting atom values ...
  1 settings made for x
  1 settings made for y
  1 settings made for z
Setting up cg style minimization ...
  Unit style    : metal
  Current step  : 2352
Per MPI rank memory allocation (min/avg/max) = 5.441 | 5.816 | 6.074 Mbytes
Step PotEng KinEng TotEng v_fx v_fy v_fz 
    2352   -1152448.9            0   -1152448.9  0.084354848  0.040786677 0.0034586488 
    2517   -1152448.9            0   -1152448.9 3.8439183e-05 4.8691993e-06 2.9091541e-06 
Loop time of 1.91328 on 104 procs for 165 steps with 288751 atoms

99.9% CPU use with 104 MPI tasks x 1 OpenMP threads

Minimization stats:
  Stopping criterion = energy tolerance
  Energy initial, next-to-last, final = 
     -1152448.93860704  -1152448.94069921  -1152448.94069921
  Force two-norm initial, final = 0.21164453 0.00017888123
  Force max component initial, final = 0.094206298 6.5135636e-05
  Final line search alpha, max atom move = 1.0000000 6.5135636e-05
  Iterations, force evaluations = 165 330

MPI task timing breakdown:
Section |  min time  |  avg time  |  max time  |%varavg| %total
---------------------------------------------------------------
Pair    | 0.50603    | 1.3878     | 1.8088     |  31.6 | 72.53
Neigh   | 0          | 0          | 0          |   0.0 |  0.00
Comm    | 0.033669   | 0.30998    | 0.93591    |  47.5 | 16.20
Output  | 0          | 0          | 0          |   0.0 |  0.00
Modify  | 2.0089e-05 | 0.0027119  | 0.0058106  |   2.5 |  0.14
Other   |            | 0.2128     |            |       | 11.12

Nlocal:        2776.45 ave        3959 max           0 min
Histogram: 8 4 4 0 4 12 8 2 28 34
Nghost:        3879.12 ave        5424 max         232 min
Histogram: 8 0 8 0 16 0 8 8 16 40
Neighs:        79213.5 ave      115405 max           0 min
Histogram: 8 4 4 0 10 6 8 8 24 32

Total # of neighbors = 8238204
Ave neighs/atom = 28.530478
Neighbor list builds = 0
Dangerous builds = 0
The dot product: 2.95802347367461e-07
Setting atom values ...
  1 settings made for x
  1 settings made for y
  1 settings made for z
Setting up cg style minimization ...
  Unit style    : metal
  Current step  : 2517
Per MPI rank memory allocation (min/avg/max) = 5.441 | 5.816 | 6.074 Mbytes
Step PotEng KinEng TotEng v_fx v_fy v_fz 
    2517   -1152448.9            0   -1152448.9   0.08443559  0.041842142 0.00042196634 
    2732   -1152448.9            0   -1152448.9 -1.3173253e-05 -1.8951488e-06 -5.796766e-07 
Loop time of 2.49473 on 104 procs for 215 steps with 288751 atoms

99.9% CPU use with 104 MPI tasks x 1 OpenMP threads

Minimization stats:
  Stopping criterion = energy tolerance
  Energy initial, next-to-last, final = 
     -1152448.93234153  -1152448.93434724  -1152448.93434724
  Force two-norm initial, final = 0.20930645 4.9890244e-05
  Force max component initial, final = 0.090388501 1.8341705e-05
  Final line search alpha, max atom move = 1.0000000 1.8341705e-05
  Iterations, force evaluations = 215 430

MPI task timing breakdown:
Section |  min time  |  avg time  |  max time  |%varavg| %total
---------------------------------------------------------------
Pair    | 0.66003    | 1.8013     | 2.3529     |  36.1 | 72.20
Neigh   | 0          | 0          | 0          |   0.0 |  0.00
Comm    | 0.040213   | 0.40311    | 1.2155     |  53.7 | 16.16
Output  | 0          | 0          | 0          |   0.0 |  0.00
Modify  | 2.6703e-05 | 0.0035432  | 0.0075868  |   2.8 |  0.14
Other   |            | 0.2868     |            |       | 11.50

Nlocal:        2776.45 ave        3959 max           0 min
Histogram: 8 4 4 0 4 12 8 2 28 34
Nghost:        3879.11 ave        5424 max         232 min
Histogram: 8 0 8 0 16 0 8 8 16 40
Neighs:        79213.5 ave      115405 max           0 min
Histogram: 8 4 4 0 10 6 8 8 24 32

Total # of neighbors = 8238201
Ave neighs/atom = 28.530467
Neighbor list builds = 0
Dangerous builds = 0
The dot product: -9.03847408382862e-08
Setting atom values ...
  1 settings made for x
  1 settings made for y
  1 settings made for z
Setting up cg style minimization ...
  Unit style    : metal
  Current step  : 2732
Per MPI rank memory allocation (min/avg/max) = 5.441 | 5.816 | 6.074 Mbytes
Step PotEng KinEng TotEng v_fx v_fy v_fz 
    2732   -1152448.9            0   -1152448.9  0.083570697  0.038303778 -0.0016928153 
    2892   -1152448.9            0   -1152448.9 3.2321437e-06 1.3430748e-06 -4.8049393e-08 
Loop time of 1.8646 on 104 procs for 160 steps with 288751 atoms

99.9% CPU use with 104 MPI tasks x 1 OpenMP threads

Minimization stats:
  Stopping criterion = energy tolerance
  Energy initial, next-to-last, final = 
     -1152448.92514429  -1152448.92704998  -1152448.92704998
  Force two-norm initial, final = 0.20595694 0.00016582461
  Force max component initial, final = 0.086870841 6.1935394e-06
  Final line search alpha, max atom move = 1.0000000 6.1935394e-06
  Iterations, force evaluations = 160 320

MPI task timing breakdown:
Section |  min time  |  avg time  |  max time  |%varavg| %total
---------------------------------------------------------------
Pair    | 0.49024    | 1.3462     | 1.7677     |  31.2 | 72.20
Neigh   | 0          | 0          | 0          |   0.0 |  0.00
Comm    | 0.028841   | 0.3018     | 0.90352    |  46.6 | 16.19
Output  | 0          | 0          | 0          |   0.0 |  0.00
Modify  | 1.9564e-05 | 0.0026342  | 0.005664   |   2.4 |  0.14
Other   |            | 0.214      |            |       | 11.48

Nlocal:        2776.45 ave        3960 max           0 min
Histogram: 8 4 4 0 4 12 8 2 28 34
Nghost:        3879.12 ave        5424 max         232 min
Histogram: 8 0 8 0 16 0 8 8 16 40
Neighs:        79213.5 ave      115446 max           0 min
Histogram: 8 4 4 0 10 6 8 8 24 32

Total # of neighbors = 8238200
Ave neighs/atom = 28.530464
Neighbor list builds = 0
Dangerous builds = 0
The dot product: 2.24163718513655e-08
Setting atom values ...
  1 settings made for x
  1 settings made for y
  1 settings made for z
Setting up cg style minimization ...
  Unit style    : metal
  Current step  : 2892
Per MPI rank memory allocation (min/avg/max) = 5.441 | 5.816 | 6.074 Mbytes
Step PotEng KinEng TotEng v_fx v_fy v_fz 
    2892   -1152448.9            0   -1152448.9  0.082884131  0.028215496 -0.0023101011 
    3000   -1152448.9            0   -1152448.9 -0.00024847499 -4.7179029e-05 1.8069874e-06 
    3094   -1152448.9            0   -1152448.9 -2.3092531e-05 -4.3616423e-06 1.647839e-07 
Loop time of 2.34364 on 104 procs for 202 steps with 288751 atoms

99.9% CPU use with 104 MPI tasks x 1 OpenMP threads

Minimization stats:
  Stopping criterion = energy tolerance
  Energy initial, next-to-last, final = 
     -1152448.91668204  -1152448.91855425  -1152448.91855425
  Force two-norm initial, final = 0.20255733 6.6112134e-05
  Force max component initial, final = 0.084206471 2.3371870e-05
  Final line search alpha, max atom move = 1.0000000 2.3371870e-05
  Iterations, force evaluations = 202 404

MPI task timing breakdown:
Section |  min time  |  avg time  |  max time  |%varavg| %total
---------------------------------------------------------------
Pair    | 0.61758    | 1.6907     | 2.2092     |  35.0 | 72.14
Neigh   | 0          | 0          | 0          |   0.0 |  0.00
Comm    | 0.039132   | 0.37858    | 1.1394     |  52.1 | 16.15
Output  | 0.00011044 | 0.00011673 | 0.00023078 |   0.0 |  0.00
Modify  | 2.4873e-05 | 0.0033293  | 0.007137   |   2.7 |  0.14
Other   |            | 0.271      |            |       | 11.56

Nlocal:        2776.45 ave        3960 max           0 min
Histogram: 8 4 4 0 4 12 8 2 28 34
Nghost:        3879.12 ave        5424 max         232 min
Histogram: 8 0 8 0 16 0 8 8 16 40
Neighs:        79213.4 ave      115446 max           0 min
Histogram: 8 4 4 0 10 6 8 8 24 32

Total # of neighbors = 8238198
Ave neighs/atom = 28.530457
Neighbor list builds = 0
Dangerous builds = 0
The dot product: -1.1903421388323e-07
Setting atom values ...
  1 settings made for x
  1 settings made for y
  1 settings made for z
Setting up cg style minimization ...
  Unit style    : metal
  Current step  : 3094
Per MPI rank memory allocation (min/avg/max) = 5.441 | 5.816 | 6.074 Mbytes
Step PotEng KinEng TotEng v_fx v_fy v_fz 
    3094   -1152448.9            0   -1152448.9  0.082444227  0.021467065 -0.0027575161 
    3270   -1152448.9            0   -1152448.9 -4.5129866e-06 9.4259321e-07 -1.4760901e-07 
Loop time of 2.08393 on 104 procs for 176 steps with 288751 atoms

99.9% CPU use with 104 MPI tasks x 1 OpenMP threads

Minimization stats:
  Stopping criterion = energy tolerance
  Energy initial, next-to-last, final = 
      -1152448.9068502  -1152448.90871522  -1152448.90871522
  Force two-norm initial, final = 0.20074735 0.00011249708
  Force max component initial, final = 0.082788471 6.7284622e-06
  Final line search alpha, max atom move = 1.0000000 6.7284622e-06
  Iterations, force evaluations = 176 352

MPI task timing breakdown:
Section |  min time  |  avg time  |  max time  |%varavg| %total
---------------------------------------------------------------
Pair    | 0.54015    | 1.4888     | 1.9619     |  32.8 | 71.44
Neigh   | 0          | 0          | 0          |   0.0 |  0.00
Comm    | 0.037099   | 0.34016    | 0.99674    |  47.9 | 16.32
Output  | 0          | 0          | 0          |   0.0 |  0.00
Modify  | 2.1338e-05 | 0.0028986  | 0.0062114  |   2.5 |  0.14
Other   |            | 0.2521     |            |       | 12.10

Nlocal:        2776.45 ave        3959 max           0 min
Histogram: 8 4 4 0 4 12 8 2 28 34
Nghost:        3879.11 ave        5424 max         232 min
Histogram: 8 0 8 0 16 0 8 8 16 40
Neighs:        79213.4 ave      115415 max           0 min
Histogram: 8 4 4 0 10 6 8 8 24 32

Total # of neighbors = 8238198
Ave neighs/atom = 28.530457
Neighbor list builds = 0
Dangerous builds = 0
The dot product: -1.93390949194692e-08
Setting atom values ...
  1 settings made for x
  1 settings made for y
  1 settings made for z
Setting up cg style minimization ...
  Unit style    : metal
  Current step  : 3270
Per MPI rank memory allocation (min/avg/max) = 5.441 | 5.816 | 6.074 Mbytes
Step PotEng KinEng TotEng v_fx v_fy v_fz 
    3270   -1152448.9            0   -1152448.9  0.082078529  0.017742941 -0.0032936273 
    3440   -1152448.9            0   -1152448.9 4.8990307e-05 8.3655002e-06 -1.6511098e-06 
Loop time of 1.9834 on 104 procs for 170 steps with 288751 atoms

99.9% CPU use with 104 MPI tasks x 1 OpenMP threads

Minimization stats:
  Stopping criterion = energy tolerance
  Energy initial, next-to-last, final = 
     -1152448.89565488  -1152448.89752191  -1152448.89752191
  Force two-norm initial, final = 0.19968578 0.00013939291
  Force max component initial, final = 0.083785375 4.9944179e-05
  Final line search alpha, max atom move = 1.0000000 4.9944179e-05
  Iterations, force evaluations = 170 340

MPI task timing breakdown:
Section |  min time  |  avg time  |  max time  |%varavg| %total
---------------------------------------------------------------
Pair    | 0.52064    | 1.4287     | 1.8757     |  32.2 | 72.03
Neigh   | 0          | 0          | 0          |   0.0 |  0.00
Comm    | 0.030022   | 0.32237    | 0.9697     |  47.9 | 16.25
Output  | 0          | 0          | 0          |   0.0 |  0.00
Modify  | 2.0679e-05 | 0.002798   | 0.005969   |   2.5 |  0.14
Other   |            | 0.2295     |            |       | 11.57

Nlocal:        2776.45 ave        3960 max           0 min
Histogram: 8 4 4 0 4 12 8 2 28 34
Nghost:        3879.09 ave        5424 max         232 min
Histogram: 8 0 8 0 16 0 8 8 16 40
Neighs:        79213.5 ave      115443 max           0 min
Histogram: 8 4 4 0 10 6 8 8 24 32

Total # of neighbors = 8238200
Ave neighs/atom = 28.530464
Neighbor list builds = 0
Dangerous builds = 0
The dot product: 1.64357637826765e-07
Setting atom values ...
  1 settings made for x
  1 settings made for y
  1 settings made for z
Setting up cg style minimization ...
  Unit style    : metal
  Current step  : 3440
Per MPI rank memory allocation (min/avg/max) = 5.441 | 5.816 | 6.074 Mbytes
Step PotEng KinEng TotEng v_fx v_fy v_fz 
    3440   -1152448.9            0   -1152448.9  0.081025818  0.015042088 -0.0036614608 
    3615   -1152448.9            0   -1152448.9 -3.2437752e-05 -3.7732855e-06 1.1495579e-06 
Loop time of 2.07669 on 104 procs for 175 steps with 288751 atoms

99.9% CPU use with 104 MPI tasks x 1 OpenMP threads

Minimization stats:
  Stopping criterion = energy tolerance
  Energy initial, next-to-last, final = 
     -1152448.88312742  -1152448.88504669  -1152448.88504669
  Force two-norm initial, final = 0.19888178 0.00018842574
  Force max component initial, final = 0.085296398 7.0067091e-05
  Final line search alpha, max atom move = 1.0000000 7.0067091e-05
  Iterations, force evaluations = 175 350

MPI task timing breakdown:
Section |  min time  |  avg time  |  max time  |%varavg| %total
---------------------------------------------------------------
Pair    | 0.53569    | 1.4767     | 1.9413     |  32.7 | 71.11
Neigh   | 0          | 0          | 0          |   0.0 |  0.00
Comm    | 0.037324   | 0.33655    | 1.021      |  48.2 | 16.21
Output  | 0          | 0          | 0          |   0.0 |  0.00
Modify  | 2.1533e-05 | 0.0028806  | 0.0061632  |   2.5 |  0.14
Other   |            | 0.2605     |            |       | 12.55

Nlocal:        2776.45 ave        3960 max           0 min
Histogram: 8 4 4 0 4 12 8 2 28 34
Nghost:        3879.11 ave        5425 max         232 min
Histogram: 8 0 8 0 16 0 8 8 16 40
Neighs:        79213.4 ave      115443 max           0 min
Histogram: 8 4 4 0 10 6 8 8 24 32

Total # of neighbors = 8238197
Ave neighs/atom = 28.530454
Neighbor list builds = 0
Dangerous builds = 0
The dot product: 1.77967558689462e-10
Setting atom values ...
  1 settings made for x
  1 settings made for y
  1 settings made for z
Setting up cg style minimization ...
  Unit style    : metal
  Current step  : 3615
Per MPI rank memory allocation (min/avg/max) = 5.441 | 5.816 | 6.074 Mbytes
Step PotEng KinEng TotEng v_fx v_fy v_fz 
    3615   -1152448.9            0   -1152448.9  0.075837513  0.013364544 -0.0033194696 
    3776   -1152448.9            0   -1152448.9 7.0866715e-06 1.5945024e-06 -3.5835008e-07 
Loop time of 1.87315 on 104 procs for 161 steps with 288751 atoms

99.9% CPU use with 104 MPI tasks x 1 OpenMP threads

Minimization stats:
  Stopping criterion = energy tolerance
  Energy initial, next-to-last, final = 
     -1152448.86951331     -1152448.87207     -1152448.87207
  Force two-norm initial, final = 0.19721303 7.1486715e-05
  Force max component initial, final = 0.085910696 1.2517387e-05
  Final line search alpha, max atom move = 1.0000000 1.2517387e-05
  Iterations, force evaluations = 161 322

MPI task timing breakdown:
Section |  min time  |  avg time  |  max time  |%varavg| %total
---------------------------------------------------------------
Pair    | 0.4928     | 1.3553     | 1.764      |  31.4 | 72.36
Neigh   | 0          | 0          | 0          |   0.0 |  0.00
Comm    | 0.028736   | 0.30248    | 0.92271    |  47.1 | 16.15
Output  | 0          | 0          | 0          |   0.0 |  0.00
Modify  | 1.9746e-05 | 0.0026541  | 0.0057321  |   2.4 |  0.14
Other   |            | 0.2127     |            |       | 11.35

Nlocal:        2776.45 ave        3960 max           0 min
Histogram: 8 4 4 0 4 12 8 2 28 34
Nghost:        3879.15 ave        5425 max         232 min
Histogram: 8 0 8 0 16 0 8 8 16 40
Neighs:        79213.4 ave      115441 max           0 min
Histogram: 8 4 4 0 10 6 8 8 24 32

Total # of neighbors = 8238194
Ave neighs/atom = 28.530443
Neighbor list builds = 0
Dangerous builds = 0
The dot product: -1.25299494586402e-07
Setting atom values ...
  1 settings made for x
  1 settings made for y
  1 settings made for z
Setting up cg style minimization ...
  Unit style    : metal
  Current step  : 3776
Per MPI rank memory allocation (min/avg/max) = 5.441 | 5.816 | 6.074 Mbytes
Step PotEng KinEng TotEng v_fx v_fy v_fz 
    3776   -1152448.9            0   -1152448.9  0.049928373  0.013574367 -0.00062356747 
    3991   -1152448.9            0   -1152448.9 -1.0025433e-06 -4.7182261e-07 3.9817384e-08 
Loop time of 2.51642 on 104 procs for 215 steps with 288751 atoms

99.9% CPU use with 104 MPI tasks x 1 OpenMP threads

Minimization stats:
  Stopping criterion = energy tolerance
  Energy initial, next-to-last, final = 
     -1152448.85634351  -1152448.85864317  -1152448.85864317
  Force two-norm initial, final = 0.1928532 8.0492084e-05
  Force max component initial, final = 0.085608131 4.9071695e-06
  Final line search alpha, max atom move = 1.0000000 4.9071695e-06
  Iterations, force evaluations = 215 430

MPI task timing breakdown:
Section |  min time  |  avg time  |  max time  |%varavg| %total
---------------------------------------------------------------
Pair    | 0.65972    | 1.8051     | 2.3767     |  36.0 | 71.73
Neigh   | 0          | 0          | 0          |   0.0 |  0.00
Comm    | 0.040599   | 0.40552    | 1.2023     |  53.4 | 16.12
Output  | 0          | 0          | 0          |   0.0 |  0.00
Modify  | 2.591e-05  | 0.0035329  | 0.0075915  |   2.8 |  0.14
Other   |            | 0.3022     |            |       | 12.01

Nlocal:        2776.45 ave        3960 max           0 min
Histogram: 8 4 4 0 4 12 8 2 28 34
Nghost:        3879.12 ave        5425 max         232 min
Histogram: 8 0 8 0 16 0 8 8 16 40
Neighs:        79213.4 ave      115440 max           0 min
Histogram: 8 4 4 0 10 6 8 8 24 32

Total # of neighbors = 8238193
Ave neighs/atom = 28.530440
Neighbor list builds = 0
Dangerous builds = 0
The dot product: 1.46464999714287e-08
Setting atom values ...
  1 settings made for x
  1 settings made for y
  1 settings made for z
Setting up cg style minimization ...
  Unit style    : metal
  Current step  : 3991
Per MPI rank memory allocation (min/avg/max) = 5.441 | 5.816 | 6.074 Mbytes
Step PotEng KinEng TotEng v_fx v_fy v_fz 
    3991   -1152448.8            0   -1152448.8  0.055803662  0.011931485 0.0016487138 
    4000   -1152448.8            0   -1152448.8 -0.0030943522 -0.00028172244 -0.00014205332 
    4164   -1152448.8            0   -1152448.8 -2.4368872e-05 -6.8263642e-06 -5.0459552e-07 
Loop time of 2.00101 on 104 procs for 173 steps with 288751 atoms

99.9% CPU use with 104 MPI tasks x 1 OpenMP threads

Minimization stats:
  Stopping criterion = energy tolerance
  Energy initial, next-to-last, final = 
     -1152448.84172584   -1152448.8437947   -1152448.8437947
  Force two-norm initial, final = 0.197189 0.00020490058
  Force max component initial, final = 0.089904667 2.4368872e-05
  Final line search alpha, max atom move = 1.0000000 2.4368872e-05
  Iterations, force evaluations = 173 346

MPI task timing breakdown:
Section |  min time  |  avg time  |  max time  |%varavg| %total
---------------------------------------------------------------
Pair    | 0.52683    | 1.4492     | 1.8951     |  32.4 | 72.43
Neigh   | 0          | 0          | 0          |   0.0 |  0.00
Comm    | 0.030478   | 0.32326    | 0.97839    |  48.5 | 16.15
Output  | 9.1733e-05 | 0.00010166 | 0.00017158 |   0.0 |  0.01
Modify  | 2.0713e-05 | 0.0028522  | 0.0061047  |   2.5 |  0.14
Other   |            | 0.2256     |            |       | 11.27

Nlocal:        2776.45 ave        3960 max           0 min
Histogram: 8 4 4 0 4 12 8 2 28 34
Nghost:        3879.18 ave        5425 max         232 min
Histogram: 8 0 8 0 16 0 8 8 16 40
Neighs:        79213.4 ave      115440 max           0 min
Histogram: 8 4 4 0 10 6 8 8 24 32

Total # of neighbors = 8238192
Ave neighs/atom = 28.530436
Neighbor list builds = 0
Dangerous builds = 0
The dot product: 2.72372240009094e-07
Setting atom values ...
  1 settings made for x
  1 settings made for y
  1 settings made for z
Setting up cg style minimization ...
  Unit style    : metal
  Current step  : 4164
Per MPI rank memory allocation (min/avg/max) = 5.441 | 5.816 | 6.074 Mbytes
Step PotEng KinEng TotEng v_fx v_fy v_fz 
    4164   -1152448.8            0   -1152448.8  0.060980314 0.0093460997 0.0038129568 
    4345   -1152448.8            0   -1152448.8 -2.2110374e-05 -1.3558393e-06 -1.6423627e-06 
Loop time of 2.09984 on 104 procs for 181 steps with 288751 atoms

99.9% CPU use with 104 MPI tasks x 1 OpenMP threads

Minimization stats:
  Stopping criterion = energy tolerance
  Energy initial, next-to-last, final = 
     -1152448.82552531  -1152448.82768115  -1152448.82768115
  Force two-norm initial, final = 0.20059263 0.00016908228
  Force max component initial, final = 0.094278092 6.0370354e-05
  Final line search alpha, max atom move = 1.0000000 6.0370354e-05
  Iterations, force evaluations = 181 362

MPI task timing breakdown:
Section |  min time  |  avg time  |  max time  |%varavg| %total
---------------------------------------------------------------
Pair    | 0.55219    | 1.5233     | 1.9853     |  33.2 | 72.55
Neigh   | 0          | 0          | 0          |   0.0 |  0.00
Comm    | 0.033598   | 0.34035    | 1.0341     |  49.7 | 16.21
Output  | 0          | 0          | 0          |   0.0 |  0.00
Modify  | 2.2847e-05 | 0.0029743  | 0.006369   |   2.6 |  0.14
Other   |            | 0.2332     |            |       | 11.10

Nlocal:        2776.45 ave        3960 max           0 min
Histogram: 8 4 4 0 4 12 8 2 28 34
Nghost:        3879.20 ave        5425 max         232 min
Histogram: 8 0 8 0 16 0 8 8 16 40
Neighs:        79213.4 ave      115433 max           0 min
Histogram: 8 4 4 0 10 6 8 8 24 32

Total # of neighbors = 8238191
Ave neighs/atom = 28.530433
Neighbor list builds = 0
Dangerous builds = 0
The dot product: 2.05394379967879e-07
Setting atom values ...
  1 settings made for x
  1 settings made for y
  1 settings made for z
Setting up cg style minimization ...
  Unit style    : metal
  Current step  : 4345
Per MPI rank memory allocation (min/avg/max) = 5.441 | 5.816 | 6.074 Mbytes
Step PotEng KinEng TotEng v_fx v_fy v_fz 
    4345   -1152448.8            0   -1152448.8  0.063813917  0.007932223 0.0055505152 
    4502   -1152448.8            0   -1152448.8 -7.1113147e-05 -1.0987474e-05 -5.9235849e-06 
Loop time of 1.82488 on 104 procs for 157 steps with 288751 atoms

99.9% CPU use with 104 MPI tasks x 1 OpenMP threads

Minimization stats:
  Stopping criterion = energy tolerance
  Energy initial, next-to-last, final = 
     -1152448.80813394  -1152448.81015189  -1152448.81015189
  Force two-norm initial, final = 0.20308039 0.00024957755
  Force max component initial, final = 0.097968147 0.00010426869
  Final line search alpha, max atom move = 1.0000000 0.00010426869
  Iterations, force evaluations = 157 314

MPI task timing breakdown:
Section |  min time  |  avg time  |  max time  |%varavg| %total
---------------------------------------------------------------
Pair    | 0.48034    | 1.3157     | 1.7272     |  30.8 | 72.10
Neigh   | 0          | 0          | 0          |   0.0 |  0.00
Comm    | 0.028466   | 0.29447    | 0.88356    |  45.9 | 16.14
Output  | 0          | 0          | 0          |   0.0 |  0.00
Modify  | 1.886e-05  | 0.0025854  | 0.0055452  |   2.4 |  0.14
Other   |            | 0.2121     |            |       | 11.62

Nlocal:        2776.45 ave        3960 max           0 min
Histogram: 8 4 4 0 4 12 8 2 28 34
Nghost:        3879.20 ave        5425 max         232 min
Histogram: 8 0 8 0 16 0 8 8 16 40
Neighs:        79213.4 ave      115433 max           0 min
Histogram: 8 4 4 0 10 6 8 8 24 32

Total # of neighbors = 8238191
Ave neighs/atom = 28.530433
Neighbor list builds = 0
Dangerous builds = 0
The dot product: 3.6573352559271e-07
Setting atom values ...
  1 settings made for x
  1 settings made for y
  1 settings made for z
Setting up cg style minimization ...
  Unit style    : metal
  Current step  : 4502
Per MPI rank memory allocation (min/avg/max) = 5.441 | 5.816 | 6.074 Mbytes
Step PotEng KinEng TotEng v_fx v_fy v_fz 
    4502   -1152448.8            0   -1152448.8  0.072028781 0.0084471305 0.0070943336 
    4673   -1152448.8            0   -1152448.8 -4.4257732e-05 -8.6191051e-06 -3.9559861e-06 
Loop time of 2.0125 on 104 procs for 171 steps with 288751 atoms

99.9% CPU use with 104 MPI tasks x 1 OpenMP threads

Minimization stats:
  Stopping criterion = energy tolerance
  Energy initial, next-to-last, final = 
     -1152448.78921705  -1152448.79118916  -1152448.79118916
  Force two-norm initial, final = 0.20655549 0.00013084789
  Force max component initial, final = 0.099852917 4.9451560e-05
  Final line search alpha, max atom move = 1.0000000 4.9451560e-05
  Iterations, force evaluations = 171 342

MPI task timing breakdown:
Section |  min time  |  avg time  |  max time  |%varavg| %total
---------------------------------------------------------------
Pair    | 0.52362    | 1.4442     | 1.903      |  32.4 | 71.76
Neigh   | 0          | 0          | 0          |   0.0 |  0.00
Comm    | 0.033533   | 0.32913    | 0.97203    |  47.6 | 16.35
Output  | 0          | 0          | 0          |   0.0 |  0.00
Modify  | 2.0651e-05 | 0.0028261  | 0.0061084  |   2.5 |  0.14
Other   |            | 0.2364     |            |       | 11.74

Nlocal:        2776.45 ave        3960 max           0 min
Histogram: 8 4 4 0 4 12 8 2 28 34
Nghost:        3879.12 ave        5424 max         232 min
Histogram: 8 0 8 0 16 0 8 8 16 40
Neighs:        79213.4 ave      115426 max           0 min
Histogram: 8 4 4 0 10 6 8 8 24 32

Total # of neighbors = 8238191
Ave neighs/atom = 28.530433
Neighbor list builds = 0
Dangerous builds = 0
The dot product: 7.76218118271632e-08
Setting atom values ...
  1 settings made for x
  1 settings made for y
  1 settings made for z
Setting up cg style minimization ...
  Unit style    : metal
  Current step  : 4673
Per MPI rank memory allocation (min/avg/max) = 5.441 | 5.816 | 6.074 Mbytes
Step PotEng KinEng TotEng v_fx v_fy v_fz 
    4673   -1152448.8            0   -1152448.8  0.078792748 0.0085969337 0.0080911418 
    4837   -1152448.8            0   -1152448.8 1.9565751e-05 3.3019237e-06 1.8761444e-06 
Loop time of 1.90081 on 104 procs for 164 steps with 288751 atoms

99.9% CPU use with 104 MPI tasks x 1 OpenMP threads

Minimization stats:
  Stopping criterion = energy tolerance
  Energy initial, next-to-last, final = 
     -1152448.76882976  -1152448.77071597  -1152448.77071597
  Force two-norm initial, final = 0.20903754 0.0001200097
  Force max component initial, final = 0.10047718 1.9565751e-05
  Final line search alpha, max atom move = 1.0000000 1.9565751e-05
  Iterations, force evaluations = 164 328

MPI task timing breakdown:
Section |  min time  |  avg time  |  max time  |%varavg| %total
---------------------------------------------------------------
Pair    | 0.50202    | 1.3758     | 1.8012     |  31.6 | 72.38
Neigh   | 0          | 0          | 0          |   0.0 |  0.00
Comm    | 0.030807   | 0.30782    | 0.92374    |  46.9 | 16.19
Output  | 0          | 0          | 0          |   0.0 |  0.00
Modify  | 2.048e-05  | 0.0027032  | 0.0057669  |   2.5 |  0.14
Other   |            | 0.2145     |            |       | 11.28

Nlocal:        2776.45 ave        3960 max           0 min
Histogram: 8 4 4 0 4 12 8 2 28 34
Nghost:        3879.05 ave        5423 max         232 min
Histogram: 8 0 8 0 16 0 8 8 16 40
Neighs:        79213.3 ave      115426 max           0 min
Histogram: 8 4 4 0 10 6 8 8 24 32

Total # of neighbors = 8238188
Ave neighs/atom = 28.530422
Neighbor list builds = 0
Dangerous builds = 0
The dot product: 3.37868337496533e-08
Setting atom values ...
  1 settings made for x
  1 settings made for y
  1 settings made for z
Setting up cg style minimization ...
  Unit style    : metal
  Current step  : 4837
Per MPI rank memory allocation (min/avg/max) = 5.441 | 5.816 | 6.074 Mbytes
Step PotEng KinEng TotEng v_fx v_fy v_fz 
    4837   -1152448.7            0   -1152448.7  0.085358947 0.0082912667 0.0085738287 
    4992   -1152448.7            0   -1152448.7 5.9985596e-05 1.2824516e-05 5.2528227e-06 
Loop time of 1.84519 on 104 procs for 155 steps with 288751 atoms

99.9% CPU use with 104 MPI tasks x 1 OpenMP threads

Minimization stats:
  Stopping criterion = energy tolerance
  Energy initial, next-to-last, final = 
     -1152448.74685458  -1152448.74871463  -1152448.74871463
  Force two-norm initial, final = 0.21090284 0.00016192966
  Force max component initial, final = 0.099799486 6.6097316e-05
  Final line search alpha, max atom move = 1.0000000 6.6097316e-05
  Iterations, force evaluations = 155 310

MPI task timing breakdown:
Section |  min time  |  avg time  |  max time  |%varavg| %total
---------------------------------------------------------------
Pair    | 0.47334    | 1.3064     | 1.7473     |  30.9 | 70.80
Neigh   | 0          | 0          | 0          |   0.0 |  0.00
Comm    | 0.035469   | 0.30248    | 0.8794     |  44.5 | 16.39
Output  | 0          | 0          | 0          |   0.0 |  0.00
Modify  | 1.8713e-05 | 0.0025517  | 0.0054483  |   2.4 |  0.14
Other   |            | 0.2338     |            |       | 12.67

Nlocal:        2776.45 ave        3960 max           0 min
Histogram: 8 4 4 0 4 12 8 2 28 34
Nghost:        3879.01 ave        5423 max         232 min
Histogram: 8 0 8 0 16 0 8 8 16 40
Neighs:        79213.3 ave      115426 max           0 min
Histogram: 8 4 4 0 10 6 8 8 24 32

Total # of neighbors = 8238188
Ave neighs/atom = 28.530422
Neighbor list builds = 0
Dangerous builds = 0
The dot product: 2.29351251743089e-07
Setting atom values ...
  1 settings made for x
  1 settings made for y
  1 settings made for z
Setting up cg style minimization ...
  Unit style    : metal
  Current step  : 4992
Per MPI rank memory allocation (min/avg/max) = 5.441 | 5.816 | 6.074 Mbytes
Step PotEng KinEng TotEng v_fx v_fy v_fz 
    4992   -1152448.7            0   -1152448.7  0.089356446 0.0082975423 0.0083396762 
    5000   -1152448.7            0   -1152448.7 -0.0042619454 0.00057033139 -0.00050080654 
    5148   -1152448.7            0   -1152448.7 -4.5228606e-05 -1.0000576e-05 -3.602539e-06 
Loop time of 1.82252 on 104 procs for 156 steps with 288751 atoms

99.9% CPU use with 104 MPI tasks x 1 OpenMP threads

Minimization stats:
  Stopping criterion = energy tolerance
  Energy initial, next-to-last, final = 
     -1152448.72335652  -1152448.72519425  -1152448.72519425
  Force two-norm initial, final = 0.21140857 0.00015237061
  Force max component initial, final = 0.098251101 5.2421499e-05
  Final line search alpha, max atom move = 1.0000000 5.2421499e-05
  Iterations, force evaluations = 156 312

MPI task timing breakdown:
Section |  min time  |  avg time  |  max time  |%varavg| %total
---------------------------------------------------------------
Pair    | 0.47713    | 1.3134     | 1.7193     |  30.9 | 72.07
Neigh   | 0          | 0          | 0          |   0.0 |  0.00
Comm    | 0.031435   | 0.2947     | 0.8925     |  46.2 | 16.17
Output  | 9.3415e-05 | 9.7356e-05 | 0.00015828 |   0.0 |  0.01
Modify  | 1.9436e-05 | 0.0025716  | 0.0054882  |   2.4 |  0.14
Other   |            | 0.2117     |            |       | 11.62

Nlocal:        2776.45 ave        3960 max           0 min
Histogram: 8 4 4 0 4 12 8 2 28 34
Nghost:        3878.99 ave        5423 max         232 min
Histogram: 8 0 8 0 16 0 8 8 16 40
Neighs:        79213.3 ave      115426 max           0 min
Histogram: 8 4 4 0 10 6 8 8 24 32

Total # of neighbors = 8238185
Ave neighs/atom = 28.530412
Neighbor list builds = 0
Dangerous builds = 0
The dot product: -2.34032452155878e-07
Setting atom values ...
  1 settings made for x
  1 settings made for y
  1 settings made for z
Setting up cg style minimization ...
  Unit style    : metal
  Current step  : 5148
Per MPI rank memory allocation (min/avg/max) = 5.441 | 5.816 | 6.074 Mbytes
Step PotEng KinEng TotEng v_fx v_fy v_fz 
    5148   -1152448.7            0   -1152448.7  0.091309656 0.0089729937 0.0075786555 
    5350   -1152448.7            0   -1152448.7 1.0463742e-05 1.4301419e-06 8.2710841e-07 
Loop time of 2.38659 on 104 procs for 202 steps with 288751 atoms

99.9% CPU use with 104 MPI tasks x 1 OpenMP threads

Minimization stats:
  Stopping criterion = energy tolerance
  Energy initial, next-to-last, final = 
     -1152448.69836315  -1152448.70017099  -1152448.70017099
  Force two-norm initial, final = 0.21077761 4.1153007e-05
  Force max component initial, final = 0.095969259 1.2543127e-05
  Final line search alpha, max atom move = 1.0000000 1.2543127e-05
  Iterations, force evaluations = 202 404

MPI task timing breakdown:
Section |  min time  |  avg time  |  max time  |%varavg| %total
---------------------------------------------------------------
Pair    | 0.61727    | 1.7055     | 2.2301     |  35.0 | 71.46
Neigh   | 0          | 0          | 0          |   0.0 |  0.00
Comm    | 0.039553   | 0.38917    | 1.1483     |  51.2 | 16.31
Output  | 0          | 0          | 0          |   0.0 |  0.00
Modify  | 2.4501e-05 | 0.0033235  | 0.0071117  |   2.7 |  0.14
Other   |            | 0.2886     |            |       | 12.09

Nlocal:        2776.45 ave        3960 max           0 min
Histogram: 8 4 4 0 4 12 8 2 28 34
Nghost:        3878.97 ave        5423 max         232 min
Histogram: 8 0 8 0 16 0 8 8 16 40
Neighs:        79213.3 ave      115426 max           0 min
Histogram: 8 4 4 0 10 6 8 8 24 32

Total # of neighbors = 8238188
Ave neighs/atom = 28.530422
Neighbor list builds = 0
Dangerous builds = 0
The dot product: 6.52565567373208e-08
Setting atom values ...
  1 settings made for x
  1 settings made for y
  1 settings made for z
Setting up cg style minimization ...
  Unit style    : metal
  Current step  : 5350
Per MPI rank memory allocation (min/avg/max) = 5.441 | 5.816 | 6.074 Mbytes
Step PotEng KinEng TotEng v_fx v_fy v_fz 
    5350   -1152448.7            0   -1152448.7  0.092003665   0.01057715 0.0064767499 
    5526   -1152448.7            0   -1152448.7 1.2921864e-05 2.8520485e-06 7.7370346e-07 
Loop time of 2.04553 on 104 procs for 176 steps with 288751 atoms

99.9% CPU use with 104 MPI tasks x 1 OpenMP threads

Minimization stats:
  Stopping criterion = energy tolerance
  Energy initial, next-to-last, final = 
     -1152448.67189503  -1152448.67366718  -1152448.67366718
  Force two-norm initial, final = 0.20965728 7.5724201e-05
  Force max component initial, final = 0.093470102 1.2921864e-05
  Final line search alpha, max atom move = 1.0000000 1.2921864e-05
  Iterations, force evaluations = 176 352

MPI task timing breakdown:
Section |  min time  |  avg time  |  max time  |%varavg| %total
---------------------------------------------------------------
Pair    | 0.53677    | 1.4769     | 1.9378     |  32.8 | 72.20
Neigh   | 0          | 0          | 0          |   0.0 |  0.00
Comm    | 0.03179    | 0.33192    | 1.0058     |  48.8 | 16.23
Output  | 0          | 0          | 0          |   0.0 |  0.00
Modify  | 2.1174e-05 | 0.0028927  | 0.0062062  |   2.5 |  0.14
Other   |            | 0.2339     |            |       | 11.43

Nlocal:        2776.45 ave        3960 max           0 min
Histogram: 8 4 4 0 4 12 8 2 28 34
Nghost:        3878.99 ave        5423 max         232 min
Histogram: 8 0 8 0 16 0 8 8 16 40
Neighs:        79213.3 ave      115426 max           0 min
Histogram: 8 4 4 0 10 6 8 8 24 32

Total # of neighbors = 8238186
Ave neighs/atom = 28.530415
Neighbor list builds = 0
Dangerous builds = 0
The dot product: 8.6744940857246e-08
Setting atom values ...
  1 settings made for x
  1 settings made for y
  1 settings made for z
Setting up cg style minimization ...
  Unit style    : metal
  Current step  : 5526
Per MPI rank memory allocation (min/avg/max) = 5.441 | 5.816 | 6.074 Mbytes
Step PotEng KinEng TotEng v_fx v_fy v_fz 
    5526   -1152448.6            0   -1152448.6  0.091460226  0.013249219 0.0051181798 
    5735   -1152448.6            0   -1152448.6 -1.4437558e-05 -1.95417e-06 -8.211844e-07 
Loop time of 2.44733 on 104 procs for 209 steps with 288751 atoms

99.9% CPU use with 104 MPI tasks x 1 OpenMP threads

Minimization stats:
  Stopping criterion = energy tolerance
  Energy initial, next-to-last, final = 
     -1152448.64398102  -1152448.64571132  -1152448.64571132
  Force two-norm initial, final = 0.2080565 4.6892511e-05
  Force max component initial, final = 0.091460226 2.0540768e-05
  Final line search alpha, max atom move = 1.0000000 2.0540768e-05
  Iterations, force evaluations = 209 418

MPI task timing breakdown:
Section |  min time  |  avg time  |  max time  |%varavg| %total
---------------------------------------------------------------
Pair    | 0.64233    | 1.7577     | 2.3088     |  35.6 | 71.82
Neigh   | 0          | 0          | 0          |   0.0 |  0.00
Comm    | 0.039223   | 0.39605    | 1.1795     |  52.7 | 16.18
Output  | 0          | 0          | 0          |   0.0 |  0.00
Modify  | 2.5212e-05 | 0.003436   | 0.0073811  |   2.8 |  0.14
Other   |            | 0.2901     |            |       | 11.86

Nlocal:        2776.45 ave        3960 max           0 min
Histogram: 8 4 4 0 4 12 8 2 28 34
Nghost:        3878.99 ave        5423 max         232 min
Histogram: 8 0 8 0 16 0 8 8 16 40
Neighs:        79213.3 ave      115419 max           0 min
Histogram: 8 4 4 0 10 6 8 8 24 32

Total # of neighbors = 8238188
Ave neighs/atom = 28.530422
Neighbor list builds = 0
Dangerous builds = 0
The dot product: -1.05888878617907e-07
Setting atom values ...
  1 settings made for x
  1 settings made for y
  1 settings made for z
Setting up cg style minimization ...
  Unit style    : metal
  Current step  : 5735
Per MPI rank memory allocation (min/avg/max) = 5.441 | 5.816 | 6.074 Mbytes
Step PotEng KinEng TotEng v_fx v_fy v_fz 
    5735   -1152448.6            0   -1152448.6  0.089720069  0.017267797 0.0035552096 
    5880   -1152448.6            0   -1152448.6 4.8882565e-05 3.8498523e-06 2.4612444e-06 
Loop time of 1.67923 on 104 procs for 145 steps with 288751 atoms

99.9% CPU use with 104 MPI tasks x 1 OpenMP threads

Minimization stats:
  Stopping criterion = energy tolerance
  Energy initial, next-to-last, final = 
     -1152448.61465427  -1152448.61634008  -1152448.61634008
  Force two-norm initial, final = 0.20617001 0.00025358237
  Force max component initial, final = 0.089720069 6.6347575e-05
  Final line search alpha, max atom move = 1.0000000 6.6347575e-05
  Iterations, force evaluations = 145 290

MPI task timing breakdown:
Section |  min time  |  avg time  |  max time  |%varavg| %total
---------------------------------------------------------------
Pair    | 0.45033    | 1.2161     | 1.5862     |  29.4 | 72.42
Neigh   | 0          | 0          | 0          |   0.0 |  0.00
Comm    | 0.026957   | 0.27106    | 0.81498    |  44.1 | 16.14
Output  | 0          | 0          | 0          |   0.0 |  0.00
Modify  | 1.7301e-05 | 0.0023914  | 0.0051022  |   2.3 |  0.14
Other   |            | 0.1897     |            |       | 11.29

Nlocal:        2776.45 ave        3960 max           0 min
Histogram: 8 4 4 0 4 12 8 2 28 34
Nghost:        3878.99 ave        5423 max         232 min
Histogram: 8 0 8 0 16 0 8 8 16 40
Neighs:        79213.3 ave      115419 max           0 min
Histogram: 8 4 4 0 10 6 8 8 24 32

Total # of neighbors = 8238188
Ave neighs/atom = 28.530422
Neighbor list builds = 0
Dangerous builds = 0
The dot product: 3.80271430092375e-07
Setting atom values ...
  1 settings made for x
  1 settings made for y
  1 settings made for z
Setting up cg style minimization ...
  Unit style    : metal
  Current step  : 5880
Per MPI rank memory allocation (min/avg/max) = 5.441 | 5.816 | 6.074 Mbytes
Step PotEng KinEng TotEng v_fx v_fy v_fz 
    5880   -1152448.6            0   -1152448.6  0.087019283  0.022404928 0.0018666441 
    6000   -1152448.6            0   -1152448.6 -0.00011435157 -9.9751691e-06 -4.2736418e-06 
    6042   -1152448.6            0   -1152448.6 -3.7970331e-05 -3.4215056e-06 -1.40884e-06 
Loop time of 1.90484 on 104 procs for 162 steps with 288751 atoms

99.9% CPU use with 104 MPI tasks x 1 OpenMP threads

Minimization stats:
  Stopping criterion = energy tolerance
  Energy initial, next-to-last, final = 
     -1152448.58396167  -1152448.58560583  -1152448.58560583
  Force two-norm initial, final = 0.20428428 0.00012888544
  Force max component initial, final = 0.087019283 3.7970331e-05
  Final line search alpha, max atom move = 1.0000000 3.7970331e-05
  Iterations, force evaluations = 162 324

MPI task timing breakdown:
Section |  min time  |  avg time  |  max time  |%varavg| %total
---------------------------------------------------------------
Pair    | 0.49545    | 1.3671     | 1.8058     |  31.5 | 71.77
Neigh   | 0          | 0          | 0          |   0.0 |  0.00
Comm    | 0.032766   | 0.31185    | 0.92733    |  46.3 | 16.37
Output  | 0.00011777 | 0.00012167 | 0.00023965 |   0.0 |  0.01
Modify  | 2.0435e-05 | 0.0026701  | 0.0057501  |   2.4 |  0.14
Other   |            | 0.2231     |            |       | 11.71

Nlocal:        2776.45 ave        3960 max           0 min
Histogram: 8 4 4 0 4 12 8 2 28 34
Nghost:        3879.05 ave        5423 max         232 min
Histogram: 8 0 8 0 16 0 8 8 16 40
Neighs:        79213.3 ave      115419 max           0 min
Histogram: 8 4 4 0 10 6 8 8 24 32

Total # of neighbors = 8238187
Ave neighs/atom = 28.530419
Neighbor list builds = 0
Dangerous builds = 0
The dot product: -3.10232371748959e-07
Setting atom values ...
  1 settings made for x
  1 settings made for y
  1 settings made for z
Setting up cg style minimization ...
  Unit style    : metal
  Current step  : 6042
Per MPI rank memory allocation (min/avg/max) = 5.441 | 5.816 | 6.074 Mbytes
Step PotEng KinEng TotEng v_fx v_fy v_fz 
    6042   -1152448.6            0   -1152448.6  0.083089585  0.029242702 -1.6457202e-05 
    6191   -1152448.6            0   -1152448.6 1.5789696e-05 1.3598919e-06 3.9596002e-07 
Loop time of 1.73349 on 104 procs for 149 steps with 288751 atoms

99.9% CPU use with 104 MPI tasks x 1 OpenMP threads

Minimization stats:
  Stopping criterion = energy tolerance
  Energy initial, next-to-last, final = 
     -1152448.55202392  -1152448.55364353  -1152448.55364353
  Force two-norm initial, final = 0.20220287 0.00018974202
  Force max component initial, final = 0.087963353 2.9895365e-05
  Final line search alpha, max atom move = 1.0000000 2.9895365e-05
  Iterations, force evaluations = 149 298

MPI task timing breakdown:
Section |  min time  |  avg time  |  max time  |%varavg| %total
---------------------------------------------------------------
Pair    | 0.45671    | 1.2496     | 1.643      |  30.1 | 72.08
Neigh   | 0          | 0          | 0          |   0.0 |  0.00
Comm    | 0.027279   | 0.28074    | 0.83914    |  44.7 | 16.20
Output  | 0          | 0          | 0          |   0.0 |  0.00
Modify  | 1.7794e-05 | 0.0024535  | 0.00526    |   2.3 |  0.14
Other   |            | 0.2007     |            |       | 11.58

Nlocal:        2776.45 ave        3960 max           0 min
Histogram: 8 4 4 0 4 12 8 2 28 34
Nghost:        3879.05 ave        5423 max         232 min
Histogram: 8 0 8 0 16 0 8 8 16 40
Neighs:        79213.4 ave      115421 max           0 min
Histogram: 8 4 4 0 10 6 8 8 24 32

Total # of neighbors = 8238193
Ave neighs/atom = 28.530440
Neighbor list builds = 0
Dangerous builds = 0
The dot product: 1.48921508482866e-07
Setting atom values ...
  1 settings made for x
  1 settings made for y
  1 settings made for z
Setting up cg style minimization ...
  Unit style    : metal
  Current step  : 6191
Per MPI rank memory allocation (min/avg/max) = 5.441 | 5.816 | 6.074 Mbytes
Step PotEng KinEng TotEng v_fx v_fy v_fz 
    6191   -1152448.5            0   -1152448.5  0.079059591  0.053636491 -0.0039930342 
    6549   -1152448.6            0   -1152448.6 -6.7348242e-06 -1.5451187e-06 2.526094e-08 
Loop time of 4.17391 on 104 procs for 358 steps with 288751 atoms

99.9% CPU use with 104 MPI tasks x 1 OpenMP threads

Minimization stats:
  Stopping criterion = energy tolerance
  Energy initial, next-to-last, final = 
     -1152448.51922591  -1152448.61344336  -1152448.61344336
  Force two-norm initial, final = 0.20543487 2.7577085e-05
  Force max component initial, final = 0.089614361 6.7348242e-06
  Final line search alpha, max atom move = 1.0000000 6.7348242e-06
  Iterations, force evaluations = 358 715

MPI task timing breakdown:
Section |  min time  |  avg time  |  max time  |%varavg| %total
---------------------------------------------------------------
Pair    | 1.1035     | 3.0124     | 3.9413     |  46.5 | 72.17
Neigh   | 2.029e-05  | 0.0059067  | 0.0085966  |   3.2 |  0.14
Comm    | 0.070498   | 0.67901    | 2.0275     |  69.3 | 16.27
Output  | 0          | 0          | 0          |   0.0 |  0.00
Modify  | 4.318e-05  | 0.0058655  | 0.012609   |   3.6 |  0.14
Other   |            | 0.4708     |            |       | 11.28

Nlocal:        2776.45 ave        3960 max           0 min
Histogram: 8 4 4 0 4 12 8 2 28 34
Nghost:        3879.07 ave        5424 max         232 min
Histogram: 8 0 8 0 16 0 8 8 16 40
Neighs:        79213.5 ave      115412 max           0 min
Histogram: 8 4 4 0 10 6 8 8 24 32

Total # of neighbors = 8238205
Ave neighs/atom = 28.530481
Neighbor list builds = 2
Dangerous builds = 0
The dot product: -7.63165972937278e-07
Setting atom values ...
  1 settings made for x
  1 settings made for y
  1 settings made for z
Setting up cg style minimization ...
  Unit style    : metal
  Current step  : 6549
Per MPI rank memory allocation (min/avg/max) = 5.441 | 5.816 | 6.074 Mbytes
Step PotEng KinEng TotEng v_fx v_fy v_fz 
    6549   -1152448.6            0   -1152448.6  0.085578407   0.13417415 -0.081962694 
    6819     -1152449            0     -1152449 1.0669352e-06 -2.4575049e-05 1.4349717e-05 
Loop time of 3.15264 on 104 procs for 270 steps with 288751 atoms

99.9% CPU use with 104 MPI tasks x 1 OpenMP threads

Minimization stats:
  Stopping criterion = energy tolerance
  Energy initial, next-to-last, final = 
      -1152448.6070051  -1152449.00021839  -1152449.00021839
  Force two-norm initial, final = 0.22901144 0.00025898426
  Force max component initial, final = 0.13417415 3.7883737e-05
  Final line search alpha, max atom move = 1.0000000 3.7883737e-05
  Iterations, force evaluations = 270 538

MPI task timing breakdown:
Section |  min time  |  avg time  |  max time  |%varavg| %total
---------------------------------------------------------------
Pair    | 0.85116    | 2.2628     | 2.961      |  39.8 | 71.77
Neigh   | 5.069e-05  | 0.014802   | 0.021567   |   5.0 |  0.47
Comm    | 0.051232   | 0.50779    | 1.5239     |  59.9 | 16.11
Output  | 0          | 0          | 0          |   0.0 |  0.00
Modify  | 3.2472e-05 | 0.0044255  | 0.0094903  |   3.1 |  0.14
Other   |            | 0.3628     |            |       | 11.51

Nlocal:        2776.45 ave        3958 max           0 min
Histogram: 8 4 4 0 4 12 8 2 28 34
Nghost:        3879.12 ave        5424 max         232 min
Histogram: 8 0 8 0 16 0 8 8 16 40
Neighs:        79213.6 ave      115378 max           0 min
Histogram: 8 4 4 0 10 6 8 8 24 32

Total # of neighbors = 8238215
Ave neighs/atom = 28.530516
Neighbor list builds = 5
Dangerous builds = 0
The dot product: -1.06046871955862e-05
Setting atom values ...
  1 settings made for x
  1 settings made for y
  1 settings made for z
Setting up cg style minimization ...
  Unit style    : metal
  Current step  : 6819
Per MPI rank memory allocation (min/avg/max) = 5.441 | 5.816 | 6.074 Mbytes
Step PotEng KinEng TotEng v_fx v_fy v_fz 
    6819     -1152449            0     -1152449  -0.58119277   -0.1116915   0.80613595 
    7000   -1152449.2            0   -1152449.2 -0.00022336175 -0.00031731429 0.00073426574 
    7110   -1152449.2            0   -1152449.2 5.5779888e-06 -5.4010111e-07 -5.2431744e-06 
Loop time of 3.45867 on 104 procs for 291 steps with 288751 atoms

99.9% CPU use with 104 MPI tasks x 1 OpenMP threads

Minimization stats:
  Stopping criterion = energy tolerance
  Energy initial, next-to-last, final = 
     -1152449.02382954  -1152449.18186511  -1152449.18186511
  Force two-norm initial, final = 1.0117864 7.2654757e-05
  Force max component initial, final = 0.80613595 1.9801600e-05
  Final line search alpha, max atom move = 1.0000000 1.9801600e-05
  Iterations, force evaluations = 291 582

MPI task timing breakdown:
Section |  min time  |  avg time  |  max time  |%varavg| %total
---------------------------------------------------------------
Pair    | 0.89757    | 2.4515     | 3.247      |  42.0 | 70.88
Neigh   | 2.0323e-05 | 0.0059077  | 0.0085599  |   3.2 |  0.17
Comm    | 0.071121   | 0.56056    | 1.6666     |  61.5 | 16.21
Output  | 0.00012704 | 0.00013916 | 0.00031066 |   0.0 |  0.00
Modify  | 3.4858e-05 | 0.0047859  | 0.010238   |   3.3 |  0.14
Other   |            | 0.4358     |            |       | 12.60

Nlocal:        2776.45 ave        3936 max           0 min
Histogram: 8 4 4 0 4 12 8 0 28 36
Nghost:        3879.16 ave        5425 max         232 min
Histogram: 8 0 8 0 16 0 8 8 16 40
Neighs:        79213.5 ave      114654 max           0 min
Histogram: 8 4 4 0 8 8 8 8 20 36

Total # of neighbors = 8238205
Ave neighs/atom = 28.530481
Neighbor list builds = 2
Dangerous builds = 0
The dot product: -2.45990130256103e-06
Setting atom values ...
  1 settings made for x
  1 settings made for y
  1 settings made for z
Setting up cg style minimization ...
  Unit style    : metal
  Current step  : 7110
Per MPI rank memory allocation (min/avg/max) = 5.441 | 5.816 | 6.074 Mbytes
Step PotEng KinEng TotEng v_fx v_fy v_fz 
    7110   -1152449.2            0   -1152449.2   0.35918314   0.08900741  -0.24551757 
    7354   -1152449.2            0   -1152449.2 4.2802629e-06 6.2611682e-06 -8.3765988e-06 
Loop time of 2.81985 on 104 procs for 244 steps with 288751 atoms

99.9% CPU use with 104 MPI tasks x 1 OpenMP threads

Minimization stats:
  Stopping criterion = energy tolerance
  Energy initial, next-to-last, final = 
     -1152449.20584047  -1152449.23145352  -1152449.23145352
  Force two-norm initial, final = 0.47494745 7.0318670e-05
  Force max component initial, final = 0.35918314 1.7061079e-05
  Final line search alpha, max atom move = 1.0000000 1.7061079e-05
  Iterations, force evaluations = 244 488

MPI task timing breakdown:
Section |  min time  |  avg time  |  max time  |%varavg| %total
---------------------------------------------------------------
Pair    | 0.75493    | 2.0491     | 2.6604     |  38.4 | 72.67
Neigh   | 1.0164e-05 | 0.002964   | 0.0043274  |   2.2 |  0.11
Comm    | 0.044238   | 0.45677    | 1.3889     |  57.6 | 16.20
Output  | 0          | 0          | 0          |   0.0 |  0.00
Modify  | 3.0656e-05 | 0.004005   | 0.0086063  |   3.0 |  0.14
Other   |            | 0.307      |            |       | 10.89

Nlocal:        2776.45 ave        3934 max           0 min
Histogram: 8 4 4 0 4 12 8 0 28 36
Nghost:        3879.17 ave        5426 max         232 min
Histogram: 8 0 8 0 16 0 8 8 16 40
Neighs:        79213.4 ave      114574 max           0 min
Histogram: 8 4 4 0 8 8 8 8 20 36

Total # of neighbors = 8238196
Ave neighs/atom = 28.530450
Neighbor list builds = 1
Dangerous builds = 0
The dot product: 1.02486016864507e-06
Setting atom values ...
  1 settings made for x
  1 settings made for y
  1 settings made for z
Setting up cg style minimization ...
  Unit style    : metal
  Current step  : 7354
Per MPI rank memory allocation (min/avg/max) = 5.441 | 5.816 | 6.074 Mbytes
Step PotEng KinEng TotEng v_fx v_fy v_fz 
    7354   -1152449.3            0   -1152449.3 -0.081645086 -0.0021680254  0.052702427 
    7560   -1152449.3            0   -1152449.3 -1.0214444e-07 3.8307535e-05 -4.4473848e-05 
Loop time of 2.4149 on 104 procs for 206 steps with 288751 atoms

99.9% CPU use with 104 MPI tasks x 1 OpenMP threads

Minimization stats:
  Stopping criterion = energy tolerance
  Energy initial, next-to-last, final = 
     -1152449.25292075  -1152449.25733423  -1152449.25733423
  Force two-norm initial, final = 0.18605233 0.0001700183
  Force max component initial, final = 0.088034042 4.4473848e-05
  Final line search alpha, max atom move = 1.0000000 4.4473848e-05
  Iterations, force evaluations = 206 412

MPI task timing breakdown:
Section |  min time  |  avg time  |  max time  |%varavg| %total
---------------------------------------------------------------
Pair    | 0.63218    | 1.7368     | 2.2776     |  35.5 | 71.92
Neigh   | 0          | 0          | 0          |   0.0 |  0.00
Comm    | 0.039142   | 0.39355    | 1.1763     |  52.3 | 16.30
Output  | 0          | 0          | 0          |   0.0 |  0.00
Modify  | 2.4751e-05 | 0.0033892  | 0.0072877  |   2.8 |  0.14
Other   |            | 0.2811     |            |       | 11.64

Nlocal:        2776.45 ave        3936 max           0 min
Histogram: 8 4 4 0 4 12 8 0 28 36
Nghost:        3879.16 ave        5426 max         232 min
Histogram: 8 0 8 0 16 0 8 8 16 40
Neighs:        79213.5 ave      114652 max           0 min
Histogram: 8 4 4 0 8 8 8 8 20 36

Total # of neighbors = 8238205
Ave neighs/atom = 28.530481
Neighbor list builds = 0
Dangerous builds = 0
The dot product: -9.75538979282321e-07
Setting atom values ...
  1 settings made for x
  1 settings made for y
  1 settings made for z
Setting up cg style minimization ...
  Unit style    : metal
  Current step  : 7560
Per MPI rank memory allocation (min/avg/max) = 5.441 | 5.816 | 6.074 Mbytes
Step PotEng KinEng TotEng v_fx v_fy v_fz 
    7560   -1152449.3            0   -1152449.3  0.063971528 0.0072303619 -0.042931375 
    7738   -1152449.3            0   -1152449.3 1.4579255e-05 1.386927e-05 -2.3547593e-05 
[...]
Nghost:        3879.20 ave        5424 max         232 min
Histogram: 8 0 8 0 16 0 8 8 16 40
Neighs:        79213.4 ave      115267 max           0 min
Histogram: 8 4 4 0 10 6 8 8 24 32

Total # of neighbors = 8238198
Ave neighs/atom = 28.530457
Neighbor list builds = 0
Dangerous builds = 0
The dot product: 4.93616209099711e-08
Setting atom values ...
  1 settings made for x
  1 settings made for y
  1 settings made for z
Setting up cg style minimization ...
  Unit style    : metal
  Current step  : 746
Per MPI rank memory allocation (min/avg/max) = 5.441 | 5.816 | 6.074 Mbytes
Step PotEng KinEng TotEng v_fx v_fy v_fz 
     746     -1152449            0     -1152449 -0.080458761 -0.011529248  0.009122584 
     953     -1152449            0     -1152449 6.496612e-06 2.5551944e-06 -4.8645155e-07 
Loop time of 2.37348 on 104 procs for 207 steps with 288751 atoms

99.9% CPU use with 104 MPI tasks x 1 OpenMP threads

Minimization stats:
  Stopping criterion = energy tolerance
  Energy initial, next-to-last, final = 
     -1152448.96643627  -1152448.96913793  -1152448.96913793
  Force two-norm initial, final = 0.20092259 0.00013460973
  Force max component initial, final = 0.081324847 2.4093354e-05
  Final line search alpha, max atom move = 1.0000000 2.4093354e-05
  Iterations, force evaluations = 207 414

MPI task timing breakdown:
Section |  min time  |  avg time  |  max time  |%varavg| %total
---------------------------------------------------------------
Pair    | 0.63302    | 1.739      | 2.2473     |  35.6 | 73.27
Neigh   | 0          | 0          | 0          |   0.0 |  0.00
Comm    | 0.036914   | 0.38637    | 1.167      |  53.1 | 16.28
Output  | 0          | 0          | 0          |   0.0 |  0.00
Modify  | 2.5899e-05 | 0.0034149  | 0.0072687  |   2.8 |  0.14
Other   |            | 0.2447     |            |       | 10.31

Nlocal:        2776.45 ave        3954 max           0 min
Histogram: 8 4 4 0 4 12 8 0 30 34
Nghost:        3879.20 ave        5424 max         232 min
Histogram: 8 0 8 0 16 0 8 8 16 40
Neighs:        79213.5 ave      115184 max           0 min
Histogram: 8 4 4 0 10 6 8 8 24 32

Total # of neighbors = 8238209
Ave neighs/atom = 28.530495
Neighbor list builds = 0
Dangerous builds = 0
The dot product: -6.39832675169185e-08
Setting atom values ...
  1 settings made for x
  1 settings made for y
  1 settings made for z
Setting up cg style minimization ...
  Unit style    : metal
  Current step  : 953
Per MPI rank memory allocation (min/avg/max) = 5.441 | 5.816 | 6.074 Mbytes
Step PotEng KinEng TotEng v_fx v_fy v_fz 
     953     -1152449            0     -1152449 -0.056275073 -0.0088549646  0.013528988 
    1000     -1152449            0     -1152449 0.0059072393 0.00094768069 -0.0014180238 
    1275   -1152449.2            0   -1152449.2 -1.412068e-05 -3.0564082e-06 3.2971234e-06 
Loop time of 3.69453 on 104 procs for 322 steps with 288751 atoms

99.9% CPU use with 104 MPI tasks x 1 OpenMP threads

Minimization stats:
  Stopping criterion = energy tolerance
  Energy initial, next-to-last, final = 
     -1152448.96511124   -1152449.1970197   -1152449.1970197
  Force two-norm initial, final = 0.18799056 0.00013901424
  Force max component initial, final = 0.084984762 3.5742351e-05
  Final line search alpha, max atom move = 1.0000000 3.5742351e-05
  Iterations, force evaluations = 322 644

MPI task timing breakdown:
Section |  min time  |  avg time  |  max time  |%varavg| %total
---------------------------------------------------------------
Pair    | 0.99557    | 2.6968     | 3.476      |  43.9 | 73.00
Neigh   | 4.1842e-05 | 0.011821   | 0.017158   |   4.5 |  0.32
Comm    | 0.069914   | 0.60278    | 1.8439     |  66.2 | 16.32
Output  | 0.00010958 | 0.00011553 | 0.00023501 |   0.0 |  0.00
Modify  | 3.9856e-05 | 0.0053085  | 0.011343   |   3.4 |  0.14
Other   |            | 0.3777     |            |       | 10.22

Nlocal:        2776.45 ave        3944 max           0 min
Histogram: 8 4 4 0 4 12 8 0 27 37
Nghost:        3879.19 ave        5423 max         232 min
Histogram: 8 0 8 0 16 0 8 8 16 40
Neighs:        79214.3 ave      114873 max           0 min
Histogram: 8 4 4 0 10 6 8 8 22 34

Total # of neighbors = 8238287
Ave neighs/atom = 28.530765
Neighbor list builds = 4
Dangerous builds = 0
The dot product: -2.73312883977235e-07
Setting atom values ...
  1 settings made for x
  1 settings made for y
  1 settings made for z
Setting up cg style minimization ...
  Unit style    : metal
  Current step  : 1275
Per MPI rank memory allocation (min/avg/max) = 5.441 | 5.816 | 6.074 Mbytes
Step PotEng KinEng TotEng v_fx v_fy v_fz 
    1275   -1152449.2            0   -1152449.2 -0.064820534 -0.0069594235 0.0027567299 
    1453   -1152449.2            0   -1152449.2 -4.7704308e-05 -1.6795107e-07 2.5709004e-06 
Loop time of 2.04836 on 104 procs for 178 steps with 288751 atoms

99.9% CPU use with 104 MPI tasks x 1 OpenMP threads

Minimization stats:
  Stopping criterion = energy tolerance
  Energy initial, next-to-last, final = 
     -1152449.19645352  -1152449.19894835  -1152449.19894835
  Force two-norm initial, final = 0.20330905 0.00019384387
  Force max component initial, final = 0.083621723 5.3877202e-05
  Final line search alpha, max atom move = 1.0000000 5.3877202e-05
  Iterations, force evaluations = 178 356

MPI task timing breakdown:
Section |  min time  |  avg time  |  max time  |%varavg| %total
---------------------------------------------------------------
Pair    | 0.5429     | 1.4927     | 1.9258     |  32.8 | 72.87
Neigh   | 0          | 0          | 0          |   0.0 |  0.00
Comm    | 0.030634   | 0.33564    | 1.0207     |  49.2 | 16.39
Output  | 0          | 0          | 0          |   0.0 |  0.00
Modify  | 2.2337e-05 | 0.0029424  | 0.0063326  |   2.6 |  0.14
Other   |            | 0.2171     |            |       | 10.60

Nlocal:        2776.45 ave        3945 max           0 min
Histogram: 8 4 4 0 4 12 8 0 28 36
Nghost:        3879.41 ave        5423 max         232 min
Histogram: 8 0 8 0 16 0 8 8 16 40
Neighs:        79214.7 ave      114923 max           0 min
Histogram: 8 4 4 0 10 6 8 8 22 34

Total # of neighbors = 8238333
Ave neighs/atom = 28.530925
Neighbor list builds = 0
Dangerous builds = 0
The dot product: 2.16810215970934e-07
Setting atom values ...
  1 settings made for x
  1 settings made for y
  1 settings made for z
Setting up cg style minimization ...
  Unit style    : metal
  Current step  : 1453
Per MPI rank memory allocation (min/avg/max) = 5.441 | 5.816 | 6.074 Mbytes
Step PotEng KinEng TotEng v_fx v_fy v_fz 
    1453   -1152449.2            0   -1152449.2 -0.040277029 -0.0059273616 0.0033424906 
    1662   -1152449.2            0   -1152449.2 5.1990582e-06 2.047974e-06 -3.3980092e-07 
Loop time of 2.38024 on 104 procs for 209 steps with 288751 atoms

99.9% CPU use with 104 MPI tasks x 1 OpenMP threads

Minimization stats:
  Stopping criterion = energy tolerance
  Energy initial, next-to-last, final = 
     -1152449.19772969  -1152449.19997792  -1152449.19997792
  Force two-norm initial, final = 0.19576095 8.6119016e-05
  Force max component initial, final = 0.085422229 2.1654347e-05
  Final line search alpha, max atom move = 1.0000000 2.1654347e-05
  Iterations, force evaluations = 209 418

MPI task timing breakdown:
Section |  min time  |  avg time  |  max time  |%varavg| %total
---------------------------------------------------------------
Pair    | 0.63907    | 1.7481     | 2.2544     |  35.6 | 73.44
Neigh   | 0          | 0          | 0          |   0.0 |  0.00
Comm    | 0.040962   | 0.38623    | 1.1736     |  53.4 | 16.23
Output  | 0          | 0          | 0          |   0.0 |  0.00
Modify  | 2.6083e-05 | 0.0034492  | 0.007334   |   2.8 |  0.14
Other   |            | 0.2425     |            |       | 10.19

Nlocal:        2776.45 ave        3945 max           0 min
Histogram: 8 4 4 0 4 12 8 0 28 36
Nghost:        3879.41 ave        5423 max         232 min
Histogram: 8 0 8 0 16 0 8 8 16 40
Neighs:        79214.7 ave      114923 max           0 min
Histogram: 8 4 4 0 10 6 8 8 22 34

Total # of neighbors = 8238327
Ave neighs/atom = 28.530904
Neighbor list builds = 0
Dangerous builds = 0
The dot product: -1.64237404602543e-08
Setting atom values ...
  1 settings made for x
  1 settings made for y
  1 settings made for z
Setting up cg style minimization ...
  Unit style    : metal
  Current step  : 1662
Per MPI rank memory allocation (min/avg/max) = 5.441 | 5.816 | 6.074 Mbytes
Step PotEng KinEng TotEng v_fx v_fy v_fz 
    1662   -1152449.2            0   -1152449.2 -0.043930904 -0.0023404058 0.0047189062 
    2000   -1152449.4            0   -1152449.4 -0.00053656978 -0.00021270762 4.7524451e-05 
    2176   -1152449.4            0   -1152449.4 -1.4691008e-06 -7.2960303e-07 1.2203415e-07 
Loop time of 5.91165 on 104 procs for 514 steps with 288751 atoms

99.9% CPU use with 104 MPI tasks x 1 OpenMP threads

Minimization stats:
  Stopping criterion = energy tolerance
  Energy initial, next-to-last, final = 
     -1152449.19761462  -1152449.40042702  -1152449.40042702
  Force two-norm initial, final = 0.19654911 2.6645273e-05
  Force max component initial, final = 0.085981099 6.4721670e-06
  Final line search alpha, max atom move = 1.0000000 6.4721670e-06
  Iterations, force evaluations = 514 1028

MPI task timing breakdown:
Section |  min time  |  avg time  |  max time  |%varavg| %total
---------------------------------------------------------------
Pair    | 1.6041     | 4.3126     | 5.5531     |  55.3 | 72.95
Neigh   | 9.332e-05  | 0.026509   | 0.038383   |   6.7 |  0.45
Comm    | 0.091252   | 0.96586    | 2.9185     |  83.4 | 16.34
Output  | 0.00012462 | 0.00012836 | 0.00036343 |   0.0 |  0.00
Modify  | 6.2257e-05 | 0.0084729  | 0.018031   |   4.3 |  0.14
Other   |            | 0.5981     |            |       | 10.12

Nlocal:        2776.45 ave        3946 max           0 min
Histogram: 8 4 4 0 4 12 8 0 28 36
Nghost:        3879.26 ave        5422 max         232 min
Histogram: 8 0 8 0 16 0 8 8 16 40
Neighs:        79213.2 ave      114842 max           0 min
Histogram: 8 4 4 0 10 6 8 8 22 34

Total # of neighbors = 8238170
Ave neighs/atom = 28.530360
Neighbor list builds = 9
Dangerous builds = 0
The dot product: 1.09501443487387e-07
Setting atom values ...
  1 settings made for x
  1 settings made for y
  1 settings made for z
Setting up cg style minimization ...
  Unit style    : metal
  Current step  : 2176
Per MPI rank memory allocation (min/avg/max) = 5.441 | 5.816 | 6.074 Mbytes
Step PotEng KinEng TotEng v_fx v_fy v_fz 
    2176   -1152449.4            0   -1152449.4   0.20359653  0.017012435  -0.12092864 
    2432   -1152449.4            0   -1152449.4 1.8583145e-06 -1.8205123e-07 -1.1087946e-06 
Loop time of 2.91694 on 104 procs for 256 steps with 288751 atoms

99.9% CPU use with 104 MPI tasks x 1 OpenMP threads

Minimization stats:
  Stopping criterion = energy tolerance
  Energy initial, next-to-last, final = 
     -1152449.40896926  -1152449.41817606  -1152449.41817606
  Force two-norm initial, final = 0.30654641 2.0542902e-05
  Force max component initial, final = 0.20359653 3.5044862e-06
  Final line search alpha, max atom move = 1.0000000 3.5044862e-06
  Iterations, force evaluations = 256 512

MPI task timing breakdown:
Section |  min time  |  avg time  |  max time  |%varavg| %total
---------------------------------------------------------------
Pair    | 0.77897    | 2.1423     | 2.7586     |  39.5 | 73.44
Neigh   | 0          | 0          | 0          |   0.0 |  0.00
Comm    | 0.047929   | 0.47464    | 1.4555     |  59.3 | 16.27
Output  | 0          | 0          | 0          |   0.0 |  0.00
Modify  | 3.1703e-05 | 0.0042241  | 0.0089735  |   3.1 |  0.14
Other   |            | 0.2957     |            |       | 10.14

Nlocal:        2776.45 ave        3945 max           0 min
Histogram: 8 4 4 0 4 12 8 0 26 38
Nghost:        3879.46 ave        5422 max         232 min
Histogram: 8 0 8 0 16 0 8 8 16 40
Neighs:        79213.4 ave      114835 max           0 min
Histogram: 8 4 4 0 10 6 8 8 22 34

Total # of neighbors = 8238194
Ave neighs/atom = 28.530443
Neighbor list builds = 0
Dangerous builds = 0
The dot product: 1.32052893347268e-07
Setting atom values ...
  1 settings made for x
  1 settings made for y
  1 settings made for z
Setting up cg style minimization ...
  Unit style    : metal
  Current step  : 2432
Per MPI rank memory allocation (min/avg/max) = 5.441 | 5.816 | 6.074 Mbytes
Step PotEng KinEng TotEng v_fx v_fy v_fz 
    2432   -1152449.4            0   -1152449.4  -0.16239592 -0.013905238  0.037400597 
    2620   -1152449.4            0   -1152449.4 3.5829185e-05 -3.3121407e-06 -8.392224e-06 
Loop time of 2.14788 on 104 procs for 188 steps with 288751 atoms

99.9% CPU use with 104 MPI tasks x 1 OpenMP threads

Minimization stats:
  Stopping criterion = energy tolerance
  Energy initial, next-to-last, final = 
     -1152449.42381966  -1152449.42874886  -1152449.42874886
  Force two-norm initial, final = 0.26314669 0.00016460383
  Force max component initial, final = 0.16239592 4.1015327e-05
  Final line search alpha, max atom move = 1.0000000 4.1015327e-05
  Iterations, force evaluations = 188 376

MPI task timing breakdown:
Section |  min time  |  avg time  |  max time  |%varavg| %total
---------------------------------------------------------------
Pair    | 0.57458    | 1.5776     | 2.032      |  33.9 | 73.45
Neigh   | 0          | 0          | 0          |   0.0 |  0.00
Comm    | 0.033122   | 0.35259    | 1.0629     |  50.6 | 16.42
Output  | 0          | 0          | 0          |   0.0 |  0.00
Modify  | 2.3252e-05 | 0.0031026  | 0.0066115  |   2.6 |  0.14
Other   |            | 0.2146     |            |       |  9.99

Nlocal:        2776.45 ave        3945 max           0 min
Histogram: 8 4 4 0 4 12 8 0 26 38
Nghost:        3879.38 ave        5422 max         232 min
Histogram: 8 0 8 0 16 0 8 8 16 40
Neighs:        79213.5 ave      114848 max           0 min
Histogram: 8 4 4 0 10 6 8 8 22 34

Total # of neighbors = 8238200
Ave neighs/atom = 28.530464
Neighbor list builds = 0
Dangerous builds = 0
The dot product: -1.38650862140774e-06
Setting atom values ...
  1 settings made for x
  1 settings made for y
  1 settings made for z
Setting up cg style minimization ...
  Unit style    : metal
  Current step  : 2620
Per MPI rank memory allocation (min/avg/max) = 5.441 | 5.816 | 6.074 Mbytes
Step PotEng KinEng TotEng v_fx v_fy v_fz 
    2620   -1152449.4            0   -1152449.4  0.030928068 -0.0074497255 -0.013123182 
    2762   -1152449.4            0   -1152449.4 -1.2039252e-05 -4.5784738e-06 4.9464507e-06 
Loop time of 1.62189 on 104 procs for 142 steps with 288751 atoms

99.9% CPU use with 104 MPI tasks x 1 OpenMP threads

Minimization stats:
  Stopping criterion = energy tolerance
  Energy initial, next-to-last, final = 
     -1152449.43279463   -1152449.4350664   -1152449.4350664
  Force two-norm initial, final = 0.20138362 0.0002671523
  Force max component initial, final = 0.10427073 1.3671723e-05
  Final line search alpha, max atom move = 1.0000000 1.3671723e-05
  Iterations, force evaluations = 142 284

MPI task timing breakdown:
Section |  min time  |  avg time  |  max time  |%varavg| %total
---------------------------------------------------------------
Pair    | 0.43322    | 1.1903     | 1.5348     |  29.4 | 73.39
Neigh   | 0          | 0          | 0          |   0.0 |  0.00
Comm    | 0.026084   | 0.26432    | 0.79875    |  44.0 | 16.30
Output  | 0          | 0          | 0          |   0.0 |  0.00
Modify  | 1.7246e-05 | 0.0023467  | 0.0050071  |   2.3 |  0.14
Other   |            | 0.165      |            |       | 10.17

Nlocal:        2776.45 ave        3945 max           0 min
Histogram: 8 4 4 0 4 12 8 0 26 38
Nghost:        3879.36 ave        5422 max         232 min
Histogram: 8 0 8 0 16 0 8 8 16 40
Neighs:        79213.5 ave      114850 max           0 min
Histogram: 8 4 4 0 10 6 8 8 22 34

Total # of neighbors = 8238199
Ave neighs/atom = 28.530461
Neighbor list builds = 0
Dangerous builds = 0
The dot product: -1.57901746088522e-07
Setting atom values ...
  1 settings made for x
  1 settings made for y
  1 settings made for z
Setting up cg style minimization ...
  Unit style    : metal
  Current step  : 2762
Per MPI rank memory allocation (min/avg/max) = 5.441 | 5.816 | 6.074 Mbytes
Step PotEng KinEng TotEng v_fx v_fy v_fz 
    2762   -1152449.4            0   -1152449.4 -0.038855204 -0.0014999212  0.013920772 
    2957   -1152449.4            0   -1152449.4 4.1849751e-08 1.4396371e-06 3.1375304e-09 
Loop time of 2.26367 on 104 procs for 195 steps with 288751 atoms

99.9% CPU use with 104 MPI tasks x 1 OpenMP threads

Minimization stats:
  Stopping criterion = energy tolerance
  Energy initial, next-to-last, final = 
     -1152449.43719463  -1152449.43917345  -1152449.43917345
  Force two-norm initial, final = 0.20428694 0.0001020187
  Force max component initial, final = 0.10184468 1.1987911e-05
  Final line search alpha, max atom move = 1.0000000 1.1987911e-05
  Iterations, force evaluations = 195 390

MPI task timing breakdown:
Section |  min time  |  avg time  |  max time  |%varavg| %total
---------------------------------------------------------------
Pair    | 0.59518    | 1.6393     | 2.1122     |  34.6 | 72.42
Neigh   | 0          | 0          | 0          |   0.0 |  0.00
Comm    | 0.037475   | 0.36734    | 1.1034     |  51.5 | 16.23
Output  | 0          | 0          | 0          |   0.0 |  0.00
Modify  | 2.395e-05  | 0.0032191  | 0.006847   |   2.7 |  0.14
Other   |            | 0.2538     |            |       | 11.21

Nlocal:        2776.45 ave        3945 max           0 min
Histogram: 8 4 4 0 4 12 8 0 26 38
Nghost:        3879.34 ave        5422 max         232 min
Histogram: 8 0 8 0 16 0 8 8 16 40
Neighs:        79213.4 ave      114849 max           0 min
Histogram: 8 4 4 0 10 6 8 8 22 34

Total # of neighbors = 8238197
Ave neighs/atom = 28.530454
Neighbor list builds = 0
Dangerous builds = 0
The dot product: -7.89307352370451e-11
Setting up cg style minimization ...
  Unit style    : metal
  Current step  : 2957
Per MPI rank memory allocation (min/avg/max) = 5.441 | 5.816 | 6.074 Mbytes
Step PotEng KinEng TotEng v_fx v_fy v_fz 
    2957   -1152449.4            0   -1152449.4 -0.052898552 0.0018605312  -0.14744851 
    3000   -1152449.4            0   -1152449.4 0.00035407211 -3.4143276e-05 0.00070768977 
    3183   -1152449.4            0   -1152449.4 -7.1364266e-06 -1.6439091e-07 -1.0807452e-05 
Loop time of 2.57701 on 104 procs for 226 steps with 288751 atoms

99.9% CPU use with 104 MPI tasks x 1 OpenMP threads

Minimization stats:
  Stopping criterion = energy tolerance
  Energy initial, next-to-last, final = 
     -1152449.43917345  -1152449.44165886  -1152449.44165886
  Force two-norm initial, final = 0.15666139 4.0903116e-05
  Force max component initial, final = 0.14744851 1.0807452e-05
  Final line search alpha, max atom move = 1.0000000 1.0807452e-05
  Iterations, force evaluations = 226 452

MPI task timing breakdown:
Section |  min time  |  avg time  |  max time  |%varavg| %total
---------------------------------------------------------------
Pair    | 0.69024    | 1.8953     | 2.4372     |  37.0 | 73.55
Neigh   | 0          | 0          | 0          |   0.0 |  0.00
Comm    | 0.047042   | 0.42211    | 1.2923     |  55.7 | 16.38
Output  | 0.00010676 | 0.00010988 | 0.00023283 |   0.0 |  0.00
Modify  | 2.5498e-05 | 0.0024299  | 0.006202   |   3.1 |  0.09
Other   |            | 0.2571     |            |       |  9.98

Nlocal:        2776.45 ave        3945 max           0 min
Histogram: 8 4 4 0 4 12 8 0 26 38
Nghost:        3879.47 ave        5423 max         232 min
Histogram: 8 0 8 0 16 0 8 8 16 40
Neighs:        79213.4 ave      114850 max           0 min
Histogram: 8 4 4 0 10 6 8 8 22 34

Total # of neighbors = 8238198
Ave neighs/atom = 28.530457
Neighbor list builds = 0
Dangerous builds = 0
