LAMMPS (29 Oct 2020)
OMP_NUM_THREADS environment is not set. Defaulting to 1 thread. (../comm.cpp:94)
  using 1 OpenMP thread(s) per MPI task
OMP_NUM_THREADS environment is not set. Defaulting to 1 thread. (../comm.cpp:94)
  using 1 OpenMP thread(s) per MPI task
Reading data file ...
  orthogonal box = (-122.39241 -121.13707 -37.090501) to (122.39241 121.13707 37.090501)
  13 by 4 by 1 MPI processor grid
  reading atoms ...
  288751 atoms
  read_data CPU = 0.423 seconds
199981 atoms in group inner
88770 atoms in group outer
1 atoms in group carbon
Neighbor list info ...
  update every 1 steps, delay 0 steps, check yes
  max neighbors/atom: 2000, page size: 100000
  master list distance cutoff = 5.6
  ghost atom cutoff = 5.6
  binsize = 2.8, bins = 88 87 27
  1 neighbor lists, perpetual/occasional/extra = 1 0 0
  (1) pair eam/alloy, perpetual
      attributes: half, newton on
      pair build: half/bin/atomonly/newton
      stencil: half/bin/3d/newton
      bin: standard
Setting up cg style minimization ...
  Unit style    : metal
  Current step  : 0
Per MPI rank memory allocation (min/avg/max) = 5.465 | 6.344 | 6.728 Mbytes
Step v_fx v_fy v_fz PotEng KinEng TotEng 
       0     0.523197   0.23425566   0.35591426   -1152447.8            0   -1152447.8 
     147 -2.1545502e-05 3.759717e-05 -1.3095828e-05   -1152449.5            0   -1152449.5 
Loop time of 3.22313 on 52 procs for 147 steps with 288751 atoms

99.8% CPU use with 52 MPI tasks x 1 OpenMP threads

Minimization stats:
  Stopping criterion = energy tolerance
  Energy initial, next-to-last, final = 
     -1152447.83999627  -1152449.45035266  -1152449.45035266
  Force two-norm initial, final = 9.7346915 0.00022305273
  Force max component initial, final = 4.2343474 4.2836203e-05
  Final line search alpha, max atom move = 1.0000000 4.2836203e-05
  Iterations, force evaluations = 147 293

MPI task timing breakdown:
Section |  min time  |  avg time  |  max time  |%varavg| %total
---------------------------------------------------------------
Pair    | 0.84944    | 2.3383     | 3.0566     |  41.9 | 72.55
Neigh   | 4.2022e-05 | 0.012201   | 0.018262   |   4.7 |  0.38
Comm    | 0.041702   | 0.51677    | 1.6412     |  64.9 | 16.03
Output  | 0          | 0          | 0          |   0.0 |  0.00
Modify  | 3.7465e-05 | 0.00322    | 0.0081508  |   3.5 |  0.10
Other   |            | 0.3527     |            |       | 10.94

Nlocal:        5552.90 ave        7916 max           0 min
Histogram: 4 2 2 0 2 6 4 1 14 17
Nghost:        6213.54 ave        8769 max         412 min
Histogram: 4 0 4 0 8 0 4 5 7 20
Neighs:       158427.0 ave      230753 max           0 min
Histogram: 4 2 2 0 5 3 4 4 12 16

Total # of neighbors = 8238197
Ave neighs/atom = 28.530454
Neighbor list builds = 2
Dangerous builds = 1
Setting atom values ...
  1 settings made for x
  1 settings made for y
  1 settings made for z
Setting up cg style minimization ...
  Unit style    : metal
  Current step  : 147
Per MPI rank memory allocation (min/avg/max) = 5.465 | 6.344 | 6.728 Mbytes
Step PotEng KinEng TotEng v_fx v_fy v_fz 
     147   -1152449.4            0   -1152449.4  0.039888671 0.0093369936 -0.052215398 
     332   -1152449.4            0   -1152449.4 6.7739905e-06 -7.8368679e-06 -2.6756472e-05 
Loop time of 4.0648 on 52 procs for 185 steps with 288751 atoms

99.9% CPU use with 52 MPI tasks x 1 OpenMP threads

Minimization stats:
  Stopping criterion = linesearch alpha is zero
  Energy initial, next-to-last, final = 
     -1152449.44472837  -1152449.44870486  -1152449.44870486
  Force two-norm initial, final = 0.30400982 0.00014693267
  Force max component initial, final = 0.14711504 2.9063301e-05
  Final line search alpha, max atom move = 0.5 1.4531650e-05
  Iterations, force evaluations = 185 371

MPI task timing breakdown:
Section |  min time  |  avg time  |  max time  |%varavg| %total
---------------------------------------------------------------
Pair    | 1.0551     | 2.9637     | 3.8745     |  47.7 | 72.91
Neigh   | 0          | 0          | 0          |   0.0 |  0.00
Comm    | 0.055085   | 0.65616    | 2.0788     |  73.5 | 16.14
Output  | 0          | 0          | 0          |   0.0 |  0.00
Modify  | 5.6974e-05 | 0.0062207  | 0.013207   |   3.7 |  0.15
Other   |            | 0.4387     |            |       | 10.79

Nlocal:        5552.90 ave        7913 max           0 min
Histogram: 4 2 2 0 2 6 4 1 14 17
Nghost:        6213.54 ave        8769 max         412 min
Histogram: 4 0 4 0 8 0 4 5 7 20
Neighs:       158427.0 ave      230654 max           0 min
Histogram: 4 2 2 0 5 3 4 4 12 16

Total # of neighbors = 8238198
Ave neighs/atom = 28.530457
Neighbor list builds = 0
Dangerous builds = 0
Setting atom values ...
  1 settings made for x
  1 settings made for y
  1 settings made for z
Setting up cg style minimization ...
  Unit style    : metal
  Current step  : 332
Per MPI rank memory allocation (min/avg/max) = 5.465 | 6.344 | 6.728 Mbytes
Step PotEng KinEng TotEng v_fx v_fy v_fz 
     332   -1152449.4            0   -1152449.4  0.035813527  0.022094135 -0.046970849 
     449   -1152449.4            0   -1152449.4 -5.1681178e-06 5.1029165e-06 2.7247703e-05 
Loop time of 2.54393 on 52 procs for 117 steps with 288751 atoms

99.9% CPU use with 52 MPI tasks x 1 OpenMP threads

Minimization stats:
  Stopping criterion = energy tolerance
  Energy initial, next-to-last, final = 
     -1152449.44388066  -1152449.44575849  -1152449.44575849
  Force two-norm initial, final = 0.20980676 0.00017178338
  Force max component initial, final = 0.096650037 2.7247703e-05
  Final line search alpha, max atom move = 1.0000000 2.7247703e-05
  Iterations, force evaluations = 117 234

MPI task timing breakdown:
Section |  min time  |  avg time  |  max time  |%varavg| %total
---------------------------------------------------------------
Pair    | 0.66367    | 1.861      | 2.4431     |  37.8 | 73.16
Neigh   | 0          | 0          | 0          |   0.0 |  0.00
Comm    | 0.031131   | 0.40923    | 1.3116     |  58.2 | 16.09
Output  | 0          | 0          | 0          |   0.0 |  0.00
Modify  | 3.5112e-05 | 0.0039056  | 0.0082204  |   2.9 |  0.15
Other   |            | 0.2698     |            |       | 10.60

Nlocal:        5552.90 ave        7912 max           0 min
Histogram: 4 2 2 0 2 6 4 0 15 17
Nghost:        6213.54 ave        8769 max         412 min
Histogram: 4 0 4 0 8 0 4 5 7 20
Neighs:       158427.0 ave      230633 max           0 min
Histogram: 4 2 2 0 5 3 4 4 12 16

Total # of neighbors = 8238201
Ave neighs/atom = 28.530467
Neighbor list builds = 0
Dangerous builds = 0
The dot product: -1.08216618921006e-07
Setting atom values ...
  1 settings made for x
  1 settings made for y
  1 settings made for z
Setting up cg style minimization ...
  Unit style    : metal
  Current step  : 449
Per MPI rank memory allocation (min/avg/max) = 5.465 | 6.344 | 6.728 Mbytes
Step PotEng KinEng TotEng v_fx v_fy v_fz 
     449   -1152449.4            0   -1152449.4  0.034059415  0.032551579 -0.046168435 
     564   -1152449.4            0   -1152449.4 9.3032487e-06 -4.673043e-06 -5.6444973e-05 
Loop time of 2.55448 on 52 procs for 115 steps with 288751 atoms

99.9% CPU use with 52 MPI tasks x 1 OpenMP threads

Minimization stats:
  Stopping criterion = linesearch alpha is zero
  Energy initial, next-to-last, final = 
     -1152449.43953373  -1152449.44134098  -1152449.44134098
  Force two-norm initial, final = 0.20559602 0.00018694299
  Force max component initial, final = 0.091200512 5.6444973e-05
  Final line search alpha, max atom move = 0.25 1.4111243e-05
  Iterations, force evaluations = 115 233

MPI task timing breakdown:
Section |  min time  |  avg time  |  max time  |%varavg| %total
---------------------------------------------------------------
Pair    | 0.66162    | 1.8645     | 2.4369     |  38.0 | 72.99
Neigh   | 0          | 0          | 0          |   0.0 |  0.00
Comm    | 0.031549   | 0.41226    | 1.3189     |  58.9 | 16.14
Output  | 0          | 0          | 0          |   0.0 |  0.00
Modify  | 3.7314e-05 | 0.0038984  | 0.0083012  |   2.9 |  0.15
Other   |            | 0.2738     |            |       | 10.72

Nlocal:        5552.90 ave        7911 max           0 min
Histogram: 4 2 2 0 2 6 4 0 15 17
Nghost:        6213.54 ave        8769 max         412 min
Histogram: 4 0 4 0 8 0 4 5 7 20
Neighs:       158427.0 ave      230611 max           0 min
Histogram: 4 2 2 0 5 3 4 4 12 16

Total # of neighbors = 8238204
Ave neighs/atom = 28.530478
Neighbor list builds = 0
Dangerous builds = 0
The dot product: 2.24281604936647e-07
Setting atom values ...
  1 settings made for x
  1 settings made for y
  1 settings made for z
Setting up cg style minimization ...
  Unit style    : metal
  Current step  : 564
Per MPI rank memory allocation (min/avg/max) = 5.465 | 6.344 | 6.728 Mbytes
Step PotEng KinEng TotEng v_fx v_fy v_fz 
     564   -1152449.4            0   -1152449.4  0.030793375  0.039046392 -0.042595175 
     696   -1152449.4            0   -1152449.4 -3.012468e-06 3.7583361e-07 2.180765e-05 
Loop time of 2.87658 on 52 procs for 132 steps with 288751 atoms

99.9% CPU use with 52 MPI tasks x 1 OpenMP threads

Minimization stats:
  Stopping criterion = linesearch alpha is zero
  Energy initial, next-to-last, final = 
     -1152449.43366815  -1152449.43540797  -1152449.43540797
  Force two-norm initial, final = 0.20105681 9.3771401e-05
  Force max component initial, final = 0.08629427 2.1807650e-05
  Final line search alpha, max atom move = 0.5 1.0903825e-05
  Iterations, force evaluations = 132 265

MPI task timing breakdown:
Section |  min time  |  avg time  |  max time  |%varavg| %total
---------------------------------------------------------------
Pair    | 0.75394    | 2.1081     | 2.7556     |  40.2 | 73.29
Neigh   | 0          | 0          | 0          |   0.0 |  0.00
Comm    | 0.034356   | 0.46324    | 1.4818     |  62.3 | 16.10
Output  | 0          | 0          | 0          |   0.0 |  0.00
Modify  | 3.9185e-05 | 0.0044096  | 0.0093283  |   3.1 |  0.15
Other   |            | 0.3008     |            |       | 10.46

Nlocal:        5552.90 ave        7910 max           0 min
Histogram: 4 2 2 0 2 6 4 0 15 17
Nghost:        6213.54 ave        8769 max         412 min
Histogram: 4 0 4 0 8 0 4 5 7 20
Neighs:       158427.0 ave      230585 max           0 min
Histogram: 4 2 2 0 5 3 4 4 12 16

Total # of neighbors = 8238202
Ave neighs/atom = 28.530471
Neighbor list builds = 0
Dangerous builds = 0
The dot product: -7.83390969926947e-08
Setting atom values ...
  1 settings made for x
  1 settings made for y
  1 settings made for z
Setting up cg style minimization ...
  Unit style    : metal
  Current step  : 696
Per MPI rank memory allocation (min/avg/max) = 5.465 | 6.344 | 6.728 Mbytes
Step PotEng KinEng TotEng v_fx v_fy v_fz 
     696   -1152449.4            0   -1152449.4  0.027819957    0.0432926 -0.038747914 
     845   -1152449.4            0   -1152449.4 2.3112062e-06 1.5037452e-06 -1.4549016e-05 
Loop time of 3.24041 on 52 procs for 149 steps with 288751 atoms

99.9% CPU use with 52 MPI tasks x 1 OpenMP threads

Minimization stats:
  Stopping criterion = linesearch alpha is zero
  Energy initial, next-to-last, final = 
     -1152449.42623495  -1152449.42792071  -1152449.42792071
  Force two-norm initial, final = 0.19696532 7.3443072e-05
  Force max component initial, final = 0.082065243 1.4549016e-05
  Final line search alpha, max atom move = 0.5 7.2745081e-06
  Iterations, force evaluations = 149 299

MPI task timing breakdown:
Section |  min time  |  avg time  |  max time  |%varavg| %total
---------------------------------------------------------------
Pair    | 0.84662    | 2.3799     | 3.1101     |  42.8 | 73.45
Neigh   | 0          | 0          | 0          |   0.0 |  0.00
Comm    | 0.038818   | 0.52384    | 1.6833     |  66.4 | 16.17
Output  | 0          | 0          | 0          |   0.0 |  0.00
Modify  | 4.7261e-05 | 0.0049839  | 0.010532   |   3.3 |  0.15
Other   |            | 0.3316     |            |       | 10.23

Nlocal:        5552.90 ave        7907 max           0 min
Histogram: 4 2 2 0 2 6 4 0 15 17
Nghost:        6213.54 ave        8769 max         412 min
Histogram: 4 0 4 0 8 0 4 5 7 20
Neighs:       158427.0 ave      230491 max           0 min
Histogram: 4 2 2 0 5 3 4 4 12 16

Total # of neighbors = 8238199
Ave neighs/atom = 28.530461
Neighbor list builds = 0
Dangerous builds = 0
The dot product: 5.26833980395042e-08
Setting atom values ...
  1 settings made for x
  1 settings made for y
  1 settings made for z
Setting up cg style minimization ...
  Unit style    : metal
  Current step  : 845
Per MPI rank memory allocation (min/avg/max) = 5.465 | 6.344 | 6.728 Mbytes
Step PotEng KinEng TotEng v_fx v_fy v_fz 
     845   -1152449.4            0   -1152449.4  0.025568774  0.046649013 -0.036163968 
     981   -1152449.4            0   -1152449.4 4.7612522e-07 -1.6238899e-06 -1.7937191e-05 
Loop time of 2.98678 on 52 procs for 136 steps with 288751 atoms

99.8% CPU use with 52 MPI tasks x 1 OpenMP threads

Minimization stats:
  Stopping criterion = energy tolerance
  Energy initial, next-to-last, final = 
     -1152449.41720824  -1152449.41885314  -1152449.41885314
  Force two-norm initial, final = 0.19368645 0.00010215109
  Force max component initial, final = 0.078473078 1.7937191e-05
  Final line search alpha, max atom move = 1.0000000 1.7937191e-05
  Iterations, force evaluations = 136 272

MPI task timing breakdown:
Section |  min time  |  avg time  |  max time  |%varavg| %total
---------------------------------------------------------------
Pair    | 0.77241    | 2.1668     | 2.8414     |  40.8 | 72.55
Neigh   | 0          | 0          | 0          |   0.0 |  0.00
Comm    | 0.039079   | 0.47858    | 1.5208     |  62.8 | 16.02
Output  | 0          | 0          | 0          |   0.0 |  0.00
Modify  | 4.1325e-05 | 0.0045477  | 0.0096306  |   3.1 |  0.15
Other   |            | 0.3368     |            |       | 11.28

Nlocal:        5552.90 ave        7906 max           0 min
Histogram: 4 2 2 0 2 6 4 0 15 17
Nghost:        6213.54 ave        8769 max         412 min
Histogram: 4 0 4 0 8 0 4 5 7 20
Neighs:       158427.0 ave      230450 max           0 min
Histogram: 4 2 2 0 5 3 4 4 12 16

Total # of neighbors = 8238201
Ave neighs/atom = 28.530467
Neighbor list builds = 0
Dangerous builds = 0
The dot product: 3.68088334469166e-08
Setting atom values ...
  1 settings made for x
  1 settings made for y
  1 settings made for z
Setting up cg style minimization ...
  Unit style    : metal
  Current step  : 981
Per MPI rank memory allocation (min/avg/max) = 5.465 | 6.344 | 6.728 Mbytes
Step PotEng KinEng TotEng v_fx v_fy v_fz 
     981   -1152449.4            0   -1152449.4  0.023977391  0.050042301  -0.03513975 
    1000   -1152449.4            0   -1152449.4 -0.000124832 -0.00023989945 0.00036811617 
    1089   -1152449.4            0   -1152449.4 -1.406529e-05 -2.3898189e-05 6.9587138e-05 
Loop time of 2.39734 on 52 procs for 108 steps with 288751 atoms

99.9% CPU use with 52 MPI tasks x 1 OpenMP threads

Minimization stats:
  Stopping criterion = linesearch alpha is zero
  Energy initial, next-to-last, final = 
     -1152449.40657831  -1152449.40819358  -1152449.40819358
  Force two-norm initial, final = 0.19116056 0.00028238548
  Force max component initial, final = 0.075165221 6.9587138e-05
  Final line search alpha, max atom move = 0.125 8.6983923e-06
  Iterations, force evaluations = 108 221

MPI task timing breakdown:
Section |  min time  |  avg time  |  max time  |%varavg| %total
---------------------------------------------------------------
Pair    | 0.62889    | 1.764      | 2.3002     |  36.8 | 73.58
Neigh   | 0          | 0          | 0          |   0.0 |  0.00
Comm    | 0.028736   | 0.38674    | 1.2408     |  57.3 | 16.13
Output  | 0.00011996 | 0.00012423 | 0.00028692 |   0.0 |  0.01
Modify  | 3.4838e-05 | 0.0036851  | 0.0077717  |   2.8 |  0.15
Other   |            | 0.2428     |            |       | 10.13

Nlocal:        5552.90 ave        7904 max           0 min
Histogram: 4 2 2 0 2 6 4 0 15 17
Nghost:        6213.54 ave        8769 max         412 min
Histogram: 4 0 4 0 8 0 4 5 7 20
Neighs:       158427.0 ave      230380 max           0 min
Histogram: 4 2 2 0 5 3 4 4 12 16

Total # of neighbors = 8238201
Ave neighs/atom = 28.530467
Neighbor list builds = 0
Dangerous builds = 0
The dot product: -3.10445647359208e-07
Setting atom values ...
  1 settings made for x
  1 settings made for y
  1 settings made for z
Setting up cg style minimization ...
  Unit style    : metal
  Current step  : 1089
Per MPI rank memory allocation (min/avg/max) = 5.465 | 6.344 | 6.728 Mbytes
Step PotEng KinEng TotEng v_fx v_fy v_fz 
    1089   -1152449.4            0   -1152449.4  0.022914965    0.0542248  -0.03578634 
    1222   -1152449.4            0   -1152449.4 -3.6208217e-06 -1.1120646e-05 -2.6014963e-05 
Loop time of 2.89238 on 52 procs for 133 steps with 288751 atoms

99.9% CPU use with 52 MPI tasks x 1 OpenMP threads

Minimization stats:
  Stopping criterion = linesearch alpha is zero
  Energy initial, next-to-last, final = 
     -1152449.39434836  -1152449.39594808  -1152449.39594808
  Force two-norm initial, final = 0.189402 0.0001378467
  Force max component initial, final = 0.071822432 2.6014963e-05
  Final line search alpha, max atom move = 0.5 1.3007482e-05
  Iterations, force evaluations = 133 267

MPI task timing breakdown:
Section |  min time  |  avg time  |  max time  |%varavg| %total
---------------------------------------------------------------
Pair    | 0.75867    | 2.1237     | 2.7774     |  40.4 | 73.42
Neigh   | 0          | 0          | 0          |   0.0 |  0.00
Comm    | 0.03486    | 0.46462    | 1.4952     |  62.8 | 16.06
Output  | 0          | 0          | 0          |   0.0 |  0.00
Modify  | 4.1551e-05 | 0.004462   | 0.0094138  |   3.1 |  0.15
Other   |            | 0.2996     |            |       | 10.36

Nlocal:        5552.90 ave        7902 max           0 min
Histogram: 4 2 2 0 2 6 4 0 15 17
Nghost:        6213.54 ave        8769 max         412 min
Histogram: 4 0 4 0 8 0 4 5 7 20
Neighs:       158427.0 ave      230307 max           0 min
Histogram: 4 2 2 0 5 3 4 4 12 16

Total # of neighbors = 8238197
Ave neighs/atom = 28.530454
Neighbor list builds = 0
Dangerous builds = 0
The dot product: -7.72642480846026e-09
Setting atom values ...
  1 settings made for x
  1 settings made for y
  1 settings made for z
Setting up cg style minimization ...
  Unit style    : metal
  Current step  : 1222
Per MPI rank memory allocation (min/avg/max) = 5.465 | 6.344 | 6.728 Mbytes
Step PotEng KinEng TotEng v_fx v_fy v_fz 
    1222   -1152449.4            0   -1152449.4  0.022243878  0.060030252 -0.038524421 
    1322   -1152449.4            0   -1152449.4 8.107274e-06 2.0731842e-05 -3.9025622e-05 
Loop time of 2.17601 on 52 procs for 100 steps with 288751 atoms

99.9% CPU use with 52 MPI tasks x 1 OpenMP threads

Minimization stats:
  Stopping criterion = energy tolerance
  Energy initial, next-to-last, final = 
     -1152449.38054429  -1152449.38215017  -1152449.38215017
  Force two-norm initial, final = 0.18879995 0.00036544235
  Force max component initial, final = 0.068287977 5.8709786e-05
  Final line search alpha, max atom move = 1.0000000 5.8709786e-05
  Iterations, force evaluations = 100 200

MPI task timing breakdown:
Section |  min time  |  avg time  |  max time  |%varavg| %total
---------------------------------------------------------------
Pair    | 0.56793    | 1.6014     | 2.0905     |  35.3 | 73.59
Neigh   | 0          | 0          | 0          |   0.0 |  0.00
Comm    | 0.025714   | 0.35264    | 1.1244     |  54.8 | 16.21
Output  | 0          | 0          | 0          |   0.0 |  0.00
Modify  | 2.842e-05  | 0.003341   | 0.0070754  |   2.7 |  0.15
Other   |            | 0.2186     |            |       | 10.05

Nlocal:        5552.90 ave        7902 max           0 min
Histogram: 4 2 2 0 2 6 4 0 15 17
Nghost:        6213.54 ave        8769 max         412 min
Histogram: 4 0 4 0 8 0 4 5 7 20
Neighs:       158427.0 ave      230299 max           0 min
Histogram: 4 2 2 0 5 3 4 4 12 16

Total # of neighbors = 8238198
Ave neighs/atom = 28.530457
Neighbor list builds = 0
Dangerous builds = 0
The dot product: 2.86612922584097e-07
Setting atom values ...
  1 settings made for x
  1 settings made for y
  1 settings made for z
Setting up cg style minimization ...
  Unit style    : metal
  Current step  : 1322
Per MPI rank memory allocation (min/avg/max) = 5.465 | 6.344 | 6.728 Mbytes
Step PotEng KinEng TotEng v_fx v_fy v_fz 
    1322   -1152449.4            0   -1152449.4  0.022078146  0.069829341 -0.045424261 
    1443   -1152449.4            0   -1152449.4 8.1944368e-06 2.5982485e-05 -3.8283788e-05 
Loop time of 2.68794 on 52 procs for 121 steps with 288751 atoms

99.9% CPU use with 52 MPI tasks x 1 OpenMP threads

Minimization stats:
  Stopping criterion = linesearch alpha is zero
  Energy initial, next-to-last, final = 
     -1152449.36523502  -1152449.36693614  -1152449.36693614
  Force two-norm initial, final = 0.19069331 0.00025565246
  Force max component initial, final = 0.069829341 4.9043248e-05
  Final line search alpha, max atom move = 0.125 6.1304059e-06
  Iterations, force evaluations = 121 247

MPI task timing breakdown:
Section |  min time  |  avg time  |  max time  |%varavg| %total
---------------------------------------------------------------
Pair    | 0.69997    | 1.9673     | 2.5787     |  38.9 | 73.19
Neigh   | 0          | 0          | 0          |   0.0 |  0.00
Comm    | 0.033013   | 0.43285    | 1.3894     |  60.0 | 16.10
Output  | 0          | 0          | 0          |   0.0 |  0.00
Modify  | 3.8881e-05 | 0.0041239  | 0.0086841  |   3.0 |  0.15
Other   |            | 0.2837     |            |       | 10.56

Nlocal:        5552.90 ave        7902 max           0 min
Histogram: 4 2 2 0 2 6 4 0 15 17
Nghost:        6213.54 ave        8769 max         412 min
Histogram: 4 0 4 0 8 0 4 5 7 20
Neighs:       158427.0 ave      230297 max           0 min
Histogram: 4 2 2 0 5 3 4 4 12 16

Total # of neighbors = 8238196
Ave neighs/atom = 28.530450
Neighbor list builds = 0
Dangerous builds = 0
The dot product: 5.28294240103026e-07
Setting atom values ...
  1 settings made for x
  1 settings made for y
  1 settings made for z
Setting up cg style minimization ...
  Unit style    : metal
  Current step  : 1443
Per MPI rank memory allocation (min/avg/max) = 5.465 | 6.344 | 6.728 Mbytes
Step PotEng KinEng TotEng v_fx v_fy v_fz 
    1443   -1152449.3            0   -1152449.3  0.022106179  0.092442644 -0.064461171 
    1581   -1152449.4            0   -1152449.4 -7.3266043e-06 -3.7460601e-05 8.0351188e-05 
Loop time of 3.00807 on 52 procs for 138 steps with 288751 atoms

99.9% CPU use with 52 MPI tasks x 1 OpenMP threads

Minimization stats:
  Stopping criterion = energy tolerance
  Energy initial, next-to-last, final = 
      -1152449.3487703   -1152449.3524373   -1152449.3524373
  Force two-norm initial, final = 0.20207843 0.00033241228
  Force max component initial, final = 0.092442644 8.4608287e-05
  Final line search alpha, max atom move = 1.0000000 8.4608287e-05
  Iterations, force evaluations = 138 276

MPI task timing breakdown:
Section |  min time  |  avg time  |  max time  |%varavg| %total
---------------------------------------------------------------
Pair    | 0.78271    | 2.2012     | 2.8767     |  41.2 | 73.18
Neigh   | 0          | 0          | 0          |   0.0 |  0.00
Comm    | 0.036129   | 0.48496    | 1.557      |  63.6 | 16.12
Output  | 0          | 0          | 0          |   0.0 |  0.00
Modify  | 4.594e-05  | 0.0046061  | 0.0097534  |   3.1 |  0.15
Other   |            | 0.3173     |            |       | 10.55

Nlocal:        5552.90 ave        7903 max           0 min
Histogram: 4 2 2 0 2 6 4 0 15 17
Nghost:        6213.54 ave        8769 max         412 min
Histogram: 4 0 4 0 8 0 4 5 7 20
Neighs:       158427.0 ave      230319 max           0 min
Histogram: 4 2 2 0 5 3 4 4 12 16

Total # of neighbors = 8238191
Ave neighs/atom = 28.530433
Neighbor list builds = 0
Dangerous builds = 0
The dot product: -4.85639720038205e-06
Setting atom values ...
  1 settings made for x
  1 settings made for y
  1 settings made for z
Setting up cg style minimization ...
  Unit style    : metal
  Current step  : 1581
Per MPI rank memory allocation (min/avg/max) = 5.465 | 6.344 | 6.728 Mbytes
Step PotEng KinEng TotEng v_fx v_fy v_fz 
    1581   -1152449.3            0   -1152449.3 -0.017490517   0.20525176  -0.14573643 
    1829   -1152449.3            0   -1152449.3 -2.1181013e-06 4.8515186e-06 -1.2433502e-05 
Loop time of 5.40792 on 52 procs for 248 steps with 288751 atoms

99.9% CPU use with 52 MPI tasks x 1 OpenMP threads

Minimization stats:
  Stopping criterion = linesearch alpha is zero
  Energy initial, next-to-last, final = 
     -1152449.33676349  -1152449.34712866  -1152449.34712866
  Force two-norm initial, final = 0.29407759 3.9003930e-05
  Force max component initial, final = 0.20525176 1.2433502e-05
  Final line search alpha, max atom move = 0.5 6.2167511e-06
  Iterations, force evaluations = 248 497

MPI task timing breakdown:
Section |  min time  |  avg time  |  max time  |%varavg| %total
---------------------------------------------------------------
Pair    | 1.4156     | 3.9534     | 5.1727     |  55.1 | 73.10
Neigh   | 1.8931e-05 | 0.0057283  | 0.0083736  |   3.2 |  0.11
Comm    | 0.067297   | 0.87062    | 2.7745     |  85.4 | 16.10
Output  | 0          | 0          | 0          |   0.0 |  0.00
Modify  | 8.2833e-05 | 0.0082834  | 0.017558   |   4.2 |  0.15
Other   |            | 0.5699     |            |       | 10.54

Nlocal:        5552.90 ave        7912 max           0 min
Histogram: 4 2 2 0 2 6 4 0 15 17
Nghost:        6213.54 ave        8769 max         412 min
Histogram: 4 0 4 0 8 0 4 5 7 20
Neighs:       158427.0 ave      230597 max           0 min
Histogram: 4 2 2 0 5 3 4 4 12 16

Total # of neighbors = 8238194
Ave neighs/atom = 28.530443
Neighbor list builds = 1
Dangerous builds = 0
The dot product: 8.16978579458721e-07
Setting atom values ...
  1 settings made for x
  1 settings made for y
  1 settings made for z
Setting up cg style minimization ...
  Unit style    : metal
  Current step  : 1829
Per MPI rank memory allocation (min/avg/max) = 5.465 | 6.344 | 6.728 Mbytes
Step PotEng KinEng TotEng v_fx v_fy v_fz 
    1829   -1152449.3            0   -1152449.3 -0.070260713   0.18041078 -0.090080725 
    1986   -1152449.3            0   -1152449.3 -4.6243896e-06 -2.2588238e-05 -2.7140549e-05 
Loop time of 3.40857 on 52 procs for 157 steps with 288751 atoms

99.9% CPU use with 52 MPI tasks x 1 OpenMP threads

Minimization stats:
  Stopping criterion = energy tolerance
  Energy initial, next-to-last, final = 
     -1152449.33428176  -1152449.34121295  -1152449.34121295
  Force two-norm initial, final = 0.25420606 0.00015419421
  Force max component initial, final = 0.18041078 3.6123183e-05
  Final line search alpha, max atom move = 1.0000000 3.6123183e-05
  Iterations, force evaluations = 157 314

MPI task timing breakdown:
Section |  min time  |  avg time  |  max time  |%varavg| %total
---------------------------------------------------------------
Pair    | 0.89094    | 2.502      | 3.2716     |  43.9 | 73.40
Neigh   | 0          | 0          | 0          |   0.0 |  0.00
Comm    | 0.040442   | 0.55087    | 1.7691     |  68.1 | 16.16
Output  | 0          | 0          | 0          |   0.0 |  0.00
Modify  | 4.6746e-05 | 0.0052378  | 0.011067   |   3.4 |  0.15
Other   |            | 0.3505     |            |       | 10.28

Nlocal:        5552.90 ave        7912 max           0 min
Histogram: 4 2 2 0 2 6 4 0 15 17
Nghost:        6213.54 ave        8769 max         412 min
Histogram: 4 0 4 0 8 0 4 5 7 20
Neighs:       158427.0 ave      230608 max           0 min
Histogram: 4 2 2 0 5 3 4 4 12 16

Total # of neighbors = 8238201
Ave neighs/atom = 28.530467
Neighbor list builds = 0
Dangerous builds = 0
The dot product: -1.3120199620256e-07
Setting atom values ...
  1 settings made for x
  1 settings made for y
  1 settings made for z
Setting up cg style minimization ...
  Unit style    : metal
  Current step  : 1986
Per MPI rank memory allocation (min/avg/max) = 5.465 | 6.344 | 6.728 Mbytes
Step PotEng KinEng TotEng v_fx v_fy v_fz 
    1986   -1152449.3            0   -1152449.3 -0.053329718  0.067830285 -0.047372042 
    2000   -1152449.3            0   -1152449.3 -0.006718541 0.0057597255 -0.0083237284 
    2217   -1152449.3            0   -1152449.3 1.7170015e-05 4.9446121e-06 3.7901962e-05 
Loop time of 5.03044 on 52 procs for 231 steps with 288751 atoms

99.9% CPU use with 52 MPI tasks x 1 OpenMP threads

Minimization stats:
  Stopping criterion = energy tolerance
  Energy initial, next-to-last, final = 
     -1152449.33355019  -1152449.34651317  -1152449.34651317
  Force two-norm initial, final = 0.17923934 0.00016707935
  Force max component initial, final = 0.067830285 4.1623207e-05
  Final line search alpha, max atom move = 1.0000000 4.1623207e-05
  Iterations, force evaluations = 231 462

MPI task timing breakdown:
Section |  min time  |  avg time  |  max time  |%varavg| %total
---------------------------------------------------------------
Pair    | 1.3138     | 3.669      | 4.8154     |  53.0 | 72.94
Neigh   | 1.9297e-05 | 0.0057299  | 0.0084301  |   3.2 |  0.11
Comm    | 0.060397   | 0.80695    | 2.5764     |  81.9 | 16.04
Output  | 0.00011779 | 0.00012231 | 0.00028449 |   0.0 |  0.00
Modify  | 7.2238e-05 | 0.0076895  | 0.016241   |   4.1 |  0.15
Other   |            | 0.5409     |            |       | 10.75

Nlocal:        5552.90 ave        7915 max           0 min
Histogram: 4 2 2 0 2 6 4 2 13 17
Nghost:        6213.62 ave        8769 max         412 min
Histogram: 4 0 4 0 8 0 4 5 7 20
Neighs:       158427.0 ave      230675 max           0 min
Histogram: 4 2 2 0 5 3 4 4 12 16

Total # of neighbors = 8238193
Ave neighs/atom = 28.530440
Neighbor list builds = 1
Dangerous builds = 0
The dot product: -1.43799786158469e-06
Setting atom values ...
  1 settings made for x
  1 settings made for y
  1 settings made for z
Setting up cg style minimization ...
  Unit style    : metal
  Current step  : 2217
Per MPI rank memory allocation (min/avg/max) = 5.465 | 6.344 | 6.728 Mbytes
Step PotEng KinEng TotEng v_fx v_fy v_fz 
    2217   -1152449.3            0   -1152449.3   0.02330836 -0.0001026582  0.034357025 
    2352   -1152449.3            0   -1152449.3 7.4932356e-06 1.4727552e-05 2.234542e-05 
Loop time of 2.93624 on 52 procs for 135 steps with 288751 atoms

99.9% CPU use with 52 MPI tasks x 1 OpenMP threads

Minimization stats:
  Stopping criterion = linesearch alpha is zero
  Energy initial, next-to-last, final = 
     -1152449.34841081   -1152449.3493739   -1152449.3493739
  Force two-norm initial, final = 0.13047979 0.0001039195
  Force max component initial, final = 0.048042554 2.2820495e-05
  Final line search alpha, max atom move = 0.5 1.1410247e-05
  Iterations, force evaluations = 135 271

MPI task timing breakdown:
Section |  min time  |  avg time  |  max time  |%varavg| %total
---------------------------------------------------------------
Pair    | 0.76614    | 2.1565     | 2.8201     |  40.8 | 73.45
Neigh   | 0          | 0          | 0          |   0.0 |  0.00
Comm    | 0.034942   | 0.47515    | 1.5212     |  63.2 | 16.18
Output  | 0          | 0          | 0          |   0.0 |  0.00
Modify  | 4.2239e-05 | 0.0045195  | 0.0095166  |   3.1 |  0.15
Other   |            | 0.3        |            |       | 10.22

Nlocal:        5552.90 ave        7913 max           0 min
Histogram: 4 2 2 0 2 6 4 1 14 17
Nghost:        6213.54 ave        8769 max         412 min
Histogram: 4 0 4 0 8 0 4 5 7 20
Neighs:       158427.0 ave      230659 max           0 min
Histogram: 4 2 2 0 5 3 4 4 12 16

Total # of neighbors = 8238192
Ave neighs/atom = 28.530436
Neighbor list builds = 0
Dangerous builds = 0
The dot product: 6.50721818149111e-08
Setting atom values ...
  1 settings made for x
  1 settings made for y
  1 settings made for z
Setting up cg style minimization ...
  Unit style    : metal
  Current step  : 2352
Per MPI rank memory allocation (min/avg/max) = 5.465 | 6.344 | 6.728 Mbytes
Step PotEng KinEng TotEng v_fx v_fy v_fz 
    2352   -1152449.4            0   -1152449.4 0.0092742251 0.0068331011  0.019330051 
    2550   -1152449.4            0   -1152449.4 -9.5300781e-06 -6.2665979e-07 -1.4927429e-05 
Loop time of 4.34894 on 52 procs for 198 steps with 288751 atoms

99.8% CPU use with 52 MPI tasks x 1 OpenMP threads

Minimization stats:
  Stopping criterion = linesearch alpha is zero
  Energy initial, next-to-last, final = 
     -1152449.35019807  -1152449.35110177  -1152449.35110177
  Force two-norm initial, final = 0.12529581 7.7400838e-05
  Force max component initial, final = 0.04739896 1.4927429e-05
  Final line search alpha, max atom move = 0.5 7.4637146e-06
  Iterations, force evaluations = 198 397

MPI task timing breakdown:
Section |  min time  |  avg time  |  max time  |%varavg| %total
---------------------------------------------------------------
Pair    | 1.1272     | 3.1574     | 4.1471     |  49.3 | 72.60
Neigh   | 0          | 0          | 0          |   0.0 |  0.00
Comm    | 0.051453   | 0.69713    | 2.2296     |  75.9 | 16.03
Output  | 0          | 0          | 0          |   0.0 |  0.00
Modify  | 6.5467e-05 | 0.0066362  | 0.014029   |   3.8 |  0.15
Other   |            | 0.4878     |            |       | 11.22

Nlocal:        5552.90 ave        7913 max           0 min
Histogram: 4 2 2 0 2 6 4 1 14 17
Nghost:        6213.54 ave        8769 max         412 min
Histogram: 4 0 4 0 8 0 4 5 7 20
Neighs:       158427.0 ave      230660 max           0 min
Histogram: 4 2 2 0 5 3 4 4 12 16

Total # of neighbors = 8238192
Ave neighs/atom = 28.530436
Neighbor list builds = 0
Dangerous builds = 0
The dot product: -3.47565015012179e-09
Setting atom values ...
  1 settings made for x
  1 settings made for y
  1 settings made for z
Setting up cg style minimization ...
  Unit style    : metal
  Current step  : 2550
Per MPI rank memory allocation (min/avg/max) = 5.465 | 6.344 | 6.728 Mbytes
Step PotEng KinEng TotEng v_fx v_fy v_fz 
    2550   -1152449.4            0   -1152449.4 0.0098866401  0.006525514  0.020056144 
    2746   -1152449.4            0   -1152449.4 3.0642056e-06 1.6557137e-06 5.9320288e-06 
Loop time of 4.2808 on 52 procs for 196 steps with 288751 atoms

99.9% CPU use with 52 MPI tasks x 1 OpenMP threads

Minimization stats:
  Stopping criterion = energy tolerance
  Energy initial, next-to-last, final = 
     -1152449.35065758  -1152449.35155733  -1152449.35155733
  Force two-norm initial, final = 0.12546313 8.2880441e-05
  Force max component initial, final = 0.046804047 7.7420814e-06
  Final line search alpha, max atom move = 1.0000000 7.7420814e-06
  Iterations, force evaluations = 196 392

MPI task timing breakdown:
Section |  min time  |  avg time  |  max time  |%varavg| %total
---------------------------------------------------------------
Pair    | 1.1131     | 3.1302     | 4.0962     |  49.2 | 73.12
Neigh   | 0          | 0          | 0          |   0.0 |  0.00
Comm    | 0.051796   | 0.691      | 2.192      |  76.1 | 16.14
Output  | 0          | 0          | 0          |   0.0 |  0.00
Modify  | 6.4777e-05 | 0.006553   | 0.013768   |   3.7 |  0.15
Other   |            | 0.4531     |            |       | 10.58

Nlocal:        5552.90 ave        7914 max           0 min
Histogram: 4 2 2 0 2 6 4 1 14 17
Nghost:        6213.54 ave        8769 max         412 min
Histogram: 4 0 4 0 8 0 4 5 7 20
Neighs:       158427.0 ave      230678 max           0 min
Histogram: 4 2 2 0 5 3 4 4 12 16

Total # of neighbors = 8238190
Ave neighs/atom = 28.530429
Neighbor list builds = 0
Dangerous builds = 0
The dot product: 3.61811690302852e-09
Setting atom values ...
  1 settings made for x
  1 settings made for y
  1 settings made for z
Setting up cg style minimization ...
  Unit style    : metal
  Current step  : 2746
Per MPI rank memory allocation (min/avg/max) = 5.465 | 6.344 | 6.728 Mbytes
Step PotEng KinEng TotEng v_fx v_fy v_fz 
    2746   -1152449.3            0   -1152449.3 0.0090844994 0.0065416213  0.018913035 
    2923   -1152449.4            0   -1152449.4 -1.5724581e-05 9.4838052e-06 -1.6551499e-05 
Loop time of 3.8545 on 52 procs for 177 steps with 288751 atoms

99.9% CPU use with 52 MPI tasks x 1 OpenMP threads

Minimization stats:
  Stopping criterion = energy tolerance
  Energy initial, next-to-last, final = 
     -1152449.34978695  -1152449.35067715  -1152449.35067715
  Force two-norm initial, final = 0.12478534 0.00015713001
  Force max component initial, final = 0.046188512 1.6704237e-05
  Final line search alpha, max atom move = 1.0000000 1.6704237e-05
  Iterations, force evaluations = 177 354

MPI task timing breakdown:
Section |  min time  |  avg time  |  max time  |%varavg| %total
---------------------------------------------------------------
Pair    | 1.0052     | 2.8163     | 3.6967     |  46.4 | 73.06
Neigh   | 0          | 0          | 0          |   0.0 |  0.00
Comm    | 0.046494   | 0.62082    | 1.9846     |  71.5 | 16.11
Output  | 0          | 0          | 0          |   0.0 |  0.00
Modify  | 6.008e-05  | 0.0059314  | 0.012535   |   3.6 |  0.15
Other   |            | 0.4115     |            |       | 10.67

Nlocal:        5552.90 ave        7914 max           0 min
Histogram: 4 2 2 0 2 6 4 1 14 17
Nghost:        6213.54 ave        8769 max         412 min
Histogram: 4 0 4 0 8 0 4 5 7 20
Neighs:       158427.0 ave      230678 max           0 min
Histogram: 4 2 2 0 5 3 4 4 12 16

Total # of neighbors = 8238192
Ave neighs/atom = 28.530436
Neighbor list builds = 0
Dangerous builds = 0
The dot product: -5.71917630718614e-09
Setting atom values ...
  1 settings made for x
  1 settings made for y
  1 settings made for z
Setting up cg style minimization ...
  Unit style    : metal
  Current step  : 2923
Per MPI rank memory allocation (min/avg/max) = 5.465 | 6.344 | 6.728 Mbytes
Step PotEng KinEng TotEng v_fx v_fy v_fz 
    2923   -1152449.3            0   -1152449.3 0.0081014093 0.0063329937  0.017308021 
    3000   -1152449.3            0   -1152449.3 -0.0001347102 2.9439943e-05 -0.00018251628 
    3037   -1152449.3            0   -1152449.3 0.00013123177 -6.8932566e-05 0.00014635236 
Loop time of 2.49552 on 52 procs for 114 steps with 288751 atoms

99.9% CPU use with 52 MPI tasks x 1 OpenMP threads

Minimization stats:
  Stopping criterion = energy tolerance
  Energy initial, next-to-last, final = 
     -1152449.34756626   -1152449.3484427   -1152449.3484427
  Force two-norm initial, final = 0.12377858 0.00056119872
  Force max component initial, final = 0.045515358 0.0001482872
  Final line search alpha, max atom move = 1.0000000 0.0001482872
  Iterations, force evaluations = 114 228

MPI task timing breakdown:
Section |  min time  |  avg time  |  max time  |%varavg| %total
---------------------------------------------------------------
Pair    | 0.6482     | 1.825      | 2.3865     |  37.6 | 73.13
Neigh   | 0          | 0          | 0          |   0.0 |  0.00
Comm    | 0.029815   | 0.40183    | 1.2811     |  58.2 | 16.10
Output  | 0.00011846 | 0.00012271 | 0.00029846 |   0.0 |  0.00
Modify  | 3.559e-05  | 0.0038175  | 0.0081217  |   2.9 |  0.15
Other   |            | 0.2648     |            |       | 10.61

Nlocal:        5552.90 ave        7914 max           0 min
Histogram: 4 2 2 0 2 6 4 1 14 17
Nghost:        6213.62 ave        8769 max         412 min
Histogram: 4 0 4 0 8 0 4 5 7 20
Neighs:       158427.0 ave      230657 max           0 min
Histogram: 4 2 2 0 5 3 4 4 12 16

Total # of neighbors = 8238192
Ave neighs/atom = 28.530436
Neighbor list builds = 0
Dangerous builds = 0
The dot product: 4.92173016874666e-08
Setting atom values ...
  1 settings made for x
  1 settings made for y
  1 settings made for z
Setting up cg style minimization ...
  Unit style    : metal
  Current step  : 3037
Per MPI rank memory allocation (min/avg/max) = 5.465 | 6.344 | 6.728 Mbytes
Step PotEng KinEng TotEng v_fx v_fy v_fz 
    3037   -1152449.3            0   -1152449.3 0.0073320948 0.0057655293  0.015736402 
    3198   -1152449.3            0   -1152449.3 3.1736199e-05 -1.2169636e-05 3.8980953e-05 
Loop time of 3.50181 on 52 procs for 161 steps with 288751 atoms

99.9% CPU use with 52 MPI tasks x 1 OpenMP threads

Minimization stats:
  Stopping criterion = energy tolerance
  Energy initial, next-to-last, final = 
     -1152449.34398579  -1152449.34485065  -1152449.34485065
  Force two-norm initial, final = 0.12289463 0.00025887629
  Force max component initial, final = 0.04478111 3.8997555e-05
  Final line search alpha, max atom move = 1.0000000 3.8997555e-05
  Iterations, force evaluations = 161 322

MPI task timing breakdown:
Section |  min time  |  avg time  |  max time  |%varavg| %total
---------------------------------------------------------------
Pair    | 0.91233    | 2.5658     | 3.3638     |  44.5 | 73.27
Neigh   | 0          | 0          | 0          |   0.0 |  0.00
Comm    | 0.041883   | 0.5647     | 1.8036     |  68.7 | 16.13
Output  | 0          | 0          | 0          |   0.0 |  0.00
Modify  | 4.907e-05  | 0.0053827  | 0.011398   |   3.4 |  0.15
Other   |            | 0.3659     |            |       | 10.45

Nlocal:        5552.90 ave        7914 max           0 min
Histogram: 4 2 2 0 2 6 4 1 14 17
Nghost:        6213.62 ave        8769 max         412 min
Histogram: 4 0 4 0 8 0 4 5 7 20
Neighs:       158427.0 ave      230649 max           0 min
Histogram: 4 2 2 0 5 3 4 4 12 16

Total # of neighbors = 8238190
Ave neighs/atom = 28.530429
Neighbor list builds = 0
Dangerous builds = 0
The dot product: 9.66257016212258e-09
Setting atom values ...
  1 settings made for x
  1 settings made for y
  1 settings made for z
Setting up cg style minimization ...
  Unit style    : metal
  Current step  : 3198
Per MPI rank memory allocation (min/avg/max) = 5.465 | 6.344 | 6.728 Mbytes
Step PotEng KinEng TotEng v_fx v_fy v_fz 
    3198   -1152449.3            0   -1152449.3 0.0064953708 0.0050336835  0.013910845 
    3368   -1152449.3            0   -1152449.3 -2.4090104e-05 1.7037811e-05 -2.3481839e-05 
Loop time of 3.69022 on 52 procs for 170 steps with 288751 atoms

99.9% CPU use with 52 MPI tasks x 1 OpenMP threads

Minimization stats:
  Stopping criterion = energy tolerance
  Energy initial, next-to-last, final = 
      -1152449.3390397  -1152449.33989205  -1152449.33989205
  Force two-norm initial, final = 0.12218136 0.00020201369
  Force max component initial, final = 0.044254453 2.4090104e-05
  Final line search alpha, max atom move = 1.0000000 2.4090104e-05
  Iterations, force evaluations = 170 340

MPI task timing breakdown:
Section |  min time  |  avg time  |  max time  |%varavg| %total
---------------------------------------------------------------
Pair    | 0.96228    | 2.7047     | 3.5424     |  45.7 | 73.30
Neigh   | 0          | 0          | 0          |   0.0 |  0.00
Comm    | 0.043584   | 0.59601    | 1.9023     |  70.5 | 16.15
Output  | 0          | 0          | 0          |   0.0 |  0.00
Modify  | 5.3718e-05 | 0.0056644  | 0.01194    |   3.5 |  0.15
Other   |            | 0.3838     |            |       | 10.40

Nlocal:        5552.90 ave        7914 max           0 min
Histogram: 4 2 2 0 2 6 4 2 13 17
Nghost:        6213.58 ave        8769 max         412 min
Histogram: 4 0 4 0 8 0 4 5 7 20
Neighs:       158427.0 ave      230648 max           0 min
Histogram: 4 2 2 0 5 3 4 4 12 16

Total # of neighbors = 8238191
Ave neighs/atom = 28.530433
Neighbor list builds = 0
Dangerous builds = 0
The dot product: -3.76257157855372e-09
Setting atom values ...
  1 settings made for x
  1 settings made for y
  1 settings made for z
Setting up cg style minimization ...
  Unit style    : metal
  Current step  : 3368
Per MPI rank memory allocation (min/avg/max) = 5.465 | 6.344 | 6.728 Mbytes
Step PotEng KinEng TotEng v_fx v_fy v_fz 
    3368   -1152449.3            0   -1152449.3 0.0059471788 0.0039793376  0.012263501 
    3557   -1152449.3            0   -1152449.3 -8.3920276e-06 -6.9107333e-07 -1.3417339e-05 
Loop time of 4.11035 on 52 procs for 189 steps with 288751 atoms

99.9% CPU use with 52 MPI tasks x 1 OpenMP threads

Minimization stats:
  Stopping criterion = linesearch alpha is zero
  Energy initial, next-to-last, final = 
     -1152449.33270646  -1152449.33355339  -1152449.33355339
  Force two-norm initial, final = 0.12185782 9.8549326e-05
  Force max component initial, final = 0.04412376 1.6305801e-05
  Final line search alpha, max atom move = 0.5 8.1529004e-06
  Iterations, force evaluations = 189 379

MPI task timing breakdown:
Section |  min time  |  avg time  |  max time  |%varavg| %total
---------------------------------------------------------------
Pair    | 1.0738     | 3.012      | 3.9478     |  48.2 | 73.28
Neigh   | 0          | 0          | 0          |   0.0 |  0.00
Comm    | 0.049396   | 0.65982    | 2.1123     |  74.7 | 16.05
Output  | 0          | 0          | 0          |   0.0 |  0.00
Modify  | 5.7834e-05 | 0.0063116  | 0.01338    |   3.7 |  0.15
Other   |            | 0.4322     |            |       | 10.52

Nlocal:        5552.90 ave        7915 max           0 min
Histogram: 4 2 2 0 2 6 4 2 13 17
Nghost:        6213.58 ave        8769 max         412 min
Histogram: 4 0 4 0 8 0 4 5 7 20
Neighs:       158427.0 ave      230676 max           0 min
Histogram: 4 2 2 0 5 3 4 4 12 16

Total # of neighbors = 8238190
Ave neighs/atom = 28.530429
Neighbor list builds = 0
Dangerous builds = 0
The dot product: -4.21982060855231e-09
Setting atom values ...
  1 settings made for x
  1 settings made for y
  1 settings made for z
Setting up cg style minimization ...
  Unit style    : metal
  Current step  : 3557
Per MPI rank memory allocation (min/avg/max) = 5.465 | 6.344 | 6.728 Mbytes
Step PotEng KinEng TotEng v_fx v_fy v_fz 
    3557   -1152449.3            0   -1152449.3 0.0057323097 0.0025725621  0.010838866 
    3746   -1152449.3            0   -1152449.3 6.8448969e-06 -1.8634002e-05 -4.2311043e-06 
Loop time of 4.11663 on 52 procs for 189 steps with 288751 atoms

99.9% CPU use with 52 MPI tasks x 1 OpenMP threads

Minimization stats:
  Stopping criterion = linesearch alpha is zero
  Energy initial, next-to-last, final = 
     -1152449.32496413  -1152449.32581135  -1152449.32581135
  Force two-norm initial, final = 0.12194012 9.6973904e-05
  Force max component initial, final = 0.043974108 1.8634002e-05
  Final line search alpha, max atom move = 0.5 9.3170011e-06
  Iterations, force evaluations = 189 379

MPI task timing breakdown:
Section |  min time  |  avg time  |  max time  |%varavg| %total
---------------------------------------------------------------
Pair    | 1.0738     | 3.0219     | 3.9507     |  48.3 | 73.41
Neigh   | 0          | 0          | 0          |   0.0 |  0.00
Comm    | 0.048905   | 0.66572    | 2.1393     |  74.9 | 16.17
Output  | 0          | 0          | 0          |   0.0 |  0.00
Modify  | 6.091e-05  | 0.0063058  | 0.013432   |   3.7 |  0.15
Other   |            | 0.4227     |            |       | 10.27

Nlocal:        5552.90 ave        7915 max           0 min
Histogram: 4 2 2 0 2 6 4 2 13 17
Nghost:        6213.58 ave        8769 max         412 min
Histogram: 4 0 4 0 8 0 4 5 7 20
Neighs:       158427.0 ave      230684 max           0 min
Histogram: 4 2 2 0 5 3 4 4 12 16

Total # of neighbors = 8238190
Ave neighs/atom = 28.530429
Neighbor list builds = 0
Dangerous builds = 0
The dot product: -2.3494787610126e-09
Setting atom values ...
  1 settings made for x
  1 settings made for y
  1 settings made for z
Setting up cg style minimization ...
  Unit style    : metal
  Current step  : 3746
Per MPI rank memory allocation (min/avg/max) = 5.465 | 6.344 | 6.728 Mbytes
Step PotEng KinEng TotEng v_fx v_fy v_fz 
    3746   -1152449.3            0   -1152449.3 0.0058051976 0.00089060219  0.009632057 
    3912   -1152449.3            0   -1152449.3 -1.711918e-05 3.1931154e-06 -2.379304e-05 
Loop time of 3.65807 on 52 procs for 166 steps with 288751 atoms

99.9% CPU use with 52 MPI tasks x 1 OpenMP threads

Minimization stats:
  Stopping criterion = linesearch alpha is zero
  Energy initial, next-to-last, final = 
     -1152449.31578124  -1152449.31663395  -1152449.31663395
  Force two-norm initial, final = 0.12235122 0.00023904666
  Force max component initial, final = 0.043799426 3.5338090e-05
  Final line search alpha, max atom move = 0.125 4.4172613e-06
  Iterations, force evaluations = 166 337

MPI task timing breakdown:
Section |  min time  |  avg time  |  max time  |%varavg| %total
---------------------------------------------------------------
Pair    | 0.95538    | 2.6805     | 3.5127     |  45.4 | 73.28
Neigh   | 0          | 0          | 0          |   0.0 |  0.00
Comm    | 0.044758   | 0.58692    | 1.8784     |  70.5 | 16.04
Output  | 0          | 0          | 0          |   0.0 |  0.00
Modify  | 5.3395e-05 | 0.0056178  | 0.01188    |   3.5 |  0.15
Other   |            | 0.3851     |            |       | 10.53

Nlocal:        5552.90 ave        7916 max           0 min
Histogram: 4 2 2 0 2 6 4 2 13 17
Nghost:        6213.62 ave        8769 max         412 min
Histogram: 4 0 4 0 8 0 4 5 7 20
Neighs:       158427.0 ave      230723 max           0 min
Histogram: 4 2 2 0 5 3 4 4 12 16

Total # of neighbors = 8238187
Ave neighs/atom = 28.530419
Neighbor list builds = 0
Dangerous builds = 0
The dot product: -8.25697314521371e-09
Setting atom values ...
  1 settings made for x
  1 settings made for y
  1 settings made for z
Setting up cg style minimization ...
  Unit style    : metal
  Current step  : 3912
Per MPI rank memory allocation (min/avg/max) = 5.465 | 6.344 | 6.728 Mbytes
Step PotEng KinEng TotEng v_fx v_fy v_fz 
    3912   -1152449.3            0   -1152449.3 0.0061229095 -0.00099248709 0.0086399144 
    4000   -1152449.3            0   -1152449.3 0.00019208779 -7.5320128e-05 0.00023600843 
    4096   -1152449.3            0   -1152449.3 4.1245896e-06 -1.5109224e-06 5.1520459e-06 
Loop time of 4.02162 on 52 procs for 184 steps with 288751 atoms

99.9% CPU use with 52 MPI tasks x 1 OpenMP threads

Minimization stats:
  Stopping criterion = linesearch alpha is zero
  Energy initial, next-to-last, final = 
      -1152449.3051273   -1152449.3059873   -1152449.3059873
  Force two-norm initial, final = 0.12295469 0.00011093566
  Force max component initial, final = 0.043619045 6.3235176e-06
  Final line search alpha, max atom move = 0.5 3.1617588e-06
  Iterations, force evaluations = 184 369

MPI task timing breakdown:
Section |  min time  |  avg time  |  max time  |%varavg| %total
---------------------------------------------------------------
Pair    | 1.0442     | 2.9463     | 3.8558     |  47.9 | 73.26
Neigh   | 0          | 0          | 0          |   0.0 |  0.00
Comm    | 0.047243   | 0.65082    | 2.0743     |  74.1 | 16.18
Output  | 0.00021695 | 0.00022182 | 0.00038941 |   0.0 |  0.01
Modify  | 5.6073e-05 | 0.0061484  | 0.012998   |   3.6 |  0.15
Other   |            | 0.4181     |            |       | 10.40

Nlocal:        5552.90 ave        7916 max           0 min
Histogram: 4 2 2 0 2 6 4 2 13 17
Nghost:        6213.56 ave        8769 max         412 min
Histogram: 4 0 4 0 8 0 4 5 7 20
Neighs:       158427.0 ave      230723 max           0 min
Histogram: 4 2 2 0 5 3 4 4 12 16

Total # of neighbors = 8238188
Ave neighs/atom = 28.530422
Neighbor list builds = 0
Dangerous builds = 0
The dot product: 2.13871268004186e-09
Setting atom values ...
  1 settings made for x
  1 settings made for y
  1 settings made for z
Setting up cg style minimization ...
  Unit style    : metal
  Current step  : 4096
Per MPI rank memory allocation (min/avg/max) = 5.465 | 6.344 | 6.728 Mbytes
Step PotEng KinEng TotEng v_fx v_fy v_fz 
    4096   -1152449.3            0   -1152449.3 0.0068253621 -0.0030742196 0.0080834503 
    4349   -1152449.3            0   -1152449.3 1.9027697e-07 8.3791611e-07   9.5801e-07 
Loop time of 5.54917 on 52 procs for 253 steps with 288751 atoms

99.9% CPU use with 52 MPI tasks x 1 OpenMP threads

Minimization stats:
  Stopping criterion = energy tolerance
  Energy initial, next-to-last, final = 
     -1152449.29297713  -1152449.29384182  -1152449.29384182
  Force two-norm initial, final = 0.12363852 5.7503898e-06
  Force max component initial, final = 0.043441393 1.4770644e-06
  Final line search alpha, max atom move = 1.0000000 1.4770644e-06
  Iterations, force evaluations = 253 508

MPI task timing breakdown:
Section |  min time  |  avg time  |  max time  |%varavg| %total
---------------------------------------------------------------
Pair    | 1.4416     | 4.0373     | 5.3044     |  55.7 | 72.75
Neigh   | 0          | 0          | 0          |   0.0 |  0.00
Comm    | 0.06901    | 0.89132    | 2.8472     |  85.4 | 16.06
Output  | 0          | 0          | 0          |   0.0 |  0.00
Modify  | 8.167e-05  | 0.0084916  | 0.017967   |   4.3 |  0.15
Other   |            | 0.6121     |            |       | 11.03

Nlocal:        5552.90 ave        7916 max           0 min
Histogram: 4 2 2 0 2 6 4 2 13 17
Nghost:        6213.56 ave        8769 max         412 min
Histogram: 4 0 4 0 8 0 4 5 7 20
Neighs:       158427.0 ave      230723 max           0 min
Histogram: 4 2 2 0 5 3 4 4 12 16

Total # of neighbors = 8238188
Ave neighs/atom = 28.530422
Neighbor list builds = 0
Dangerous builds = 0
The dot product: 6.04257203623679e-11
Setting up cg style minimization ...
  Unit style    : metal
  Current step  : 4349
Per MPI rank memory allocation (min/avg/max) = 5.465 | 6.344 | 6.728 Mbytes
Step PotEng KinEng TotEng v_fx v_fy v_fz 
    4349   -1152449.3            0   -1152449.3  -0.49689585  -0.25568086   0.32232294 
    4571   -1152449.4            0   -1152449.4 -1.3316445e-05 1.4411306e-05 -2.1867458e-05 
Loop time of 4.88281 on 52 procs for 222 steps with 288751 atoms

99.9% CPU use with 52 MPI tasks x 1 OpenMP threads

Minimization stats:
  Stopping criterion = linesearch alpha is zero
  Energy initial, next-to-last, final = 
     -1152449.29384182  -1152449.35157326  -1152449.35157326
  Force two-norm initial, final = 0.6451126 0.0002736209
  Force max component initial, final = 0.49689585 3.0649718e-05
  Final line search alpha, max atom move = 0.125 3.8312148e-06
  Iterations, force evaluations = 222 449

MPI task timing breakdown:
Section |  min time  |  avg time  |  max time  |%varavg| %total
---------------------------------------------------------------
Pair    | 1.2802     | 3.5877     | 4.6842     |  52.6 | 73.48
Neigh   | 1.9791e-05 | 0.0057536  | 0.0084618  |   3.2 |  0.12
Comm    | 0.058437   | 0.7904     | 2.5108     |  82.0 | 16.19
Output  | 0          | 0          | 0          |   0.0 |  0.00
Modify  | 6.4627e-05 | 0.0048893  | 0.012342   |   4.3 |  0.10
Other   |            | 0.4941     |            |       | 10.12

Nlocal:        5552.90 ave        7916 max           0 min
Histogram: 4 2 2 0 2 6 4 2 13 17
Nghost:        6213.56 ave        8769 max         412 min
Histogram: 4 0 4 0 8 0 4 5 7 20
Neighs:       158427.0 ave      230710 max           0 min
Histogram: 4 2 2 0 5 3 4 4 12 16

Total # of neighbors = 8238193
Ave neighs/atom = 28.530440
Neighbor list builds = 1
Dangerous builds = 0
OMP_NUM_THREADS environment is not set. Defaulting to 1 thread. (../comm.cpp:94)
  using 1 OpenMP thread(s) per MPI task
Reading data file ...
  orthogonal box = (-122.39241 -121.13707 -37.090501) to (122.39241 121.13707 37.090501)
  13 by 4 by 1 MPI processor grid
  reading atoms ...
  288751 atoms
  read_data CPU = 0.344 seconds
199981 atoms in group inner
88770 atoms in group outer
1 atoms in group carbon
Neighbor list info ...
  update every 1 steps, delay 0 steps, check yes
  max neighbors/atom: 2000, page size: 100000
  master list distance cutoff = 5.6
  ghost atom cutoff = 5.6
  binsize = 2.8, bins = 88 87 27
  1 neighbor lists, perpetual/occasional/extra = 1 0 0
  (1) pair eam/alloy, perpetual
      attributes: half, newton on
      pair build: half/bin/atomonly/newton
      stencil: half/bin/3d/newton
      bin: standard
Setting up cg style minimization ...
  Unit style    : metal
  Current step  : 0
Per MPI rank memory allocation (min/avg/max) = 5.465 | 6.344 | 6.728 Mbytes
Step v_fx v_fy v_fz PotEng KinEng TotEng 
       0     0.523197   0.23425566   0.35591426   -1152447.8            0   -1152447.8 
     147 -2.1545502e-05 3.759717e-05 -1.3095828e-05   -1152449.5            0   -1152449.5 
Loop time of 3.2032 on 52 procs for 147 steps with 288751 atoms

99.9% CPU use with 52 MPI tasks x 1 OpenMP threads

Minimization stats:
  Stopping criterion = energy tolerance
  Energy initial, next-to-last, final = 
     -1152447.83999627  -1152449.45035266  -1152449.45035266
  Force two-norm initial, final = 9.7346915 0.00022305273
  Force max component initial, final = 4.2343474 4.2836203e-05
  Final line search alpha, max atom move = 1.0000000 4.2836203e-05
  Iterations, force evaluations = 147 293

MPI task timing breakdown:
Section |  min time  |  avg time  |  max time  |%varavg| %total
---------------------------------------------------------------
Pair    | 0.84559    | 2.3359     | 3.0598     |  41.9 | 72.92
Neigh   | 3.7354e-05 | 0.011437   | 0.016893   |   4.5 |  0.36
Comm    | 0.038668   | 0.51322    | 1.6347     |  65.2 | 16.02
Output  | 0          | 0          | 0          |   0.0 |  0.00
Modify  | 2.7826e-05 | 0.0031891  | 0.0080764  |   3.5 |  0.10
Other   |            | 0.3395     |            |       | 10.60

Nlocal:        5552.90 ave        7916 max           0 min
Histogram: 4 2 2 0 2 6 4 1 14 17
Nghost:        6213.54 ave        8769 max         412 min
Histogram: 4 0 4 0 8 0 4 5 7 20
Neighs:       158427.0 ave      230753 max           0 min
Histogram: 4 2 2 0 5 3 4 4 12 16

Total # of neighbors = 8238197
Ave neighs/atom = 28.530454
Neighbor list builds = 2
Dangerous builds = 1
Setting atom values ...
  1 settings made for x
  1 settings made for y
  1 settings made for z
Setting up cg style minimization ...
  Unit style    : metal
  Current step  : 147
Per MPI rank memory allocation (min/avg/max) = 5.465 | 6.344 | 6.728 Mbytes
Step PotEng KinEng TotEng v_fx v_fy v_fz 
     147   -1152449.4            0   -1152449.4  0.033497638  0.023665143 -0.038503941 
     317   -1152449.4            0   -1152449.4 9.8837283e-07 -7.369252e-06 -1.9254166e-06 
Loop time of 3.68057 on 52 procs for 170 steps with 288751 atoms

99.9% CPU use with 52 MPI tasks x 1 OpenMP threads

Minimization stats:
  Stopping criterion = energy tolerance
  Energy initial, next-to-last, final = 
     -1152449.44840664  -1152449.44973833  -1152449.44973833
  Force two-norm initial, final = 0.17587074 0.00020388124
  Force max component initial, final = 0.071067759 2.6988990e-05
  Final line search alpha, max atom move = 1.0000000 2.6988990e-05
  Iterations, force evaluations = 170 340

MPI task timing breakdown:
Section |  min time  |  avg time  |  max time  |%varavg| %total
---------------------------------------------------------------
Pair    | 0.96089    | 2.6993     | 3.5348     |  45.5 | 73.34
Neigh   | 0          | 0          | 0          |   0.0 |  0.00
Comm    | 0.043597   | 0.59013    | 1.8785     |  70.1 | 16.03
Output  | 0          | 0          | 0          |   0.0 |  0.00
Modify  | 4.0489e-05 | 0.0056515  | 0.011915   |   3.5 |  0.15
Other   |            | 0.3854     |            |       | 10.47

Nlocal:        5552.90 ave        7913 max           0 min
Histogram: 4 2 2 0 2 6 4 1 14 17
Nghost:        6213.54 ave        8769 max         412 min
Histogram: 4 0 4 0 8 0 4 5 7 20
Neighs:       158427.0 ave      230654 max           0 min
Histogram: 4 2 2 0 5 3 4 4 12 16

Total # of neighbors = 8238198
Ave neighs/atom = 28.530457
Neighbor list builds = 0
Dangerous builds = 0
Setting atom values ...
  1 settings made for x
  1 settings made for y
  1 settings made for z
Setting up cg style minimization ...
  Unit style    : metal
  Current step  : 317
Per MPI rank memory allocation (min/avg/max) = 5.465 | 6.344 | 6.728 Mbytes
Step PotEng KinEng TotEng v_fx v_fy v_fz 
     317   -1152449.4            0   -1152449.4  0.035206032   0.02631555 -0.057798288 
     468   -1152449.4            0   -1152449.4 2.5557275e-05 2.7533242e-06 -4.4625005e-05 
Loop time of 3.2854 on 52 procs for 151 steps with 288751 atoms

99.9% CPU use with 52 MPI tasks x 1 OpenMP threads

Minimization stats:
  Stopping criterion = energy tolerance
  Energy initial, next-to-last, final = 
     -1152449.44594619  -1152449.44763754  -1152449.44763754
  Force two-norm initial, final = 0.19895222 0.00029071788
  Force max component initial, final = 0.077598241 4.4625005e-05
  Final line search alpha, max atom move = 1.0000000 4.4625005e-05
  Iterations, force evaluations = 151 302

MPI task timing breakdown:
Section |  min time  |  avg time  |  max time  |%varavg| %total
---------------------------------------------------------------
Pair    | 0.85555    | 2.4017     | 3.1557     |  42.9 | 73.10
Neigh   | 0          | 0          | 0          |   0.0 |  0.00
Comm    | 0.038163   | 0.53676    | 1.7227     |  65.6 | 16.34
Output  | 0          | 0          | 0          |   0.0 |  0.00
Modify  | 4.9742e-05 | 0.0050315  | 0.010693   |   3.3 |  0.15
Other   |            | 0.3419     |            |       | 10.41

Nlocal:        5552.90 ave        7913 max           0 min
Histogram: 4 2 2 0 2 6 4 1 14 17
Nghost:        6213.54 ave        8769 max         412 min
Histogram: 4 0 4 0 8 0 4 5 7 20
Neighs:       158427.0 ave      230655 max           0 min
Histogram: 4 2 2 0 5 3 4 4 12 16

Total # of neighbors = 8238199
Ave neighs/atom = 28.530461
Neighbor list builds = 0
Dangerous builds = 0
The dot product: 2.68272778594673e-07
Setting atom values ...
  1 settings made for x
  1 settings made for y
  1 settings made for z
Setting up cg style minimization ...
  Unit style    : metal
  Current step  : 468
Per MPI rank memory allocation (min/avg/max) = 5.465 | 6.344 | 6.728 Mbytes
Step PotEng KinEng TotEng v_fx v_fy v_fz 
     468   -1152449.4            0   -1152449.4  0.027276882  0.025272647 -0.061980606 
     589   -1152449.4            0   -1152449.4 2.1838184e-05 -2.2021195e-05 -6.1589395e-05 
Loop time of 2.6785 on 52 procs for 121 steps with 288751 atoms

99.9% CPU use with 52 MPI tasks x 1 OpenMP threads

Minimization stats:
  Stopping criterion = linesearch alpha is zero
  Energy initial, next-to-last, final = 
     -1152449.44247511  -1152449.44409584  -1152449.44409584
  Force two-norm initial, final = 0.19337027 0.00021450407
  Force max component initial, final = 0.072239063 6.1589395e-05
  Final line search alpha, max atom move = 0.25 1.5397349e-05
  Iterations, force evaluations = 121 245

MPI task timing breakdown:
Section |  min time  |  avg time  |  max time  |%varavg| %total
---------------------------------------------------------------
Pair    | 0.69466    | 1.9504     | 2.5549     |  38.7 | 72.82
Neigh   | 0          | 0          | 0          |   0.0 |  0.00
Comm    | 0.032372   | 0.42665    | 1.3505     |  59.7 | 15.93
Output  | 0          | 0          | 0          |   0.0 |  0.00
Modify  | 2.9526e-05 | 0.004084   | 0.0086235  |   3.0 |  0.15
Other   |            | 0.2973     |            |       | 11.10

Nlocal:        5552.90 ave        7913 max           0 min
Histogram: 4 2 2 0 2 6 4 1 14 17
Nghost:        6213.54 ave        8769 max         412 min
Histogram: 4 0 4 0 8 0 4 5 7 20
Neighs:       158427.0 ave      230663 max           0 min
Histogram: 4 2 2 0 5 3 4 4 12 16

Total # of neighbors = 8238199
Ave neighs/atom = 28.530461
Neighbor list builds = 0
Dangerous builds = 0
The dot product: 4.13722975976509e-07
Setting atom values ...
  1 settings made for x
  1 settings made for y
  1 settings made for z
Setting up cg style minimization ...
  Unit style    : metal
  Current step  : 589
Per MPI rank memory allocation (min/avg/max) = 5.465 | 6.344 | 6.728 Mbytes
Step PotEng KinEng TotEng v_fx v_fy v_fz 
     589   -1152449.4            0   -1152449.4  0.019930743  0.025138418 -0.059462953 
     710   -1152449.4            0   -1152449.4 2.8384299e-06 -8.4871223e-06 -1.4057791e-05 
Loop time of 2.66881 on 52 procs for 121 steps with 288751 atoms

99.9% CPU use with 52 MPI tasks x 1 OpenMP threads

Minimization stats:
  Stopping criterion = linesearch alpha is zero
  Energy initial, next-to-last, final = 
     -1152449.43752062  -1152449.43907892  -1152449.43907892
  Force two-norm initial, final = 0.18786549 0.00015544881
  Force max component initial, final = 0.067790746 2.0696364e-05
  Final line search alpha, max atom move = 0.5 1.0348182e-05
  Iterations, force evaluations = 121 243

MPI task timing breakdown:
Section |  min time  |  avg time  |  max time  |%varavg| %total
---------------------------------------------------------------
Pair    | 0.69011    | 1.9352     | 2.5395     |  38.5 | 72.51
Neigh   | 0          | 0          | 0          |   0.0 |  0.00
Comm    | 0.030913   | 0.43255    | 1.3822     |  59.1 | 16.21
Output  | 0          | 0          | 0          |   0.0 |  0.00
Modify  | 3.9162e-05 | 0.0040533  | 0.0085797  |   3.0 |  0.15
Other   |            | 0.297      |            |       | 11.13

Nlocal:        5552.90 ave        7913 max           0 min
Histogram: 4 2 2 0 2 6 4 1 14 17
Nghost:        6213.54 ave        8769 max         412 min
Histogram: 4 0 4 0 8 0 4 5 7 20
Neighs:       158427.0 ave      230663 max           0 min
Histogram: 4 2 2 0 5 3 4 4 12 16

Total # of neighbors = 8238202
Ave neighs/atom = 28.530471
Neighbor list builds = 0
Dangerous builds = 0
The dot product: 9.20921643622988e-08
Setting atom values ...
  1 settings made for x
  1 settings made for y
  1 settings made for z
Setting up cg style minimization ...
  Unit style    : metal
  Current step  : 710
Per MPI rank memory allocation (min/avg/max) = 5.465 | 6.344 | 6.728 Mbytes
Step PotEng KinEng TotEng v_fx v_fy v_fz 
     710   -1152449.4            0   -1152449.4  0.014934645  0.026165006 -0.054975015 
     829   -1152449.4            0   -1152449.4 1.2670542e-05 3.9214593e-05 -3.4544445e-05 
Loop time of 2.5849 on 52 procs for 119 steps with 288751 atoms

99.9% CPU use with 52 MPI tasks x 1 OpenMP threads

Minimization stats:
  Stopping criterion = energy tolerance
  Energy initial, next-to-last, final = 
     -1152449.43103741  -1152449.43254454  -1152449.43254454
  Force two-norm initial, final = 0.18351845 0.0001678946
  Force max component initial, final = 0.067203295 3.9214593e-05
  Final line search alpha, max atom move = 1.0000000 3.9214593e-05
  Iterations, force evaluations = 119 238

MPI task timing breakdown:
Section |  min time  |  avg time  |  max time  |%varavg| %total
---------------------------------------------------------------
Pair    | 0.67409    | 1.8932     | 2.4801     |  38.1 | 73.24
Neigh   | 0          | 0          | 0          |   0.0 |  0.00
Comm    | 0.032196   | 0.41556    | 1.3167     |  58.7 | 16.08
Output  | 0          | 0          | 0          |   0.0 |  0.00
Modify  | 2.9659e-05 | 0.0039637  | 0.0083577  |   2.9 |  0.15
Other   |            | 0.2722     |            |       | 10.53

Nlocal:        5552.90 ave        7912 max           0 min
Histogram: 4 2 2 0 2 6 4 0 15 17
Nghost:        6213.54 ave        8769 max         412 min
Histogram: 4 0 4 0 8 0 4 5 7 20
Neighs:       158427.0 ave      230641 max           0 min
Histogram: 4 2 2 0 5 3 4 4 12 16

Total # of neighbors = 8238201
Ave neighs/atom = 28.530467
Neighbor list builds = 0
Dangerous builds = 0
The dot product: 1.43308061148259e-07
Setting atom values ...
  1 settings made for x
  1 settings made for y
  1 settings made for z
Setting up cg style minimization ...
  Unit style    : metal
  Current step  : 829
Per MPI rank memory allocation (min/avg/max) = 5.465 | 6.344 | 6.728 Mbytes
Step PotEng KinEng TotEng v_fx v_fy v_fz 
     829   -1152449.4            0   -1152449.4  0.011987458  0.028355203 -0.051206165 
     973   -1152449.4            0   -1152449.4 6.7352118e-07  1.84708e-05 1.4623399e-05 
Loop time of 3.14107 on 52 procs for 144 steps with 288751 atoms

99.9% CPU use with 52 MPI tasks x 1 OpenMP threads

Minimization stats:
  Stopping criterion = linesearch alpha is zero
  Energy initial, next-to-last, final = 
     -1152449.42299668  -1152449.42446413  -1152449.42446413
  Force two-norm initial, final = 0.18050112 0.00010326632
  Force max component initial, final = 0.066607209 2.5052649e-05
  Final line search alpha, max atom move = 0.5 1.2526324e-05
  Iterations, force evaluations = 144 289

MPI task timing breakdown:
Section |  min time  |  avg time  |  max time  |%varavg| %total
---------------------------------------------------------------
Pair    | 0.81798    | 2.2978     | 3.0153     |  42.0 | 73.15
Neigh   | 0          | 0          | 0          |   0.0 |  0.00
Comm    | 0.036961   | 0.50421    | 1.6051     |  64.7 | 16.05
Output  | 0          | 0          | 0          |   0.0 |  0.00
Modify  | 4.6004e-05 | 0.0048248  | 0.010145   |   3.2 |  0.15
Other   |            | 0.3343     |            |       | 10.64

Nlocal:        5552.90 ave        7912 max           0 min
Histogram: 4 2 2 0 2 6 4 0 15 17
Nghost:        6213.54 ave        8769 max         412 min
Histogram: 4 0 4 0 8 0 4 5 7 20
Neighs:       158427.0 ave      230641 max           0 min
Histogram: 4 2 2 0 5 3 4 4 12 16

Total # of neighbors = 8238201
Ave neighs/atom = 28.530467
Neighbor list builds = 0
Dangerous builds = 0
The dot product: -7.89570283250067e-08
Setting atom values ...
  1 settings made for x
  1 settings made for y
  1 settings made for z
Setting up cg style minimization ...
  Unit style    : metal
  Current step  : 973
Per MPI rank memory allocation (min/avg/max) = 5.465 | 6.344 | 6.728 Mbytes
Step PotEng KinEng TotEng v_fx v_fy v_fz 
     973   -1152449.4            0   -1152449.4  0.010371189  0.031785138 -0.049045893 
    1000   -1152449.4            0   -1152449.4 0.00012340293 0.00055832644 -0.00031946852 
    1104   -1152449.4            0   -1152449.4 7.9695975e-06 2.7605904e-05 -3.3024438e-05 
Loop time of 2.8548 on 52 procs for 131 steps with 288751 atoms

99.9% CPU use with 52 MPI tasks x 1 OpenMP threads

Minimization stats:
  Stopping criterion = energy tolerance
  Energy initial, next-to-last, final = 
     -1152449.41338902  -1152449.41482714  -1152449.41482714
  Force two-norm initial, final = 0.17851321 0.00015690756
  Force max component initial, final = 0.06624625 3.3024438e-05
  Final line search alpha, max atom move = 1.0000000 3.3024438e-05
  Iterations, force evaluations = 131 262

MPI task timing breakdown:
Section |  min time  |  avg time  |  max time  |%varavg| %total
---------------------------------------------------------------
Pair    | 0.74105    | 2.0846     | 2.7413     |  40.1 | 73.02
Neigh   | 0          | 0          | 0          |   0.0 |  0.00
Comm    | 0.033936   | 0.45987    | 1.4683     |  61.4 | 16.11
Output  | 0.00011504 | 0.00011972 | 0.00028467 |   0.0 |  0.00
Modify  | 3.4373e-05 | 0.0043706  | 0.0092664  |   3.1 |  0.15
Other   |            | 0.3059     |            |       | 10.71

Nlocal:        5552.90 ave        7912 max           0 min
Histogram: 4 2 2 0 2 6 4 0 15 17
Nghost:        6213.54 ave        8769 max         412 min
Histogram: 4 0 4 0 8 0 4 5 7 20
Neighs:       158427.0 ave      230633 max           0 min
Histogram: 4 2 2 0 5 3 4 4 12 16

Total # of neighbors = 8238201
Ave neighs/atom = 28.530467
Neighbor list builds = 0
Dangerous builds = 0
The dot product: 1.48906340399056e-07
Setting atom values ...
  1 settings made for x
  1 settings made for y
  1 settings made for z
Setting up cg style minimization ...
  Unit style    : metal
  Current step  : 1104
Per MPI rank memory allocation (min/avg/max) = 5.465 | 6.344 | 6.728 Mbytes
Step PotEng KinEng TotEng v_fx v_fy v_fz 
    1104   -1152449.4            0   -1152449.4 0.0095214291   0.03663474 -0.048960192 
    1274   -1152449.4            0   -1152449.4 1.2772798e-07 1.6828351e-05 3.3254685e-05 
Loop time of 3.69763 on 52 procs for 170 steps with 288751 atoms

99.9% CPU use with 52 MPI tasks x 1 OpenMP threads

Minimization stats:
  Stopping criterion = energy tolerance
  Energy initial, next-to-last, final = 
     -1152449.40222348  -1152449.40364534  -1152449.40364534
  Force two-norm initial, final = 0.17752842 0.00017662006
  Force max component initial, final = 0.066140343 3.3254685e-05
  Final line search alpha, max atom move = 1.0000000 3.3254685e-05
  Iterations, force evaluations = 170 340

MPI task timing breakdown:
Section |  min time  |  avg time  |  max time  |%varavg| %total
---------------------------------------------------------------
Pair    | 0.96299    | 2.7028     | 3.551      |  45.5 | 73.10
Neigh   | 0          | 0          | 0          |   0.0 |  0.00
Comm    | 0.043801   | 0.59452    | 1.8887     |  69.9 | 16.08
Output  | 0          | 0          | 0          |   0.0 |  0.00
Modify  | 5.7044e-05 | 0.0056548  | 0.011943   |   3.5 |  0.15
Other   |            | 0.3946     |            |       | 10.67

Nlocal:        5552.90 ave        7911 max           0 min
Histogram: 4 2 2 0 2 6 4 0 15 17
Nghost:        6213.54 ave        8769 max         412 min
Histogram: 4 0 4 0 8 0 4 5 7 20
Neighs:       158427.0 ave      230608 max           0 min
Histogram: 4 2 2 0 5 3 4 4 12 16

Total # of neighbors = 8238200
Ave neighs/atom = 28.530464
Neighbor list builds = 0
Dangerous builds = 0
The dot product: -1.30728026274707e-07
Setting atom values ...
  1 settings made for x
  1 settings made for y
  1 settings made for z
Setting up cg style minimization ...
  Unit style    : metal
  Current step  : 1274
Per MPI rank memory allocation (min/avg/max) = 5.465 | 6.344 | 6.728 Mbytes
Step PotEng KinEng TotEng v_fx v_fy v_fz 
    1274   -1152449.4            0   -1152449.4 0.0090037978  0.043517094 -0.051598998 
    1404   -1152449.4            0   -1152449.4 -2.9040569e-06 -2.6335861e-05 -2.2489518e-05 
Loop time of 2.85825 on 52 procs for 130 steps with 288751 atoms

99.9% CPU use with 52 MPI tasks x 1 OpenMP threads

Minimization stats:
  Stopping criterion = linesearch alpha is zero
  Energy initial, next-to-last, final = 
     -1152449.38954172  -1152449.39097068  -1152449.39097068
  Force two-norm initial, final = 0.17774816 0.00018262975
  Force max component initial, final = 0.066355096 3.1778152e-05
  Final line search alpha, max atom move = 0.25 7.9445379e-06
  Iterations, force evaluations = 130 263

MPI task timing breakdown:
Section |  min time  |  avg time  |  max time  |%varavg| %total
---------------------------------------------------------------
Pair    | 0.74334    | 2.091      | 2.7466     |  40.1 | 73.16
Neigh   | 0          | 0          | 0          |   0.0 |  0.00
Comm    | 0.03356    | 0.45982    | 1.4672     |  61.6 | 16.09
Output  | 0          | 0          | 0          |   0.0 |  0.00
Modify  | 2.9902e-05 | 0.0043904  | 0.0092754  |   3.1 |  0.15
Other   |            | 0.3031     |            |       | 10.60

Nlocal:        5552.90 ave        7911 max           0 min
Histogram: 4 2 2 0 2 6 4 0 15 17
Nghost:        6213.54 ave        8769 max         412 min
Histogram: 4 0 4 0 8 0 4 5 7 20
Neighs:       158427.0 ave      230600 max           0 min
Histogram: 4 2 2 0 5 3 4 4 12 16

Total # of neighbors = 8238197
Ave neighs/atom = 28.530454
Neighbor list builds = 0
Dangerous builds = 0
The dot product: 4.25907865273747e-08
Setting atom values ...
  1 settings made for x
  1 settings made for y
  1 settings made for z
Setting up cg style minimization ...
  Unit style    : metal
  Current step  : 1404
Per MPI rank memory allocation (min/avg/max) = 5.465 | 6.344 | 6.728 Mbytes
Step PotEng KinEng TotEng v_fx v_fy v_fz 
    1404   -1152449.4            0   -1152449.4 0.0085206184  0.055711974  -0.06098336 
    1590   -1152449.4            0   -1152449.4 -2.1550533e-06 -1.7500296e-05 -1.112931e-05 
Loop time of 4.06957 on 52 procs for 186 steps with 288751 atoms

99.9% CPU use with 52 MPI tasks x 1 OpenMP threads

Minimization stats:
  Stopping criterion = linesearch alpha is zero
  Energy initial, next-to-last, final = 
     -1152449.37548488  -1152449.37708543  -1152449.37708543
  Force two-norm initial, final = 0.18176043 9.4404003e-05
  Force max component initial, final = 0.067000351 2.3759719e-05
  Final line search alpha, max atom move = 0.5 1.1879859e-05
  Iterations, force evaluations = 186 373

MPI task timing breakdown:
Section |  min time  |  avg time  |  max time  |%varavg| %total
---------------------------------------------------------------
Pair    | 1.0567     | 2.9626     | 3.8955     |  47.6 | 72.80
Neigh   | 0          | 0          | 0          |   0.0 |  0.00
Comm    | 0.047723   | 0.65363    | 2.0896     |  72.9 | 16.06
Output  | 0          | 0          | 0          |   0.0 |  0.00
Modify  | 6.2227e-05 | 0.0062153  | 0.013125   |   3.7 |  0.15
Other   |            | 0.4471     |            |       | 10.99

Nlocal:        5552.90 ave        7912 max           0 min
Histogram: 4 2 2 0 2 6 4 0 15 17
Nghost:        6213.54 ave        8769 max         412 min
Histogram: 4 0 4 0 8 0 4 5 7 20
Neighs:       158427.0 ave      230642 max           0 min
Histogram: 4 2 2 0 5 3 4 4 12 16

Total # of neighbors = 8238194
Ave neighs/atom = 28.530443
Neighbor list builds = 0
Dangerous builds = 0
The dot product: -3.94637920401685e-08
Setting atom values ...
  1 settings made for x
  1 settings made for y
  1 settings made for z
Setting up cg style minimization ...
  Unit style    : metal
  Current step  : 1590
Per MPI rank memory allocation (min/avg/max) = 5.465 | 6.344 | 6.728 Mbytes
Step PotEng KinEng TotEng v_fx v_fy v_fz 
    1590   -1152449.4            0   -1152449.4 0.0044183131  0.085535325 -0.088323643 
    1816   -1152449.4            0   -1152449.4 -5.1614731e-08 3.5788068e-06 -1.0257625e-05 
Loop time of 4.90608 on 52 procs for 226 steps with 288751 atoms

99.9% CPU use with 52 MPI tasks x 1 OpenMP threads

Minimization stats:
  Stopping criterion = linesearch alpha is zero
  Energy initial, next-to-last, final = 
     -1152449.36080685  -1152449.36554473  -1152449.36554473
  Force two-norm initial, final = 0.20060767 5.1475558e-05
  Force max component initial, final = 0.088323643 1.0257625e-05
  Final line search alpha, max atom move = 0.5 5.1288127e-06
  Iterations, force evaluations = 226 453

MPI task timing breakdown:
Section |  min time  |  avg time  |  max time  |%varavg| %total
---------------------------------------------------------------
Pair    | 1.2806     | 3.5984     | 4.7113     |  52.6 | 73.35
Neigh   | 0          | 0          | 0          |   0.0 |  0.00
Comm    | 0.058427   | 0.78442    | 2.494      |  81.1 | 15.99
Output  | 0          | 0          | 0          |   0.0 |  0.00
Modify  | 6.0304e-05 | 0.0075313  | 0.015906   |   4.1 |  0.15
Other   |            | 0.5157     |            |       | 10.51

Nlocal:        5552.90 ave        7912 max           0 min
Histogram: 4 2 2 0 2 6 4 0 15 17
Nghost:        6213.54 ave        8769 max         412 min
Histogram: 4 0 4 0 8 0 4 5 7 20
Neighs:       158427.0 ave      230622 max           0 min
Histogram: 4 2 2 0 5 3 4 4 12 16

Total # of neighbors = 8238194
Ave neighs/atom = 28.530443
Neighbor list builds = 0
Dangerous builds = 0
The dot product: 5.80978994422905e-07
Setting atom values ...
  1 settings made for x
  1 settings made for y
  1 settings made for z
Setting up cg style minimization ...
  Unit style    : metal
  Current step  : 1816
Per MPI rank memory allocation (min/avg/max) = 5.465 | 6.344 | 6.728 Mbytes
Step PotEng KinEng TotEng v_fx v_fy v_fz 
[...]
Modify  | 7.3692e-05 | 0.0049925  | 0.010549   |   3.3 |  0.15
Other   |            | 0.3558     |            |       | 10.88

Nlocal:        5552.90 ave        7917 max           0 min
Histogram: 4 2 2 0 2 6 4 2 13 17
Nghost:        6213.54 ave        8769 max         412 min
Histogram: 4 0 4 0 8 0 4 5 7 20
Neighs:       158427.0 ave      230784 max           0 min
Histogram: 4 2 2 0 5 3 4 4 12 16

Total # of neighbors = 8238204
Ave neighs/atom = 28.530478
Neighbor list builds = 0
Dangerous builds = 0
The dot product: 7.61811558113078e-08
Setting atom values ...
  1 settings made for x
  1 settings made for y
  1 settings made for z
Setting up cg style minimization ...
  Unit style    : metal
  Current step  : 1272
Per MPI rank memory allocation (min/avg/max) = 5.465 | 6.344 | 6.728 Mbytes
Step PotEng KinEng TotEng v_fx v_fy v_fz 
    1272   -1152449.4            0   -1152449.4  0.022441375 -0.018151646 -0.061330966 
    1431   -1152449.4            0   -1152449.4 -4.4700434e-06 4.7814513e-06 -8.9349654e-07 
Loop time of 3.46264 on 52 procs for 159 steps with 288751 atoms

99.9% CPU use with 52 MPI tasks x 1 OpenMP threads

Minimization stats:
  Stopping criterion = linesearch alpha is zero
  Energy initial, next-to-last, final = 
      -1152449.3886059  -1152449.39015951  -1152449.39015951
  Force two-norm initial, final = 0.16180544 0.0001078734
  Force max component initial, final = 0.095207479 1.3053904e-05
  Final line search alpha, max atom move = 0.5 6.5269519e-06
  Iterations, force evaluations = 159 319

MPI task timing breakdown:
Section |  min time  |  avg time  |  max time  |%varavg| %total
---------------------------------------------------------------
Pair    | 0.90426    | 2.539      | 3.3269     |  44.2 | 73.33
Neigh   | 0          | 0          | 0          |   0.0 |  0.00
Comm    | 0.040665   | 0.55836    | 1.7733     |  68.1 | 16.13
Output  | 0          | 0          | 0          |   0.0 |  0.00
Modify  | 7.7263e-05 | 0.0053156  | 0.011227   |   3.4 |  0.15
Other   |            | 0.36       |            |       | 10.40

Nlocal:        5552.90 ave        7917 max           0 min
Histogram: 4 2 2 0 2 6 4 2 13 17
Nghost:        6213.54 ave        8769 max         412 min
Histogram: 4 0 4 0 8 0 4 5 7 20
Neighs:       158427.0 ave      230774 max           0 min
Histogram: 4 2 2 0 5 3 4 4 12 16

Total # of neighbors = 8238201
Ave neighs/atom = 28.530467
Neighbor list builds = 0
Dangerous builds = 0
The dot product: -4.59830408582587e-08
Setting atom values ...
  1 settings made for x
  1 settings made for y
  1 settings made for z
Setting up cg style minimization ...
  Unit style    : metal
  Current step  : 1431
Per MPI rank memory allocation (min/avg/max) = 5.465 | 6.344 | 6.728 Mbytes
Step PotEng KinEng TotEng v_fx v_fy v_fz 
    1431   -1152449.4            0   -1152449.4  0.029795444 -0.039355081  -0.10149616 
    1649   -1152449.4            0   -1152449.4 -1.9321709e-07 9.2894106e-07 1.5413841e-05 
Loop time of 4.75683 on 52 procs for 218 steps with 288751 atoms

99.9% CPU use with 52 MPI tasks x 1 OpenMP threads

Minimization stats:
  Stopping criterion = linesearch alpha is zero
  Energy initial, next-to-last, final = 
     -1152449.37715522  -1152449.38079357  -1152449.38079357
  Force two-norm initial, final = 0.18548196 7.0575376e-05
  Force max component initial, final = 0.10149616 1.5413841e-05
  Final line search alpha, max atom move = 0.5 7.7069206e-06
  Iterations, force evaluations = 218 437

MPI task timing breakdown:
Section |  min time  |  avg time  |  max time  |%varavg| %total
---------------------------------------------------------------
Pair    | 1.2372     | 3.4704     | 4.5666     |  51.5 | 72.96
Neigh   | 0          | 0          | 0          |   0.0 |  0.00
Comm    | 0.056081   | 0.76605    | 2.4363     |  79.4 | 16.10
Output  | 0          | 0          | 0          |   0.0 |  0.00
Modify  | 0.00010806 | 0.0072715  | 0.015306   |   4.0 |  0.15
Other   |            | 0.5131     |            |       | 10.79

Nlocal:        5552.90 ave        7918 max           0 min
Histogram: 4 2 2 0 2 6 4 2 13 17
Nghost:        6213.54 ave        8769 max         412 min
Histogram: 4 0 4 0 8 0 4 5 7 20
Neighs:       158427.0 ave      230814 max           0 min
Histogram: 4 2 2 0 5 3 4 4 12 16

Total # of neighbors = 8238201
Ave neighs/atom = 28.530467
Neighbor list builds = 0
Dangerous builds = 0
The dot product: -5.35941399178621e-07
Setting atom values ...
  1 settings made for x
  1 settings made for y
  1 settings made for z
Setting up cg style minimization ...
  Unit style    : metal
  Current step  : 1649
Per MPI rank memory allocation (min/avg/max) = 5.465 | 6.344 | 6.728 Mbytes
Step PotEng KinEng TotEng v_fx v_fy v_fz 
    1649   -1152449.4            0   -1152449.4  0.017198934 -0.059710208  -0.10474731 
    1820   -1152449.4            0   -1152449.4 2.115386e-05 -4.2778505e-05 -3.8409935e-05 
Loop time of 3.76213 on 52 procs for 171 steps with 288751 atoms

99.9% CPU use with 52 MPI tasks x 1 OpenMP threads

Minimization stats:
  Stopping criterion = linesearch alpha is zero
  Energy initial, next-to-last, final = 
     -1152449.36969198  -1152449.37260109  -1152449.37260109
  Force two-norm initial, final = 0.18629432 0.00026882968
  Force max component initial, final = 0.10474731 4.8981193e-05
  Final line search alpha, max atom move = 0.125 6.1226491e-06
  Iterations, force evaluations = 171 347

MPI task timing breakdown:
Section |  min time  |  avg time  |  max time  |%varavg| %total
---------------------------------------------------------------
Pair    | 0.98312    | 2.7625     | 3.6105     |  46.0 | 73.43
Neigh   | 0          | 0          | 0          |   0.0 |  0.00
Comm    | 0.044705   | 0.60634    | 1.9425     |  71.2 | 16.12
Output  | 0          | 0          | 0          |   0.0 |  0.00
Modify  | 8.636e-05  | 0.0057786  | 0.012197   |   3.6 |  0.15
Other   |            | 0.3875     |            |       | 10.30

Nlocal:        5552.90 ave        7918 max           0 min
Histogram: 4 2 2 0 2 6 4 2 13 17
Nghost:        6213.54 ave        8769 max         412 min
Histogram: 4 0 4 0 8 0 4 5 7 20
Neighs:       158427.0 ave      230803 max           0 min
Histogram: 4 2 2 0 5 3 4 4 12 16

Total # of neighbors = 8238200
Ave neighs/atom = 28.530464
Neighbor list builds = 0
Dangerous builds = 0
The dot product: 1.66942568196008e-06
Setting atom values ...
  1 settings made for x
  1 settings made for y
  1 settings made for z
Setting up cg style minimization ...
  Unit style    : metal
  Current step  : 1820
Per MPI rank memory allocation (min/avg/max) = 5.465 | 6.344 | 6.728 Mbytes
Step PotEng KinEng TotEng v_fx v_fy v_fz 
    1820   -1152449.4            0   -1152449.4  0.005271053 -0.042162427 -0.056239244 
    1992   -1152449.4            0   -1152449.4 2.3853946e-05 -1.7423317e-05 3.6067695e-05 
Loop time of 3.76532 on 52 procs for 172 steps with 288751 atoms

99.9% CPU use with 52 MPI tasks x 1 OpenMP threads

Minimization stats:
  Stopping criterion = linesearch alpha is zero
  Energy initial, next-to-last, final = 
     -1152449.36189966  -1152449.36359705  -1152449.36359705
  Force two-norm initial, final = 0.15437527 0.0001590687
  Force max component initial, final = 0.077018352 4.8949804e-05
  Final line search alpha, max atom move = 0.25 1.2237451e-05
  Iterations, force evaluations = 172 347

MPI task timing breakdown:
Section |  min time  |  avg time  |  max time  |%varavg| %total
---------------------------------------------------------------
Pair    | 0.98336    | 2.7591     | 3.6166     |  46.0 | 73.28
Neigh   | 0          | 0          | 0          |   0.0 |  0.00
Comm    | 0.044364   | 0.60965    | 1.9441     |  71.0 | 16.19
Output  | 0          | 0          | 0          |   0.0 |  0.00
Modify  | 8.3144e-05 | 0.0057935  | 0.012254   |   3.6 |  0.15
Other   |            | 0.3908     |            |       | 10.38

Nlocal:        5552.90 ave        7917 max           0 min
Histogram: 4 2 2 0 2 6 4 2 13 17
Nghost:        6213.54 ave        8769 max         412 min
Histogram: 4 0 4 0 8 0 4 5 7 20
Neighs:       158427.0 ave      230769 max           0 min
Histogram: 4 2 2 0 5 3 4 4 12 16

Total # of neighbors = 8238200
Ave neighs/atom = 28.530464
Neighbor list builds = 0
Dangerous builds = 0
The dot product: -2.83151931898366e-07
Setting atom values ...
  1 settings made for x
  1 settings made for y
  1 settings made for z
Setting up cg style minimization ...
  Unit style    : metal
  Current step  : 1992
Per MPI rank memory allocation (min/avg/max) = 5.465 | 6.344 | 6.728 Mbytes
Step PotEng KinEng TotEng v_fx v_fy v_fz 
    1992   -1152449.4            0   -1152449.4 0.0012017269 -0.022771058 -0.026965887 
    2000   -1152449.4            0   -1152449.4 0.00059963991 0.00028831526 0.0017744324 
    2146   -1152449.4            0   -1152449.4 5.3744343e-07 7.1133774e-06 1.0551301e-05 
Loop time of 3.38457 on 52 procs for 154 steps with 288751 atoms

99.9% CPU use with 52 MPI tasks x 1 OpenMP threads

Minimization stats:
  Stopping criterion = linesearch alpha is zero
  Energy initial, next-to-last, final = 
     -1152449.35269411  -1152449.35400226  -1152449.35400226
  Force two-norm initial, final = 0.1407446 0.00011309282
  Force max component initial, final = 0.07182183 1.5766470e-05
  Final line search alpha, max atom move = 0.5 7.8832352e-06
  Iterations, force evaluations = 154 311

MPI task timing breakdown:
Section |  min time  |  avg time  |  max time  |%varavg| %total
---------------------------------------------------------------
Pair    | 0.88251    | 2.475      | 3.2475     |  43.6 | 73.13
Neigh   | 0          | 0          | 0          |   0.0 |  0.00
Comm    | 0.039759   | 0.54354    | 1.731      |  67.2 | 16.06
Output  | 0.0001153  | 0.00011941 | 0.0002835  |   0.0 |  0.00
Modify  | 7.0087e-05 | 0.0051824  | 0.010941   |   3.4 |  0.15
Other   |            | 0.3607     |            |       | 10.66

Nlocal:        5552.90 ave        7917 max           0 min
Histogram: 4 2 2 0 2 6 4 2 13 17
Nghost:        6213.65 ave        8769 max         412 min
Histogram: 4 0 4 0 8 0 4 5 7 20
Neighs:       158427.0 ave      230787 max           0 min
Histogram: 4 2 2 0 5 3 4 4 12 16

Total # of neighbors = 8238203
Ave neighs/atom = 28.530474
Neighbor list builds = 0
Dangerous builds = 0
The dot product: -1.24394626698687e-07
Setting atom values ...
  1 settings made for x
  1 settings made for y
  1 settings made for z
Setting up cg style minimization ...
  Unit style    : metal
  Current step  : 2146
Per MPI rank memory allocation (min/avg/max) = 5.465 | 6.344 | 6.728 Mbytes
Step PotEng KinEng TotEng v_fx v_fy v_fz 
    2146   -1152449.3            0   -1152449.3 -0.0031440475  -0.01134805 -0.019794564 
    2266   -1152449.3            0   -1152449.3 1.6347554e-05 2.065291e-05 5.8813064e-05 
Loop time of 2.61144 on 52 procs for 120 steps with 288751 atoms

99.9% CPU use with 52 MPI tasks x 1 OpenMP threads

Minimization stats:
  Stopping criterion = energy tolerance
  Energy initial, next-to-last, final = 
     -1152449.34305961  -1152449.34470697  -1152449.34470697
  Force two-norm initial, final = 0.14054997 0.00019263588
  Force max component initial, final = 0.068457972 5.8813064e-05
  Final line search alpha, max atom move = 1.0000000 5.8813064e-05
  Iterations, force evaluations = 120 240

MPI task timing breakdown:
Section |  min time  |  avg time  |  max time  |%varavg| %total
---------------------------------------------------------------
Pair    | 0.68177    | 1.9124     | 2.5092     |  38.3 | 73.23
Neigh   | 0          | 0          | 0          |   0.0 |  0.00
Comm    | 0.030733   | 0.42266    | 1.3447     |  59.1 | 16.18
Output  | 0          | 0          | 0          |   0.0 |  0.00
Modify  | 6.0507e-05 | 0.0040106  | 0.0084164  |   2.9 |  0.15
Other   |            | 0.2723     |            |       | 10.43

Nlocal:        5552.90 ave        7917 max           0 min
Histogram: 4 2 2 0 2 6 4 2 13 17
Nghost:        6213.65 ave        8769 max         412 min
Histogram: 4 0 4 0 8 0 4 5 7 20
Neighs:       158427.0 ave      230786 max           0 min
Histogram: 4 2 2 0 5 3 4 4 12 16

Total # of neighbors = 8238202
Ave neighs/atom = 28.530471
Neighbor list builds = 0
Dangerous builds = 0
The dot product: -6.92590479156443e-07
Setting atom values ...
  1 settings made for x
  1 settings made for y
  1 settings made for z
Setting up cg style minimization ...
  Unit style    : metal
  Current step  : 2266
Per MPI rank memory allocation (min/avg/max) = 5.465 | 6.344 | 6.728 Mbytes
Step PotEng KinEng TotEng v_fx v_fy v_fz 
    2266   -1152449.3            0   -1152449.3 -0.0090347572 -0.0060144086 -0.023777468 
    2520   -1152449.3            0   -1152449.3 -1.1848813e-05 8.8419027e-06 -1.4071925e-05 
Loop time of 5.55964 on 52 procs for 254 steps with 288751 atoms

99.9% CPU use with 52 MPI tasks x 1 OpenMP threads

Minimization stats:
  Stopping criterion = energy tolerance
  Energy initial, next-to-last, final = 
     -1152449.33532635  -1152449.34518812  -1152449.34518812
  Force two-norm initial, final = 0.14736677 7.2761862e-05
  Force max component initial, final = 0.063562532 1.5418162e-05
  Final line search alpha, max atom move = 1.0000000 1.5418162e-05
  Iterations, force evaluations = 254 508

MPI task timing breakdown:
Section |  min time  |  avg time  |  max time  |%varavg| %total
---------------------------------------------------------------
Pair    | 1.4499     | 4.0481     | 5.3001     |  55.5 | 72.81
Neigh   | 1.983e-05  | 0.005715   | 0.0083948  |   3.2 |  0.10
Comm    | 0.068442   | 0.89319    | 2.8263     |  85.1 | 16.07
Output  | 0          | 0          | 0          |   0.0 |  0.00
Modify  | 0.0001213  | 0.008465   | 0.01793    |   4.3 |  0.15
Other   |            | 0.6042     |            |       | 10.87

Nlocal:        5552.90 ave        7915 max           0 min
Histogram: 4 2 2 0 2 6 4 2 13 17
Nghost:        6213.65 ave        8769 max         412 min
Histogram: 4 0 4 0 8 0 4 5 7 20
Neighs:       158427.0 ave      230709 max           0 min
Histogram: 4 2 2 0 5 3 4 4 12 16

Total # of neighbors = 8238200
Ave neighs/atom = 28.530464
Neighbor list builds = 1
Dangerous builds = 0
The dot product: 5.13217123313058e-07
Setting atom values ...
  1 settings made for x
  1 settings made for y
  1 settings made for z
Setting up cg style minimization ...
  Unit style    : metal
  Current step  : 2520
Per MPI rank memory allocation (min/avg/max) = 5.465 | 6.344 | 6.728 Mbytes
Step PotEng KinEng TotEng v_fx v_fy v_fz 
    2520   -1152449.3            0   -1152449.3  0.017671572   0.01290737   0.03578907 
    2636   -1152449.3            0   -1152449.3 -7.8277699e-06 5.0659916e-06 -7.7690523e-06 
Loop time of 2.53576 on 52 procs for 116 steps with 288751 atoms

99.9% CPU use with 52 MPI tasks x 1 OpenMP threads

Minimization stats:
  Stopping criterion = linesearch alpha is zero
  Energy initial, next-to-last, final = 
     -1152449.34738134  -1152449.34837724  -1152449.34837724
  Force two-norm initial, final = 0.13145915 9.8068174e-05
  Force max component initial, final = 0.048497781 7.8277699e-06
  Final line search alpha, max atom move = 0.5 3.9138850e-06
  Iterations, force evaluations = 116 233

MPI task timing breakdown:
Section |  min time  |  avg time  |  max time  |%varavg| %total
---------------------------------------------------------------
Pair    | 0.66001    | 1.8548     | 2.4312     |  37.7 | 73.15
Neigh   | 0          | 0          | 0          |   0.0 |  0.00
Comm    | 0.029896   | 0.40564    | 1.2987     |  58.4 | 16.00
Output  | 0          | 0          | 0          |   0.0 |  0.00
Modify  | 6.4775e-05 | 0.0038798  | 0.0081646  |   2.9 |  0.15
Other   |            | 0.2714     |            |       | 10.70

Nlocal:        5552.90 ave        7913 max           0 min
Histogram: 4 2 2 0 2 6 4 1 14 17
Nghost:        6213.54 ave        8769 max         412 min
Histogram: 4 0 4 0 8 0 4 5 7 20
Neighs:       158427.0 ave      230659 max           0 min
Histogram: 4 2 2 0 5 3 4 4 12 16

Total # of neighbors = 8238191
Ave neighs/atom = 28.530433
Neighbor list builds = 0
Dangerous builds = 0
The dot product: -2.93009597911945e-08
Setting atom values ...
  1 settings made for x
  1 settings made for y
  1 settings made for z
Setting up cg style minimization ...
  Unit style    : metal
  Current step  : 2636
Per MPI rank memory allocation (min/avg/max) = 5.465 | 6.344 | 6.728 Mbytes
Step PotEng KinEng TotEng v_fx v_fy v_fz 
    2636   -1152449.3            0   -1152449.3 0.0093499494 0.0056704194  0.018542172 
    2799   -1152449.4            0   -1152449.4 -1.3156103e-05 1.887136e-05 -5.3507984e-06 
Loop time of 3.57436 on 52 procs for 163 steps with 288751 atoms

99.9% CPU use with 52 MPI tasks x 1 OpenMP threads

Minimization stats:
  Stopping criterion = linesearch alpha is zero
  Energy initial, next-to-last, final = 
     -1152449.34966319   -1152449.3505677   -1152449.3505677
  Force two-norm initial, final = 0.12504667 0.00021315329
  Force max component initial, final = 0.047591538 3.4412559e-05
  Final line search alpha, max atom move = 0.25 8.6031398e-06
  Iterations, force evaluations = 163 329

MPI task timing breakdown:
Section |  min time  |  avg time  |  max time  |%varavg| %total
---------------------------------------------------------------
Pair    | 0.93446    | 2.6179     | 3.435      |  44.7 | 73.24
Neigh   | 0          | 0          | 0          |   0.0 |  0.00
Comm    | 0.042216   | 0.57468    | 1.829      |  69.1 | 16.08
Output  | 0          | 0          | 0          |   0.0 |  0.00
Modify  | 8.0812e-05 | 0.0054944  | 0.011575   |   3.5 |  0.15
Other   |            | 0.3763     |            |       | 10.53

Nlocal:        5552.90 ave        7913 max           0 min
Histogram: 4 2 2 0 2 6 4 1 14 17
Nghost:        6213.54 ave        8769 max         412 min
Histogram: 4 0 4 0 8 0 4 5 7 20
Neighs:       158427.0 ave      230652 max           0 min
Histogram: 4 2 2 0 5 3 4 4 12 16

Total # of neighbors = 8238193
Ave neighs/atom = 28.530440
Neighbor list builds = 0
Dangerous builds = 0
The dot product: 4.18941124069174e-12
Setting up cg style minimization ...
  Unit style    : metal
  Current step  : 2799
Per MPI rank memory allocation (min/avg/max) = 5.465 | 6.344 | 6.728 Mbytes
Step PotEng KinEng TotEng v_fx v_fy v_fz 
    2799   -1152449.4            0   -1152449.4  0.061546203    0.0314112 -0.040647006 
    2968   -1152449.4            0   -1152449.4 5.3761722e-05 -4.3422041e-05 7.2960295e-05 
Loop time of 3.67783 on 52 procs for 169 steps with 288751 atoms

99.9% CPU use with 52 MPI tasks x 1 OpenMP threads

Minimization stats:
  Stopping criterion = energy tolerance
  Energy initial, next-to-last, final = 
      -1152449.3505677  -1152449.35157327  -1152449.35157327
  Force two-norm initial, final = 0.080167466 0.00024026446
  Force max component initial, final = 0.061546203 7.2960295e-05
  Final line search alpha, max atom move = 1.0000000 7.2960295e-05
  Iterations, force evaluations = 169 338

MPI task timing breakdown:
Section |  min time  |  avg time  |  max time  |%varavg| %total
---------------------------------------------------------------
Pair    | 0.95961    | 2.6873     | 3.5333     |  45.3 | 73.07
Neigh   | 0          | 0          | 0          |   0.0 |  0.00
Comm    | 0.043417   | 0.59041    | 1.8825     |  69.9 | 16.05
Output  | 0          | 0          | 0          |   0.0 |  0.00
Modify  | 6.8146e-05 | 0.0036867  | 0.0093674  |   3.7 |  0.10
Other   |            | 0.3965     |            |       | 10.78

Nlocal:        5552.90 ave        7914 max           0 min
Histogram: 4 2 2 0 2 6 4 1 14 17
Nghost:        6213.54 ave        8769 max         412 min
Histogram: 4 0 4 0 8 0 4 5 7 20
Neighs:       158427.0 ave      230678 max           0 min
Histogram: 4 2 2 0 5 3 4 4 12 16

Total # of neighbors = 8238193
Ave neighs/atom = 28.530440
Neighbor list builds = 0
Dangerous builds = 0
