LAMMPS (29 Oct 2020)
OMP_NUM_THREADS environment is not set. Defaulting to 1 thread. (../comm.cpp:94)
  using 1 OpenMP thread(s) per MPI task
OMP_NUM_THREADS environment is not set. Defaulting to 1 thread. (../comm.cpp:94)
  using 1 OpenMP thread(s) per MPI task
Reading data file ...
  orthogonal box = (-122.39241 -121.13707 -37.090501) to (122.39241 121.13707 37.090501)
  13 by 4 by 2 MPI processor grid
  reading atoms ...
  288751 atoms
  read_data CPU = 0.435 seconds
199981 atoms in group inner
88770 atoms in group outer
1 atoms in group carbon
Neighbor list info ...
  update every 1 steps, delay 0 steps, check yes
  max neighbors/atom: 2000, page size: 100000
  master list distance cutoff = 5.6
  ghost atom cutoff = 5.6
  binsize = 2.8, bins = 88 87 27
  1 neighbor lists, perpetual/occasional/extra = 1 0 0
  (1) pair eam/alloy, perpetual
      attributes: half, newton on
      pair build: half/bin/atomonly/newton
      stencil: half/bin/3d/newton
      bin: standard
Setting up cg style minimization ...
  Unit style    : metal
  Current step  : 0
Per MPI rank memory allocation (min/avg/max) = 5.441 | 5.816 | 6.074 Mbytes
Step v_fx v_fy v_fz PotEng KinEng TotEng 
       0    25.675614    14.499197    49.136815   -1152433.7            0   -1152433.7 
     206 3.9470967e-06 4.5202006e-07 -3.6476595e-06   -1152449.5            0   -1152449.5 
Loop time of 2.39139 on 104 procs for 206 steps with 288751 atoms

99.8% CPU use with 104 MPI tasks x 1 OpenMP threads

Minimization stats:
  Stopping criterion = energy tolerance
  Energy initial, next-to-last, final = 
     -1152433.72376748  -1152449.45035286  -1152449.45035286
  Force two-norm initial, final = 86.020324 3.1058136e-05
  Force max component initial, final = 56.309633 4.5228635e-06
  Final line search alpha, max atom move = 1.0000000 4.5228635e-06
  Iterations, force evaluations = 206 404

MPI task timing breakdown:
Section |  min time  |  avg time  |  max time  |%varavg| %total
---------------------------------------------------------------
Pair    | 0.64152    | 1.712      | 2.2167     |  34.7 | 71.59
Neigh   | 5.437e-05  | 0.016071   | 0.024482   |   5.3 |  0.67
Comm    | 0.050937   | 0.39484    | 1.1688     |  51.2 | 16.51
Output  | 0          | 0          | 0          |   0.0 |  0.00
Modify  | 2.388e-05  | 0.0022078  | 0.0057101  |   2.9 |  0.09
Other   |            | 0.2663     |            |       | 11.14

Nlocal:        2776.45 ave        3958 max           0 min
Histogram: 8 4 4 0 4 12 8 2 28 34
Nghost:        3879.01 ave        5424 max         232 min
Histogram: 8 0 8 0 16 0 8 8 16 40
Neighs:        79213.6 ave      115362 max           0 min
Histogram: 8 4 4 0 10 6 8 8 24 32

Total # of neighbors = 8238212
Ave neighs/atom = 28.530506
Neighbor list builds = 5
Dangerous builds = 0
Setting atom values ...
  1 settings made for x
  1 settings made for y
  1 settings made for z
Setting up cg style minimization ...
  Unit style    : metal
  Current step  : 206
Per MPI rank memory allocation (min/avg/max) = 5.441 | 5.816 | 6.074 Mbytes
Step PotEng KinEng TotEng v_fx v_fy v_fz 
     206   -1152449.4            0   -1152449.4  0.012431216 -0.016212526 -0.020767637 
     324   -1152449.5            0   -1152449.5 -2.4690362e-05 1.2036454e-05 -2.3131529e-05 
Loop time of 1.38624 on 104 procs for 118 steps with 288751 atoms

99.9% CPU use with 104 MPI tasks x 1 OpenMP threads

Minimization stats:
  Stopping criterion = energy tolerance
  Energy initial, next-to-last, final = 
     -1152449.44947023   -1152449.4500204   -1152449.4500204
  Force two-norm initial, final = 0.10821816 0.0001859924
  Force max component initial, final = 0.047629062 2.7960555e-05
  Final line search alpha, max atom move = 1.0000000 2.7960555e-05
  Iterations, force evaluations = 118 236

MPI task timing breakdown:
Section |  min time  |  avg time  |  max time  |%varavg| %total
---------------------------------------------------------------
Pair    | 0.35968    | 0.99833    | 1.3022     |  27.0 | 72.02
Neigh   | 0          | 0          | 0          |   0.0 |  0.00
Comm    | 0.022385   | 0.22745    | 0.68965    |  39.5 | 16.41
Output  | 0          | 0          | 0          |   0.0 |  0.00
Modify  | 1.4347e-05 | 0.0019563  | 0.0041985  |   2.1 |  0.14
Other   |            | 0.1585     |            |       | 11.43

Nlocal:        2776.45 ave        3961 max           0 min
Histogram: 8 4 4 0 6 10 8 2 28 34
Nghost:        3879.01 ave        5424 max         232 min
Histogram: 8 0 8 0 16 0 8 8 16 40
Neighs:        79213.4 ave      115455 max           0 min
Histogram: 8 4 4 0 10 6 8 8 24 32

Total # of neighbors = 8238197
Ave neighs/atom = 28.530454
Neighbor list builds = 0
Dangerous builds = 0
Setting atom values ...
  1 settings made for x
  1 settings made for y
  1 settings made for z
Setting up cg style minimization ...
  Unit style    : metal
  Current step  : 324
Per MPI rank memory allocation (min/avg/max) = 5.441 | 5.816 | 6.074 Mbytes
Step PotEng KinEng TotEng v_fx v_fy v_fz 
     324   -1152449.4            0   -1152449.4   0.02164151 -0.023242095 -0.033928541 
     465   -1152449.4            0   -1152449.4 -9.7984562e-07 7.1881872e-06 3.1945882e-05 
Loop time of 1.63471 on 104 procs for 141 steps with 288751 atoms

99.9% CPU use with 104 MPI tasks x 1 OpenMP threads

Minimization stats:
  Stopping criterion = energy tolerance
  Energy initial, next-to-last, final = 
     -1152449.44665781  -1152449.44808491  -1152449.44808491
  Force two-norm initial, final = 0.17472625 0.0001463118
  Force max component initial, final = 0.079527808 3.1945882e-05
  Final line search alpha, max atom move = 1.0000000 3.1945882e-05
  Iterations, force evaluations = 141 282

MPI task timing breakdown:
Section |  min time  |  avg time  |  max time  |%varavg| %total
---------------------------------------------------------------
Pair    | 0.42858    | 1.1841     | 1.5374     |  29.3 | 72.44
Neigh   | 0          | 0          | 0          |   0.0 |  0.00
Comm    | 0.029094   | 0.2666     | 0.8071     |  43.6 | 16.31
Output  | 0          | 0          | 0          |   0.0 |  0.00
Modify  | 1.9413e-05 | 0.0023322  | 0.0050791  |   2.3 |  0.14
Other   |            | 0.1816     |            |       | 11.11

Nlocal:        2776.45 ave        3961 max           0 min
Histogram: 8 4 4 0 6 10 8 2 28 34
Nghost:        3879.01 ave        5424 max         232 min
Histogram: 8 0 8 0 16 0 8 8 16 40
Neighs:        79213.5 ave      115455 max           0 min
Histogram: 8 4 4 0 10 6 8 8 24 32

Total # of neighbors = 8238199
Ave neighs/atom = 28.530461
Neighbor list builds = 0
Dangerous builds = 0
The dot product: -8.03249966686496e-08
Setting atom values ...
  1 settings made for x
  1 settings made for y
  1 settings made for z
Setting up cg style minimization ...
  Unit style    : metal
  Current step  : 465
Per MPI rank memory allocation (min/avg/max) = 5.441 | 5.816 | 6.074 Mbytes
Step PotEng KinEng TotEng v_fx v_fy v_fz 
     465   -1152449.4            0   -1152449.4    0.0210214 -0.019039937 -0.031906345 
     590   -1152449.4            0   -1152449.4 6.2278447e-06 -2.5682606e-06 2.0019285e-05 
Loop time of 1.45378 on 104 procs for 125 steps with 288751 atoms

99.9% CPU use with 104 MPI tasks x 1 OpenMP threads

Minimization stats:
  Stopping criterion = energy tolerance
  Energy initial, next-to-last, final = 
     -1152449.44328002  -1152449.44466019  -1152449.44466019
  Force two-norm initial, final = 0.17149282 9.9003326e-05
  Force max component initial, final = 0.079139338 2.0363741e-05
  Final line search alpha, max atom move = 1.0000000 2.0363741e-05
  Iterations, force evaluations = 125 250

MPI task timing breakdown:
Section |  min time  |  avg time  |  max time  |%varavg| %total
---------------------------------------------------------------
Pair    | 0.37929    | 1.0554     | 1.3672     |  27.8 | 72.60
Neigh   | 0          | 0          | 0          |   0.0 |  0.00
Comm    | 0.021393   | 0.23876    | 0.71841    |  41.0 | 16.42
Output  | 0          | 0          | 0          |   0.0 |  0.00
Modify  | 1.516e-05  | 0.0020746  | 0.0045124  |   2.2 |  0.14
Other   |            | 0.1575     |            |       | 10.84

Nlocal:        2776.45 ave        3961 max           0 min
Histogram: 8 4 4 0 6 10 8 2 28 34
Nghost:        3879.01 ave        5424 max         232 min
Histogram: 8 0 8 0 16 0 8 8 16 40
Neighs:        79213.5 ave      115455 max           0 min
Histogram: 8 4 4 0 10 6 8 8 24 32

Total # of neighbors = 8238199
Ave neighs/atom = 28.530461
Neighbor list builds = 0
Dangerous builds = 0
The dot product: -7.08811223858884e-08
Setting atom values ...
  1 settings made for x
  1 settings made for y
  1 settings made for z
Setting up cg style minimization ...
  Unit style    : metal
  Current step  : 590
Per MPI rank memory allocation (min/avg/max) = 5.441 | 5.816 | 6.074 Mbytes
Step PotEng KinEng TotEng v_fx v_fy v_fz 
     590   -1152449.4            0   -1152449.4  0.019614359 -0.015596446 -0.026193782 
     753   -1152449.4            0   -1152449.4 -8.2261605e-06 6.3270781e-06 2.0556295e-06 
Loop time of 1.87425 on 104 procs for 163 steps with 288751 atoms

99.9% CPU use with 104 MPI tasks x 1 OpenMP threads

Minimization stats:
  Stopping criterion = energy tolerance
  Energy initial, next-to-last, final = 
     -1152449.43854587  -1152449.43990957  -1152449.43990957
  Force two-norm initial, final = 0.16884824 0.00014000418
  Force max component initial, final = 0.077232741 1.5034513e-05
  Final line search alpha, max atom move = 1.0000000 1.5034513e-05
  Iterations, force evaluations = 163 326

MPI task timing breakdown:
Section |  min time  |  avg time  |  max time  |%varavg| %total
---------------------------------------------------------------
Pair    | 0.49438    | 1.364      | 1.7709     |  31.5 | 72.78
Neigh   | 0          | 0          | 0          |   0.0 |  0.00
Comm    | 0.034203   | 0.30442    | 0.92358    |  46.9 | 16.24
Output  | 0          | 0          | 0          |   0.0 |  0.00
Modify  | 1.9852e-05 | 0.002696   | 0.0058465  |   2.5 |  0.14
Other   |            | 0.2031     |            |       | 10.84

Nlocal:        2776.45 ave        3961 max           0 min
Histogram: 8 4 4 0 6 10 8 2 28 34
Nghost:        3879.01 ave        5424 max         232 min
Histogram: 8 0 8 0 16 0 8 8 16 40
Neighs:        79213.5 ave      115455 max           0 min
Histogram: 8 4 4 0 10 6 8 8 24 32

Total # of neighbors = 8238201
Ave neighs/atom = 28.530467
Neighbor list builds = 0
Dangerous builds = 0
The dot product: 7.19356616061716e-09
Setting atom values ...
  1 settings made for x
  1 settings made for y
  1 settings made for z
Setting up cg style minimization ...
  Unit style    : metal
  Current step  : 753
Per MPI rank memory allocation (min/avg/max) = 5.441 | 5.816 | 6.074 Mbytes
Step PotEng KinEng TotEng v_fx v_fy v_fz 
     753   -1152449.4            0   -1152449.4  0.017870218 -0.013481654 -0.019480443 
     880   -1152449.4            0   -1152449.4 1.4734265e-06 -7.2133065e-07 -1.2483429e-05 
Loop time of 1.48045 on 104 procs for 127 steps with 288751 atoms

99.9% CPU use with 104 MPI tasks x 1 OpenMP threads

Minimization stats:
  Stopping criterion = energy tolerance
  Energy initial, next-to-last, final = 
     -1152449.43244143  -1152449.43379724  -1152449.43379724
  Force two-norm initial, final = 0.16729228 0.00021570047
  Force max component initial, final = 0.074583302 4.4739352e-05
  Final line search alpha, max atom move = 1.0000000 4.4739352e-05
  Iterations, force evaluations = 127 254

MPI task timing breakdown:
Section |  min time  |  avg time  |  max time  |%varavg| %total
---------------------------------------------------------------
Pair    | 0.3992     | 1.0745     | 1.3855     |  27.5 | 72.58
Neigh   | 0          | 0          | 0          |   0.0 |  0.00
Comm    | 0.027125   | 0.23892    | 0.73237    |  41.6 | 16.14
Output  | 0          | 0          | 0          |   0.0 |  0.00
Modify  | 1.5517e-05 | 0.0020984  | 0.0045266  |   2.2 |  0.14
Other   |            | 0.1649     |            |       | 11.14

Nlocal:        2776.45 ave        3961 max           0 min
Histogram: 8 4 4 0 6 10 8 2 28 34
Nghost:        3879.01 ave        5424 max         232 min
Histogram: 8 0 8 0 16 0 8 8 16 40
Neighs:        79213.5 ave      115455 max           0 min
Histogram: 8 4 4 0 10 6 8 8 24 32

Total # of neighbors = 8238202
Ave neighs/atom = 28.530471
Neighbor list builds = 0
Dangerous builds = 0
The dot product: 3.42310870501603e-08
Setting atom values ...
  1 settings made for x
  1 settings made for y
  1 settings made for z
Setting up cg style minimization ...
  Unit style    : metal
  Current step  : 880
Per MPI rank memory allocation (min/avg/max) = 5.441 | 5.816 | 6.074 Mbytes
Step PotEng KinEng TotEng v_fx v_fy v_fz 
     880   -1152449.4            0   -1152449.4  0.016166349  -0.01237748  -0.01339492 
    1000   -1152449.4            0   -1152449.4 3.3025325e-05 -2.1208409e-05 -7.9015469e-05 
    1063   -1152449.4            0   -1152449.4 -3.0586625e-06 3.4037451e-06 -1.091989e-05 
Loop time of 2.11542 on 104 procs for 183 steps with 288751 atoms

99.9% CPU use with 104 MPI tasks x 1 OpenMP threads

Minimization stats:
  Stopping criterion = energy tolerance
  Energy initial, next-to-last, final = 
     -1152449.42492646  -1152449.42628337  -1152449.42628337
  Force two-norm initial, final = 0.16676481 9.7420819e-05
  Force max component initial, final = 0.074436437 2.2194578e-05
  Final line search alpha, max atom move = 1.0000000 2.2194578e-05
  Iterations, force evaluations = 183 366

MPI task timing breakdown:
Section |  min time  |  avg time  |  max time  |%varavg| %total
---------------------------------------------------------------
Pair    | 0.5541     | 1.5304     | 1.9875     |  33.4 | 72.35
Neigh   | 0          | 0          | 0          |   0.0 |  0.00
Comm    | 0.033655   | 0.34207    | 1.0321     |  49.5 | 16.17
Output  | 0.00016274 | 0.00017114 | 0.00030725 |   0.0 |  0.01
Modify  | 2.1709e-05 | 0.0030213  | 0.0064788  |   2.6 |  0.14
Other   |            | 0.2397     |            |       | 11.33

Nlocal:        2776.45 ave        3961 max           0 min
Histogram: 8 4 4 0 6 10 8 2 28 34
Nghost:        3879.01 ave        5424 max         232 min
Histogram: 8 0 8 0 16 0 8 8 16 40
Neighs:        79213.5 ave      115455 max           0 min
Histogram: 8 4 4 0 10 6 8 8 24 32

Total # of neighbors = 8238201
Ave neighs/atom = 28.530467
Neighbor list builds = 0
Dangerous builds = 0
The dot product: 3.99291744205527e-08
Setting atom values ...
  1 settings made for x
  1 settings made for y
  1 settings made for z
Setting up cg style minimization ...
  Unit style    : metal
  Current step  : 1063
Per MPI rank memory allocation (min/avg/max) = 5.441 | 5.816 | 6.074 Mbytes
Step PotEng KinEng TotEng v_fx v_fy v_fz 
    1063   -1152449.4            0   -1152449.4  0.014772811 -0.011910412 -0.0086999066 
    1180   -1152449.4            0   -1152449.4 5.8127002e-06 4.0838261e-06 -8.2548215e-05 
Loop time of 1.37759 on 104 procs for 117 steps with 288751 atoms

99.9% CPU use with 104 MPI tasks x 1 OpenMP threads

Minimization stats:
  Stopping criterion = energy tolerance
  Energy initial, next-to-last, final = 
     -1152449.41597254  -1152449.41733622  -1152449.41733622
  Force two-norm initial, final = 0.16681137 0.00026226822
  Force max component initial, final = 0.074755638 8.2548215e-05
  Final line search alpha, max atom move = 1.0000000 8.2548215e-05
  Iterations, force evaluations = 117 234

MPI task timing breakdown:
Section |  min time  |  avg time  |  max time  |%varavg| %total
---------------------------------------------------------------
Pair    | 0.35783    | 0.99307    | 1.2843     |  26.8 | 72.09
Neigh   | 0          | 0          | 0          |   0.0 |  0.00
Comm    | 0.025056   | 0.2235     | 0.66797    |  39.6 | 16.22
Output  | 0          | 0          | 0          |   0.0 |  0.00
Modify  | 1.426e-05  | 0.0019435  | 0.0042358  |   2.1 |  0.14
Other   |            | 0.1591     |            |       | 11.55

Nlocal:        2776.45 ave        3960 max           0 min
Histogram: 8 4 4 0 4 12 8 2 28 34
Nghost:        3879.01 ave        5424 max         232 min
Histogram: 8 0 8 0 16 0 8 8 16 40
Neighs:        79213.5 ave      115424 max           0 min
Histogram: 8 4 4 0 10 6 8 8 24 32

Total # of neighbors = 8238203
Ave neighs/atom = 28.530474
Neighbor list builds = 0
Dangerous builds = 0
The dot product: 1.68107097549531e-07
Setting atom values ...
  1 settings made for x
  1 settings made for y
  1 settings made for z
Setting up cg style minimization ...
  Unit style    : metal
  Current step  : 1180
Per MPI rank memory allocation (min/avg/max) = 5.441 | 5.816 | 6.074 Mbytes
Step PotEng KinEng TotEng v_fx v_fy v_fz 
    1180   -1152449.4            0   -1152449.4  0.013928398  -0.01202381 -0.0050445083 
    1371   -1152449.4            0   -1152449.4 2.3752027e-06 -2.2915128e-06 9.3122702e-07 
Loop time of 2.18893 on 104 procs for 191 steps with 288751 atoms

99.9% CPU use with 104 MPI tasks x 1 OpenMP threads

Minimization stats:
  Stopping criterion = energy tolerance
  Energy initial, next-to-last, final = 
     -1152449.40555885  -1152449.40693081  -1152449.40693081
  Force two-norm initial, final = 0.16711533 6.2791254e-05
  Force max component initial, final = 0.0746565 7.8397827e-06
  Final line search alpha, max atom move = 1.0000000 7.8397827e-06
  Iterations, force evaluations = 191 382

MPI task timing breakdown:
Section |  min time  |  avg time  |  max time  |%varavg| %total
---------------------------------------------------------------
Pair    | 0.57793    | 1.598      | 2.0713     |  34.1 | 73.00
Neigh   | 0          | 0          | 0          |   0.0 |  0.00
Comm    | 0.035333   | 0.35504    | 1.0831     |  51.1 | 16.22
Output  | 0          | 0          | 0          |   0.0 |  0.00
Modify  | 2.2868e-05 | 0.0031499  | 0.0068037  |   2.7 |  0.14
Other   |            | 0.2328     |            |       | 10.63

Nlocal:        2776.45 ave        3956 max           0 min
Histogram: 8 4 4 0 4 12 8 2 28 34
Nghost:        3879.01 ave        5424 max         232 min
Histogram: 8 0 8 0 16 0 8 8 16 40
Neighs:        79213.5 ave      115299 max           0 min
Histogram: 8 4 4 0 10 6 8 8 24 32

Total # of neighbors = 8238201
Ave neighs/atom = 28.530467
Neighbor list builds = 0
Dangerous builds = 0
The dot product: -1.17436452146446e-08
Setting atom values ...
  1 settings made for x
  1 settings made for y
  1 settings made for z
Setting up cg style minimization ...
  Unit style    : metal
  Current step  : 1371
Per MPI rank memory allocation (min/avg/max) = 5.441 | 5.816 | 6.074 Mbytes
Step PotEng KinEng TotEng v_fx v_fy v_fz 
    1371   -1152449.4            0   -1152449.4   0.01387766 -0.012787773 -0.0025274765 
    1524   -1152449.4            0   -1152449.4 -1.6727028e-05 1.7262332e-05 -8.9840949e-06 
Loop time of 1.78654 on 104 procs for 153 steps with 288751 atoms

99.9% CPU use with 104 MPI tasks x 1 OpenMP threads

Minimization stats:
  Stopping criterion = energy tolerance
  Energy initial, next-to-last, final = 
     -1152449.39366492  -1152449.39504343  -1152449.39504343
  Force two-norm initial, final = 0.16756465 0.00017791678
  Force max component initial, final = 0.074518157 3.8691302e-05
  Final line search alpha, max atom move = 1.0000000 3.8691302e-05
  Iterations, force evaluations = 153 306

MPI task timing breakdown:
Section |  min time  |  avg time  |  max time  |%varavg| %total
---------------------------------------------------------------
Pair    | 0.46469    | 1.2914     | 1.6721     |  30.6 | 72.28
Neigh   | 0          | 0          | 0          |   0.0 |  0.00
Comm    | 0.029674   | 0.29166    | 0.90508    |  45.7 | 16.33
Output  | 0          | 0          | 0          |   0.0 |  0.00
Modify  | 1.8394e-05 | 0.0025258  | 0.0054688  |   2.4 |  0.14
Other   |            | 0.201      |            |       | 11.25

Nlocal:        2776.45 ave        3954 max           0 min
Histogram: 8 4 4 0 4 12 8 2 28 34
Nghost:        3879.01 ave        5424 max         232 min
Histogram: 8 0 8 0 16 0 8 8 16 40
Neighs:        79213.5 ave      115233 max           0 min
Histogram: 8 4 4 0 10 6 8 8 24 32

Total # of neighbors = 8238202
Ave neighs/atom = 28.530471
Neighbor list builds = 0
Dangerous builds = 0
The dot product: 8.30678601409453e-08
Setting atom values ...
  1 settings made for x
  1 settings made for y
  1 settings made for z
Setting up cg style minimization ...
  Unit style    : metal
  Current step  : 1524
Per MPI rank memory allocation (min/avg/max) = 5.441 | 5.816 | 6.074 Mbytes
Step PotEng KinEng TotEng v_fx v_fy v_fz 
    1524   -1152449.4            0   -1152449.4  0.014519676 -0.014140548 -0.00066867981 
    1675   -1152449.4            0   -1152449.4 1.8946409e-05 -4.9654683e-06 -8.0544127e-05 
Loop time of 1.75112 on 104 procs for 151 steps with 288751 atoms

99.9% CPU use with 104 MPI tasks x 1 OpenMP threads

Minimization stats:
  Stopping criterion = energy tolerance
  Energy initial, next-to-last, final = 
     -1152449.38027143  -1152449.38165486  -1152449.38165486
  Force two-norm initial, final = 0.16796131 0.00023158933
  Force max component initial, final = 0.074343227 8.0544127e-05
  Final line search alpha, max atom move = 1.0000000 8.0544127e-05
  Iterations, force evaluations = 151 302

MPI task timing breakdown:
Section |  min time  |  avg time  |  max time  |%varavg| %total
---------------------------------------------------------------
Pair    | 0.45852    | 1.2704     | 1.6495     |  30.5 | 72.55
Neigh   | 0          | 0          | 0          |   0.0 |  0.00
Comm    | 0.027665   | 0.28589    | 0.86185    |  44.9 | 16.33
Output  | 0          | 0          | 0          |   0.0 |  0.00
Modify  | 1.7942e-05 | 0.002495   | 0.0053731  |   2.4 |  0.14
Other   |            | 0.1923     |            |       | 10.98

Nlocal:        2776.45 ave        3952 max           0 min
Histogram: 8 4 4 0 4 12 8 2 28 34
Nghost:        3879.01 ave        5424 max         232 min
Histogram: 8 0 8 0 16 0 8 8 16 40
Neighs:        79213.5 ave      115163 max           0 min
Histogram: 8 4 4 0 10 6 8 8 24 32

Total # of neighbors = 8238203
Ave neighs/atom = 28.530474
Neighbor list builds = 0
Dangerous builds = 0
The dot product: 8.07653451860369e-08
Setting atom values ...
  1 settings made for x
  1 settings made for y
  1 settings made for z
Setting up cg style minimization ...
  Unit style    : metal
  Current step  : 1675
Per MPI rank memory allocation (min/avg/max) = 5.441 | 5.816 | 6.074 Mbytes
Step PotEng KinEng TotEng v_fx v_fy v_fz 
    1675   -1152449.4            0   -1152449.4  0.015583999 -0.015764393 0.00031907687 
    1858   -1152449.4            0   -1152449.4 1.7315619e-05 -1.0808918e-05 -3.632195e-05 
Loop time of 2.12367 on 104 procs for 183 steps with 288751 atoms

99.9% CPU use with 104 MPI tasks x 1 OpenMP threads

Minimization stats:
  Stopping criterion = energy tolerance
  Energy initial, next-to-last, final = 
     -1152449.36536049   -1152449.3667486   -1152449.3667486
  Force two-norm initial, final = 0.16836519 0.00011393357
  Force max component initial, final = 0.074276478 3.6321950e-05
  Final line search alpha, max atom move = 1.0000000 3.6321950e-05
  Iterations, force evaluations = 183 366

MPI task timing breakdown:
Section |  min time  |  avg time  |  max time  |%varavg| %total
---------------------------------------------------------------
Pair    | 0.55695    | 1.5417     | 2.0037     |  33.4 | 72.60
Neigh   | 0          | 0          | 0          |   0.0 |  0.00
Comm    | 0.039935   | 0.34924    | 1.0594     |  49.4 | 16.45
Output  | 0          | 0          | 0          |   0.0 |  0.00
Modify  | 2.2082e-05 | 0.0030222  | 0.0066463  |   2.6 |  0.14
Other   |            | 0.2297     |            |       | 10.81

Nlocal:        2776.45 ave        3950 max           0 min
Histogram: 8 4 4 0 4 12 8 2 26 36
Nghost:        3879.01 ave        5424 max         232 min
Histogram: 8 0 8 0 16 0 8 8 16 40
Neighs:        79213.5 ave      115084 max           0 min
Histogram: 8 4 4 0 10 6 8 8 24 32

Total # of neighbors = 8238204
Ave neighs/atom = 28.530478
Neighbor list builds = 0
Dangerous builds = 0
The dot product: 1.57427838705843e-08
Setting atom values ...
  1 settings made for x
  1 settings made for y
  1 settings made for z
Setting up cg style minimization ...
  Unit style    : metal
  Current step  : 1858
Per MPI rank memory allocation (min/avg/max) = 5.441 | 5.816 | 6.074 Mbytes
Step PotEng KinEng TotEng v_fx v_fy v_fz 
    1858   -1152449.3            0   -1152449.3  0.016277317 -0.016851202 0.00051566829 
    2000   -1152449.4            0   -1152449.4 -1.3350554e-05 4.6429319e-07 6.7745911e-05 
    2036   -1152449.4            0   -1152449.4 -8.8949495e-06 -5.6181855e-07 4.9582505e-05 
Loop time of 2.03754 on 104 procs for 178 steps with 288751 atoms

99.9% CPU use with 104 MPI tasks x 1 OpenMP threads

Minimization stats:
  Stopping criterion = energy tolerance
  Energy initial, next-to-last, final = 
     -1152449.34890956  -1152449.35030222  -1152449.35030222
  Force two-norm initial, final = 0.1686306 0.00014733471
  Force max component initial, final = 0.074365801 4.9582505e-05
  Final line search alpha, max atom move = 1.0000000 4.9582505e-05
  Iterations, force evaluations = 178 356

MPI task timing breakdown:
Section |  min time  |  avg time  |  max time  |%varavg| %total
---------------------------------------------------------------
Pair    | 0.53971    | 1.4871     | 1.9234     |  32.8 | 72.98
Neigh   | 0          | 0          | 0          |   0.0 |  0.00
Comm    | 0.030618   | 0.33115    | 1.004      |  49.0 | 16.25
Output  | 0.0001598  | 0.00016317 | 0.00029297 |   0.0 |  0.01
Modify  | 2.1822e-05 | 0.0029385  | 0.006327   |   2.6 |  0.14
Other   |            | 0.2162     |            |       | 10.61

Nlocal:        2776.45 ave        3947 max           0 min
Histogram: 8 4 4 0 4 12 8 2 26 36
Nghost:        3879.01 ave        5424 max         232 min
Histogram: 8 0 8 0 16 0 8 8 16 40
Neighs:        79213.5 ave      114995 max           0 min
Histogram: 8 4 4 0 10 6 8 8 24 32

Total # of neighbors = 8238204
Ave neighs/atom = 28.530478
Neighbor list builds = 0
Dangerous builds = 0
The dot product: -8.40750932728799e-08
Setting atom values ...
  1 settings made for x
  1 settings made for y
  1 settings made for z
Setting up cg style minimization ...
  Unit style    : metal
  Current step  : 2036
Per MPI rank memory allocation (min/avg/max) = 5.441 | 5.816 | 6.074 Mbytes
Step PotEng KinEng TotEng v_fx v_fy v_fz 
    2036   -1152449.3            0   -1152449.3  0.016125439 -0.016873774 -0.00014098634 
    2253   -1152449.3            0   -1152449.3 8.5215635e-07 7.2928582e-07 -7.7246402e-06 
Loop time of 2.49178 on 104 procs for 217 steps with 288751 atoms

99.9% CPU use with 104 MPI tasks x 1 OpenMP threads

Minimization stats:
  Stopping criterion = energy tolerance
  Energy initial, next-to-last, final = 
     -1152449.33089103   -1152449.3323031   -1152449.3323031
  Force two-norm initial, final = 0.16873896 4.1942936e-05
  Force max component initial, final = 0.074492724 9.0090073e-06
  Final line search alpha, max atom move = 1.0000000 9.0090073e-06
  Iterations, force evaluations = 217 434

MPI task timing breakdown:
Section |  min time  |  avg time  |  max time  |%varavg| %total
---------------------------------------------------------------
Pair    | 0.65681    | 1.8233     | 2.3562     |  36.3 | 73.17
Neigh   | 0          | 0          | 0          |   0.0 |  0.00
Comm    | 0.038854   | 0.40308    | 1.2268     |  54.8 | 16.18
Output  | 0          | 0          | 0          |   0.0 |  0.00
Modify  | 2.5949e-05 | 0.0035752  | 0.0078768  |   2.8 |  0.14
Other   |            | 0.2618     |            |       | 10.51

Nlocal:        2776.45 ave        3943 max           0 min
Histogram: 8 4 4 0 4 12 8 2 26 36
Nghost:        3879.05 ave        5424 max         232 min
Histogram: 8 0 8 0 16 0 8 8 16 40
Neighs:        79213.5 ave      114879 max           0 min
Histogram: 8 4 4 0 10 6 8 8 22 34

Total # of neighbors = 8238202
Ave neighs/atom = 28.530471
Neighbor list builds = 0
Dangerous builds = 0
The dot product: 2.35092106065117e-08
Setting atom values ...
  1 settings made for x
  1 settings made for y
  1 settings made for z
Setting up cg style minimization ...
  Unit style    : metal
  Current step  : 2253
Per MPI rank memory allocation (min/avg/max) = 5.441 | 5.816 | 6.074 Mbytes
Step PotEng KinEng TotEng v_fx v_fy v_fz 
    2253   -1152449.3            0   -1152449.3  0.013830641 -0.013830214 -0.004359517 
    2465   -1152449.3            0   -1152449.3 -1.0627381e-06 -1.4349695e-06 1.1165338e-05 
Loop time of 2.42207 on 104 procs for 212 steps with 288751 atoms

99.9% CPU use with 104 MPI tasks x 1 OpenMP threads

Minimization stats:
  Stopping criterion = energy tolerance
  Energy initial, next-to-last, final = 
     -1152449.31130293  -1152449.31287199  -1152449.31287199
  Force two-norm initial, final = 0.16864079 6.3110486e-05
  Force max component initial, final = 0.074308225 1.5474616e-05
  Final line search alpha, max atom move = 1.0000000 1.5474616e-05
  Iterations, force evaluations = 212 424

MPI task timing breakdown:
Section |  min time  |  avg time  |  max time  |%varavg| %total
---------------------------------------------------------------
Pair    | 0.64229    | 1.7725     | 2.2944     |  35.9 | 73.18
Neigh   | 0          | 0          | 0          |   0.0 |  0.00
Comm    | 0.038214   | 0.39369    | 1.1991     |  53.7 | 16.25
Output  | 0          | 0          | 0          |   0.0 |  0.00
Modify  | 2.531e-05  | 0.0034986  | 0.0075657  |   2.8 |  0.14
Other   |            | 0.2523     |            |       | 10.42

Nlocal:        2776.45 ave        3936 max           0 min
Histogram: 8 4 4 0 4 12 8 0 28 36
Nghost:        3879.05 ave        5424 max         232 min
Histogram: 8 0 8 0 16 0 8 8 16 40
Neighs:        79213.4 ave      114662 max           0 min
Histogram: 8 4 4 0 8 8 8 8 22 34

Total # of neighbors = 8238196
Ave neighs/atom = 28.530450
Neighbor list builds = 0
Dangerous builds = 0
The dot product: -1.01330449763773e-07
Setting atom values ...
  1 settings made for x
  1 settings made for y
  1 settings made for z
Setting up cg style minimization ...
  Unit style    : metal
  Current step  : 2465
Per MPI rank memory allocation (min/avg/max) = 5.441 | 5.816 | 6.074 Mbytes
Step PotEng KinEng TotEng v_fx v_fy v_fz 
    2465   -1152449.3            0   -1152449.3 -0.0019767494  0.010258852 -0.027636699 
    2666   -1152449.3            0   -1152449.3 -2.6233325e-06 -1.4373584e-06 1.5375444e-05 
Loop time of 2.30417 on 104 procs for 201 steps with 288751 atoms

99.9% CPU use with 104 MPI tasks x 1 OpenMP threads

Minimization stats:
  Stopping criterion = energy tolerance
  Energy initial, next-to-last, final = 
     -1152449.29039322  -1152449.29271877  -1152449.29271877
  Force two-norm initial, final = 0.17088665 0.00011406693
  Force max component initial, final = 0.072007989 2.0699861e-05
  Final line search alpha, max atom move = 1.0000000 2.0699861e-05
  Iterations, force evaluations = 201 402

MPI task timing breakdown:
Section |  min time  |  avg time  |  max time  |%varavg| %total
---------------------------------------------------------------
Pair    | 0.61041    | 1.6882     | 2.1748     |  35.0 | 73.27
Neigh   | 0          | 0          | 0          |   0.0 |  0.00
Comm    | 0.037934   | 0.37319    | 1.1384     |  52.9 | 16.20
Output  | 0          | 0          | 0          |   0.0 |  0.00
Modify  | 2.3941e-05 | 0.0033182  | 0.0071694  |   2.7 |  0.14
Other   |            | 0.2394     |            |       | 10.39

Nlocal:        2776.45 ave        3930 max           0 min
Histogram: 8 4 4 0 4 12 8 0 26 38
Nghost:        3879.05 ave        5424 max         232 min
Histogram: 8 0 8 0 16 0 8 8 16 40
Neighs:        79213.5 ave      114456 max           0 min
Histogram: 8 4 4 0 8 8 8 8 20 36

Total # of neighbors = 8238199
Ave neighs/atom = 28.530461
Neighbor list builds = 0
Dangerous builds = 0
The dot product: -2.549725091194e-07
Setting atom values ...
  1 settings made for x
  1 settings made for y
  1 settings made for z
Setting up cg style minimization ...
  Unit style    : metal
  Current step  : 2666
Per MPI rank memory allocation (min/avg/max) = 5.441 | 5.816 | 6.074 Mbytes
Step PotEng KinEng TotEng v_fx v_fy v_fz 
    2666   -1152449.3            0   -1152449.3 -0.025374056   0.05853837 -0.059001274 
    2869   -1152449.3            0   -1152449.3 -8.6476046e-06 3.8722101e-06 1.8345744e-05 
Loop time of 2.32389 on 104 procs for 203 steps with 288751 atoms

99.9% CPU use with 104 MPI tasks x 1 OpenMP threads

Minimization stats:
  Stopping criterion = energy tolerance
  Energy initial, next-to-last, final = 
     -1152449.26909461  -1152449.27261422  -1152449.27261422
  Force two-norm initial, final = 0.19073974 0.00016535156
  Force max component initial, final = 0.079003622 2.8712262e-05
  Final line search alpha, max atom move = 1.0000000 2.8712262e-05
  Iterations, force evaluations = 203 406

MPI task timing breakdown:
Section |  min time  |  avg time  |  max time  |%varavg| %total
---------------------------------------------------------------
Pair    | 0.61393    | 1.6964     | 2.1935     |  35.2 | 73.00
Neigh   | 0          | 0          | 0          |   0.0 |  0.00
Comm    | 0.036223   | 0.37611    | 1.142      |  52.7 | 16.18
Output  | 0          | 0          | 0          |   0.0 |  0.00
Modify  | 2.4519e-05 | 0.0033489  | 0.007202   |   2.7 |  0.14
Other   |            | 0.2481     |            |       | 10.67

Nlocal:        2776.45 ave        3930 max           0 min
Histogram: 8 4 4 0 4 12 8 0 26 38
Nghost:        3879.12 ave        5425 max         232 min
Histogram: 8 0 8 0 16 0 8 8 16 40
Neighs:        79213.4 ave      114457 max           0 min
Histogram: 8 4 4 0 8 8 8 8 20 36

Total # of neighbors = 8238195
Ave neighs/atom = 28.530447
Neighbor list builds = 0
Dangerous builds = 0
The dot product: -1.36965432653352e-07
Setting atom values ...
  1 settings made for x
  1 settings made for y
  1 settings made for z
Setting up cg style minimization ...
  Unit style    : metal
  Current step  : 2869
Per MPI rank memory allocation (min/avg/max) = 5.441 | 5.816 | 6.074 Mbytes
Step PotEng KinEng TotEng v_fx v_fy v_fz 
    2869   -1152449.2            0   -1152449.2 -0.031736063  0.091204706 -0.064320766 
    3000   -1152449.3            0   -1152449.3 -0.00014181385 3.489984e-06 0.00037587953 
    3066   -1152449.3            0   -1152449.3 -1.1370725e-05 -1.1288336e-05 4.9128316e-05 
Loop time of 2.27608 on 104 procs for 197 steps with 288751 atoms

99.9% CPU use with 104 MPI tasks x 1 OpenMP threads

Minimization stats:
  Stopping criterion = energy tolerance
  Energy initial, next-to-last, final = 
     -1152449.24800238  -1152449.25212612  -1152449.25212612
  Force two-norm initial, final = 0.20677365 0.00020468983
  Force max component initial, final = 0.091204706 4.9128316e-05
  Final line search alpha, max atom move = 1.0000000 4.9128316e-05
  Iterations, force evaluations = 197 394

MPI task timing breakdown:
Section |  min time  |  avg time  |  max time  |%varavg| %total
---------------------------------------------------------------
Pair    | 0.59701    | 1.6595     | 2.148      |  34.7 | 72.91
Neigh   | 0          | 0          | 0          |   0.0 |  0.00
Comm    | 0.033917   | 0.37332    | 1.1319     |  51.8 | 16.40
Output  | 0.00016608 | 0.00016902 | 0.00031172 |   0.0 |  0.01
Modify  | 2.348e-05  | 0.0032521  | 0.0070222  |   2.7 |  0.14
Other   |            | 0.2398     |            |       | 10.54

Nlocal:        2776.45 ave        3936 max           0 min
Histogram: 8 4 4 0 4 12 8 0 28 36
Nghost:        3879.12 ave        5425 max         232 min
Histogram: 8 0 8 0 16 0 8 8 16 40
Neighs:        79213.4 ave      114660 max           0 min
Histogram: 8 4 4 0 8 8 8 8 22 34

Total # of neighbors = 8238198
Ave neighs/atom = 28.530457
Neighbor list builds = 0
Dangerous builds = 0
The dot product: -1.13467863333117e-06
Setting atom values ...
  1 settings made for x
  1 settings made for y
  1 settings made for z
Setting up cg style minimization ...
  Unit style    : metal
  Current step  : 3066
Per MPI rank memory allocation (min/avg/max) = 5.441 | 5.816 | 6.074 Mbytes
Step PotEng KinEng TotEng v_fx v_fy v_fz 
    3066   -1152449.2            0   -1152449.2 -0.025489802    0.1028932 -0.056821308 
    3259   -1152449.2            0   -1152449.2 -2.7717715e-06 3.2261841e-06 2.8797332e-06 
Loop time of 2.2142 on 104 procs for 193 steps with 288751 atoms

99.9% CPU use with 104 MPI tasks x 1 OpenMP threads

Minimization stats:
  Stopping criterion = energy tolerance
  Energy initial, next-to-last, final = 
     -1152449.22679491   -1152449.2308135   -1152449.2308135
  Force two-norm initial, final = 0.20953183 0.00020829531
  Force max component initial, final = 0.1028932 1.7166401e-05
  Final line search alpha, max atom move = 1.0000000 1.7166401e-05
  Iterations, force evaluations = 193 386

MPI task timing breakdown:
Section |  min time  |  avg time  |  max time  |%varavg| %total
---------------------------------------------------------------
Pair    | 0.58468    | 1.6169     | 2.0945     |  34.4 | 73.02
Neigh   | 0          | 0          | 0          |   0.0 |  0.00
Comm    | 0.03319    | 0.36156    | 1.101      |  51.2 | 16.33
Output  | 0          | 0          | 0          |   0.0 |  0.00
Modify  | 2.2949e-05 | 0.0031844  | 0.0068311  |   2.7 |  0.14
Other   |            | 0.2326     |            |       | 10.50

Nlocal:        2776.45 ave        3945 max           0 min
Histogram: 8 4 4 0 4 12 8 2 26 36
Nghost:        3879.09 ave        5425 max         232 min
Histogram: 8 0 8 0 16 0 8 8 16 40
Neighs:        79213.5 ave      114922 max           0 min
Histogram: 8 4 4 0 10 6 8 8 22 34

Total # of neighbors = 8238203
Ave neighs/atom = 28.530474
Neighbor list builds = 0
Dangerous builds = 0
The dot product: 6.49915194858545e-08
Setting atom values ...
  1 settings made for x
  1 settings made for y
  1 settings made for z
Setting up cg style minimization ...
  Unit style    : metal
  Current step  : 3259
Per MPI rank memory allocation (min/avg/max) = 5.441 | 5.816 | 6.074 Mbytes
Step PotEng KinEng TotEng v_fx v_fy v_fz 
    3259   -1152449.2            0   -1152449.2 -0.015390533  0.093936442 -0.043120671 
    3461   -1152449.2            0   -1152449.2 5.3101878e-06 3.0711484e-08 -1.1417469e-05 
Loop time of 2.33145 on 104 procs for 202 steps with 288751 atoms

99.9% CPU use with 104 MPI tasks x 1 OpenMP threads

Minimization stats:
  Stopping criterion = energy tolerance
  Energy initial, next-to-last, final = 
     -1152449.20477302  -1152449.20821517  -1152449.20821517
  Force two-norm initial, final = 0.20081743 0.00015890554
  Force max component initial, final = 0.1101427 1.6634848e-05
  Final line search alpha, max atom move = 1.0000000 1.6634848e-05
  Iterations, force evaluations = 202 404

MPI task timing breakdown:
Section |  min time  |  avg time  |  max time  |%varavg| %total
---------------------------------------------------------------
Pair    | 0.61208    | 1.7027     | 2.2062     |  35.2 | 73.03
Neigh   | 0          | 0          | 0          |   0.0 |  0.00
Comm    | 0.035051   | 0.38335    | 1.1634     |  52.4 | 16.44
Output  | 0          | 0          | 0          |   0.0 |  0.00
Modify  | 2.4483e-05 | 0.003331   | 0.0071562  |   2.7 |  0.14
Other   |            | 0.2421     |            |       | 10.38

Nlocal:        2776.45 ave        3953 max           0 min
Histogram: 8 4 4 0 4 12 8 2 28 34
Nghost:        3879.05 ave        5425 max         232 min
Histogram: 8 0 8 0 16 0 8 8 16 40
Neighs:        79213.5 ave      115196 max           0 min
Histogram: 8 4 4 0 10 6 8 8 24 32

Total # of neighbors = 8238206
Ave neighs/atom = 28.530485
Neighbor list builds = 0
Dangerous builds = 0
The dot product: 1.49482839474918e-07
Setting atom values ...
  1 settings made for x
  1 settings made for y
  1 settings made for z
Setting up cg style minimization ...
  Unit style    : metal
  Current step  : 3461
Per MPI rank memory allocation (min/avg/max) = 5.441 | 5.816 | 6.074 Mbytes
Step PotEng KinEng TotEng v_fx v_fy v_fz 
    3461   -1152449.2            0   -1152449.2 -0.0059489318   0.07757232  -0.03407421 
    3677   -1152449.2            0   -1152449.2 2.3947509e-06 2.2628047e-07 -4.8686608e-06 
Loop time of 2.5053 on 104 procs for 216 steps with 288751 atoms

99.9% CPU use with 104 MPI tasks x 1 OpenMP threads

Minimization stats:
  Stopping criterion = energy tolerance
  Energy initial, next-to-last, final = 
     -1152449.18156906  -1152449.18465723  -1152449.18465723
  Force two-norm initial, final = 0.19068293 8.6485623e-05
  Force max component initial, final = 0.11592401 8.5592845e-06
  Final line search alpha, max atom move = 1.0000000 8.5592845e-06
  Iterations, force evaluations = 216 432

MPI task timing breakdown:
Section |  min time  |  avg time  |  max time  |%varavg| %total
---------------------------------------------------------------
Pair    | 0.66557    | 1.819      | 2.3595     |  36.2 | 72.61
Neigh   | 0          | 0          | 0          |   0.0 |  0.00
Comm    | 0.045441   | 0.40836    | 1.2384     |  54.0 | 16.30
Output  | 0          | 0          | 0          |   0.0 |  0.00
Modify  | 2.5876e-05 | 0.0035611  | 0.0076541  |   2.8 |  0.14
Other   |            | 0.2743     |            |       | 10.95

Nlocal:        2776.45 ave        3954 max           0 min
Histogram: 8 4 4 0 4 12 8 2 28 34
Nghost:        3879.00 ave        5425 max         232 min
Histogram: 8 0 8 0 16 0 8 8 16 40
Neighs:        79213.5 ave      115237 max           0 min
Histogram: 8 4 4 0 10 6 8 8 24 32

Total # of neighbors = 8238206
Ave neighs/atom = 28.530485
Neighbor list builds = 0
Dangerous builds = 0
The dot product: 7.51513257982255e-08
Setting atom values ...
  1 settings made for x
  1 settings made for y
  1 settings made for z
Setting up cg style minimization ...
  Unit style    : metal
  Current step  : 3677
Per MPI rank memory allocation (min/avg/max) = 5.441 | 5.816 | 6.074 Mbytes
Step PotEng KinEng TotEng v_fx v_fy v_fz 
    3677   -1152449.2            0   -1152449.2 0.0025497735  0.063805449 -0.032437258 
    3878   -1152449.2            0   -1152449.2 -1.2550828e-05 -8.3504573e-07 2.3278559e-05 
Loop time of 2.33436 on 104 procs for 201 steps with 288751 atoms

99.9% CPU use with 104 MPI tasks x 1 OpenMP threads

Minimization stats:
  Stopping criterion = energy tolerance
  Energy initial, next-to-last, final = 
     -1152449.15754722  -1152449.16028077  -1152449.16028077
  Force two-norm initial, final = 0.18402327 0.00013417628
  Force max component initial, final = 0.1200369 3.3316564e-05
  Final line search alpha, max atom move = 1.0000000 3.3316564e-05
  Iterations, force evaluations = 201 402

MPI task timing breakdown:
Section |  min time  |  avg time  |  max time  |%varavg| %total
---------------------------------------------------------------
Pair    | 0.61036    | 1.6866     | 2.1979     |  34.9 | 72.25
Neigh   | 0          | 0          | 0          |   0.0 |  0.00
Comm    | 0.037987   | 0.37612    | 1.1354     |  52.0 | 16.11
Output  | 0          | 0          | 0          |   0.0 |  0.00
Modify  | 2.4158e-05 | 0.0033112  | 0.0071786  |   2.7 |  0.14
Other   |            | 0.2683     |            |       | 11.49

Nlocal:        2776.45 ave        3954 max           0 min
Histogram: 8 4 4 0 4 12 8 2 28 34
Nghost:        3878.99 ave        5425 max         232 min
Histogram: 8 0 8 0 16 0 8 8 16 40
Neighs:        79213.6 ave      115233 max           0 min
Histogram: 8 4 4 0 10 6 8 8 24 32

Total # of neighbors = 8238211
Ave neighs/atom = 28.530502
Neighbor list builds = 0
Dangerous builds = 0
The dot product: -3.86206317268175e-07
Setting atom values ...
  1 settings made for x
  1 settings made for y
  1 settings made for z
Setting up cg style minimization ...
  Unit style    : metal
  Current step  : 3878
Per MPI rank memory allocation (min/avg/max) = 5.441 | 5.816 | 6.074 Mbytes
Step PotEng KinEng TotEng v_fx v_fy v_fz 
    3878   -1152449.1            0   -1152449.1 0.0087396557  0.055971872 -0.032655192 
    4000   -1152449.1            0   -1152449.1 2.2995259e-05 -3.1191799e-05 -2.8856167e-05 
    4073   -1152449.1            0   -1152449.1 -1.6079556e-05 3.0207194e-06 2.6186145e-05 
Loop time of 2.24181 on 104 procs for 195 steps with 288751 atoms

99.9% CPU use with 104 MPI tasks x 1 OpenMP threads

Minimization stats:
  Stopping criterion = energy tolerance
  Energy initial, next-to-last, final = 
        -1152449.13245  -1152449.13491755  -1152449.13491755
  Force two-norm initial, final = 0.18137417 0.00013850191
  Force max component initial, final = 0.12421439 2.6186145e-05
  Final line search alpha, max atom move = 1.0000000 2.6186145e-05
  Iterations, force evaluations = 195 390

MPI task timing breakdown:
Section |  min time  |  avg time  |  max time  |%varavg| %total
---------------------------------------------------------------
Pair    | 0.58913    | 1.6309     | 2.1236     |  34.5 | 72.75
Neigh   | 0          | 0          | 0          |   0.0 |  0.00
Comm    | 0.034635   | 0.36363    | 1.0964     |  51.1 | 16.22
Output  | 0.00010256 | 0.0001144  | 0.00025983 |   0.0 |  0.01
Modify  | 2.3567e-05 | 0.0032161  | 0.006888   |   2.7 |  0.14
Other   |            | 0.2439     |            |       | 10.88

Nlocal:        2776.45 ave        3955 max           0 min
Histogram: 8 4 4 0 4 12 8 2 28 34
Nghost:        3878.96 ave        5425 max         232 min
Histogram: 8 0 8 0 16 0 8 8 16 40
Neighs:        79213.6 ave      115286 max           0 min
Histogram: 8 4 4 0 10 6 8 8 24 32

Total # of neighbors = 8238214
Ave neighs/atom = 28.530512
Neighbor list builds = 0
Dangerous builds = 0
The dot product: -3.74142452620784e-07
Setting atom values ...
  1 settings made for x
  1 settings made for y
  1 settings made for z
Setting up cg style minimization ...
  Unit style    : metal
  Current step  : 4073
Per MPI rank memory allocation (min/avg/max) = 5.441 | 5.816 | 6.074 Mbytes
Step PotEng KinEng TotEng v_fx v_fy v_fz 
    4073   -1152449.1            0   -1152449.1   0.01137479  0.046502713 -0.028896314 
    4263   -1152449.1            0   -1152449.1 -1.3983106e-05 2.082863e-06 2.1519468e-05 
Loop time of 2.19926 on 104 procs for 190 steps with 288751 atoms

99.9% CPU use with 104 MPI tasks x 1 OpenMP threads

Minimization stats:
  Stopping criterion = energy tolerance
  Energy initial, next-to-last, final = 
     -1152449.10616586  -1152449.10830287  -1152449.10830287
  Force two-norm initial, final = 0.1785757 0.00013443733
  Force max component initial, final = 0.12820664 2.1519468e-05
  Final line search alpha, max atom move = 1.0000000 2.1519468e-05
  Iterations, force evaluations = 190 380

MPI task timing breakdown:
Section |  min time  |  avg time  |  max time  |%varavg| %total
---------------------------------------------------------------
Pair    | 0.57436    | 1.6        | 2.085      |  34.1 | 72.75
Neigh   | 0          | 0          | 0          |   0.0 |  0.00
Comm    | 0.037635   | 0.35823    | 1.0913     |  50.7 | 16.29
Output  | 0          | 0          | 0          |   0.0 |  0.00
Modify  | 2.2635e-05 | 0.0031389  | 0.006827   |   2.6 |  0.14
Other   |            | 0.2379     |            |       | 10.82

Nlocal:        2776.45 ave        3955 max           0 min
Histogram: 8 4 4 0 4 12 8 2 28 34
Nghost:        3878.96 ave        5425 max         232 min
Histogram: 8 0 8 0 16 0 8 8 16 40
Neighs:        79213.6 ave      115282 max           0 min
Histogram: 8 4 4 0 10 6 8 8 24 32

Total # of neighbors = 8238213
Ave neighs/atom = 28.530509
Neighbor list builds = 0
Dangerous builds = 0
The dot product: -2.85818647213586e-07
Setting atom values ...
  1 settings made for x
  1 settings made for y
  1 settings made for z
Setting up cg style minimization ...
  Unit style    : metal
  Current step  : 4263
Per MPI rank memory allocation (min/avg/max) = 5.441 | 5.816 | 6.074 Mbytes
Step PotEng KinEng TotEng v_fx v_fy v_fz 
    4263   -1152449.1            0   -1152449.1  0.010832557  0.035953667 -0.022545269 
    4440   -1152449.1            0   -1152449.1 2.7969275e-05 -2.8130018e-06 -4.1064161e-05 
Loop time of 2.04675 on 104 procs for 177 steps with 288751 atoms

99.9% CPU use with 104 MPI tasks x 1 OpenMP threads

Minimization stats:
  Stopping criterion = energy tolerance
  Energy initial, next-to-last, final = 
     -1152449.07843358  -1152449.08033443  -1152449.08033443
  Force two-norm initial, final = 0.1761097 0.00018365047
  Force max component initial, final = 0.13180526 4.1064161e-05
  Final line search alpha, max atom move = 1.0000000 4.1064161e-05
  Iterations, force evaluations = 177 354

MPI task timing breakdown:
Section |  min time  |  avg time  |  max time  |%varavg| %total
---------------------------------------------------------------
Pair    | 0.53894    | 1.4831     | 1.9312     |  32.8 | 72.46
Neigh   | 0          | 0          | 0          |   0.0 |  0.00
Comm    | 0.037716   | 0.33107    | 1.0021     |  48.9 | 16.18
Output  | 0          | 0          | 0          |   0.0 |  0.00
Modify  | 2.1351e-05 | 0.0029203  | 0.0063026  |   2.6 |  0.14
Other   |            | 0.2297     |            |       | 11.22

Nlocal:        2776.45 ave        3955 max           0 min
Histogram: 8 4 4 0 4 12 8 1 29 34
Nghost:        3878.99 ave        5426 max         232 min
Histogram: 8 0 8 0 16 0 8 8 16 40
Neighs:        79213.6 ave      115285 max           0 min
Histogram: 8 4 4 0 10 6 8 8 24 32

Total # of neighbors = 8238212
Ave neighs/atom = 28.530506
Neighbor list builds = 0
Dangerous builds = 0
The dot product: 4.85874209504801e-07
Setting atom values ...
  1 settings made for x
  1 settings made for y
  1 settings made for z
Setting up cg style minimization ...
  Unit style    : metal
  Current step  : 4440
Per MPI rank memory allocation (min/avg/max) = 5.441 | 5.816 | 6.074 Mbytes
Step PotEng KinEng TotEng v_fx v_fy v_fz 
    4440     -1152449            0     -1152449 0.0089380271  0.026425686 -0.016416946 
    4700   -1152449.1            0   -1152449.1 -1.0103318e-06 1.7317656e-07 1.4100011e-06 
Loop time of 3.0502 on 104 procs for 260 steps with 288751 atoms

99.9% CPU use with 104 MPI tasks x 1 OpenMP threads

Minimization stats:
  Stopping criterion = energy tolerance
  Energy initial, next-to-last, final = 
     -1152449.04927441  -1152449.05102978  -1152449.05102978
  Force two-norm initial, final = 0.17482729 6.6338079e-06
  Force max component initial, final = 0.13495081 1.4100011e-06
  Final line search alpha, max atom move = 1.0000000 1.4100011e-06
  Iterations, force evaluations = 260 520

MPI task timing breakdown:
Section |  min time  |  avg time  |  max time  |%varavg| %total
---------------------------------------------------------------
Pair    | 0.78729    | 2.1968     | 2.8525     |  40.0 | 72.02
Neigh   | 0          | 0          | 0          |   0.0 |  0.00
Comm    | 0.049677   | 0.49785    | 1.4992     |  59.2 | 16.32
Output  | 0          | 0          | 0          |   0.0 |  0.00
Modify  | 3.0866e-05 | 0.004295   | 0.0092658  |   3.1 |  0.14
Other   |            | 0.3513     |            |       | 11.52

Nlocal:        2776.45 ave        3955 max           0 min
Histogram: 8 4 4 0 4 12 8 0 30 34
Nghost:        3879.03 ave        5426 max         232 min
Histogram: 8 0 8 0 16 0 8 8 16 40
Neighs:        79213.6 ave      115285 max           0 min
Histogram: 8 4 4 0 10 6 8 8 24 32

Total # of neighbors = 8238215
Ave neighs/atom = 28.530516
Neighbor list builds = 0
Dangerous builds = 0
The dot product: -1.39843662440114e-08
Setting atom values ...
  1 settings made for x
  1 settings made for y
  1 settings made for z
Setting up cg style minimization ...
  Unit style    : metal
  Current step  : 4700
Per MPI rank memory allocation (min/avg/max) = 5.441 | 5.816 | 6.074 Mbytes
Step PotEng KinEng TotEng v_fx v_fy v_fz 
    4700     -1152449            0     -1152449 0.0066713159  0.018716078 -0.011294803 
    4872     -1152449            0     -1152449 -2.0825803e-05 8.4548649e-06 2.7526597e-05 
Loop time of 1.98712 on 104 procs for 172 steps with 288751 atoms

99.9% CPU use with 104 MPI tasks x 1 OpenMP threads

Minimization stats:
  Stopping criterion = energy tolerance
  Energy initial, next-to-last, final = 
     -1152449.01877607   -1152449.0204949   -1152449.0204949
  Force two-norm initial, final = 0.17460948 0.00022016578
  Force max component initial, final = 0.13772123 4.9959289e-05
  Final line search alpha, max atom move = 1.0000000 4.9959289e-05
  Iterations, force evaluations = 172 344

MPI task timing breakdown:
Section |  min time  |  avg time  |  max time  |%varavg| %total
---------------------------------------------------------------
Pair    | 0.52155    | 1.4407     | 1.8808     |  32.4 | 72.50
Neigh   | 0          | 0          | 0          |   0.0 |  0.00
Comm    | 0.032904   | 0.32203    | 0.97367    |  48.1 | 16.21
Output  | 0          | 0          | 0          |   0.0 |  0.00
Modify  | 2.0528e-05 | 0.002837   | 0.0062982  |   2.5 |  0.14
Other   |            | 0.2215     |            |       | 11.15

Nlocal:        2776.45 ave        3955 max           0 min
Histogram: 8 4 4 0 4 12 8 0 30 34
Nghost:        3879.03 ave        5426 max         232 min
Histogram: 8 0 8 0 16 0 8 8 16 40
Neighs:        79213.6 ave      115304 max           0 min
Histogram: 8 4 4 0 10 6 8 8 24 32

Total # of neighbors = 8238218
Ave neighs/atom = 28.530526
Neighbor list builds = 0
Dangerous builds = 0
The dot product: -2.25184806730458e-07
Setting atom values ...
  1 settings made for x
  1 settings made for y
  1 settings made for z
Setting up cg style minimization ...
  Unit style    : metal
  Current step  : 4872
Per MPI rank memory allocation (min/avg/max) = 5.441 | 5.816 | 6.074 Mbytes
Step PotEng KinEng TotEng v_fx v_fy v_fz 
    4872     -1152449            0     -1152449 0.0047696658  0.012978175 -0.0076111385 
    5000     -1152449            0     -1152449 -9.0708776e-05 1.4898449e-05 0.00011893828 
    5086     -1152449            0     -1152449 -8.5868931e-06 1.5941249e-06  1.12411e-05 
Loop time of 2.49196 on 104 procs for 214 steps with 288751 atoms

99.9% CPU use with 104 MPI tasks x 1 OpenMP threads

Minimization stats:
  Stopping criterion = energy tolerance
  Energy initial, next-to-last, final = 
     -1152448.98715807  -1152448.98884114  -1152448.98884114
  Force two-norm initial, final = 0.17497439 7.5422496e-05
  Force max component initial, final = 0.14007033 1.1241100e-05
  Final line search alpha, max atom move = 1.0000000 1.1241100e-05
  Iterations, force evaluations = 214 428

MPI task timing breakdown:
Section |  min time  |  avg time  |  max time  |%varavg| %total
---------------------------------------------------------------
Pair    | 0.64788    | 1.8043     | 2.3515     |  36.3 | 72.40
Neigh   | 0          | 0          | 0          |   0.0 |  0.00
Comm    | 0.036319   | 0.40883    | 1.2317     |  53.5 | 16.41
Output  | 0.00015386 | 0.00015764 | 0.00029944 |   0.0 |  0.01
Modify  | 2.5681e-05 | 0.003535   | 0.0076252  |   2.8 |  0.14
Other   |            | 0.2751     |            |       | 11.04

Nlocal:        2776.45 ave        3956 max           0 min
Histogram: 8 4 4 0 4 12 8 0 30 34
Nghost:        3879.05 ave        5426 max         232 min
Histogram: 8 0 8 0 16 0 8 8 16 40
Neighs:        79213.6 ave      115339 max           0 min
Histogram: 8 4 4 0 10 6 8 8 24 32

Total # of neighbors = 8238215
Ave neighs/atom = 28.530516
Neighbor list builds = 0
Dangerous builds = 0
The dot product: -9.03733083006698e-08
Setting atom values ...
  1 settings made for x
  1 settings made for y
  1 settings made for z
Setting up cg style minimization ...
  Unit style    : metal
  Current step  : 5086
Per MPI rank memory allocation (min/avg/max) = 5.441 | 5.816 | 6.074 Mbytes
Step PotEng KinEng TotEng v_fx v_fy v_fz 
    5086     -1152449            0     -1152449 0.0027783539 0.0087663017 -0.0043605447 
    5263     -1152449            0     -1152449 3.4747275e-05 -6.6787363e-06 -4.4366199e-05 
Loop time of 2.05248 on 104 procs for 177 steps with 288751 atoms

99.9% CPU use with 104 MPI tasks x 1 OpenMP threads

Minimization stats:
  Stopping criterion = energy tolerance
  Energy initial, next-to-last, final = 
     -1152448.95445584  -1152448.95616347  -1152448.95616347
  Force two-norm initial, final = 0.17566063 0.00020959586
  Force max component initial, final = 0.14211149 4.4366199e-05
  Final line search alpha, max atom move = 1.0000000 4.4366199e-05
  Iterations, force evaluations = 177 354

MPI task timing breakdown:
Section |  min time  |  avg time  |  max time  |%varavg| %total
---------------------------------------------------------------
Pair    | 0.53438    | 1.4864     | 1.9393     |  33.0 | 72.42
Neigh   | 0          | 0          | 0          |   0.0 |  0.00
Comm    | 0.03044    | 0.33445    | 1.0061     |  48.8 | 16.30
Output  | 0          | 0          | 0          |   0.0 |  0.00
Modify  | 2.1318e-05 | 0.0029218  | 0.0063534  |   2.6 |  0.14
Other   |            | 0.2287     |            |       | 11.14

Nlocal:        2776.45 ave        3956 max           0 min
Histogram: 8 4 4 0 4 12 8 0 30 34
Nghost:        3879.03 ave        5426 max         232 min
Histogram: 8 0 8 0 16 0 8 8 16 40
Neighs:        79213.6 ave      115342 max           0 min
Histogram: 8 4 4 0 10 6 8 8 24 32

Total # of neighbors = 8238219
Ave neighs/atom = 28.530530
Neighbor list builds = 0
Dangerous builds = 0
The dot product: 3.34335810793874e-07
Setting atom values ...
  1 settings made for x
  1 settings made for y
  1 settings made for z
Setting up cg style minimization ...
  Unit style    : metal
  Current step  : 5263
Per MPI rank memory allocation (min/avg/max) = 5.441 | 5.816 | 6.074 Mbytes
Step PotEng KinEng TotEng v_fx v_fy v_fz 
    5263   -1152448.9            0   -1152448.9 0.0011992108 0.0059189015 -0.0019902232 
    5463   -1152448.9            0   -1152448.9 -1.0651672e-05 1.2311032e-06 1.3372124e-05 
Loop time of 2.31811 on 104 procs for 200 steps with 288751 atoms

99.9% CPU use with 104 MPI tasks x 1 OpenMP threads

Minimization stats:
  Stopping criterion = energy tolerance
  Energy initial, next-to-last, final = 
     -1152448.92086991   -1152448.9225801   -1152448.9225801
  Force two-norm initial, final = 0.17633404 0.00010183843
  Force max component initial, final = 0.14377067 1.3384131e-05
  Final line search alpha, max atom move = 1.0000000 1.3384131e-05
  Iterations, force evaluations = 200 400

MPI task timing breakdown:
Section |  min time  |  avg time  |  max time  |%varavg| %total
---------------------------------------------------------------
Pair    | 0.60503    | 1.6834     | 2.1975     |  35.0 | 72.62
Neigh   | 0          | 0          | 0          |   0.0 |  0.00
Comm    | 0.049886   | 0.37682    | 1.1532     |  52.0 | 16.26
Output  | 0          | 0          | 0          |   0.0 |  0.00
Modify  | 2.4072e-05 | 0.0033012  | 0.0071313  |   2.7 |  0.14
Other   |            | 0.2546     |            |       | 10.98

Nlocal:        2776.45 ave        3955 max           0 min
Histogram: 8 4 4 0 4 12 8 0 30 34
Nghost:        3879.03 ave        5426 max         232 min
Histogram: 8 0 8 0 16 0 8 8 16 40
Neighs:        79213.6 ave      115318 max           0 min
Histogram: 8 4 4 0 10 6 8 8 24 32

Total # of neighbors = 8238214
Ave neighs/atom = 28.530512
Neighbor list builds = 0
Dangerous builds = 0
The dot product: -9.27897099359816e-08
Setting atom values ...
  1 settings made for x
  1 settings made for y
  1 settings made for z
Setting up cg style minimization ...
  Unit style    : metal
  Current step  : 5463
Per MPI rank memory allocation (min/avg/max) = 5.441 | 5.816 | 6.074 Mbytes
Step PotEng KinEng TotEng v_fx v_fy v_fz 
    5463   -1152448.9            0   -1152448.9 -0.00085463843 0.0039394915 0.00076327336 
    5648   -1152448.9            0   -1152448.9 2.5938423e-06 -3.0312311e-06 -2.9888252e-06 
Loop time of 2.14371 on 104 procs for 185 steps with 288751 atoms

99.9% CPU use with 104 MPI tasks x 1 OpenMP threads

Minimization stats:
  Stopping criterion = energy tolerance
  Energy initial, next-to-last, final = 
     -1152448.88637178  -1152448.88799407  -1152448.88799407
  Force two-norm initial, final = 0.17722307 0.00014224258
  Force max component initial, final = 0.14539928 1.8308667e-05
  Final line search alpha, max atom move = 1.0000000 1.8308667e-05
  Iterations, force evaluations = 185 370

MPI task timing breakdown:
Section |  min time  |  avg time  |  max time  |%varavg| %total
---------------------------------------------------------------
Pair    | 0.55915    | 1.5532     | 2.0237     |  33.6 | 72.45
Neigh   | 0          | 0          | 0          |   0.0 |  0.00
Comm    | 0.034651   | 0.34954    | 1.0537     |  49.8 | 16.31
Output  | 0          | 0          | 0          |   0.0 |  0.00
Modify  | 2.2002e-05 | 0.0030513  | 0.0067983  |   2.6 |  0.14
Other   |            | 0.2379     |            |       | 11.10

Nlocal:        2776.45 ave        3956 max           0 min
Histogram: 8 4 4 0 4 12 8 0 30 34
Nghost:        3879.03 ave        5426 max         232 min
Histogram: 8 0 8 0 16 0 8 8 16 40
Neighs:        79213.6 ave      115334 max           0 min
Histogram: 8 4 4 0 10 6 8 8 24 32

Total # of neighbors = 8238216
Ave neighs/atom = 28.530519
Neighbor list builds = 0
Dangerous builds = 0
The dot product: 1.53062845388678e-08
Setting atom values ...
  1 settings made for x
  1 settings made for y
  1 settings made for z
Setting up cg style minimization ...
  Unit style    : metal
  Current step  : 5648
Per MPI rank memory allocation (min/avg/max) = 5.441 | 5.816 | 6.074 Mbytes
Step PotEng KinEng TotEng v_fx v_fy v_fz 
    5648   -1152448.9            0   -1152448.9 -0.0036973626 0.0026126238 0.0043273055 
    5829   -1152448.9            0   -1152448.9 1.8774664e-05 3.356366e-07 -2.2961108e-05 
Loop time of 2.10505 on 104 procs for 181 steps with 288751 atoms

99.9% CPU use with 104 MPI tasks x 1 OpenMP threads

Minimization stats:
  Stopping criterion = energy tolerance
  Energy initial, next-to-last, final = 
     -1152448.85073358  -1152448.85235815  -1152448.85235815
  Force two-norm initial, final = 0.17854446 0.00018514069
  Force max component initial, final = 0.14715888 3.7470675e-05
  Final line search alpha, max atom move = 1.0000000 3.7470675e-05
  Iterations, force evaluations = 181 362

MPI task timing breakdown:
Section |  min time  |  avg time  |  max time  |%varavg| %total
---------------------------------------------------------------
Pair    | 0.54756    | 1.5218     | 1.9847     |  33.2 | 72.29
Neigh   | 0          | 0          | 0          |   0.0 |  0.00
Comm    | 0.033271   | 0.34113    | 1.0329     |  49.4 | 16.21
Output  | 0          | 0          | 0          |   0.0 |  0.00
Modify  | 2.1632e-05 | 0.0029886  | 0.0064344  |   2.6 |  0.14
Other   |            | 0.2391     |            |       | 11.36

Nlocal:        2776.45 ave        3956 max           0 min
Histogram: 8 4 4 0 4 12 8 0 30 34
Nghost:        3879.01 ave        5426 max         232 min
Histogram: 8 0 8 0 16 0 8 8 16 40
Neighs:        79213.6 ave      115328 max           0 min
Histogram: 8 4 4 0 10 6 8 8 24 32

Total # of neighbors = 8238215
Ave neighs/atom = 28.530516
Neighbor list builds = 0
Dangerous builds = 0
The dot product: 1.07945508605156e-07
Setting atom values ...
  1 settings made for x
  1 settings made for y
  1 settings made for z
Setting up cg style minimization ...
  Unit style    : metal
  Current step  : 5829
Per MPI rank memory allocation (min/avg/max) = 5.441 | 5.816 | 6.074 Mbytes
Step PotEng KinEng TotEng v_fx v_fy v_fz 
    5829   -1152448.8            0   -1152448.8 -0.0062593622  0.001936705 0.0074186066 
    6000   -1152448.8            0   -1152448.8 5.2199505e-05 -6.5777151e-06 -6.2548956e-05 
    6039   -1152448.8            0   -1152448.8 -1.0969547e-05 1.9548643e-06 1.3103657e-05 
Loop time of 2.42053 on 104 procs for 210 steps with 288751 atoms

99.9% CPU use with 104 MPI tasks x 1 OpenMP threads

Minimization stats:
  Stopping criterion = energy tolerance
  Energy initial, next-to-last, final = 
     -1152448.81409249  -1152448.81585226  -1152448.81585226
  Force two-norm initial, final = 0.17976634 7.7685400e-05
  Force max component initial, final = 0.14872963 1.3103657e-05
  Final line search alpha, max atom move = 1.0000000 1.3103657e-05
  Iterations, force evaluations = 210 420

MPI task timing breakdown:
Section |  min time  |  avg time  |  max time  |%varavg| %total
---------------------------------------------------------------
Pair    | 0.63645    | 1.7553     | 2.2903     |  35.7 | 72.52
Neigh   | 0          | 0          | 0          |   0.0 |  0.00
Comm    | 0.041507   | 0.39201    | 1.1823     |  53.0 | 16.20
Output  | 0.00015668 | 0.00015997 | 0.00030817 |   0.0 |  0.01
Modify  | 2.5452e-05 | 0.003461   | 0.0075243  |   2.8 |  0.14
Other   |            | 0.2696     |            |       | 11.14

Nlocal:        2776.45 ave        3955 max           0 min
Histogram: 8 4 4 0 4 12 8 0 30 34
Nghost:        3879.01 ave        5426 max         232 min
Histogram: 8 0 8 0 16 0 8 8 16 40
Neighs:        79213.6 ave      115319 max           0 min
Histogram: 8 4 4 0 10 6 8 8 24 32

Total # of neighbors = 8238213
Ave neighs/atom = 28.530509
Neighbor list builds = 0
Dangerous builds = 0
The dot product: -5.38599419251894e-08
Setting atom values ...
  1 settings made for x
  1 settings made for y
  1 settings made for z
Setting up cg style minimization ...
  Unit style    : metal
  Current step  : 6039
Per MPI rank memory allocation (min/avg/max) = 5.441 | 5.816 | 6.074 Mbytes
Step PotEng KinEng TotEng v_fx v_fy v_fz 
    6039   -1152448.8            0   -1152448.8 -0.0083767777  0.001742138 0.0098891386 
    6229   -1152448.8            0   -1152448.8 -1.5923011e-06 -1.3158965e-06 1.9963979e-06 
Loop time of 2.20983 on 104 procs for 190 steps with 288751 atoms

99.9% CPU use with 104 MPI tasks x 1 OpenMP threads

Minimization stats:
  Stopping criterion = energy tolerance
  Energy initial, next-to-last, final = 
     -1152448.77675008  -1152448.77836769  -1152448.77836769
  Force two-norm initial, final = 0.18038509 0.00012971827
  Force max component initial, final = 0.1498137 1.5394421e-05
  Final line search alpha, max atom move = 1.0000000 1.5394421e-05
  Iterations, force evaluations = 190 380

MPI task timing breakdown:
Section |  min time  |  avg time  |  max time  |%varavg| %total
---------------------------------------------------------------
Pair    | 0.58169    | 1.6053     | 2.089      |  34.0 | 72.64
Neigh   | 0          | 0          | 0          |   0.0 |  0.00
Comm    | 0.032999   | 0.36205    | 1.103      |  50.6 | 16.38
Output  | 0          | 0          | 0          |   0.0 |  0.00
Modify  | 2.2929e-05 | 0.0031381  | 0.0066978  |   2.6 |  0.14
Other   |            | 0.2393     |            |       | 10.83

Nlocal:        2776.45 ave        3956 max           0 min
Histogram: 8 4 4 0 4 12 8 0 30 34
Nghost:        3878.99 ave        5426 max         232 min
Histogram: 8 0 8 0 16 0 8 8 16 40
Neighs:        79213.6 ave      115329 max           0 min
Histogram: 8 4 4 0 10 6 8 8 24 32

Total # of neighbors = 8238215
Ave neighs/atom = 28.530516
Neighbor list builds = 0
Dangerous builds = 0
The dot product: -4.96120999421218e-09
Setting atom values ...
  1 settings made for x
  1 settings made for y
  1 settings made for z
Setting up cg style minimization ...
  Unit style    : metal
  Current step  : 6229
Per MPI rank memory allocation (min/avg/max) = 5.441 | 5.816 | 6.074 Mbytes
Step PotEng KinEng TotEng v_fx v_fy v_fz 
    6229   -1152448.7            0   -1152448.7 -0.011537703 0.0020543453  0.013558258 
    6438   -1152448.7            0   -1152448.7 -1.7223827e-05 3.2639262e-06 2.0226168e-05 
Loop time of 2.41027 on 104 procs for 209 steps with 288751 atoms

99.9% CPU use with 104 MPI tasks x 1 OpenMP threads

Minimization stats:
  Stopping criterion = energy tolerance
  Energy initial, next-to-last, final = 
     -1152448.73825659  -1152448.73990296  -1152448.73990296
  Force two-norm initial, final = 0.1813115 7.8046110e-05
  Force max component initial, final = 0.15112683 2.1044545e-05
  Final line search alpha, max atom move = 1.0000000 2.1044545e-05
  Iterations, force evaluations = 209 418

MPI task timing breakdown:
Section |  min time  |  avg time  |  max time  |%varavg| %total
---------------------------------------------------------------
Pair    | 0.63191    | 1.7474     | 2.2794     |  35.7 | 72.50
Neigh   | 0          | 0          | 0          |   0.0 |  0.00
Comm    | 0.037116   | 0.3899     | 1.1804     |  53.2 | 16.18
Output  | 0          | 0          | 0          |   0.0 |  0.00
Modify  | 2.487e-05  | 0.0034449  | 0.007541   |   2.8 |  0.14
Other   |            | 0.2695     |            |       | 11.18

Nlocal:        2776.45 ave        3956 max           0 min
Histogram: 8 4 4 0 4 12 8 0 30 34
Nghost:        3878.99 ave        5426 max         232 min
Histogram: 8 0 8 0 16 0 8 8 16 40
Neighs:        79213.6 ave      115329 max           0 min
Histogram: 8 4 4 0 10 6 8 8 24 32

Total # of neighbors = 8238213
Ave neighs/atom = 28.530509
Neighbor list builds = 0
Dangerous builds = 0
The dot product: -3.21819024306765e-08
Setting atom values ...
  1 settings made for x
  1 settings made for y
  1 settings made for z
Setting up cg style minimization ...
  Unit style    : metal
  Current step  : 6438
Per MPI rank memory allocation (min/avg/max) = 5.441 | 5.816 | 6.074 Mbytes
Step PotEng KinEng TotEng v_fx v_fy v_fz 
    6438   -1152448.7            0   -1152448.7 -0.014274961 0.0027517594  0.016699412 
    6582   -1152448.7            0   -1152448.7 4.1738583e-05 -1.037753e-05 -4.8659967e-05 
Loop time of 1.66598 on 104 procs for 144 steps with 288751 atoms

99.9% CPU use with 104 MPI tasks x 1 OpenMP threads

Minimization stats:
  Stopping criterion = energy tolerance
  Energy initial, next-to-last, final = 
     -1152448.69893219  -1152448.70081757  -1152448.70081757
  Force two-norm initial, final = 0.18153761 0.00024096826
  Force max component initial, final = 0.15209301 6.6516058e-05
  Final line search alpha, max atom move = 1.0000000 6.6516058e-05
  Iterations, force evaluations = 144 288

MPI task timing breakdown:
Section |  min time  |  avg time  |  max time  |%varavg| %total
---------------------------------------------------------------
Pair    | 0.43431    | 1.2148     | 1.5797     |  29.8 | 72.92
Neigh   | 0          | 0          | 0          |   0.0 |  0.00
Comm    | 0.025305   | 0.27225    | 0.82275    |  44.3 | 16.34
Output  | 0          | 0          | 0          |   0.0 |  0.00
Modify  | 1.7656e-05 | 0.0023815  | 0.0051448  |   2.3 |  0.14
Other   |            | 0.1766     |            |       | 10.60

Nlocal:        2776.45 ave        3955 max           0 min
Histogram: 8 4 4 0 4 12 8 0 30 34
Nghost:        3878.99 ave        5426 max         232 min
Histogram: 8 0 8 0 16 0 8 8 16 40
Neighs:        79213.6 ave      115286 max           0 min
Histogram: 8 4 4 0 10 6 8 8 24 32

Total # of neighbors = 8238215
Ave neighs/atom = 28.530516
Neighbor list builds = 0
Dangerous builds = 0
The dot product: 4.3642861018541e-08
Setting atom values ...
  1 settings made for x
  1 settings made for y
  1 settings made for z
Setting up cg style minimization ...
  Unit style    : metal
  Current step  : 6582
Per MPI rank memory allocation (min/avg/max) = 5.441 | 5.816 | 6.074 Mbytes
Step PotEng KinEng TotEng v_fx v_fy v_fz 
    6582   -1152448.7            0   -1152448.7  -0.01629892 0.0032897458  0.019020246 
    6797   -1152448.7            0   -1152448.7 -7.7945707e-06 1.4147566e-06 9.1076291e-06 
Loop time of 2.50351 on 104 procs for 215 steps with 288751 atoms

99.9% CPU use with 104 MPI tasks x 1 OpenMP threads

Minimization stats:
  Stopping criterion = energy tolerance
  Energy initial, next-to-last, final = 
     -1152448.65947507  -1152448.66126548  -1152448.66126548
  Force two-norm initial, final = 0.18014138 3.6322165e-05
  Force max component initial, final = 0.15183045 9.7860062e-06
  Final line search alpha, max atom move = 1.0000000 9.7860062e-06
  Iterations, force evaluations = 215 430

MPI task timing breakdown:
Section |  min time  |  avg time  |  max time  |%varavg| %total
---------------------------------------------------------------
Pair    | 0.64993    | 1.8018     | 2.3503     |  36.3 | 71.97
Neigh   | 0          | 0          | 0          |   0.0 |  0.00
Comm    | 0.044314   | 0.40349    | 1.221      |  53.8 | 16.12
Output  | 0          | 0          | 0          |   0.0 |  0.00
Modify  | 2.5636e-05 | 0.0035433  | 0.0075691  |   2.8 |  0.14
Other   |            | 0.2947     |            |       | 11.77

Nlocal:        2776.45 ave        3956 max           0 min
Histogram: 8 4 4 0 4 12 8 0 30 34
Nghost:        3878.92 ave        5425 max         232 min
Histogram: 8 0 8 0 16 0 8 8 16 40
Neighs:        79213.5 ave      115318 max           0 min
Histogram: 8 4 4 0 10 6 8 8 24 32

Total # of neighbors = 8238200
Ave neighs/atom = 28.530464
Neighbor list builds = 0
Dangerous builds = 0
The dot product: 5.42204455809721e-09
Setting atom values ...
  1 settings made for x
  1 settings made for y
  1 settings made for z
Setting up cg style minimization ...
  Unit style    : metal
  Current step  : 6797
Per MPI rank memory allocation (min/avg/max) = 5.441 | 5.816 | 6.074 Mbytes
Step PotEng KinEng TotEng v_fx v_fy v_fz 
    6797   -1152448.6            0   -1152448.6 -0.019189745 0.0037449556  0.022431108 
    7000   -1152448.6            0   -1152448.6 3.0717658e-05 -7.0497865e-06 -3.5825967e-05 
    7011   -1152448.6            0   -1152448.6 -9.8129788e-06 2.1652065e-06 1.1451474e-05 
Loop time of 2.48731 on 104 procs for 214 steps with 288751 atoms

99.9% CPU use with 104 MPI tasks x 1 OpenMP threads

Minimization stats:
  Stopping criterion = energy tolerance
  Energy initial, next-to-last, final = 
     -1152448.61983896  -1152448.62198927  -1152448.62198927
  Force two-norm initial, final = 0.17913051 0.00013743062
  Force max component initial, final = 0.15122275 1.2859789e-05
  Final line search alpha, max atom move = 1.0000000 1.2859789e-05
  Iterations, force evaluations = 214 428

MPI task timing breakdown:
Section |  min time  |  avg time  |  max time  |%varavg| %total
---------------------------------------------------------------
Pair    | 0.6535     | 1.8015     | 2.3476     |  36.0 | 72.43
Neigh   | 0          | 0          | 0          |   0.0 |  0.00
Comm    | 0.039673   | 0.40409    | 1.2209     |  53.6 | 16.25
Output  | 0.00010212 | 0.00010877 | 0.00026307 |   0.0 |  0.00
Modify  | 2.5522e-05 | 0.0035355  | 0.0076116  |   2.8 |  0.14
Other   |            | 0.2781     |            |       | 11.18

Nlocal:        2776.45 ave        3955 max           0 min
Histogram: 8 4 4 0 4 12 8 0 30 34
Nghost:        3878.90 ave        5425 max         232 min
Histogram: 8 0 8 0 16 0 8 8 16 40
Neighs:        79213.5 ave      115295 max           0 min
Histogram: 8 4 4 0 10 6 8 8 24 32

Total # of neighbors = 8238201
Ave neighs/atom = 28.530467
Neighbor list builds = 0
Dangerous builds = 0
The dot product: 6.96056817990747e-09
Setting atom values ...
  1 settings made for x
  1 settings made for y
  1 settings made for z
Setting up cg style minimization ...
  Unit style    : metal
  Current step  : 7011
Per MPI rank memory allocation (min/avg/max) = 5.441 | 5.816 | 6.074 Mbytes
Step PotEng KinEng TotEng v_fx v_fy v_fz 
    7011   -1152448.6            0   -1152448.6 -0.021549511 0.00085622141  0.025488996 
    7303   -1152448.6            0   -1152448.6 1.7121941e-06 -1.0020169e-07 -2.0226487e-06 
Loop time of 3.37195 on 104 procs for 292 steps with 288751 atoms

99.9% CPU use with 104 MPI tasks x 1 OpenMP threads

Minimization stats:
  Stopping criterion = energy tolerance
  Energy initial, next-to-last, final = 
     -1152448.58159885  -1152448.58610422  -1152448.58610422
  Force two-norm initial, final = 0.17846308 2.0064167e-05
  Force max component initial, final = 0.14831486 2.1247464e-06
  Final line search alpha, max atom move = 1.0000000 2.1247464e-06
  Iterations, force evaluations = 292 584

MPI task timing breakdown:
Section |  min time  |  avg time  |  max time  |%varavg| %total
---------------------------------------------------------------
Pair    | 0.88832    | 2.4477     | 3.1877     |  42.2 | 72.59
Neigh   | 1.0728e-05 | 0.0029653  | 0.0042814  |   2.2 |  0.09
Comm    | 0.051362   | 0.54705    | 1.6539     |  62.7 | 16.22
Output  | 0          | 0          | 0          |   0.0 |  0.00
Modify  | 3.4747e-05 | 0.0048086  | 0.010319   |   3.3 |  0.14
Other   |            | 0.3694     |            |       | 10.96

Nlocal:        2776.45 ave        3954 max           0 min
Histogram: 8 4 4 0 4 12 8 0 30 34
Nghost:        3878.95 ave        5425 max         232 min
Histogram: 8 0 8 0 16 0 8 8 16 40
Neighs:        79213.4 ave      115279 max           0 min
Histogram: 8 4 4 0 10 6 8 8 24 32

Total # of neighbors = 8238196
Ave neighs/atom = 28.530450
Neighbor list builds = 1
Dangerous builds = 0
The dot product: 3.2889198704559e-08
Setting atom values ...
  1 settings made for x
  1 settings made for y
  1 settings made for z
Setting up cg style minimization ...
  Unit style    : metal
  Current step  : 7303
Per MPI rank memory allocation (min/avg/max) = 5.441 | 5.816 | 6.074 Mbytes
Step PotEng KinEng TotEng v_fx v_fy v_fz 
    7303   -1152448.6            0   -1152448.6 -0.011699489 -0.0012496195  0.013535122 
    7574   -1152448.6            0   -1152448.6 7.2572414e-07 -1.3382981e-07 -8.2179205e-07 
Loop time of 3.15958 on 104 procs for 271 steps with 288751 atoms

99.9% CPU use with 104 MPI tasks x 1 OpenMP threads

Minimization stats:
  Stopping criterion = energy tolerance
  Energy initial, next-to-last, final = 
     -1152448.55848886  -1152448.56158734  -1152448.56158734
  Force two-norm initial, final = 0.18440867 8.1761476e-06
  Force max component initial, final = 0.14846407 1.1610599e-06
  Final line search alpha, max atom move = 1.0000000 1.1610599e-06
  Iterations, force evaluations = 271 542

MPI task timing breakdown:
Section |  min time  |  avg time  |  max time  |%varavg| %total
---------------------------------------------------------------
Pair    | 0.82113    | 2.2833     | 2.9835     |  40.8 | 72.27
Neigh   | 0          | 0          | 0          |   0.0 |  0.00
Comm    | 0.072497   | 0.51442    | 1.563      |  60.4 | 16.28
Output  | 0          | 0          | 0          |   0.0 |  0.00
Modify  | 3.2446e-05 | 0.0044715  | 0.0095901  |   3.2 |  0.14
Other   |            | 0.3574     |            |       | 11.31

Nlocal:        2776.45 ave        3956 max           0 min
Histogram: 8 4 4 0 4 12 8 0 30 34
Nghost:        3879.04 ave        5426 max         232 min
Histogram: 8 0 8 0 16 0 8 8 16 40
Neighs:        79213.4 ave      115333 max           0 min
Histogram: 8 4 4 0 10 6 8 8 24 32

Total # of neighbors = 8238198
Ave neighs/atom = 28.530457
Neighbor list builds = 0
Dangerous builds = 0
The dot product: 6.77155307870685e-09
Setting atom values ...
  1 settings made for x
  1 settings made for y
  1 settings made for z
Setting up cg style minimization ...
  Unit style    : metal
  Current step  : 7574
Per MPI rank memory allocation (min/avg/max) = 5.441 | 5.816 | 6.074 Mbytes
Step PotEng KinEng TotEng v_fx v_fy v_fz 
    7574   -1152448.5            0   -1152448.5 -0.024685752 0.0041707561  0.027542103 
    7882   -1152448.5            0   -1152448.5 9.8180662e-07 -8.4177282e-08 -1.1024202e-06 
[...]
Histogram: 8 0 8 0 16 0 8 8 16 40
Neighs:        79213.2 ave      115484 max           0 min
Histogram: 8 4 4 0 10 6 8 8 24 32

Total # of neighbors = 8238174
Ave neighs/atom = 28.530374
Neighbor list builds = 0
Dangerous builds = 0
The dot product: 1.615408413592e-10
Setting atom values ...
  1 settings made for x
  1 settings made for y
  1 settings made for z
Setting up cg style minimization ...
  Unit style    : metal
  Current step  : 27489
Per MPI rank memory allocation (min/avg/max) = 5.441 | 5.816 | 6.074 Mbytes
Step PotEng KinEng TotEng v_fx v_fy v_fz 
   27489   -1152449.1            0   -1152449.1 0.00074890871 0.0083283022 -0.010852945 
   27662   -1152449.1            0   -1152449.1 -8.1017058e-06 -5.5773834e-06 1.2726347e-05 
Loop time of 2.00289 on 104 procs for 173 steps with 288751 atoms

99.9% CPU use with 104 MPI tasks x 1 OpenMP threads

Minimization stats:
  Stopping criterion = energy tolerance
  Energy initial, next-to-last, final = 
     -1152449.12554755  -1152449.12689566  -1152449.12689566
  Force two-norm initial, final = 0.16243721 0.00012035093
  Force max component initial, final = 0.093631771 1.4825420e-05
  Final line search alpha, max atom move = 1.0000000 1.4825420e-05
  Iterations, force evaluations = 173 346

MPI task timing breakdown:
Section |  min time  |  avg time  |  max time  |%varavg| %total
---------------------------------------------------------------
Pair    | 0.52771    | 1.4509     | 1.8949     |  32.5 | 72.44
Neigh   | 0          | 0          | 0          |   0.0 |  0.00
Comm    | 0.029946   | 0.32613    | 0.97776    |  47.6 | 16.28
Output  | 0          | 0          | 0          |   0.0 |  0.00
Modify  | 2.0826e-05 | 0.0028433  | 0.0061474  |   2.5 |  0.14
Other   |            | 0.223      |            |       | 11.14

Nlocal:        2776.45 ave        3961 max           0 min
Histogram: 8 4 4 0 6 10 8 4 26 34
Nghost:        3879.09 ave        5424 max         232 min
Histogram: 8 0 8 0 16 0 8 8 16 40
Neighs:        79213.2 ave      115487 max           0 min
Histogram: 8 4 4 0 10 6 8 8 24 32

Total # of neighbors = 8238174
Ave neighs/atom = 28.530374
Neighbor list builds = 0
Dangerous builds = 0
The dot product: -1.51225898584295e-08
Setting atom values ...
  1 settings made for x
  1 settings made for y
  1 settings made for z
Setting up cg style minimization ...
  Unit style    : metal
  Current step  : 27662
Per MPI rank memory allocation (min/avg/max) = 5.441 | 5.816 | 6.074 Mbytes
Step PotEng KinEng TotEng v_fx v_fy v_fz 
   27662   -1152449.1            0   -1152449.1 0.00091047827 0.0072717125 -0.0096726298 
   27836   -1152449.1            0   -1152449.1 8.4079084e-07 2.132149e-06 -3.2481548e-06 
Loop time of 2.01157 on 104 procs for 174 steps with 288751 atoms

99.9% CPU use with 104 MPI tasks x 1 OpenMP threads

Minimization stats:
  Stopping criterion = energy tolerance
  Energy initial, next-to-last, final = 
     -1152449.10680814  -1152449.10816732  -1152449.10816732
  Force two-norm initial, final = 0.16202251 0.00011091649
  Force max component initial, final = 0.094533582 7.7529231e-06
  Final line search alpha, max atom move = 1.0000000 7.7529231e-06
  Iterations, force evaluations = 174 348

MPI task timing breakdown:
Section |  min time  |  avg time  |  max time  |%varavg| %total
---------------------------------------------------------------
Pair    | 0.52845    | 1.4565     | 1.9085     |  32.6 | 72.40
Neigh   | 0          | 0          | 0          |   0.0 |  0.00
Comm    | 0.029518   | 0.32696    | 0.98053    |  47.6 | 16.25
Output  | 0          | 0          | 0          |   0.0 |  0.00
Modify  | 2.1006e-05 | 0.0028681  | 0.0061514  |   2.5 |  0.14
Other   |            | 0.2253     |            |       | 11.20

Nlocal:        2776.45 ave        3961 max           0 min
Histogram: 8 4 4 0 6 10 8 4 26 34
Nghost:        3879.12 ave        5425 max         232 min
Histogram: 8 0 8 0 16 0 8 8 16 40
Neighs:        79213.2 ave      115486 max           0 min
Histogram: 8 4 4 0 10 6 8 8 24 32

Total # of neighbors = 8238172
Ave neighs/atom = 28.530367
Neighbor list builds = 0
Dangerous builds = 0
The dot product: 5.45937219122001e-09
Setting atom values ...
  1 settings made for x
  1 settings made for y
  1 settings made for z
Setting up cg style minimization ...
  Unit style    : metal
  Current step  : 27836
Per MPI rank memory allocation (min/avg/max) = 5.441 | 5.816 | 6.074 Mbytes
Step PotEng KinEng TotEng v_fx v_fy v_fz 
   27836   -1152449.1            0   -1152449.1 0.0010662877  0.006137604 -0.0083869318 
   27982   -1152449.1            0   -1152449.1 -7.1423466e-06 -8.8357946e-06 1.609888e-05 
Loop time of 1.68683 on 104 procs for 146 steps with 288751 atoms

99.9% CPU use with 104 MPI tasks x 1 OpenMP threads

Minimization stats:
  Stopping criterion = energy tolerance
  Energy initial, next-to-last, final = 
     -1152449.08701612  -1152449.08841247  -1152449.08841247
  Force two-norm initial, final = 0.16179432 0.00024353915
  Force max component initial, final = 0.09534618 4.2560421e-05
  Final line search alpha, max atom move = 1.0000000 4.2560421e-05
  Iterations, force evaluations = 146 292

MPI task timing breakdown:
Section |  min time  |  avg time  |  max time  |%varavg| %total
---------------------------------------------------------------
Pair    | 0.44702    | 1.2243     | 1.5968     |  29.8 | 72.58
Neigh   | 0          | 0          | 0          |   0.0 |  0.00
Comm    | 0.028417   | 0.2763     | 0.83255    |  43.6 | 16.38
Output  | 0          | 0          | 0          |   0.0 |  0.00
Modify  | 1.7582e-05 | 0.002405   | 0.0051583  |   2.3 |  0.14
Other   |            | 0.1838     |            |       | 10.90

Nlocal:        2776.45 ave        3961 max           0 min
Histogram: 8 4 4 0 6 10 8 4 26 34
Nghost:        3879.12 ave        5425 max         232 min
Histogram: 8 0 8 0 16 0 8 8 16 40
Neighs:        79213.2 ave      115486 max           0 min
Histogram: 8 4 4 0 10 6 8 8 24 32

Total # of neighbors = 8238172
Ave neighs/atom = 28.530367
Neighbor list builds = 0
Dangerous builds = 0
The dot product: -2.06021771060782e-08
Setting atom values ...
  1 settings made for x
  1 settings made for y
  1 settings made for z
Setting up cg style minimization ...
  Unit style    : metal
  Current step  : 27982
Per MPI rank memory allocation (min/avg/max) = 5.441 | 5.816 | 6.074 Mbytes
Step PotEng KinEng TotEng v_fx v_fy v_fz 
   27982   -1152449.1            0   -1152449.1 0.0011792011 0.0051872663 -0.0072955154 
   28000   -1152449.1            0   -1152449.1 0.0010699329 0.0001349924 -0.00093548717 
   28167   -1152449.1            0   -1152449.1 -1.2683788e-05 2.4864471e-06 6.0088001e-06 
Loop time of 2.17184 on 104 procs for 185 steps with 288751 atoms

99.9% CPU use with 104 MPI tasks x 1 OpenMP threads

Minimization stats:
  Stopping criterion = energy tolerance
  Energy initial, next-to-last, final = 
     -1152449.06621678  -1152449.06760295  -1152449.06760295
  Force two-norm initial, final = 0.16179025 9.0585412e-05
  Force max component initial, final = 0.096076735 2.3354159e-05
  Final line search alpha, max atom move = 1.0000000 2.3354159e-05
  Iterations, force evaluations = 185 370

MPI task timing breakdown:
Section |  min time  |  avg time  |  max time  |%varavg| %total
---------------------------------------------------------------
Pair    | 0.56583    | 1.5508     | 2.0366     |  33.6 | 71.40
Neigh   | 0          | 0          | 0          |   0.0 |  0.00
Comm    | 0.038297   | 0.35222    | 1.0437     |  48.5 | 16.22
Output  | 0.00010176 | 0.00011152 | 0.00021896 |   0.0 |  0.01
Modify  | 2.2305e-05 | 0.0030416  | 0.0065419  |   2.6 |  0.14
Other   |            | 0.2657     |            |       | 12.23

Nlocal:        2776.45 ave        3961 max           0 min
Histogram: 8 4 4 0 6 10 8 4 26 34
Nghost:        3879.16 ave        5425 max         232 min
Histogram: 8 0 8 0 16 0 8 8 16 40
Neighs:        79213.2 ave      115483 max           0 min
Histogram: 8 4 4 0 10 6 8 8 24 32

Total # of neighbors = 8238171
Ave neighs/atom = 28.530364
Neighbor list builds = 0
Dangerous builds = 0
The dot product: 1.33141543983975e-08
Setting atom values ...
  1 settings made for x
  1 settings made for y
  1 settings made for z
Setting up cg style minimization ...
  Unit style    : metal
  Current step  : 28167
Per MPI rank memory allocation (min/avg/max) = 5.441 | 5.816 | 6.074 Mbytes
Step PotEng KinEng TotEng v_fx v_fy v_fz 
   28167     -1152449            0     -1152449 0.0011471594 0.0043016968 -0.0061768617 
   28337     -1152449            0     -1152449 5.3680778e-05 -7.0600411e-07 -3.7618955e-05 
Loop time of 1.96273 on 104 procs for 170 steps with 288751 atoms

99.9% CPU use with 104 MPI tasks x 1 OpenMP threads

Minimization stats:
  Stopping criterion = energy tolerance
  Energy initial, next-to-last, final = 
     -1152449.04425741  -1152449.04561035  -1152449.04561035
  Force two-norm initial, final = 0.16192331 0.00019915674
  Force max component initial, final = 0.096784662 5.7150954e-05
  Final line search alpha, max atom move = 1.0000000 5.7150954e-05
  Iterations, force evaluations = 170 340

MPI task timing breakdown:
Section |  min time  |  avg time  |  max time  |%varavg| %total
---------------------------------------------------------------
Pair    | 0.5191     | 1.425      | 1.8611     |  32.2 | 72.60
Neigh   | 0          | 0          | 0          |   0.0 |  0.00
Comm    | 0.028413   | 0.322      | 0.97226    |  47.0 | 16.41
Output  | 0          | 0          | 0          |   0.0 |  0.00
Modify  | 2.0377e-05 | 0.0028041  | 0.0059977  |   2.5 |  0.14
Other   |            | 0.213      |            |       | 10.85

Nlocal:        2776.45 ave        3960 max           0 min
Histogram: 8 4 4 0 4 12 8 4 26 34
Nghost:        3879.16 ave        5425 max         232 min
Histogram: 8 0 8 0 16 0 8 8 16 40
Neighs:        79213.2 ave      115450 max           0 min
Histogram: 8 4 4 0 10 6 8 8 24 32

Total # of neighbors = 8238170
Ave neighs/atom = 28.530360
Neighbor list builds = 0
Dangerous builds = 0
The dot product: -2.8965381635709e-08
Setting atom values ...
  1 settings made for x
  1 settings made for y
  1 settings made for z
Setting up cg style minimization ...
  Unit style    : metal
  Current step  : 28337
Per MPI rank memory allocation (min/avg/max) = 5.441 | 5.816 | 6.074 Mbytes
Step PotEng KinEng TotEng v_fx v_fy v_fz 
   28337     -1152449            0     -1152449 0.00089976452 0.0035231327 -0.0050340506 
   28568     -1152449            0     -1152449 -4.1847793e-06 -1.6688812e-07 3.2078923e-06 
Loop time of 2.66825 on 104 procs for 231 steps with 288751 atoms

99.9% CPU use with 104 MPI tasks x 1 OpenMP threads

Minimization stats:
  Stopping criterion = energy tolerance
  Energy initial, next-to-last, final = 
     -1152449.02099458  -1152449.02232711  -1152449.02232711
  Force two-norm initial, final = 0.16217442 1.9672939e-05
  Force max component initial, final = 0.097440043 5.4043743e-06
  Final line search alpha, max atom move = 1.0000000 5.4043743e-06
  Iterations, force evaluations = 231 462

MPI task timing breakdown:
Section |  min time  |  avg time  |  max time  |%varavg| %total
---------------------------------------------------------------
Pair    | 0.7012     | 1.9324     | 2.5254     |  37.6 | 72.42
Neigh   | 0          | 0          | 0          |   0.0 |  0.00
Comm    | 0.038999   | 0.43493    | 1.2989     |  54.7 | 16.30
Output  | 0          | 0          | 0          |   0.0 |  0.00
Modify  | 2.8054e-05 | 0.0037947  | 0.008166   |   2.9 |  0.14
Other   |            | 0.2972     |            |       | 11.14

Nlocal:        2776.45 ave        3960 max           0 min
Histogram: 8 4 4 0 4 12 8 4 26 34
Nghost:        3879.16 ave        5425 max         232 min
Histogram: 8 0 8 0 16 0 8 8 16 40
Neighs:        79213.2 ave      115451 max           0 min
Histogram: 8 4 4 0 10 6 8 8 24 32

Total # of neighbors = 8238171
Ave neighs/atom = 28.530364
Neighbor list builds = 0
Dangerous builds = 0
The dot product: 2.16973894938574e-09
Setting atom values ...
  1 settings made for x
  1 settings made for y
  1 settings made for z
Setting up cg style minimization ...
  Unit style    : metal
  Current step  : 28568
Per MPI rank memory allocation (min/avg/max) = 5.441 | 5.816 | 6.074 Mbytes
Step PotEng KinEng TotEng v_fx v_fy v_fz 
   28568     -1152449            0     -1152449 0.00023447299 0.0028451081 -0.0037149387 
   28810     -1152449            0     -1152449 3.6015508e-07 1.3274253e-07 -4.2356099e-07 
Loop time of 2.79929 on 104 procs for 242 steps with 288751 atoms

99.9% CPU use with 104 MPI tasks x 1 OpenMP threads

Minimization stats:
  Stopping criterion = energy tolerance
  Energy initial, next-to-last, final = 
      -1152448.9963399  -1152448.99765431  -1152448.99765431
  Force two-norm initial, final = 0.16262156 1.2495984e-05
  Force max component initial, final = 0.098088283 2.7020999e-06
  Final line search alpha, max atom move = 1.0000000 2.7020999e-06
  Iterations, force evaluations = 242 484

MPI task timing breakdown:
Section |  min time  |  avg time  |  max time  |%varavg| %total
---------------------------------------------------------------
Pair    | 0.73753    | 2.0259     | 2.655      |  38.4 | 72.37
Neigh   | 0          | 0          | 0          |   0.0 |  0.00
Comm    | 0.041546   | 0.45495    | 1.3658     |  56.0 | 16.25
Output  | 0          | 0          | 0          |   0.0 |  0.00
Modify  | 2.9259e-05 | 0.0039792  | 0.0088657  |   3.0 |  0.14
Other   |            | 0.3144     |            |       | 11.23

Nlocal:        2776.45 ave        3960 max           0 min
Histogram: 8 4 4 0 4 12 8 4 26 34
Nghost:        3879.16 ave        5425 max         232 min
Histogram: 8 0 8 0 16 0 8 8 16 40
Neighs:        79213.2 ave      115453 max           0 min
Histogram: 8 4 4 0 10 6 8 8 24 32

Total # of neighbors = 8238173
Ave neighs/atom = 28.530370
Neighbor list builds = 0
Dangerous builds = 0
The dot product: -1.22747789247449e-10
Setting atom values ...
  1 settings made for x
  1 settings made for y
  1 settings made for z
Setting up cg style minimization ...
  Unit style    : metal
  Current step  : 28810
Per MPI rank memory allocation (min/avg/max) = 5.441 | 5.816 | 6.074 Mbytes
Step PotEng KinEng TotEng v_fx v_fy v_fz 
   28810     -1152449            0     -1152449 -0.0005725171 0.0022521492 -0.0023991852 
   29000     -1152449            0     -1152449 7.1045559e-06 -2.0860839e-06 -2.4857904e-06 
   29029     -1152449            0     -1152449 -1.4511408e-06 -1.2353763e-06 2.5801451e-06 
Loop time of 2.53966 on 104 procs for 219 steps with 288751 atoms

99.9% CPU use with 104 MPI tasks x 1 OpenMP threads

Minimization stats:
  Stopping criterion = energy tolerance
  Energy initial, next-to-last, final = 
      -1152448.9701926  -1152448.97149252  -1152448.97149252
  Force two-norm initial, final = 0.16327639 3.4552566e-05
  Force max component initial, final = 0.098680945 8.1887910e-06
  Final line search alpha, max atom move = 1.0000000 8.1887910e-06
  Iterations, force evaluations = 219 438

MPI task timing breakdown:
Section |  min time  |  avg time  |  max time  |%varavg| %total
---------------------------------------------------------------
Pair    | 0.67169    | 1.8357     | 2.403      |  36.5 | 72.28
Neigh   | 0          | 0          | 0          |   0.0 |  0.00
Comm    | 0.037367   | 0.41468    | 1.2377     |  53.1 | 16.33
Output  | 0.0001054  | 0.00010865 | 0.000307   |   0.0 |  0.00
Modify  | 2.6643e-05 | 0.0035992  | 0.0078606  |   2.8 |  0.14
Other   |            | 0.2856     |            |       | 11.24

Nlocal:        2776.45 ave        3960 max           0 min
Histogram: 8 4 4 0 4 12 8 4 26 34
Nghost:        3879.12 ave        5425 max         232 min
Histogram: 8 0 8 0 16 0 8 8 16 40
Neighs:        79213.2 ave      115451 max           0 min
Histogram: 8 4 4 0 10 6 8 8 24 32

Total # of neighbors = 8238171
Ave neighs/atom = 28.530364
Neighbor list builds = 0
Dangerous builds = 0
The dot product: 5.72098952999149e-10
Setting atom values ...
  1 settings made for x
  1 settings made for y
  1 settings made for z
Setting up cg style minimization ...
  Unit style    : metal
  Current step  : 29029
Per MPI rank memory allocation (min/avg/max) = 5.441 | 5.816 | 6.074 Mbytes
Step PotEng KinEng TotEng v_fx v_fy v_fz 
   29029   -1152448.9            0   -1152448.9 -0.0014219946 0.0017375939 -0.0011505394 
   29280   -1152448.9            0   -1152448.9 1.0338897e-06 2.2650887e-07 -1.0224512e-06 
Loop time of 2.90118 on 104 procs for 251 steps with 288751 atoms

99.9% CPU use with 104 MPI tasks x 1 OpenMP threads

Minimization stats:
  Stopping criterion = energy tolerance
  Energy initial, next-to-last, final = 
     -1152448.94246174  -1152448.94375573  -1152448.94375573
  Force two-norm initial, final = 0.1641449 7.5616831e-06
  Force max component initial, final = 0.099234158 1.0338897e-06
  Final line search alpha, max atom move = 1.0000000 1.0338897e-06
  Iterations, force evaluations = 251 502

MPI task timing breakdown:
Section |  min time  |  avg time  |  max time  |%varavg| %total
---------------------------------------------------------------
Pair    | 0.76366    | 2.1018     | 2.7422     |  39.1 | 72.45
Neigh   | 0          | 0          | 0          |   0.0 |  0.00
Comm    | 0.043351   | 0.47119    | 1.4157     |  57.3 | 16.24
Output  | 0          | 0          | 0          |   0.0 |  0.00
Modify  | 2.9999e-05 | 0.0041244  | 0.0088123  |   3.0 |  0.14
Other   |            | 0.324      |            |       | 11.17

Nlocal:        2776.45 ave        3960 max           0 min
Histogram: 8 4 4 0 4 12 8 4 26 34
Nghost:        3879.09 ave        5425 max         232 min
Histogram: 8 0 8 0 16 0 8 8 16 40
Neighs:        79213.2 ave      115452 max           0 min
Histogram: 8 4 4 0 10 6 8 8 24 32

Total # of neighbors = 8238172
Ave neighs/atom = 28.530367
Neighbor list builds = 0
Dangerous builds = 0
The dot product: -1.22815510680095e-09
Setting atom values ...
  1 settings made for x
  1 settings made for y
  1 settings made for z
Setting up cg style minimization ...
  Unit style    : metal
  Current step  : 29280
Per MPI rank memory allocation (min/avg/max) = 5.441 | 5.816 | 6.074 Mbytes
Step PotEng KinEng TotEng v_fx v_fy v_fz 
   29280   -1152448.9            0   -1152448.9 -0.0020832944 0.0012924221 -0.00012356739 
   29471   -1152448.9            0   -1152448.9 1.5701477e-05 -5.1492748e-06 -4.7987654e-06 
Loop time of 2.22477 on 104 procs for 191 steps with 288751 atoms

99.9% CPU use with 104 MPI tasks x 1 OpenMP threads

Minimization stats:
  Stopping criterion = energy tolerance
  Energy initial, next-to-last, final = 
     -1152448.91307731  -1152448.91437104  -1152448.91437104
  Force two-norm initial, final = 0.16520766 0.00011017284
  Force max component initial, final = 0.099769525 1.5701477e-05
  Final line search alpha, max atom move = 1.0000000 1.5701477e-05
  Iterations, force evaluations = 191 382

MPI task timing breakdown:
Section |  min time  |  avg time  |  max time  |%varavg| %total
---------------------------------------------------------------
Pair    | 0.58374    | 1.605      | 2.1057     |  34.1 | 72.14
Neigh   | 0          | 0          | 0          |   0.0 |  0.00
Comm    | 0.032441   | 0.36204    | 1.0824     |  49.8 | 16.27
Output  | 0          | 0          | 0          |   0.0 |  0.00
Modify  | 2.3252e-05 | 0.0031433  | 0.0067288  |   2.6 |  0.14
Other   |            | 0.2546     |            |       | 11.44

Nlocal:        2776.45 ave        3960 max           0 min
Histogram: 8 4 4 0 4 12 8 4 26 34
Nghost:        3879.05 ave        5424 max         232 min
Histogram: 8 0 8 0 16 0 8 8 16 40
Neighs:        79213.2 ave      115454 max           0 min
Histogram: 8 4 4 0 10 6 8 8 24 32

Total # of neighbors = 8238170
Ave neighs/atom = 28.530360
Neighbor list builds = 0
Dangerous builds = 0
The dot product: -2.32928592645029e-08
