LAMMPS (29 Oct 2020)
OMP_NUM_THREADS environment is not set. Defaulting to 1 thread. (../comm.cpp:94)
  using 1 OpenMP thread(s) per MPI task
OMP_NUM_THREADS environment is not set. Defaulting to 1 thread. (../comm.cpp:94)
  using 1 OpenMP thread(s) per MPI task
Reading data file ...
  orthogonal box = (-122.39241 -121.13707 -37.090501) to (122.39241 121.13707 37.090501)
  13 by 4 by 2 MPI processor grid
  reading atoms ...
  288751 atoms
  read_data CPU = 0.377 seconds
199981 atoms in group inner
88770 atoms in group outer
1 atoms in group carbon
Neighbor list info ...
  update every 1 steps, delay 0 steps, check yes
  max neighbors/atom: 2000, page size: 100000
  master list distance cutoff = 5.6
  ghost atom cutoff = 5.6
  binsize = 2.8, bins = 88 87 27
  1 neighbor lists, perpetual/occasional/extra = 1 0 0
  (1) pair eam/alloy, perpetual
      attributes: half, newton on
      pair build: half/bin/atomonly/newton
      stencil: half/bin/3d/newton
      bin: standard
Setting up cg style minimization ...
  Unit style    : metal
  Current step  : 0
Per MPI rank memory allocation (min/avg/max) = 5.441 | 5.816 | 6.074 Mbytes
Step v_fx v_fy v_fz PotEng KinEng TotEng 
       0    26.446169    15.366279    51.626611   -1152432.9            0   -1152432.9 
     176 -1.7506256e-05 -3.6153975e-07 4.653658e-06   -1152449.5            0   -1152449.5 
Loop time of 2.01362 on 104 procs for 176 steps with 288751 atoms

99.9% CPU use with 104 MPI tasks x 1 OpenMP threads

Minimization stats:
  Stopping criterion = energy tolerance
  Energy initial, next-to-last, final = 
      -1152432.9039931  -1152449.45035286  -1152449.45035286
  Force two-norm initial, final = 89.754273 8.6704114e-05
  Force max component initial, final = 58.707913 1.7506256e-05
  Final line search alpha, max atom move = 1.0000000 1.7506256e-05
  Iterations, force evaluations = 176 344

MPI task timing breakdown:
Section |  min time  |  avg time  |  max time  |%varavg| %total
---------------------------------------------------------------
Pair    | 0.54453    | 1.4482     | 1.8737     |  31.8 | 71.92
Neigh   | 5.1343e-05 | 0.014727   | 0.021273   |   5.0 |  0.73
Comm    | 0.034259   | 0.32473    | 0.97756    |  47.9 | 16.13
Output  | 0          | 0          | 0          |   0.0 |  0.00
Modify  | 1.9677e-05 | 0.0018569  | 0.0047521  |   2.7 |  0.09
Other   |            | 0.2241     |            |       | 11.13

Nlocal:        2776.45 ave        3960 max           0 min
Histogram: 8 4 4 0 4 12 8 2 28 34
Nghost:        3879.03 ave        5424 max         232 min
Histogram: 8 0 8 0 16 0 8 8 16 40
Neighs:        79213.6 ave      115428 max           0 min
Histogram: 8 4 4 0 10 6 8 8 24 32

Total # of neighbors = 8238211
Ave neighs/atom = 28.530502
Neighbor list builds = 5
Dangerous builds = 0
Setting atom values ...
  1 settings made for x
  1 settings made for y
  1 settings made for z
Setting up cg style minimization ...
  Unit style    : metal
  Current step  : 176
Per MPI rank memory allocation (min/avg/max) = 5.441 | 5.816 | 6.074 Mbytes
Step PotEng KinEng TotEng v_fx v_fy v_fz 
     176   -1152449.4            0   -1152449.4  0.012419034 -0.016201553 -0.020762974 
     294   -1152449.5            0   -1152449.5 -2.4817847e-05 1.2088937e-05 -2.3281824e-05 
Loop time of 1.38562 on 104 procs for 118 steps with 288751 atoms

99.9% CPU use with 104 MPI tasks x 1 OpenMP threads

Minimization stats:
  Stopping criterion = energy tolerance
  Energy initial, next-to-last, final = 
     -1152449.44947041  -1152449.45002043  -1152449.45002043
  Force two-norm initial, final = 0.10819473 0.00018703787
  Force max component initial, final = 0.047630899 2.8136334e-05
  Final line search alpha, max atom move = 1.0000000 2.8136334e-05
  Iterations, force evaluations = 118 236

MPI task timing breakdown:
Section |  min time  |  avg time  |  max time  |%varavg| %total
---------------------------------------------------------------
Pair    | 0.35981    | 0.99805    | 1.3021     |  27.0 | 72.03
Neigh   | 0          | 0          | 0          |   0.0 |  0.00
Comm    | 0.026436   | 0.22513    | 0.67032    |  39.8 | 16.25
Output  | 0          | 0          | 0          |   0.0 |  0.00
Modify  | 1.5963e-05 | 0.0019526  | 0.0042005  |   2.1 |  0.14
Other   |            | 0.1605     |            |       | 11.58

Nlocal:        2776.45 ave        3959 max           0 min
Histogram: 8 4 4 0 4 12 8 2 28 34
Nghost:        3879.03 ave        5424 max         232 min
Histogram: 8 0 8 0 16 0 8 8 16 40
Neighs:        79213.4 ave      115406 max           0 min
Histogram: 8 4 4 0 10 6 8 8 24 32

Total # of neighbors = 8238197
Ave neighs/atom = 28.530454
Neighbor list builds = 0
Dangerous builds = 0
Setting atom values ...
  1 settings made for x
  1 settings made for y
  1 settings made for z
Setting up cg style minimization ...
  Unit style    : metal
  Current step  : 294
Per MPI rank memory allocation (min/avg/max) = 5.441 | 5.816 | 6.074 Mbytes
Step PotEng KinEng TotEng v_fx v_fy v_fz 
     294   -1152449.4            0   -1152449.4  0.021638254 -0.023241231  -0.03392837 
     449   -1152449.4            0   -1152449.4 2.1875807e-05 -1.0862046e-05 2.8317338e-05 
Loop time of 1.79266 on 104 procs for 155 steps with 288751 atoms

99.9% CPU use with 104 MPI tasks x 1 OpenMP threads

Minimization stats:
  Stopping criterion = energy tolerance
  Energy initial, next-to-last, final = 
     -1152449.44665789  -1152449.44808505  -1152449.44808505
  Force two-norm initial, final = 0.17472815 0.00016425916
  Force max component initial, final = 0.07952497 2.8317338e-05
  Final line search alpha, max atom move = 1.0000000 2.8317338e-05
  Iterations, force evaluations = 155 310

MPI task timing breakdown:
Section |  min time  |  avg time  |  max time  |%varavg| %total
---------------------------------------------------------------
Pair    | 0.47209    | 1.2998     | 1.6956     |  30.7 | 72.51
Neigh   | 0          | 0          | 0          |   0.0 |  0.00
Comm    | 0.029134   | 0.29034    | 0.87396    |  45.7 | 16.20
Output  | 0          | 0          | 0          |   0.0 |  0.00
Modify  | 1.8818e-05 | 0.0025535  | 0.005434   |   2.4 |  0.14
Other   |            | 0.1999     |            |       | 11.15

Nlocal:        2776.45 ave        3958 max           0 min
Histogram: 8 4 4 0 4 12 8 2 28 34
Nghost:        3879.03 ave        5424 max         232 min
Histogram: 8 0 8 0 16 0 8 8 16 40
Neighs:        79213.5 ave      115384 max           0 min
Histogram: 8 4 4 0 10 6 8 8 24 32

Total # of neighbors = 8238199
Ave neighs/atom = 28.530461
Neighbor list builds = 0
Dangerous builds = 0
The dot product: -6.51274205110526e-08
Setting atom values ...
  1 settings made for x
  1 settings made for y
  1 settings made for z
Setting up cg style minimization ...
  Unit style    : metal
  Current step  : 449
Per MPI rank memory allocation (min/avg/max) = 5.441 | 5.816 | 6.074 Mbytes
Step PotEng KinEng TotEng v_fx v_fy v_fz 
     449   -1152449.4            0   -1152449.4  0.021035046 -0.019062617 -0.031904274 
     593   -1152449.4            0   -1152449.4 8.7273143e-07 -5.2858958e-07 1.1857254e-06 
Loop time of 1.67929 on 104 procs for 144 steps with 288751 atoms

99.9% CPU use with 104 MPI tasks x 1 OpenMP threads

Minimization stats:
  Stopping criterion = energy tolerance
  Energy initial, next-to-last, final = 
     -1152449.44327992  -1152449.44466033  -1152449.44466033
  Force two-norm initial, final = 0.1715194 3.7614874e-05
  Force max component initial, final = 0.079125681 7.7464367e-06
  Final line search alpha, max atom move = 1.0000000 7.7464367e-06
  Iterations, force evaluations = 144 288

MPI task timing breakdown:
Section |  min time  |  avg time  |  max time  |%varavg| %total
---------------------------------------------------------------
Pair    | 0.43807    | 1.2163     | 1.5745     |  29.7 | 72.43
Neigh   | 0          | 0          | 0          |   0.0 |  0.00
Comm    | 0.030419   | 0.2719     | 0.82494    |  44.4 | 16.19
Output  | 0          | 0          | 0          |   0.0 |  0.00
Modify  | 1.786e-05  | 0.0023792  | 0.0050686  |   2.3 |  0.14
Other   |            | 0.1887     |            |       | 11.24

Nlocal:        2776.45 ave        3957 max           0 min
Histogram: 8 4 4 0 4 12 8 2 28 34
Nghost:        3879.03 ave        5424 max         232 min
Histogram: 8 0 8 0 16 0 8 8 16 40
Neighs:        79213.5 ave      115361 max           0 min
Histogram: 8 4 4 0 10 6 8 8 24 32

Total # of neighbors = 8238199
Ave neighs/atom = 28.530461
Neighbor list builds = 0
Dangerous builds = 0
The dot product: -4.52530309943133e-09
Setting atom values ...
  1 settings made for x
  1 settings made for y
  1 settings made for z
Setting up cg style minimization ...
  Unit style    : metal
  Current step  : 593
Per MPI rank memory allocation (min/avg/max) = 5.441 | 5.816 | 6.074 Mbytes
Step PotEng KinEng TotEng v_fx v_fy v_fz 
     593   -1152449.4            0   -1152449.4  0.019605572 -0.015603102  -0.02623648 
     739   -1152449.4            0   -1152449.4 8.2562124e-06 -6.3486741e-06 -1.8995534e-06 
Loop time of 1.67607 on 104 procs for 146 steps with 288751 atoms

99.9% CPU use with 104 MPI tasks x 1 OpenMP threads

Minimization stats:
  Stopping criterion = energy tolerance
  Energy initial, next-to-last, final = 
     -1152449.43854597  -1152449.43990974  -1152449.43990974
  Force two-norm initial, final = 0.1688573 0.00013326932
  Force max component initial, final = 0.077235081 1.5240637e-05
  Final line search alpha, max atom move = 1.0000000 1.5240637e-05
  Iterations, force evaluations = 146 292

MPI task timing breakdown:
Section |  min time  |  avg time  |  max time  |%varavg| %total
---------------------------------------------------------------
Pair    | 0.44051    | 1.2212     | 1.5889     |  29.8 | 72.86
Neigh   | 0          | 0          | 0          |   0.0 |  0.00
Comm    | 0.025757   | 0.27077    | 0.8202     |  44.7 | 16.16
Output  | 0          | 0          | 0          |   0.0 |  0.00
Modify  | 1.7553e-05 | 0.0024089  | 0.0051319  |   2.3 |  0.14
Other   |            | 0.1817     |            |       | 10.84

Nlocal:        2776.45 ave        3956 max           0 min
Histogram: 8 4 4 0 4 12 8 0 30 34
Nghost:        3879.03 ave        5424 max         232 min
Histogram: 8 0 8 0 16 0 8 8 16 40
Neighs:        79213.5 ave      115321 max           0 min
Histogram: 8 4 4 0 10 6 8 8 24 32

Total # of neighbors = 8238201
Ave neighs/atom = 28.530467
Neighbor list builds = 0
Dangerous builds = 0
The dot product: -7.80450876096471e-09
Setting atom values ...
  1 settings made for x
  1 settings made for y
  1 settings made for z
Setting up cg style minimization ...
  Unit style    : metal
  Current step  : 739
Per MPI rank memory allocation (min/avg/max) = 5.441 | 5.816 | 6.074 Mbytes
Step PotEng KinEng TotEng v_fx v_fy v_fz 
     739   -1152449.4            0   -1152449.4  0.017882054 -0.013502088 -0.019507619 
     898   -1152449.4            0   -1152449.4 -6.2336095e-06 2.8015347e-06 6.0451604e-05 
Loop time of 1.8436 on 104 procs for 159 steps with 288751 atoms

99.9% CPU use with 104 MPI tasks x 1 OpenMP threads

Minimization stats:
  Stopping criterion = energy tolerance
  Energy initial, next-to-last, final = 
     -1152449.43244149  -1152449.43379766  -1152449.43379766
  Force two-norm initial, final = 0.16731273 0.00021457535
  Force max component initial, final = 0.07458022 6.0451604e-05
  Final line search alpha, max atom move = 1.0000000 6.0451604e-05
  Iterations, force evaluations = 159 318

MPI task timing breakdown:
Section |  min time  |  avg time  |  max time  |%varavg| %total
---------------------------------------------------------------
Pair    | 0.48397    | 1.3383     | 1.7383     |  31.1 | 72.59
Neigh   | 0          | 0          | 0          |   0.0 |  0.00
Comm    | 0.027691   | 0.29802    | 0.91287    |  46.6 | 16.17
Output  | 0          | 0          | 0          |   0.0 |  0.00
Modify  | 1.9215e-05 | 0.0026205  | 0.0056262  |   2.4 |  0.14
Other   |            | 0.2047     |            |       | 11.10

Nlocal:        2776.45 ave        3955 max           0 min
Histogram: 8 4 4 0 4 12 8 0 30 34
Nghost:        3879.03 ave        5424 max         232 min
Histogram: 8 0 8 0 16 0 8 8 16 40
Neighs:        79213.5 ave      115280 max           0 min
Histogram: 8 4 4 0 10 6 8 8 24 32

Total # of neighbors = 8238202
Ave neighs/atom = 28.530471
Neighbor list builds = 0
Dangerous builds = 0
The dot product: -1.69830582176057e-07
Setting atom values ...
  1 settings made for x
  1 settings made for y
  1 settings made for z
Setting up cg style minimization ...
  Unit style    : metal
  Current step  : 898
Per MPI rank memory allocation (min/avg/max) = 5.441 | 5.816 | 6.074 Mbytes
Step PotEng KinEng TotEng v_fx v_fy v_fz 
     898   -1152449.4            0   -1152449.4  0.016162349 -0.012375563 -0.013428533 
    1000   -1152449.4            0   -1152449.4 2.5658929e-07 4.8243829e-06 -6.3803308e-05 
    1006   -1152449.4            0   -1152449.4 -2.5400598e-05 2.0807684e-05 3.9002104e-06 
Loop time of 1.24394 on 104 procs for 108 steps with 288751 atoms

99.9% CPU use with 104 MPI tasks x 1 OpenMP threads

Minimization stats:
  Stopping criterion = energy tolerance
  Energy initial, next-to-last, final = 
       -1152449.424927  -1152449.42628353  -1152449.42628353
  Force two-norm initial, final = 0.16675034 0.00033054171
  Force max component initial, final = 0.074374217 7.7109676e-05
  Final line search alpha, max atom move = 1.0000000 7.7109676e-05
  Iterations, force evaluations = 108 216

MPI task timing breakdown:
Section |  min time  |  avg time  |  max time  |%varavg| %total
---------------------------------------------------------------
Pair    | 0.32649    | 0.9044     | 1.1749     |  25.7 | 72.70
Neigh   | 0          | 0          | 0          |   0.0 |  0.00
Comm    | 0.019565   | 0.20104    | 0.61044    |  38.3 | 16.16
Output  | 0.00015036 | 0.00015776 | 0.0002819  |   0.0 |  0.01
Modify  | 1.3383e-05 | 0.001781   | 0.0037995  |   2.0 |  0.14
Other   |            | 0.1366     |            |       | 10.98

Nlocal:        2776.45 ave        3954 max           0 min
Histogram: 8 4 4 0 4 12 8 0 30 34
Nghost:        3879.03 ave        5424 max         232 min
Histogram: 8 0 8 0 16 0 8 8 16 40
Neighs:        79213.5 ave      115241 max           0 min
Histogram: 8 4 4 0 10 6 8 8 24 32

Total # of neighbors = 8238201
Ave neighs/atom = 28.530467
Neighbor list builds = 0
Dangerous builds = 0
The dot product: 7.65407433209702e-08
Setting atom values ...
  1 settings made for x
  1 settings made for y
  1 settings made for z
Setting up cg style minimization ...
  Unit style    : metal
  Current step  : 1006
Per MPI rank memory allocation (min/avg/max) = 5.441 | 5.816 | 6.074 Mbytes
Step PotEng KinEng TotEng v_fx v_fy v_fz 
    1006   -1152449.4            0   -1152449.4  0.014752197 -0.011913549 -0.0085795186 
    1172   -1152449.4            0   -1152449.4 7.8531814e-06 -1.2833429e-05 5.4237998e-05 
Loop time of 1.91815 on 104 procs for 166 steps with 288751 atoms

99.9% CPU use with 104 MPI tasks x 1 OpenMP threads

Minimization stats:
  Stopping criterion = energy tolerance
  Energy initial, next-to-last, final = 
     -1152449.41597302  -1152449.41733697  -1152449.41733697
  Force two-norm initial, final = 0.16676259 0.00022046698
  Force max component initial, final = 0.074663608 5.4237998e-05
  Final line search alpha, max atom move = 1.0000000 5.4237998e-05
  Iterations, force evaluations = 166 332

MPI task timing breakdown:
Section |  min time  |  avg time  |  max time  |%varavg| %total
---------------------------------------------------------------
Pair    | 0.50348    | 1.3972     | 1.8114     |  31.9 | 72.84
Neigh   | 0          | 0          | 0          |   0.0 |  0.00
Comm    | 0.033845   | 0.31098    | 0.93322    |  47.7 | 16.21
Output  | 0          | 0          | 0          |   0.0 |  0.00
Modify  | 2.1759e-05 | 0.0027361  | 0.0058508  |   2.5 |  0.14
Other   |            | 0.2072     |            |       | 10.80

Nlocal:        2776.45 ave        3952 max           0 min
Histogram: 8 4 4 0 4 12 8 1 29 34
Nghost:        3879.03 ave        5424 max         232 min
Histogram: 8 0 8 0 16 0 8 8 16 40
Neighs:        79213.5 ave      115170 max           0 min
Histogram: 8 4 4 0 10 6 8 8 24 32

Total # of neighbors = 8238203
Ave neighs/atom = 28.530474
Neighbor list builds = 0
Dangerous builds = 0
The dot product: -1.58835987926802e-07
Setting atom values ...
  1 settings made for x
  1 settings made for y
  1 settings made for z
Setting up cg style minimization ...
  Unit style    : metal
  Current step  : 1172
Per MPI rank memory allocation (min/avg/max) = 5.441 | 5.816 | 6.074 Mbytes
Step PotEng KinEng TotEng v_fx v_fy v_fz 
    1172   -1152449.4            0   -1152449.4  0.013943082 -0.012037181 -0.005072366 
    1308   -1152449.4            0   -1152449.4 -2.4005992e-05 1.9007457e-05 2.1493165e-05 
Loop time of 1.56892 on 104 procs for 136 steps with 288751 atoms

99.9% CPU use with 104 MPI tasks x 1 OpenMP threads

Minimization stats:
  Stopping criterion = energy tolerance
  Energy initial, next-to-last, final = 
     -1152449.40555951  -1152449.40693142  -1152449.40693142
  Force two-norm initial, final = 0.16714403 0.00018733596
  Force max component initial, final = 0.074660532 3.2777912e-05
  Final line search alpha, max atom move = 1.0000000 3.2777912e-05
  Iterations, force evaluations = 136 272

MPI task timing breakdown:
Section |  min time  |  avg time  |  max time  |%varavg| %total
---------------------------------------------------------------
Pair    | 0.41221    | 1.1397     | 1.4774     |  28.8 | 72.65
Neigh   | 0          | 0          | 0          |   0.0 |  0.00
Comm    | 0.023664   | 0.25377    | 0.77735    |  43.2 | 16.17
Output  | 0          | 0          | 0          |   0.0 |  0.00
Modify  | 1.6548e-05 | 0.0022432  | 0.0048013  |   2.2 |  0.14
Other   |            | 0.1732     |            |       | 11.04

Nlocal:        2776.45 ave        3951 max           0 min
Histogram: 8 4 4 0 4 12 8 1 29 34
Nghost:        3879.03 ave        5424 max         232 min
Histogram: 8 0 8 0 16 0 8 8 16 40
Neighs:        79213.5 ave      115137 max           0 min
Histogram: 8 4 4 0 10 6 8 8 24 32

Total # of neighbors = 8238201
Ave neighs/atom = 28.530467
Neighbor list builds = 0
Dangerous builds = 0
The dot product: 5.42679787991872e-08
Setting atom values ...
  1 settings made for x
  1 settings made for y
  1 settings made for z
Setting up cg style minimization ...
  Unit style    : metal
  Current step  : 1308
Per MPI rank memory allocation (min/avg/max) = 5.441 | 5.816 | 6.074 Mbytes
Step PotEng KinEng TotEng v_fx v_fy v_fz 
    1308   -1152449.4            0   -1152449.4  0.013856984 -0.012787038 -0.0024301257 
    1500   -1152449.4            0   -1152449.4 4.7956886e-07 -3.0800814e-06 1.7107626e-05 
Loop time of 2.21676 on 104 procs for 192 steps with 288751 atoms

99.9% CPU use with 104 MPI tasks x 1 OpenMP threads

Minimization stats:
  Stopping criterion = energy tolerance
  Energy initial, next-to-last, final = 
     -1152449.39366582  -1152449.39504432  -1152449.39504432
  Force two-norm initial, final = 0.16753993 6.4809364e-05
  Force max component initial, final = 0.074499849 1.7107626e-05
  Final line search alpha, max atom move = 1.0000000 1.7107626e-05
  Iterations, force evaluations = 192 384

MPI task timing breakdown:
Section |  min time  |  avg time  |  max time  |%varavg| %total
---------------------------------------------------------------
Pair    | 0.58272    | 1.6182     | 2.0924     |  34.3 | 73.00
Neigh   | 0          | 0          | 0          |   0.0 |  0.00
Comm    | 0.03965    | 0.36046    | 1.098      |  51.7 | 16.26
Output  | 0          | 0          | 0          |   0.0 |  0.00
Modify  | 2.3152e-05 | 0.0031642  | 0.0067306  |   2.6 |  0.14
Other   |            | 0.2349     |            |       | 10.60

Nlocal:        2776.45 ave        3949 max           0 min
Histogram: 8 4 4 0 4 12 8 2 26 36
Nghost:        3879.03 ave        5424 max         232 min
Histogram: 8 0 8 0 16 0 8 8 16 40
Neighs:        79213.5 ave      115072 max           0 min
Histogram: 8 4 4 0 10 6 8 8 24 32

Total # of neighbors = 8238202
Ave neighs/atom = 28.530471
Neighbor list builds = 0
Dangerous builds = 0
The dot product: -3.50339187895502e-08
Setting atom values ...
  1 settings made for x
  1 settings made for y
  1 settings made for z
Setting up cg style minimization ...
  Unit style    : metal
  Current step  : 1500
Per MPI rank memory allocation (min/avg/max) = 5.441 | 5.816 | 6.074 Mbytes
Step PotEng KinEng TotEng v_fx v_fy v_fz 
    1500   -1152449.4            0   -1152449.4  0.014555368  -0.01416265 -0.00076357874 
    1636   -1152449.4            0   -1152449.4 4.7319292e-06 -2.7901828e-06 -1.0965938e-05 
Loop time of 1.58943 on 104 procs for 136 steps with 288751 atoms

99.9% CPU use with 104 MPI tasks x 1 OpenMP threads

Minimization stats:
  Stopping criterion = energy tolerance
  Energy initial, next-to-last, final = 
     -1152449.38027212  -1152449.38165577  -1152449.38165577
  Force two-norm initial, final = 0.16799777 0.00017622074
  Force max component initial, final = 0.074340879 3.3317121e-05
  Final line search alpha, max atom move = 1.0000000 3.3317121e-05
  Iterations, force evaluations = 136 272

MPI task timing breakdown:
Section |  min time  |  avg time  |  max time  |%varavg| %total
---------------------------------------------------------------
Pair    | 0.41379    | 1.1448     | 1.4905     |  28.9 | 72.03
Neigh   | 0          | 0          | 0          |   0.0 |  0.00
Comm    | 0.025034   | 0.25766    | 0.77116    |  42.6 | 16.21
Output  | 0          | 0          | 0          |   0.0 |  0.00
Modify  | 1.6302e-05 | 0.0022435  | 0.0047923  |   2.2 |  0.14
Other   |            | 0.1847     |            |       | 11.62

Nlocal:        2776.45 ave        3948 max           0 min
Histogram: 8 4 4 0 4 12 8 2 26 36
Nghost:        3879.03 ave        5424 max         232 min
Histogram: 8 0 8 0 16 0 8 8 16 40
Neighs:        79213.5 ave      115044 max           0 min
Histogram: 8 4 4 0 10 6 8 8 24 32

Total # of neighbors = 8238203
Ave neighs/atom = 28.530474
Neighbor list builds = 0
Dangerous builds = 0
The dot product: 3.44196598968734e-09
Setting atom values ...
  1 settings made for x
  1 settings made for y
  1 settings made for z
Setting up cg style minimization ...
  Unit style    : metal
  Current step  : 1636
Per MPI rank memory allocation (min/avg/max) = 5.441 | 5.816 | 6.074 Mbytes
Step PotEng KinEng TotEng v_fx v_fy v_fz 
    1636   -1152449.4            0   -1152449.4  0.015576843 -0.015771067 0.00037873052 
    1793   -1152449.4            0   -1152449.4 1.3673663e-05 -6.1407151e-08 -7.5038844e-05 
Loop time of 1.81998 on 104 procs for 157 steps with 288751 atoms

99.9% CPU use with 104 MPI tasks x 1 OpenMP threads

Minimization stats:
  Stopping criterion = energy tolerance
  Energy initial, next-to-last, final = 
     -1152449.36536111  -1152449.36674951  -1152449.36674951
  Force two-norm initial, final = 0.16839341 0.00024453374
  Force max component initial, final = 0.074325737 7.5038844e-05
  Final line search alpha, max atom move = 1.0000000 7.5038844e-05
  Iterations, force evaluations = 157 314

MPI task timing breakdown:
Section |  min time  |  avg time  |  max time  |%varavg| %total
---------------------------------------------------------------
Pair    | 0.47628    | 1.3241     | 1.7191     |  30.9 | 72.75
Neigh   | 0          | 0          | 0          |   0.0 |  0.00
Comm    | 0.031773   | 0.29612    | 0.88836    |  46.4 | 16.27
Output  | 0          | 0          | 0          |   0.0 |  0.00
Modify  | 1.9131e-05 | 0.0025871  | 0.0055243  |   2.4 |  0.14
Other   |            | 0.1972     |            |       | 10.84

Nlocal:        2776.45 ave        3946 max           0 min
Histogram: 8 4 4 0 4 12 8 2 26 36
Nghost:        3879.03 ave        5424 max         232 min
Histogram: 8 0 8 0 16 0 8 8 16 40
Neighs:        79213.5 ave      114989 max           0 min
Histogram: 8 4 4 0 10 6 8 8 24 32

Total # of neighbors = 8238204
Ave neighs/atom = 28.530478
Neighbor list builds = 0
Dangerous builds = 0
The dot product: 1.00071144727194e-07
Setting atom values ...
  1 settings made for x
  1 settings made for y
  1 settings made for z
Setting up cg style minimization ...
  Unit style    : metal
  Current step  : 1793
Per MPI rank memory allocation (min/avg/max) = 5.441 | 5.816 | 6.074 Mbytes
Step PotEng KinEng TotEng v_fx v_fy v_fz 
    1793   -1152449.3            0   -1152449.3  0.016271121 -0.016849949 0.00052664683 
    2000   -1152449.4            0   -1152449.4 2.3739348e-06 8.5655351e-07 -1.685243e-05 
    2004   -1152449.4            0   -1152449.4 6.355366e-06 -4.6971355e-06 -9.4174276e-06 
Loop time of 2.44719 on 104 procs for 211 steps with 288751 atoms

99.9% CPU use with 104 MPI tasks x 1 OpenMP threads

Minimization stats:
  Stopping criterion = energy tolerance
  Energy initial, next-to-last, final = 
     -1152449.34891058   -1152449.3503033   -1152449.3503033
  Force two-norm initial, final = 0.16863381 4.8443031e-05
  Force max component initial, final = 0.074378122 1.1232309e-05
  Final line search alpha, max atom move = 1.0000000 1.1232309e-05
  Iterations, force evaluations = 211 422

MPI task timing breakdown:
Section |  min time  |  avg time  |  max time  |%varavg| %total
---------------------------------------------------------------
Pair    | 0.63875    | 1.7669     | 2.292      |  35.7 | 72.20
Neigh   | 0          | 0          | 0          |   0.0 |  0.00
Comm    | 0.041879   | 0.39499    | 1.1958     |  53.4 | 16.14
Output  | 0.00016921 | 0.0001718  | 0.00032083 |   0.0 |  0.01
Modify  | 2.6365e-05 | 0.0034739  | 0.0074066  |   2.8 |  0.14
Other   |            | 0.2816     |            |       | 11.51

Nlocal:        2776.45 ave        3944 max           0 min
Histogram: 8 4 4 0 4 12 8 2 26 36
Nghost:        3879.03 ave        5424 max         232 min
Histogram: 8 0 8 0 16 0 8 8 16 40
Neighs:        79213.5 ave      114940 max           0 min
Histogram: 8 4 4 0 10 6 8 8 22 34

Total # of neighbors = 8238204
Ave neighs/atom = 28.530478
Neighbor list builds = 0
Dangerous builds = 0
The dot product: 1.8647684442947e-09
Setting atom values ...
  1 settings made for x
  1 settings made for y
  1 settings made for z
Setting up cg style minimization ...
  Unit style    : metal
  Current step  : 2004
Per MPI rank memory allocation (min/avg/max) = 5.441 | 5.816 | 6.074 Mbytes
Step PotEng KinEng TotEng v_fx v_fy v_fz 
    2004   -1152449.3            0   -1152449.3  0.016152174 -0.016881115 -0.00025250332 
    2141   -1152449.3            0   -1152449.3 2.6231665e-05 -1.6925873e-05 -5.0361119e-05 
Loop time of 1.57785 on 104 procs for 137 steps with 288751 atoms

99.9% CPU use with 104 MPI tasks x 1 OpenMP threads

Minimization stats:
  Stopping criterion = energy tolerance
  Energy initial, next-to-last, final = 
     -1152449.33089206  -1152449.33230411  -1152449.33230411
  Force two-norm initial, final = 0.16874776 0.00021191894
  Force max component initial, final = 0.074473042 5.3995598e-05
  Final line search alpha, max atom move = 1.0000000 5.3995598e-05
  Iterations, force evaluations = 137 274

MPI task timing breakdown:
Section |  min time  |  avg time  |  max time  |%varavg| %total
---------------------------------------------------------------
Pair    | 0.41544    | 1.1516     | 1.4958     |  28.9 | 72.99
Neigh   | 0          | 0          | 0          |   0.0 |  0.00
Comm    | 0.024911   | 0.25653    | 0.78441    |  43.2 | 16.26
Output  | 0          | 0          | 0          |   0.0 |  0.00
Modify  | 1.6511e-05 | 0.0022618  | 0.0048449  |   2.2 |  0.14
Other   |            | 0.1674     |            |       | 10.61

Nlocal:        2776.45 ave        3942 max           0 min
Histogram: 8 4 4 0 4 12 8 2 26 36
Nghost:        3879.03 ave        5424 max         232 min
Histogram: 8 0 8 0 16 0 8 8 16 40
Neighs:        79213.5 ave      114874 max           0 min
Histogram: 8 4 4 0 10 6 8 8 22 34

Total # of neighbors = 8238202
Ave neighs/atom = 28.530471
Neighbor list builds = 0
Dangerous builds = 0
The dot product: 6.55265988733767e-08
Setting atom values ...
  1 settings made for x
  1 settings made for y
  1 settings made for z
Setting up cg style minimization ...
  Unit style    : metal
  Current step  : 2141
Per MPI rank memory allocation (min/avg/max) = 5.441 | 5.816 | 6.074 Mbytes
Step PotEng KinEng TotEng v_fx v_fy v_fz 
    2141   -1152449.3            0   -1152449.3  0.013843879 -0.013862809 -0.0042950934 
    2346   -1152449.3            0   -1152449.3 4.2513283e-06 -2.7863258e-07 -1.8589581e-05 
Loop time of 2.34597 on 104 procs for 205 steps with 288751 atoms

99.9% CPU use with 104 MPI tasks x 1 OpenMP threads

Minimization stats:
  Stopping criterion = energy tolerance
  Energy initial, next-to-last, final = 
     -1152449.31130372  -1152449.31287268  -1152449.31287268
  Force two-norm initial, final = 0.16867045 7.1348159e-05
  Force max component initial, final = 0.074295475 1.8589581e-05
  Final line search alpha, max atom move = 1.0000000 1.8589581e-05
  Iterations, force evaluations = 205 410

MPI task timing breakdown:
Section |  min time  |  avg time  |  max time  |%varavg| %total
---------------------------------------------------------------
Pair    | 0.62057    | 1.7143     | 2.2176     |  35.3 | 73.08
Neigh   | 0          | 0          | 0          |   0.0 |  0.00
Comm    | 0.043357   | 0.37987    | 1.1604     |  53.0 | 16.19
Output  | 0          | 0          | 0          |   0.0 |  0.00
Modify  | 2.4765e-05 | 0.0033727  | 0.0071867  |   2.7 |  0.14
Other   |            | 0.2484     |            |       | 10.59

Nlocal:        2776.45 ave        3936 max           0 min
Histogram: 8 4 4 0 4 12 8 0 28 36
Nghost:        3879.07 ave        5424 max         232 min
Histogram: 8 0 8 0 16 0 8 8 16 40
Neighs:        79213.4 ave      114664 max           0 min
Histogram: 8 4 4 0 8 8 8 8 22 34

Total # of neighbors = 8238196
Ave neighs/atom = 28.530450
Neighbor list builds = 0
Dangerous builds = 0
The dot product: 1.36291314715485e-07
Setting atom values ...
  1 settings made for x
  1 settings made for y
  1 settings made for z
Setting up cg style minimization ...
  Unit style    : metal
  Current step  : 2346
Per MPI rank memory allocation (min/avg/max) = 5.441 | 5.816 | 6.074 Mbytes
Step PotEng KinEng TotEng v_fx v_fy v_fz 
    2346   -1152449.3            0   -1152449.3 -0.0019400627  0.010226339 -0.027692883 
    2540   -1152449.3            0   -1152449.3 -2.8707291e-06 2.528817e-07 1.0521612e-05 
Loop time of 2.22704 on 104 procs for 194 steps with 288751 atoms

99.9% CPU use with 104 MPI tasks x 1 OpenMP threads

Minimization stats:
  Stopping criterion = energy tolerance
  Energy initial, next-to-last, final = 
     -1152449.29039359  -1152449.29271855  -1152449.29271855
  Force two-norm initial, final = 0.17088628 0.00013269552
  Force max component initial, final = 0.07198623 2.0798798e-05
  Final line search alpha, max atom move = 1.0000000 2.0798798e-05
  Iterations, force evaluations = 194 388

MPI task timing breakdown:
Section |  min time  |  avg time  |  max time  |%varavg| %total
---------------------------------------------------------------
Pair    | 0.58745    | 1.6284     | 2.0964     |  34.3 | 73.12
Neigh   | 0          | 0          | 0          |   0.0 |  0.00
Comm    | 0.038975   | 0.36169    | 1.1123     |  51.9 | 16.24
Output  | 0          | 0          | 0          |   0.0 |  0.00
Modify  | 2.4173e-05 | 0.0031975  | 0.0068399  |   2.7 |  0.14
Other   |            | 0.2337     |            |       | 10.50

Nlocal:        2776.45 ave        3930 max           0 min
Histogram: 8 4 4 0 4 12 8 0 26 38
Nghost:        3879.07 ave        5424 max         232 min
Histogram: 8 0 8 0 16 0 8 8 16 40
Neighs:        79213.5 ave      114455 max           0 min
Histogram: 8 4 4 0 8 8 8 8 20 36

Total # of neighbors = 8238199
Ave neighs/atom = 28.530461
Neighbor list builds = 0
Dangerous builds = 0
The dot product: -1.39913636738346e-07
Setting atom values ...
  1 settings made for x
  1 settings made for y
  1 settings made for z
Setting up cg style minimization ...
  Unit style    : metal
  Current step  : 2540
Per MPI rank memory allocation (min/avg/max) = 5.441 | 5.816 | 6.074 Mbytes
Step PotEng KinEng TotEng v_fx v_fy v_fz 
    2540   -1152449.3            0   -1152449.3 -0.025354379  0.058514374 -0.059039889 
    2733   -1152449.3            0   -1152449.3 -2.8058633e-05 3.5754768e-06 8.1076422e-05 
Loop time of 2.20726 on 104 procs for 193 steps with 288751 atoms

99.9% CPU use with 104 MPI tasks x 1 OpenMP threads

Minimization stats:
  Stopping criterion = energy tolerance
  Energy initial, next-to-last, final = 
     -1152449.26909386  -1152449.27261363  -1152449.27261363
  Force two-norm initial, final = 0.19074017 0.0002196284
  Force max component initial, final = 0.07898454 8.1076422e-05
  Final line search alpha, max atom move = 1.0000000 8.1076422e-05
  Iterations, force evaluations = 193 386

MPI task timing breakdown:
Section |  min time  |  avg time  |  max time  |%varavg| %total
---------------------------------------------------------------
Pair    | 0.58578    | 1.6129     | 2.083      |  34.2 | 73.07
Neigh   | 0          | 0          | 0          |   0.0 |  0.00
Comm    | 0.035597   | 0.35651    | 1.0864     |  51.4 | 16.15
Output  | 0          | 0          | 0          |   0.0 |  0.00
Modify  | 2.3634e-05 | 0.0031749  | 0.0067919  |   2.7 |  0.14
Other   |            | 0.2346     |            |       | 10.63

Nlocal:        2776.45 ave        3930 max           0 min
Histogram: 8 4 4 0 4 12 8 0 26 38
Nghost:        3879.11 ave        5425 max         232 min
Histogram: 8 0 8 0 16 0 8 8 16 40
Neighs:        79213.4 ave      114456 max           0 min
Histogram: 8 4 4 0 8 8 8 8 20 36

Total # of neighbors = 8238195
Ave neighs/atom = 28.530447
Neighbor list builds = 0
Dangerous builds = 0
The dot product: -1.09090290872156e-06
Setting atom values ...
  1 settings made for x
  1 settings made for y
  1 settings made for z
Setting up cg style minimization ...
  Unit style    : metal
  Current step  : 2733
Per MPI rank memory allocation (min/avg/max) = 5.441 | 5.816 | 6.074 Mbytes
Step PotEng KinEng TotEng v_fx v_fy v_fz 
    2733   -1152449.2            0   -1152449.2 -0.031749128  0.091200506  -0.06430377 
    2946   -1152449.3            0   -1152449.3 -6.0674762e-06 -3.9502428e-06 2.2821316e-05 
Loop time of 2.4741 on 104 procs for 213 steps with 288751 atoms

99.9% CPU use with 104 MPI tasks x 1 OpenMP threads

Minimization stats:
  Stopping criterion = energy tolerance
  Energy initial, next-to-last, final = 
     -1152449.24800124  -1152449.25212549  -1152449.25212549
  Force two-norm initial, final = 0.20676799 0.00013042986
  Force max component initial, final = 0.091200506 2.2821316e-05
  Final line search alpha, max atom move = 1.0000000 2.2821316e-05
  Iterations, force evaluations = 213 426

MPI task timing breakdown:
Section |  min time  |  avg time  |  max time  |%varavg| %total
---------------------------------------------------------------
Pair    | 0.64334    | 1.7965     | 2.3265     |  36.3 | 72.61
Neigh   | 0          | 0          | 0          |   0.0 |  0.00
Comm    | 0.041172   | 0.40111    | 1.2066     |  54.1 | 16.21
Output  | 0          | 0          | 0          |   0.0 |  0.00
Modify  | 2.5868e-05 | 0.0035064  | 0.0074755  |   2.8 |  0.14
Other   |            | 0.273      |            |       | 11.03

Nlocal:        2776.45 ave        3936 max           0 min
Histogram: 8 4 4 0 4 12 8 0 28 36
Nghost:        3879.14 ave        5425 max         232 min
Histogram: 8 0 8 0 16 0 8 8 16 40
Neighs:        79213.4 ave      114639 max           0 min
Histogram: 8 4 4 0 8 8 8 8 20 36

Total # of neighbors = 8238198
Ave neighs/atom = 28.530457
Neighbor list builds = 0
Dangerous builds = 0
The dot product: -4.8012515822724e-07
Setting atom values ...
  1 settings made for x
  1 settings made for y
  1 settings made for z
Setting up cg style minimization ...
  Unit style    : metal
  Current step  : 2946
Per MPI rank memory allocation (min/avg/max) = 5.441 | 5.816 | 6.074 Mbytes
Step PotEng KinEng TotEng v_fx v_fy v_fz 
    2946   -1152449.2            0   -1152449.2 -0.025458302    0.1028908 -0.056910447 
    3000   -1152449.2            0   -1152449.2 8.9054886e-05 -9.2087264e-05 -0.00010570127 
    3156   -1152449.2            0   -1152449.2 6.1041459e-06 -1.7190758e-06 -1.2471641e-05 
Loop time of 2.41661 on 104 procs for 210 steps with 288751 atoms

99.9% CPU use with 104 MPI tasks x 1 OpenMP threads

Minimization stats:
  Stopping criterion = energy tolerance
  Energy initial, next-to-last, final = 
     -1152449.22679374  -1152449.23081303  -1152449.23081303
  Force two-norm initial, final = 0.20955812 0.00013904299
  Force max component initial, final = 0.1028908 1.8034840e-05
  Final line search alpha, max atom move = 1.0000000 1.8034840e-05
  Iterations, force evaluations = 210 420

MPI task timing breakdown:
Section |  min time  |  avg time  |  max time  |%varavg| %total
---------------------------------------------------------------
Pair    | 0.63501    | 1.7615     | 2.2836     |  35.8 | 72.89
Neigh   | 0          | 0          | 0          |   0.0 |  0.00
Comm    | 0.042004   | 0.39257    | 1.1844     |  53.5 | 16.24
Output  | 0.00010277 | 0.00010482 | 0.00020576 |   0.0 |  0.00
Modify  | 2.5831e-05 | 0.0034564  | 0.007386   |   2.8 |  0.14
Other   |            | 0.259      |            |       | 10.72

Nlocal:        2776.45 ave        3944 max           0 min
Histogram: 8 4 4 0 4 12 8 2 26 36
Nghost:        3879.11 ave        5425 max         232 min
Histogram: 8 0 8 0 16 0 8 8 16 40
Neighs:        79213.5 ave      114923 max           0 min
Histogram: 8 4 4 0 10 6 8 8 22 34

Total # of neighbors = 8238203
Ave neighs/atom = 28.530474
Neighbor list builds = 0
Dangerous builds = 0
The dot product: 1.10483753824932e-07
Setting atom values ...
  1 settings made for x
  1 settings made for y
  1 settings made for z
Setting up cg style minimization ...
  Unit style    : metal
  Current step  : 3156
Per MPI rank memory allocation (min/avg/max) = 5.441 | 5.816 | 6.074 Mbytes
Step PotEng KinEng TotEng v_fx v_fy v_fz 
    3156   -1152449.2            0   -1152449.2 -0.015362097  0.093927719 -0.043185122 
    3351   -1152449.2            0   -1152449.2 -1.612124e-05 1.7931288e-06 3.3135879e-05 
Loop time of 2.25628 on 104 procs for 195 steps with 288751 atoms

99.9% CPU use with 104 MPI tasks x 1 OpenMP threads

Minimization stats:
  Stopping criterion = energy tolerance
  Energy initial, next-to-last, final = 
     -1152449.20477238  -1152449.20821483  -1152449.20821483
  Force two-norm initial, final = 0.20081179 0.00018754142
  Force max component initial, final = 0.11010958 3.8554341e-05
  Final line search alpha, max atom move = 1.0000000 3.8554341e-05
  Iterations, force evaluations = 195 390

MPI task timing breakdown:
Section |  min time  |  avg time  |  max time  |%varavg| %total
---------------------------------------------------------------
Pair    | 0.5926     | 1.6444     | 2.1315     |  34.5 | 72.88
Neigh   | 0          | 0          | 0          |   0.0 |  0.00
Comm    | 0.041629   | 0.36496    | 1.1092     |  51.9 | 16.18
Output  | 0          | 0          | 0          |   0.0 |  0.00
Modify  | 2.4484e-05 | 0.0032145  | 0.0068245  |   2.7 |  0.14
Other   |            | 0.2437     |            |       | 10.80

Nlocal:        2776.45 ave        3949 max           0 min
Histogram: 8 4 4 0 4 12 8 2 26 36
Nghost:        3879.05 ave        5425 max         232 min
Histogram: 8 0 8 0 16 0 8 8 16 40
Neighs:        79213.5 ave      115055 max           0 min
Histogram: 8 4 4 0 10 6 8 8 24 32

Total # of neighbors = 8238207
Ave neighs/atom = 28.530488
Neighbor list builds = 0
Dangerous builds = 0
The dot product: -3.85081375232995e-07
Setting atom values ...
  1 settings made for x
  1 settings made for y
  1 settings made for z
Setting up cg style minimization ...
  Unit style    : metal
  Current step  : 3351
Per MPI rank memory allocation (min/avg/max) = 5.441 | 5.816 | 6.074 Mbytes
Step PotEng KinEng TotEng v_fx v_fy v_fz 
    3351   -1152449.2            0   -1152449.2 -0.0059730981  0.077587556 -0.034040994 
    3548   -1152449.2            0   -1152449.2 -2.0002129e-05 4.7957169e-06 3.6716935e-05 
Loop time of 2.27511 on 104 procs for 197 steps with 288751 atoms

99.9% CPU use with 104 MPI tasks x 1 OpenMP threads

Minimization stats:
  Stopping criterion = energy tolerance
  Energy initial, next-to-last, final = 
     -1152449.18156835  -1152449.18465694  -1152449.18465694
  Force two-norm initial, final = 0.19069037 0.00015672264
  Force max component initial, final = 0.1159465 3.8891425e-05
  Final line search alpha, max atom move = 1.0000000 3.8891425e-05
  Iterations, force evaluations = 197 394

MPI task timing breakdown:
Section |  min time  |  avg time  |  max time  |%varavg| %total
---------------------------------------------------------------
Pair    | 0.59644    | 1.6564     | 2.1518     |  34.8 | 72.81
Neigh   | 0          | 0          | 0          |   0.0 |  0.00
Comm    | 0.036621   | 0.36802    | 1.1189     |  52.0 | 16.18
Output  | 0          | 0          | 0          |   0.0 |  0.00
Modify  | 2.3735e-05 | 0.0032387  | 0.0068974  |   2.7 |  0.14
Other   |            | 0.2474     |            |       | 10.88

Nlocal:        2776.45 ave        3953 max           0 min
Histogram: 8 4 4 0 4 12 8 2 28 34
Nghost:        3879.05 ave        5426 max         232 min
Histogram: 8 0 8 0 16 0 8 8 16 40
Neighs:        79213.5 ave      115183 max           0 min
Histogram: 8 4 4 0 10 6 8 8 24 32

Total # of neighbors = 8238206
Ave neighs/atom = 28.530485
Neighbor list builds = 0
Dangerous builds = 0
The dot product: -4.3135274363555e-07
Setting atom values ...
  1 settings made for x
  1 settings made for y
  1 settings made for z
Setting up cg style minimization ...
  Unit style    : metal
  Current step  : 3548
Per MPI rank memory allocation (min/avg/max) = 5.441 | 5.816 | 6.074 Mbytes
Step PotEng KinEng TotEng v_fx v_fy v_fz 
    3548   -1152449.2            0   -1152449.2 0.0025229752   0.06382329  -0.03239921 
    3771   -1152449.2            0   -1152449.2 -4.838492e-06 -1.0049104e-06 9.272115e-06 
Loop time of 2.56083 on 104 procs for 223 steps with 288751 atoms

99.9% CPU use with 104 MPI tasks x 1 OpenMP threads

Minimization stats:
  Stopping criterion = energy tolerance
  Energy initial, next-to-last, final = 
     -1152449.15754661  -1152449.16028048  -1152449.16028048
  Force two-norm initial, final = 0.18402998 5.4289538e-05
  Force max component initial, final = 0.12006056 1.6211068e-05
  Final line search alpha, max atom move = 1.0000000 1.6211068e-05
  Iterations, force evaluations = 223 446

MPI task timing breakdown:
Section |  min time  |  avg time  |  max time  |%varavg| %total
---------------------------------------------------------------
Pair    | 0.67493    | 1.8708     | 2.4284     |  36.9 | 73.05
Neigh   | 0          | 0          | 0          |   0.0 |  0.00
Comm    | 0.043182   | 0.41464    | 1.2505     |  55.2 | 16.19
Output  | 0          | 0          | 0          |   0.0 |  0.00
Modify  | 2.6656e-05 | 0.0036742  | 0.0078302  |   2.9 |  0.14
Other   |            | 0.2717     |            |       | 10.61

Nlocal:        2776.45 ave        3955 max           0 min
Histogram: 8 4 4 0 4 12 8 2 28 34
Nghost:        3878.99 ave        5425 max         232 min
Histogram: 8 0 8 0 16 0 8 8 16 40
Neighs:        79213.6 ave      115258 max           0 min
Histogram: 8 4 4 0 10 6 8 8 24 32

Total # of neighbors = 8238211
Ave neighs/atom = 28.530502
Neighbor list builds = 0
Dangerous builds = 0
The dot product: -1.65716407443048e-07
Setting atom values ...
  1 settings made for x
  1 settings made for y
  1 settings made for z
Setting up cg style minimization ...
  Unit style    : metal
  Current step  : 3771
Per MPI rank memory allocation (min/avg/max) = 5.441 | 5.816 | 6.074 Mbytes
Step PotEng KinEng TotEng v_fx v_fy v_fz 
    3771   -1152449.1            0   -1152449.1 0.0087543313  0.055966089 -0.032680851 
    3962   -1152449.1            0   -1152449.1 -1.5384234e-05 -5.988463e-07 2.6170307e-05 
Loop time of 2.20063 on 104 procs for 191 steps with 288751 atoms

99.9% CPU use with 104 MPI tasks x 1 OpenMP threads

Minimization stats:
  Stopping criterion = energy tolerance
  Energy initial, next-to-last, final = 
     -1152449.13244964  -1152449.13491725  -1152449.13491725
  Force two-norm initial, final = 0.18137999 0.00015280413
  Force max component initial, final = 0.1242159 3.5781298e-05
  Final line search alpha, max atom move = 1.0000000 3.5781298e-05
  Iterations, force evaluations = 191 382

MPI task timing breakdown:
Section |  min time  |  avg time  |  max time  |%varavg| %total
---------------------------------------------------------------
Pair    | 0.5761     | 1.598      | 2.0798     |  34.2 | 72.62
Neigh   | 0          | 0          | 0          |   0.0 |  0.00
Comm    | 0.040484   | 0.35634    | 1.0797     |  50.8 | 16.19
Output  | 0          | 0          | 0          |   0.0 |  0.00
Modify  | 2.3199e-05 | 0.0031476  | 0.0067033  |   2.6 |  0.14
Other   |            | 0.2431     |            |       | 11.05

Nlocal:        2776.45 ave        3956 max           0 min
Histogram: 8 4 4 0 4 12 8 2 28 34
Nghost:        3878.99 ave        5425 max         232 min
Histogram: 8 0 8 0 16 0 8 8 16 40
Neighs:        79213.6 ave      115305 max           0 min
Histogram: 8 4 4 0 10 6 8 8 24 32

Total # of neighbors = 8238214
Ave neighs/atom = 28.530512
Neighbor list builds = 0
Dangerous builds = 0
The dot product: -4.26529320686943e-07
Setting atom values ...
  1 settings made for x
  1 settings made for y
  1 settings made for z
Setting up cg style minimization ...
  Unit style    : metal
  Current step  : 3962
Per MPI rank memory allocation (min/avg/max) = 5.441 | 5.816 | 6.074 Mbytes
Step PotEng KinEng TotEng v_fx v_fy v_fz 
    3962   -1152449.1            0   -1152449.1  0.011374143   0.04650597 -0.028897872 
    4000   -1152449.1            0   -1152449.1 1.7688203e-05 7.2651786e-05 -4.5017595e-05 
    4200   -1152449.1            0   -1152449.1 -1.0268587e-07 4.9037921e-07 4.5740803e-08 
Loop time of 2.74771 on 104 procs for 238 steps with 288751 atoms

99.9% CPU use with 104 MPI tasks x 1 OpenMP threads

Minimization stats:
  Stopping criterion = energy tolerance
  Energy initial, next-to-last, final = 
     -1152449.10616553  -1152449.10830264  -1152449.10830264
  Force two-norm initial, final = 0.17856401 1.9933717e-05
  Force max component initial, final = 0.12818248 2.7789756e-06
  Final line search alpha, max atom move = 1.0000000 2.7789756e-06
  Iterations, force evaluations = 238 476

MPI task timing breakdown:
Section |  min time  |  avg time  |  max time  |%varavg| %total
---------------------------------------------------------------
Pair    | 0.71734    | 1.999      | 2.6062     |  38.2 | 72.75
Neigh   | 0          | 0          | 0          |   0.0 |  0.00
Comm    | 0.042578   | 0.44552    | 1.3538     |  57.2 | 16.21
Output  | 9.3078e-05 | 0.0001012  | 0.00020148 |   0.0 |  0.00
Modify  | 2.9575e-05 | 0.0039289  | 0.008471   |   3.0 |  0.14
Other   |            | 0.2991     |            |       | 10.89

Nlocal:        2776.45 ave        3957 max           0 min
Histogram: 8 4 4 0 4 12 8 2 28 34
Nghost:        3878.97 ave        5425 max         232 min
Histogram: 8 0 8 0 16 0 8 8 16 40
Neighs:        79213.6 ave      115346 max           0 min
Histogram: 8 4 4 0 10 6 8 8 24 32

Total # of neighbors = 8238213
Ave neighs/atom = 28.530509
Neighbor list builds = 0
Dangerous builds = 0
The dot product: 4.87373225766257e-09
Setting atom values ...
  1 settings made for x
  1 settings made for y
  1 settings made for z
Setting up cg style minimization ...
  Unit style    : metal
  Current step  : 4200
Per MPI rank memory allocation (min/avg/max) = 5.441 | 5.816 | 6.074 Mbytes
Step PotEng KinEng TotEng v_fx v_fy v_fz 
    4200   -1152449.1            0   -1152449.1  0.010856796  0.035942124  -0.02258051 
    4397   -1152449.1            0   -1152449.1 7.8098862e-06 1.6480995e-07 -1.1636828e-05 
Loop time of 2.26971 on 104 procs for 197 steps with 288751 atoms

99.9% CPU use with 104 MPI tasks x 1 OpenMP threads

Minimization stats:
  Stopping criterion = energy tolerance
  Energy initial, next-to-last, final = 
     -1152449.07843333  -1152449.08033425  -1152449.08033425
  Force two-norm initial, final = 0.17611138 0.00010798209
  Force max component initial, final = 0.13180002 1.5208007e-05
  Final line search alpha, max atom move = 1.0000000 1.5208007e-05
  Iterations, force evaluations = 197 394

MPI task timing breakdown:
Section |  min time  |  avg time  |  max time  |%varavg| %total
---------------------------------------------------------------
Pair    | 0.59553    | 1.6484     | 2.1469     |  34.7 | 72.63
Neigh   | 0          | 0          | 0          |   0.0 |  0.00
Comm    | 0.034112   | 0.36562    | 1.107      |  51.7 | 16.11
Output  | 0          | 0          | 0          |   0.0 |  0.00
Modify  | 2.3757e-05 | 0.0032474  | 0.006912   |   2.7 |  0.14
Other   |            | 0.2525     |            |       | 11.12

Nlocal:        2776.45 ave        3958 max           0 min
Histogram: 8 4 4 0 4 12 8 2 28 34
Nghost:        3878.93 ave        5425 max         232 min
Histogram: 8 0 8 0 16 0 8 8 16 40
Neighs:        79213.6 ave      115368 max           0 min
Histogram: 8 4 4 0 10 6 8 8 24 32

Total # of neighbors = 8238212
Ave neighs/atom = 28.530506
Neighbor list builds = 0
Dangerous builds = 0
The dot product: 1.45860929351943e-07
Setting atom values ...
  1 settings made for x
  1 settings made for y
  1 settings made for z
Setting up cg style minimization ...
  Unit style    : metal
  Current step  : 4397
Per MPI rank memory allocation (min/avg/max) = 5.441 | 5.816 | 6.074 Mbytes
Step PotEng KinEng TotEng v_fx v_fy v_fz 
    4397     -1152449            0     -1152449 0.0089299884  0.026425056 -0.016405967 
    4622   -1152449.1            0   -1152449.1 6.6115654e-06 -8.4335603e-07 -9.2675809e-06 
Loop time of 2.60108 on 104 procs for 225 steps with 288751 atoms

99.9% CPU use with 104 MPI tasks x 1 OpenMP threads

Minimization stats:
  Stopping criterion = energy tolerance
  Energy initial, next-to-last, final = 
     -1152449.04927404  -1152449.05102957  -1152449.05102957
  Force two-norm initial, final = 0.17483227 3.3096799e-05
  Force max component initial, final = 0.13496392 9.2675809e-06
  Final line search alpha, max atom move = 1.0000000 9.2675809e-06
  Iterations, force evaluations = 225 450

MPI task timing breakdown:
Section |  min time  |  avg time  |  max time  |%varavg| %total
---------------------------------------------------------------
Pair    | 0.68109    | 1.8982     | 2.4636     |  37.2 | 72.98
Neigh   | 0          | 0          | 0          |   0.0 |  0.00
Comm    | 0.043253   | 0.4224     | 1.2939     |  55.9 | 16.24
Output  | 0          | 0          | 0          |   0.0 |  0.00
Modify  | 2.7971e-05 | 0.0037175  | 0.0079899  |   2.9 |  0.14
Other   |            | 0.2767     |            |       | 10.64

Nlocal:        2776.45 ave        3958 max           0 min
Histogram: 8 4 4 0 4 12 8 2 28 34
Nghost:        3878.97 ave        5425 max         232 min
Histogram: 8 0 8 0 16 0 8 8 16 40
Neighs:        79213.6 ave      115368 max           0 min
Histogram: 8 4 4 0 10 6 8 8 24 32

Total # of neighbors = 8238215
Ave neighs/atom = 28.530516
Neighbor list builds = 0
Dangerous builds = 0
The dot product: 9.36292552503683e-08
Setting atom values ...
  1 settings made for x
  1 settings made for y
  1 settings made for z
Setting up cg style minimization ...
  Unit style    : metal
  Current step  : 4622
Per MPI rank memory allocation (min/avg/max) = 5.441 | 5.816 | 6.074 Mbytes
Step PotEng KinEng TotEng v_fx v_fy v_fz 
    4622     -1152449            0     -1152449 0.0066683937  0.018726681 -0.011292392 
    4808     -1152449            0     -1152449 -2.1495619e-05 4.7108339e-06 2.8875995e-05 
Loop time of 2.16726 on 104 procs for 186 steps with 288751 atoms

99.9% CPU use with 104 MPI tasks x 1 OpenMP threads

Minimization stats:
  Stopping criterion = energy tolerance
  Energy initial, next-to-last, final = 
     -1152449.01877595  -1152449.02049474  -1152449.02049474
  Force two-norm initial, final = 0.17460876 0.00015188141
  Force max component initial, final = 0.13771833 3.7096344e-05
  Final line search alpha, max atom move = 1.0000000 3.7096344e-05
  Iterations, force evaluations = 186 372

MPI task timing breakdown:
Section |  min time  |  avg time  |  max time  |%varavg| %total
---------------------------------------------------------------
Pair    | 0.56585    | 1.5595     | 2.0369     |  33.7 | 71.96
Neigh   | 0          | 0          | 0          |   0.0 |  0.00
Comm    | 0.033658   | 0.34986    | 1.0459     |  49.7 | 16.14
Output  | 0          | 0          | 0          |   0.0 |  0.00
Modify  | 2.3236e-05 | 0.0030673  | 0.0065127  |   2.6 |  0.14
Other   |            | 0.2548     |            |       | 11.76

Nlocal:        2776.45 ave        3959 max           0 min
Histogram: 8 4 4 0 4 12 8 2 28 34
Nghost:        3878.97 ave        5425 max         232 min
Histogram: 8 0 8 0 16 0 8 8 16 40
Neighs:        79213.6 ave      115394 max           0 min
Histogram: 8 4 4 0 10 6 8 8 24 32

Total # of neighbors = 8238218
Ave neighs/atom = 28.530526
Neighbor list builds = 0
Dangerous builds = 0
The dot product: -2.54075957896094e-07
Setting atom values ...
  1 settings made for x
  1 settings made for y
  1 settings made for z
Setting up cg style minimization ...
  Unit style    : metal
  Current step  : 4808
Per MPI rank memory allocation (min/avg/max) = 5.441 | 5.816 | 6.074 Mbytes
Step PotEng KinEng TotEng v_fx v_fy v_fz 
    4808     -1152449            0     -1152449 0.0047776086  0.012979027 -0.0076218025 
    5000     -1152449            0     -1152449 -1.8549499e-05 3.1011725e-06 2.4316246e-05 
    5066     -1152449            0     -1152449 -4.8757696e-07 3.0288457e-07 6.1732312e-07 
Loop time of 3.01033 on 104 procs for 258 steps with 288751 atoms

99.9% CPU use with 104 MPI tasks x 1 OpenMP threads

Minimization stats:
  Stopping criterion = energy tolerance
  Energy initial, next-to-last, final = 
     -1152448.98715793  -1152448.98884092  -1152448.98884092
  Force two-norm initial, final = 0.17496572 9.3499292e-06
  Force max component initial, final = 0.14005556 1.8830763e-06
  Final line search alpha, max atom move = 1.0000000 1.8830763e-06
  Iterations, force evaluations = 258 516

MPI task timing breakdown:
Section |  min time  |  avg time  |  max time  |%varavg| %total
---------------------------------------------------------------
Pair    | 0.77833    | 2.1738     | 2.8416     |  39.9 | 72.21
Neigh   | 0          | 0          | 0          |   0.0 |  0.00
Comm    | 0.056558   | 0.48712    | 1.4666     |  59.3 | 16.18
Output  | 9.9458e-05 | 0.00010793 | 0.00025784 |   0.0 |  0.00
Modify  | 3.1429e-05 | 0.0042479  | 0.0090569  |   3.1 |  0.14
Other   |            | 0.3451     |            |       | 11.46

Nlocal:        2776.45 ave        3960 max           0 min
Histogram: 8 4 4 0 4 12 8 2 28 34
Nghost:        3878.97 ave        5425 max         232 min
Histogram: 8 0 8 0 16 0 8 8 16 40
Neighs:        79213.6 ave      115428 max           0 min
Histogram: 8 4 4 0 10 6 8 8 24 32

Total # of neighbors = 8238215
Ave neighs/atom = 28.530516
Neighbor list builds = 0
Dangerous builds = 0
The dot product: -4.34062715579977e-09
Setting atom values ...
  1 settings made for x
  1 settings made for y
  1 settings made for z
Setting up cg style minimization ...
  Unit style    : metal
  Current step  : 5066
Per MPI rank memory allocation (min/avg/max) = 5.441 | 5.816 | 6.074 Mbytes
Step PotEng KinEng TotEng v_fx v_fy v_fz 
    5066     -1152449            0     -1152449 0.0027830787  0.008769807 -0.0043669884 
    5280     -1152449            0     -1152449 -9.6403831e-06 1.7916039e-06 1.2314192e-05 
Loop time of 2.48214 on 104 procs for 214 steps with 288751 atoms

99.9% CPU use with 104 MPI tasks x 1 OpenMP threads

Minimization stats:
  Stopping criterion = energy tolerance
  Energy initial, next-to-last, final = 
     -1152448.95445562  -1152448.95616328  -1152448.95616328
  Force two-norm initial, final = 0.17565753 8.2192715e-05
  Force max component initial, final = 0.1421063 1.2314192e-05
  Final line search alpha, max atom move = 1.0000000 1.2314192e-05
  Iterations, force evaluations = 214 428

MPI task timing breakdown:
Section |  min time  |  avg time  |  max time  |%varavg| %total
---------------------------------------------------------------
Pair    | 0.6466     | 1.7993     | 2.3399     |  36.1 | 72.49
Neigh   | 0          | 0          | 0          |   0.0 |  0.00
Comm    | 0.04076    | 0.40224    | 1.222      |  54.1 | 16.21
Output  | 0          | 0          | 0          |   0.0 |  0.00
Modify  | 2.5265e-05 | 0.0035214  | 0.0075081  |   2.8 |  0.14
Other   |            | 0.2771     |            |       | 11.16

Nlocal:        2776.45 ave        3960 max           0 min
Histogram: 8 4 4 0 4 12 8 2 28 34
Nghost:        3878.93 ave        5425 max         232 min
Histogram: 8 0 8 0 16 0 8 8 16 40
Neighs:        79213.6 ave      115420 max           0 min
Histogram: 8 4 4 0 10 6 8 8 24 32

Total # of neighbors = 8238219
Ave neighs/atom = 28.530530
Neighbor list builds = 0
Dangerous builds = 0
The dot product: -9.30785229681949e-08
Setting atom values ...
  1 settings made for x
  1 settings made for y
  1 settings made for z
Setting up cg style minimization ...
  Unit style    : metal
  Current step  : 5280
Per MPI rank memory allocation (min/avg/max) = 5.441 | 5.816 | 6.074 Mbytes
Step PotEng KinEng TotEng v_fx v_fy v_fz 
    5280   -1152448.9            0   -1152448.9 0.0011720648 0.0059274308 -0.0019565436 
    5459   -1152448.9            0   -1152448.9 3.2353957e-05 -6.1337795e-06 -4.0423224e-05 
Loop time of 2.09148 on 104 procs for 179 steps with 288751 atoms

99.9% CPU use with 104 MPI tasks x 1 OpenMP threads

Minimization stats:
  Stopping criterion = energy tolerance
  Energy initial, next-to-last, final = 
     -1152448.92086953  -1152448.92257977  -1152448.92257977
  Force two-norm initial, final = 0.17634974 0.00022434219
  Force max component initial, final = 0.14379415 4.0423224e-05
  Final line search alpha, max atom move = 1.0000000 4.0423224e-05
  Iterations, force evaluations = 179 358

MPI task timing breakdown:
Section |  min time  |  avg time  |  max time  |%varavg| %total
---------------------------------------------------------------
Pair    | 0.54278    | 1.5112     | 1.972      |  33.3 | 72.25
Neigh   | 0          | 0          | 0          |   0.0 |  0.00
Comm    | 0.036413   | 0.33985    | 1.0069     |  49.0 | 16.25
Output  | 0          | 0          | 0          |   0.0 |  0.00
Modify  | 2.1713e-05 | 0.0029485  | 0.0063125  |   2.6 |  0.14
Other   |            | 0.2375     |            |       | 11.35

Nlocal:        2776.45 ave        3960 max           0 min
Histogram: 8 4 4 0 4 12 8 2 28 34
Nghost:        3878.93 ave        5425 max         232 min
Histogram: 8 0 8 0 16 0 8 8 16 40
Neighs:        79213.6 ave      115424 max           0 min
Histogram: 8 4 4 0 10 6 8 8 24 32

Total # of neighbors = 8238214
Ave neighs/atom = 28.530512
Neighbor list builds = 0
Dangerous builds = 0
The dot product: 2.7678859690993e-07
Setting atom values ...
  1 settings made for x
  1 settings made for y
  1 settings made for z
Setting up cg style minimization ...
  Unit style    : metal
  Current step  : 5459
Per MPI rank memory allocation (min/avg/max) = 5.441 | 5.816 | 6.074 Mbytes
Step PotEng KinEng TotEng v_fx v_fy v_fz 
    5459   -1152448.9            0   -1152448.9 -0.00084351988 0.0039393583 0.00074948022 
    5632   -1152448.9            0   -1152448.9 -1.899436e-06 -4.545143e-06 2.6982651e-06 
Loop time of 2.00238 on 104 procs for 173 steps with 288751 atoms

99.9% CPU use with 104 MPI tasks x 1 OpenMP threads

Minimization stats:
  Stopping criterion = energy tolerance
  Energy initial, next-to-last, final = 
     -1152448.88637162  -1152448.88799374  -1152448.88799374
  Force two-norm initial, final = 0.17720429 0.00019849623
  Force max component initial, final = 0.14537277 3.6479355e-05
  Final line search alpha, max atom move = 1.0000000 3.6479355e-05
  Iterations, force evaluations = 173 346

MPI task timing breakdown:
Section |  min time  |  avg time  |  max time  |%varavg| %total
---------------------------------------------------------------
Pair    | 0.52609    | 1.4535     | 1.8922     |  32.5 | 72.59
Neigh   | 0          | 0          | 0          |   0.0 |  0.00
Comm    | 0.03412    | 0.32415    | 0.98158    |  48.4 | 16.19
Output  | 0          | 0          | 0          |   0.0 |  0.00
Modify  | 2.1483e-05 | 0.002849   | 0.0060543  |   2.5 |  0.14
Other   |            | 0.2219     |            |       | 11.08

Nlocal:        2776.45 ave        3960 max           0 min
Histogram: 8 4 4 0 4 12 8 2 28 34
Nghost:        3878.96 ave        5426 max         232 min
Histogram: 8 0 8 0 16 0 8 8 16 40
Neighs:        79213.6 ave      115424 max           0 min
Histogram: 8 4 4 0 10 6 8 8 24 32

Total # of neighbors = 8238216
Ave neighs/atom = 28.530519
Neighbor list builds = 0
Dangerous builds = 0
The dot product: -1.8199215535067e-08
Setting atom values ...
  1 settings made for x
  1 settings made for y
  1 settings made for z
Setting up cg style minimization ...
  Unit style    : metal
  Current step  : 5632
Per MPI rank memory allocation (min/avg/max) = 5.441 | 5.816 | 6.074 Mbytes
Step PotEng KinEng TotEng v_fx v_fy v_fz 
    5632   -1152448.9            0   -1152448.9 -0.0037103114 0.0026114767 0.0043432953 
    5800   -1152448.9            0   -1152448.9 -2.2118706e-05 6.1161673e-06 2.6578559e-05 
Loop time of 1.94652 on 104 procs for 168 steps with 288751 atoms

99.9% CPU use with 104 MPI tasks x 1 OpenMP threads

Minimization stats:
  Stopping criterion = energy tolerance
  Energy initial, next-to-last, final = 
     -1152448.85073338  -1152448.85235779  -1152448.85235779
  Force two-norm initial, final = 0.17853523 0.00025708246
  Force max component initial, final = 0.1471443 4.1084123e-05
  Final line search alpha, max atom move = 1.0000000 4.1084123e-05
  Iterations, force evaluations = 168 336

MPI task timing breakdown:
Section |  min time  |  avg time  |  max time  |%varavg| %total
---------------------------------------------------------------
Pair    | 0.50854    | 1.4134     | 1.8405     |  32.1 | 72.61
Neigh   | 0          | 0          | 0          |   0.0 |  0.00
Comm    | 0.034111   | 0.31516    | 0.94887    |  48.0 | 16.19
Output  | 0          | 0          | 0          |   0.0 |  0.00
Modify  | 2.0345e-05 | 0.0027713  | 0.0058832  |   2.5 |  0.14
Other   |            | 0.2152     |            |       | 11.05

Nlocal:        2776.45 ave        3960 max           0 min
Histogram: 8 4 4 0 4 12 8 2 28 34
Nghost:        3878.97 ave        5426 max         232 min
Histogram: 8 0 8 0 16 0 8 8 16 40
Neighs:        79213.6 ave      115427 max           0 min
Histogram: 8 4 4 0 10 6 8 8 24 32

Total # of neighbors = 8238215
Ave neighs/atom = 28.530516
Neighbor list builds = 0
Dangerous builds = 0
The dot product: -1.23561481432179e-07
Setting atom values ...
  1 settings made for x
  1 settings made for y
  1 settings made for z
Setting up cg style minimization ...
  Unit style    : metal
  Current step  : 5800
Per MPI rank memory allocation (min/avg/max) = 5.441 | 5.816 | 6.074 Mbytes
Step PotEng KinEng TotEng v_fx v_fy v_fz 
    5800   -1152448.8            0   -1152448.8 -0.0063032677 0.0019400508 0.0074715754 
    5957   -1152448.8            0   -1152448.8 5.1865309e-05 -1.2552532e-05 -6.1721535e-05 
Loop time of 1.80559 on 104 procs for 157 steps with 288751 atoms

99.9% CPU use with 104 MPI tasks x 1 OpenMP threads

Minimization stats:
  Stopping criterion = energy tolerance
  Energy initial, next-to-last, final = 
     -1152448.81409183  -1152448.81585173  -1152448.81585173
  Force two-norm initial, final = 0.17979726 0.00030471551
  Force max component initial, final = 0.14876209 8.3618296e-05
  Final line search alpha, max atom move = 1.0000000 8.3618296e-05
  Iterations, force evaluations = 157 314

MPI task timing breakdown:
Section |  min time  |  avg time  |  max time  |%varavg| %total
---------------------------------------------------------------
Pair    | 0.47562    | 1.3133     | 1.711      |  30.9 | 72.73
Neigh   | 0          | 0          | 0          |   0.0 |  0.00
Comm    | 0.027258   | 0.29153    | 0.88211    |  46.0 | 16.15
Output  | 0          | 0          | 0          |   0.0 |  0.00
Modify  | 1.9251e-05 | 0.0025865  | 0.0055     |   2.4 |  0.14
Other   |            | 0.1982     |            |       | 10.98

Nlocal:        2776.45 ave        3960 max           0 min
Histogram: 8 4 4 0 4 12 8 2 28 34
Nghost:        3879.01 ave        5426 max         232 min
Histogram: 8 0 8 0 16 0 8 8 16 40
Neighs:        79213.6 ave      115427 max           0 min
Histogram: 8 4 4 0 10 6 8 8 24 32

Total # of neighbors = 8238213
Ave neighs/atom = 28.530509
Neighbor list builds = 0
Dangerous builds = 0
The dot product: 2.51771960300924e-07
Setting atom values ...
  1 settings made for x
  1 settings made for y
  1 settings made for z
Setting up cg style minimization ...
  Unit style    : metal
  Current step  : 5957
Per MPI rank memory allocation (min/avg/max) = 5.441 | 5.816 | 6.074 Mbytes
Step PotEng KinEng TotEng v_fx v_fy v_fz 
    5957   -1152448.8            0   -1152448.8 -0.008363735 0.0017266583 0.0098758083 
    6000   -1152448.8            0   -1152448.8 -7.3878909e-06 -2.3761016e-05 1.0514224e-05 
    6191   -1152448.8            0   -1152448.8 5.574867e-06 -1.3598483e-06 -6.5679466e-06 
Loop time of 2.71554 on 104 procs for 234 steps with 288751 atoms

99.9% CPU use with 104 MPI tasks x 1 OpenMP threads

Minimization stats:
  Stopping criterion = energy tolerance
  Energy initial, next-to-last, final = 
     -1152448.77674983  -1152448.77836751  -1152448.77836751
  Force two-norm initial, final = 0.18031431 3.3844106e-05
  Force max component initial, final = 0.14972348 8.7935304e-06
  Final line search alpha, max atom move = 1.0000000 8.7935304e-06
  Iterations, force evaluations = 234 468

MPI task timing breakdown:
Section |  min time  |  avg time  |  max time  |%varavg| %total
---------------------------------------------------------------
Pair    | 0.70595    | 1.9713     | 2.5725     |  38.0 | 72.59
Neigh   | 0          | 0          | 0          |   0.0 |  0.00
Comm    | 0.044644   | 0.43865    | 1.3227     |  56.8 | 16.15
Output  | 9.4288e-05 | 0.00010024 | 0.00018749 |   0.0 |  0.00
Modify  | 2.8265e-05 | 0.0038561  | 0.0082726  |   2.9 |  0.14
Other   |            | 0.3017     |            |       | 11.11

Nlocal:        2776.45 ave        3960 max           0 min
Histogram: 8 4 4 0 4 12 8 2 28 34
Nghost:        3878.95 ave        5426 max         232 min
Histogram: 8 0 8 0 16 0 8 8 16 40
Neighs:        79213.6 ave      115439 max           0 min
Histogram: 8 4 4 0 10 6 8 8 24 32

Total # of neighbors = 8238215
Ave neighs/atom = 28.530516
Neighbor list builds = 0
Dangerous builds = 0
The dot product: 1.81584719253449e-08
Setting atom values ...
  1 settings made for x
  1 settings made for y
  1 settings made for z
Setting up cg style minimization ...
  Unit style    : metal
  Current step  : 6191
Per MPI rank memory allocation (min/avg/max) = 5.441 | 5.816 | 6.074 Mbytes
Step PotEng KinEng TotEng v_fx v_fy v_fz 
    6191   -1152448.7            0   -1152448.7 -0.011490688 0.0020539772  0.013503142 
    6380   -1152448.7            0   -1152448.7 -2.9288486e-05 6.9882078e-06 3.4293465e-05 
Loop time of 2.17982 on 104 procs for 189 steps with 288751 atoms

99.9% CPU use with 104 MPI tasks x 1 OpenMP threads

Minimization stats:
  Stopping criterion = energy tolerance
  Energy initial, next-to-last, final = 
     -1152448.73825638  -1152448.73990277  -1152448.73990277
  Force two-norm initial, final = 0.18130407 0.00015782768
  Force max component initial, final = 0.15112877 4.4146508e-05
  Final line search alpha, max atom move = 1.0000000 4.4146508e-05
  Iterations, force evaluations = 189 378

MPI task timing breakdown:
Section |  min time  |  avg time  |  max time  |%varavg| %total
---------------------------------------------------------------
Pair    | 0.57348    | 1.5825     | 2.0677     |  33.9 | 72.60
Neigh   | 0          | 0          | 0          |   0.0 |  0.00
Comm    | 0.035636   | 0.35265    | 1.0647     |  50.6 | 16.18
Output  | 0          | 0          | 0          |   0.0 |  0.00
Modify  | 2.2858e-05 | 0.0031134  | 0.0066289  |   2.6 |  0.14
Other   |            | 0.2415     |            |       | 11.08

Nlocal:        2776.45 ave        3960 max           0 min
Histogram: 8 4 4 0 4 12 8 2 28 34
Nghost:        3878.92 ave        5426 max         232 min
Histogram: 8 0 8 0 16 0 8 8 16 40
Neighs:        79213.6 ave      115439 max           0 min
Histogram: 8 4 4 0 10 6 8 8 24 32

Total # of neighbors = 8238213
Ave neighs/atom = 28.530509
Neighbor list builds = 0
Dangerous builds = 0
The dot product: -5.52899975203994e-08
Setting atom values ...
  1 settings made for x
  1 settings made for y
  1 settings made for z
Setting up cg style minimization ...
  Unit style    : metal
  Current step  : 6380
Per MPI rank memory allocation (min/avg/max) = 5.441 | 5.816 | 6.074 Mbytes
Step PotEng KinEng TotEng v_fx v_fy v_fz 
    6380   -1152448.7            0   -1152448.7 -0.014283401 0.0027560687  0.016709883 
    6528   -1152448.7            0   -1152448.7 9.2213288e-06 2.8867014e-06 -1.1123041e-05 
Loop time of 1.72996 on 104 procs for 148 steps with 288751 atoms

99.9% CPU use with 104 MPI tasks x 1 OpenMP threads

Minimization stats:
  Stopping criterion = energy tolerance
  Energy initial, next-to-last, final = 
     -1152448.69893214  -1152448.70081744  -1152448.70081744
  Force two-norm initial, final = 0.18155414 0.00019615846
  Force max component initial, final = 0.15211426 4.2055567e-05
  Final line search alpha, max atom move = 1.0000000 4.2055567e-05
  Iterations, force evaluations = 148 296

MPI task timing breakdown:
Section |  min time  |  avg time  |  max time  |%varavg| %total
---------------------------------------------------------------
Pair    | 0.44722    | 1.2497     | 1.6221     |  30.0 | 72.24
Neigh   | 0          | 0          | 0          |   0.0 |  0.00
Comm    | 0.028213   | 0.27863    | 0.85047    |  45.3 | 16.11
Output  | 0          | 0          | 0          |   0.0 |  0.00
Modify  | 1.8949e-05 | 0.0024506  | 0.0052649  |   2.4 |  0.14
Other   |            | 0.1992     |            |       | 11.52

Nlocal:        2776.45 ave        3959 max           0 min
Histogram: 8 4 4 0 4 12 8 2 28 34
Nghost:        3878.90 ave        5426 max         232 min
Histogram: 8 0 8 0 16 0 8 8 16 40
Neighs:        79213.6 ave      115411 max           0 min
Histogram: 8 4 4 0 10 6 8 8 24 32

Total # of neighbors = 8238215
Ave neighs/atom = 28.530516
Neighbor list builds = 0
Dangerous builds = 0
The dot product: 5.78873899790098e-09
Setting atom values ...
  1 settings made for x
  1 settings made for y
  1 settings made for z
Setting up cg style minimization ...
  Unit style    : metal
  Current step  : 6528
Per MPI rank memory allocation (min/avg/max) = 5.441 | 5.816 | 6.074 Mbytes
Step PotEng KinEng TotEng v_fx v_fy v_fz 
    6528   -1152448.7            0   -1152448.7 -0.016319925 0.0033013529  0.019044759 
    6698   -1152448.7            0   -1152448.7 -1.9904209e-05 5.8931409e-06 2.3090262e-05 
Loop time of 1.97493 on 104 procs for 170 steps with 288751 atoms

99.9% CPU use with 104 MPI tasks x 1 OpenMP threads

Minimization stats:
  Stopping criterion = energy tolerance
  Energy initial, next-to-last, final = 
     -1152448.65947438  -1152448.66126533  -1152448.66126533
  Force two-norm initial, final = 0.1802151 0.00013239066
  Force max component initial, final = 0.15192382 3.1159646e-05
  Final line search alpha, max atom move = 1.0000000 3.1159646e-05
  Iterations, force evaluations = 170 340

MPI task timing breakdown:
Section |  min time  |  avg time  |  max time  |%varavg| %total
---------------------------------------------------------------
Pair    | 0.51642    | 1.4291     | 1.868      |  32.3 | 72.36
Neigh   | 0          | 0          | 0          |   0.0 |  0.00
Comm    | 0.030177   | 0.32043    | 0.97361    |  47.6 | 16.22
Output  | 0          | 0          | 0          |   0.0 |  0.00
Modify  | 2.0428e-05 | 0.0028042  | 0.0059768  |   2.5 |  0.14
Other   |            | 0.2226     |            |       | 11.27

Nlocal:        2776.45 ave        3959 max           0 min
Histogram: 8 4 4 0 4 12 8 2 28 34
Nghost:        3878.85 ave        5426 max         232 min
Histogram: 8 0 8 0 16 0 8 8 16 40
Neighs:        79213.5 ave      115414 max           0 min
Histogram: 8 4 4 0 10 6 8 8 24 32

Total # of neighbors = 8238200
Ave neighs/atom = 28.530464
Neighbor list builds = 0
Dangerous builds = 0
The dot product: 1.14354577694343e-08
Setting atom values ...
  1 settings made for x
  1 settings made for y
  1 settings made for z
Setting up cg style minimization ...
  Unit style    : metal
  Current step  : 6698
Per MPI rank memory allocation (min/avg/max) = 5.441 | 5.816 | 6.074 Mbytes
Step PotEng KinEng TotEng v_fx v_fy v_fz 
    6698   -1152448.6            0   -1152448.6 -0.019218176 0.0037466336  0.022465922 
    6869   -1152448.6            0   -1152448.6 -1.7640487e-05 2.8273888e-06 2.0668144e-05 
Loop time of 1.97931 on 104 procs for 171 steps with 288751 atoms

99.9% CPU use with 104 MPI tasks x 1 OpenMP threads

Minimization stats:
  Stopping criterion = energy tolerance
  Energy initial, next-to-last, final = 
     -1152448.61983907  -1152448.62198903  -1152448.62198903
  Force two-norm initial, final = 0.17914877 0.00022883956
  Force max component initial, final = 0.15123877 2.0668144e-05
  Final line search alpha, max atom move = 1.0000000 2.0668144e-05
  Iterations, force evaluations = 171 342

MPI task timing breakdown:
Section |  min time  |  avg time  |  max time  |%varavg| %total
---------------------------------------------------------------
Pair    | 0.51805    | 1.4409     | 1.8719     |  32.3 | 72.80
Neigh   | 0          | 0          | 0          |   0.0 |  0.00
Comm    | 0.037491   | 0.32158    | 0.96988    |  48.3 | 16.25
Output  | 0          | 0          | 0          |   0.0 |  0.00
Modify  | 2.0842e-05 | 0.0028223  | 0.0059778  |   2.5 |  0.14
Other   |            | 0.214      |            |       | 10.81

Nlocal:        2776.45 ave        3958 max           0 min
Histogram: 8 4 4 0 4 12 8 2 28 34
Nghost:        3878.85 ave        5426 max         232 min
Histogram: 8 0 8 0 16 0 8 8 16 40
Neighs:        79213.5 ave      115372 max           0 min
Histogram: 8 4 4 0 10 6 8 8 24 32

Total # of neighbors = 8238201
Ave neighs/atom = 28.530467
Neighbor list builds = 0
Dangerous builds = 0
The dot product: 1.3386176760503e-08
Setting atom values ...
  1 settings made for x
  1 settings made for y
  1 settings made for z
Setting up cg style minimization ...
  Unit style    : metal
  Current step  : 6869
Per MPI rank memory allocation (min/avg/max) = 5.441 | 5.816 | 6.074 Mbytes
Step PotEng KinEng TotEng v_fx v_fy v_fz 
    6869   -1152448.6            0   -1152448.6 -0.021505736 0.0008692889   0.02543544 
    7000   -1152448.6            0   -1152448.6 -0.00015766845 2.9351987e-05 0.00018465526 
    7168   -1152448.6            0   -1152448.6 1.3697516e-06 -2.2056409e-07 -1.6069334e-06 
Loop time of 3.46503 on 104 procs for 299 steps with 288751 atoms

99.9% CPU use with 104 MPI tasks x 1 OpenMP threads

Minimization stats:
  Stopping criterion = energy tolerance
  Energy initial, next-to-last, final = 
     -1152448.58159697  -1152448.58610436  -1152448.58610436
  Force two-norm initial, final = 0.1784527 1.8613314e-05
  Force max component initial, final = 0.14832309 1.6787432e-06
  Final line search alpha, max atom move = 1.0000000 1.6787432e-06
  Iterations, force evaluations = 299 598

MPI task timing breakdown:
Section |  min time  |  avg time  |  max time  |%varavg| %total
---------------------------------------------------------------
Pair    | 0.90822    | 2.5064     | 3.2649     |  42.6 | 72.33
Neigh   | 1.0392e-05 | 0.0029685  | 0.004312   |   2.2 |  0.09
Comm    | 0.056538   | 0.55878    | 1.6908     |  63.7 | 16.13
Output  | 9.8553e-05 | 0.00010922 | 0.00025129 |   0.0 |  0.00
Modify  | 3.5948e-05 | 0.0049143  | 0.010459   |   3.3 |  0.14
Other   |            | 0.3919     |            |       | 11.31

Nlocal:        2776.45 ave        3955 max           0 min
Histogram: 8 4 4 0 4 12 8 0 30 34
Nghost:        3878.97 ave        5425 max         232 min
Histogram: 8 0 8 0 16 0 8 8 16 40
Neighs:        79213.4 ave      115309 max           0 min
Histogram: 8 4 4 0 10 6 8 8 24 32

Total # of neighbors = 8238196
Ave neighs/atom = 28.530450
Neighbor list builds = 1
Dangerous builds = 0
The dot product: 2.66387070039289e-08
Setting atom values ...
  1 settings made for x
  1 settings made for y
  1 settings made for z
Setting up cg style minimization ...
  Unit style    : metal
  Current step  : 7168
Per MPI rank memory allocation (min/avg/max) = 5.441 | 5.816 | 6.074 Mbytes
Step PotEng KinEng TotEng v_fx v_fy v_fz 
    7168   -1152448.6            0   -1152448.6 -0.011706843 -0.0012488533  0.013543411 
    7383   -1152448.6            0   -1152448.6 5.6863813e-06 -9.1843066e-07 -6.4500334e-06 
Loop time of 2.50306 on 104 procs for 215 steps with 288751 atoms

99.9% CPU use with 104 MPI tasks x 1 OpenMP threads

Minimization stats:
  Stopping criterion = energy tolerance
  Energy initial, next-to-last, final = 
     -1152448.55848907  -1152448.56158742  -1152448.56158742
  Force two-norm initial, final = 0.18441022 9.0696203e-05
  Force max component initial, final = 0.14846451 8.5157587e-06
  Final line search alpha, max atom move = 1.0000000 8.5157587e-06
  Iterations, force evaluations = 215 430

MPI task timing breakdown:
Section |  min time  |  avg time  |  max time  |%varavg| %total
---------------------------------------------------------------
Pair    | 0.64947    | 1.8112     | 2.3688     |  36.4 | 72.36
Neigh   | 0          | 0          | 0          |   0.0 |  0.00
Comm    | 0.047576   | 0.40672    | 1.2179     |  53.8 | 16.25
Output  | 0          | 0          | 0          |   0.0 |  0.00
Modify  | 2.5649e-05 | 0.0035409  | 0.0075893  |   2.8 |  0.14
Other   |            | 0.2816     |            |       | 11.25

Nlocal:        2776.45 ave        3957 max           0 min
Histogram: 8 4 4 0 4 12 8 2 28 34
Nghost:        3879.01 ave        5426 max         232 min
Histogram: 8 0 8 0 16 0 8 8 16 40
Neighs:        79213.4 ave      115348 max           0 min
Histogram: 8 4 4 0 10 6 8 8 24 32

Total # of neighbors = 8238198
Ave neighs/atom = 28.530457
Neighbor list builds = 0
Dangerous builds = 0
The dot product: 5.29747690072896e-08
Setting atom values ...
  1 settings made for x
  1 settings made for y
  1 settings made for z
Setting up cg style minimization ...
  Unit style    : metal
  Current step  : 7383
Per MPI rank memory allocation (min/avg/max) = 5.441 | 5.816 | 6.074 Mbytes
Step PotEng KinEng TotEng v_fx v_fy v_fz 
    7383   -1152448.5            0   -1152448.5 -0.024677967 0.0041703376  0.027532939 
    7598   -1152448.5            0   -1152448.5 -1.6617489e-05 1.1857597e-06 1.867916e-05 
[...]

Nlocal:        2776.45 ave        3960 max           0 min
Histogram: 8 4 4 0 4 12 8 4 26 34
Nghost:        3879.08 ave        5424 max         232 min
Histogram: 8 0 8 0 16 0 8 8 16 40
Neighs:        79213.3 ave      115464 max           0 min
Histogram: 8 4 4 0 10 6 8 8 24 32

Total # of neighbors = 8238182
Ave neighs/atom = 28.530402
Neighbor list builds = 0
Dangerous builds = 0
The dot product: 2.92108657117441e-08
Setting atom values ...
  1 settings made for x
  1 settings made for y
  1 settings made for z
Setting up cg style minimization ...
  Unit style    : metal
  Current step  : 5917
Per MPI rank memory allocation (min/avg/max) = 5.441 | 5.816 | 6.074 Mbytes
Step PotEng KinEng TotEng v_fx v_fy v_fz 
    5917   -1152448.9            0   -1152448.9 0.0047128772 -0.0030175055  0.019401829 
    6000   -1152448.9            0   -1152448.9 0.0001757454 -6.9245194e-06 1.7617266e-05 
    6135   -1152448.9            0   -1152448.9 -5.5545117e-07 -6.4786158e-08  5.23679e-07 
Loop time of 2.50704 on 104 procs for 218 steps with 288751 atoms

99.9% CPU use with 104 MPI tasks x 1 OpenMP threads

Minimization stats:
  Stopping criterion = energy tolerance
  Energy initial, next-to-last, final = 
     -1152448.87614291  -1152448.87795946  -1152448.87795946
  Force two-norm initial, final = 0.21963263 3.8112530e-05
  Force max component initial, final = 0.2010481 1.5263986e-05
  Final line search alpha, max atom move = 1.0000000 1.5263986e-05
  Iterations, force evaluations = 218 436

MPI task timing breakdown:
Section |  min time  |  avg time  |  max time  |%varavg| %total
---------------------------------------------------------------
Pair    | 0.65929    | 1.8299     | 2.3768     |  36.7 | 72.99
Neigh   | 0          | 0          | 0          |   0.0 |  0.00
Comm    | 0.037395   | 0.41802    | 1.2556     |  54.1 | 16.67
Output  | 0.00010298 | 0.00010535 | 0.00024001 |   0.0 |  0.00
Modify  | 2.6229e-05 | 0.0035987  | 0.0080384  |   2.9 |  0.14
Other   |            | 0.2554     |            |       | 10.19

Nlocal:        2776.45 ave        3960 max           0 min
Histogram: 8 4 4 0 4 12 8 4 26 34
Nghost:        3879.06 ave        5424 max         232 min
Histogram: 8 0 8 0 16 0 8 8 16 40
Neighs:        79213.3 ave      115462 max           0 min
Histogram: 8 4 4 0 10 6 8 8 24 32

Total # of neighbors = 8238180
Ave neighs/atom = 28.530395
Neighbor list builds = 0
Dangerous builds = 0
The dot product: 1.08572127565526e-09
Setting atom values ...
  1 settings made for x
  1 settings made for y
  1 settings made for z
Setting up cg style minimization ...
  Unit style    : metal
  Current step  : 6135
Per MPI rank memory allocation (min/avg/max) = 5.441 | 5.816 | 6.074 Mbytes
Step PotEng KinEng TotEng v_fx v_fy v_fz 
    6135   -1152448.9            0   -1152448.9 0.0032191043 -0.0020580119  0.012962915 
    6273   -1152448.9            0   -1152448.9 -1.4318413e-05 -4.9678534e-06 3.4802684e-05 
Loop time of 1.59635 on 104 procs for 138 steps with 288751 atoms

99.9% CPU use with 104 MPI tasks x 1 OpenMP threads

Minimization stats:
  Stopping criterion = energy tolerance
  Energy initial, next-to-last, final = 
     -1152448.85238867  -1152448.85432124  -1152448.85432124
  Force two-norm initial, final = 0.22371203 0.00020761827
  Force max component initial, final = 0.20358248 3.9511801e-05
  Final line search alpha, max atom move = 1.0000000 3.9511801e-05
  Iterations, force evaluations = 138 276

MPI task timing breakdown:
Section |  min time  |  avg time  |  max time  |%varavg| %total
---------------------------------------------------------------
Pair    | 0.41644    | 1.1597     | 1.5073     |  29.1 | 72.65
Neigh   | 0          | 0          | 0          |   0.0 |  0.00
Comm    | 0.023847   | 0.2622     | 0.79582    |  42.8 | 16.42
Output  | 0          | 0          | 0          |   0.0 |  0.00
Modify  | 1.6375e-05 | 0.0022788  | 0.0050702  |   2.3 |  0.14
Other   |            | 0.1722     |            |       | 10.79

Nlocal:        2776.45 ave        3960 max           0 min
Histogram: 8 4 4 0 4 12 8 4 26 34
Nghost:        3879.06 ave        5424 max         232 min
Histogram: 8 0 8 0 16 0 8 8 16 40
Neighs:        79213.3 ave      115462 max           0 min
Histogram: 8 4 4 0 10 6 8 8 24 32

Total # of neighbors = 8238179
Ave neighs/atom = 28.530391
Neighbor list builds = 0
Dangerous builds = 0
The dot product: 2.99061181675811e-08
Setting atom values ...
  1 settings made for x
  1 settings made for y
  1 settings made for z
Setting up cg style minimization ...
  Unit style    : metal
  Current step  : 6273
Per MPI rank memory allocation (min/avg/max) = 5.441 | 5.816 | 6.074 Mbytes
Step PotEng KinEng TotEng v_fx v_fy v_fz 
    6273   -1152448.8            0   -1152448.8 0.0024768003 -0.001518224 0.0095021206 
    6419   -1152448.8            0   -1152448.8 1.0751441e-05 7.5766156e-06 -5.0937638e-05 
Loop time of 1.68648 on 104 procs for 146 steps with 288751 atoms

99.9% CPU use with 104 MPI tasks x 1 OpenMP threads

Minimization stats:
  Stopping criterion = energy tolerance
  Energy initial, next-to-last, final = 
     -1152448.82650191  -1152448.82854634  -1152448.82854634
  Force two-norm initial, final = 0.228393 0.00027080498
  Force max component initial, final = 0.2062235 6.4787676e-05
  Final line search alpha, max atom move = 1.0000000 6.4787676e-05
  Iterations, force evaluations = 146 292

MPI task timing breakdown:
Section |  min time  |  avg time  |  max time  |%varavg| %total
---------------------------------------------------------------
Pair    | 0.43927    | 1.2274     | 1.5977     |  30.1 | 72.78
Neigh   | 0          | 0          | 0          |   0.0 |  0.00
Comm    | 0.025379   | 0.28209    | 0.84788    |  44.3 | 16.73
Output  | 0          | 0          | 0          |   0.0 |  0.00
Modify  | 1.7394e-05 | 0.0024198  | 0.0053993  |   2.3 |  0.14
Other   |            | 0.1746     |            |       | 10.35

Nlocal:        2776.45 ave        3960 max           0 min
Histogram: 8 4 4 0 4 12 8 4 26 34
Nghost:        3879.06 ave        5424 max         232 min
Histogram: 8 0 8 0 16 0 8 8 16 40
Neighs:        79213.2 ave      115458 max           0 min
Histogram: 8 4 4 0 10 6 8 8 24 32

Total # of neighbors = 8238176
Ave neighs/atom = 28.530381
Neighbor list builds = 0
Dangerous builds = 0
The dot product: -9.1263242589937e-09
Setting atom values ...
  1 settings made for x
  1 settings made for y
  1 settings made for z
Setting up cg style minimization ...
  Unit style    : metal
  Current step  : 6419
Per MPI rank memory allocation (min/avg/max) = 5.441 | 5.816 | 6.074 Mbytes
Step PotEng KinEng TotEng v_fx v_fy v_fz 
    6419   -1152448.8            0   -1152448.8  0.002227505 -0.0011937788  0.007446139 
    6601   -1152448.8            0   -1152448.8 1.3434018e-05 1.6765493e-06 -1.2846883e-05 
Loop time of 2.09595 on 104 procs for 182 steps with 288751 atoms

99.9% CPU use with 104 MPI tasks x 1 OpenMP threads

Minimization stats:
  Stopping criterion = energy tolerance
  Energy initial, next-to-last, final = 
     -1152448.79837306  -1152448.80051505  -1152448.80051505
  Force two-norm initial, final = 0.23294283 0.00017853414
  Force max component initial, final = 0.20891313 5.1117437e-05
  Final line search alpha, max atom move = 1.0000000 5.1117437e-05
  Iterations, force evaluations = 182 364

MPI task timing breakdown:
Section |  min time  |  avg time  |  max time  |%varavg| %total
---------------------------------------------------------------
Pair    | 0.54881    | 1.5244     | 1.9829     |  33.4 | 72.73
Neigh   | 0          | 0          | 0          |   0.0 |  0.00
Comm    | 0.031853   | 0.34452    | 1.0424     |  49.6 | 16.44
Output  | 0          | 0          | 0          |   0.0 |  0.00
Modify  | 2.1422e-05 | 0.0029977  | 0.0066927  |   2.6 |  0.14
Other   |            | 0.224      |            |       | 10.69

Nlocal:        2776.45 ave        3960 max           0 min
Histogram: 8 4 4 0 4 12 8 4 26 34
Nghost:        3879.06 ave        5424 max         232 min
Histogram: 8 0 8 0 16 0 8 8 16 40
Neighs:        79213.2 ave      115459 max           0 min
Histogram: 8 4 4 0 10 6 8 8 24 32

Total # of neighbors = 8238175
Ave neighs/atom = 28.530377
Neighbor list builds = 0
Dangerous builds = 0
The dot product: -8.12479285673096e-09
Setting atom values ...
  1 settings made for x
  1 settings made for y
  1 settings made for z
Setting up cg style minimization ...
  Unit style    : metal
  Current step  : 6601
Per MPI rank memory allocation (min/avg/max) = 5.441 | 5.816 | 6.074 Mbytes
Step PotEng KinEng TotEng v_fx v_fy v_fz 
    6601   -1152448.8            0   -1152448.8 0.0024042025 -0.0010308374 0.0063990181 
    6813   -1152448.8            0   -1152448.8 7.3400806e-07 -2.875112e-07 1.7761069e-06 
Loop time of 2.46714 on 104 procs for 212 steps with 288751 atoms

99.9% CPU use with 104 MPI tasks x 1 OpenMP threads

Minimization stats:
  Stopping criterion = energy tolerance
  Energy initial, next-to-last, final = 
     -1152448.76792918  -1152448.77014423  -1152448.77014423
  Force two-norm initial, final = 0.23683182 6.6017602e-05
  Force max component initial, final = 0.2115968 2.1401389e-05
  Final line search alpha, max atom move = 1.0000000 2.1401389e-05
  Iterations, force evaluations = 212 424

MPI task timing breakdown:
Section |  min time  |  avg time  |  max time  |%varavg| %total
---------------------------------------------------------------
Pair    | 0.63965    | 1.7783     | 2.3412     |  36.1 | 72.08
Neigh   | 0          | 0          | 0          |   0.0 |  0.00
Comm    | 0.037116   | 0.40268    | 1.2154     |  52.7 | 16.32
Output  | 0          | 0          | 0          |   0.0 |  0.00
Modify  | 2.5305e-05 | 0.0034996  | 0.0078145  |   2.8 |  0.14
Other   |            | 0.2827     |            |       | 11.46

Nlocal:        2776.45 ave        3961 max           0 min
Histogram: 8 4 4 0 6 10 8 4 26 34
Nghost:        3879.04 ave        5424 max         232 min
Histogram: 8 0 8 0 16 0 8 8 16 40
Neighs:        79213.2 ave      115488 max           0 min
Histogram: 8 4 4 0 10 6 8 8 24 32

Total # of neighbors = 8238169
Ave neighs/atom = 28.530357
Neighbor list builds = 0
Dangerous builds = 0
The dot product: -1.58239697887447e-09
Setting atom values ...
  1 settings made for x
  1 settings made for y
  1 settings made for z
Setting up cg style minimization ...
  Unit style    : metal
  Current step  : 6813
Per MPI rank memory allocation (min/avg/max) = 5.441 | 5.816 | 6.074 Mbytes
Step PotEng KinEng TotEng v_fx v_fy v_fz 
    6813   -1152448.7            0   -1152448.7 0.0028144477 -0.00094387154  0.005826389 
    6951   -1152448.7            0   -1152448.7 -1.0212914e-05 -6.0187087e-06 4.0778234e-05 
Loop time of 1.59299 on 104 procs for 138 steps with 288751 atoms

99.9% CPU use with 104 MPI tasks x 1 OpenMP threads

Minimization stats:
  Stopping criterion = energy tolerance
  Energy initial, next-to-last, final = 
     -1152448.73511609  -1152448.73738098  -1152448.73738098
  Force two-norm initial, final = 0.23994573 0.00021493999
  Force max component initial, final = 0.21429732 8.7022744e-05
  Final line search alpha, max atom move = 1.0000000 8.7022744e-05
  Iterations, force evaluations = 138 276

MPI task timing breakdown:
Section |  min time  |  avg time  |  max time  |%varavg| %total
---------------------------------------------------------------
Pair    | 0.41569    | 1.1559     | 1.5104     |  29.1 | 72.56
Neigh   | 0          | 0          | 0          |   0.0 |  0.00
Comm    | 0.024378   | 0.26134    | 0.78589    |  42.8 | 16.41
Output  | 0          | 0          | 0          |   0.0 |  0.00
Modify  | 1.6412e-05 | 0.002273   | 0.0050499  |   2.3 |  0.14
Other   |            | 0.1734     |            |       | 10.89

Nlocal:        2776.45 ave        3961 max           0 min
Histogram: 8 4 4 0 6 10 8 4 26 34
Nghost:        3879.04 ave        5424 max         232 min
Histogram: 8 0 8 0 16 0 8 8 16 40
Neighs:        79213.1 ave      115487 max           0 min
Histogram: 8 4 4 0 10 6 8 8 24 32

Total # of neighbors = 8238166
Ave neighs/atom = 28.530346
Neighbor list builds = 0
Dangerous builds = 0
The dot product: -1.99307592892303e-08
Setting atom values ...
  1 settings made for x
  1 settings made for y
  1 settings made for z
Setting up cg style minimization ...
  Unit style    : metal
  Current step  : 6951
Per MPI rank memory allocation (min/avg/max) = 5.441 | 5.816 | 6.074 Mbytes
Step PotEng KinEng TotEng v_fx v_fy v_fz 
    6951   -1152448.7            0   -1152448.7 0.0033858894 -0.00092271334 0.0056745466 
    7000   -1152448.7            0   -1152448.7 4.8206353e-05 2.8053194e-05 -0.00019097639 
    7229   -1152448.7            0   -1152448.7 5.8505151e-07 4.0532684e-08 -3.3885747e-07 
Loop time of 3.21331 on 104 procs for 278 steps with 288751 atoms

99.9% CPU use with 104 MPI tasks x 1 OpenMP threads

Minimization stats:
  Stopping criterion = energy tolerance
  Energy initial, next-to-last, final = 
     -1152448.69990473  -1152448.70219986  -1152448.70219986
  Force two-norm initial, final = 0.24242969 5.5255217e-06
  Force max component initial, final = 0.21713024 2.3333582e-06
  Final line search alpha, max atom move = 1.0000000 2.3333582e-06
  Iterations, force evaluations = 278 556

MPI task timing breakdown:
Section |  min time  |  avg time  |  max time  |%varavg| %total
---------------------------------------------------------------
Pair    | 0.8413     | 2.3328     | 3.0426     |  41.4 | 72.60
Neigh   | 0          | 0          | 0          |   0.0 |  0.00
Comm    | 0.054714   | 0.53104    | 1.6075     |  61.1 | 16.53
Output  | 9.8682e-05 | 0.0001066  | 0.00022707 |   0.0 |  0.00
Modify  | 3.2882e-05 | 0.0045885  | 0.010313   |   3.2 |  0.14
Other   |            | 0.3448     |            |       | 10.73

Nlocal:        2776.45 ave        3961 max           0 min
Histogram: 8 4 4 0 6 10 8 4 26 34
Nghost:        3879.02 ave        5424 max         232 min
Histogram: 8 0 8 0 16 0 8 8 16 40
Neighs:        79213.1 ave      115487 max           0 min
Histogram: 8 4 4 0 10 6 8 8 24 32

Total # of neighbors = 8238165
Ave neighs/atom = 28.530343
Neighbor list builds = 0
Dangerous builds = 0
The dot product: -1.92444412781451e-10
Setting atom values ...
  1 settings made for x
  1 settings made for y
  1 settings made for z
Setting up cg style minimization ...
  Unit style    : metal
  Current step  : 7229
Per MPI rank memory allocation (min/avg/max) = 5.441 | 5.816 | 6.074 Mbytes
Step PotEng KinEng TotEng v_fx v_fy v_fz 
    7229   -1152448.7            0   -1152448.7 0.0041335879 -0.00099015418 0.0060934556 
    7397   -1152448.7            0   -1152448.7 2.4431101e-06 1.4133876e-06 -9.6684233e-06 
Loop time of 1.94024 on 104 procs for 168 steps with 288751 atoms

99.9% CPU use with 104 MPI tasks x 1 OpenMP threads

Minimization stats:
  Stopping criterion = energy tolerance
  Energy initial, next-to-last, final = 
     -1152448.66229164  -1152448.66459776  -1152448.66459776
  Force two-norm initial, final = 0.24428752 0.0001975003
  Force max component initial, final = 0.21984216 8.5267139e-05
  Final line search alpha, max atom move = 1.0000000 8.5267139e-05
  Iterations, force evaluations = 168 336

MPI task timing breakdown:
Section |  min time  |  avg time  |  max time  |%varavg| %total
---------------------------------------------------------------
Pair    | 0.50882    | 1.4067     | 1.837      |  32.0 | 72.50
Neigh   | 0          | 0          | 0          |   0.0 |  0.00
Comm    | 0.029435   | 0.31708    | 0.96854    |  47.1 | 16.34
Output  | 0          | 0          | 0          |   0.0 |  0.00
Modify  | 1.9833e-05 | 0.0027643  | 0.0061467  |   2.5 |  0.14
Other   |            | 0.2137     |            |       | 11.01

Nlocal:        2776.45 ave        3961 max           0 min
Histogram: 8 4 4 0 6 10 8 3 27 34
Nghost:        3879.00 ave        5424 max         232 min
Histogram: 8 0 8 0 16 0 8 8 16 40
Neighs:        79213.1 ave      115486 max           0 min
Histogram: 8 4 4 0 10 6 8 8 24 32

Total # of neighbors = 8238163
Ave neighs/atom = 28.530336
Neighbor list builds = 0
Dangerous builds = 0
The dot product: 6.34939068327507e-09
Setting atom values ...
  1 settings made for x
  1 settings made for y
  1 settings made for z
Setting up cg style minimization ...
  Unit style    : metal
  Current step  : 7397
Per MPI rank memory allocation (min/avg/max) = 5.441 | 5.816 | 6.074 Mbytes
Step PotEng KinEng TotEng v_fx v_fy v_fz 
    7397   -1152448.6            0   -1152448.6 0.0050342705 -0.0010788437 0.0066520209 
    7671   -1152448.6            0   -1152448.6 1.9074691e-07 9.1161769e-09 -8.2239774e-08 
Loop time of 3.16186 on 104 procs for 274 steps with 288751 atoms

99.9% CPU use with 104 MPI tasks x 1 OpenMP threads

Minimization stats:
  Stopping criterion = energy tolerance
  Energy initial, next-to-last, final = 
     -1152448.62228659  -1152448.62459167  -1152448.62459167
  Force two-norm initial, final = 0.2459273 7.7115281e-06
  Force max component initial, final = 0.22275742 3.4577515e-06
  Final line search alpha, max atom move = 1.0000000 3.4577515e-06
  Iterations, force evaluations = 274 548

MPI task timing breakdown:
Section |  min time  |  avg time  |  max time  |%varavg| %total
---------------------------------------------------------------
Pair    | 0.82797    | 2.2982     | 3.0001     |  41.1 | 72.69
Neigh   | 0          | 0          | 0          |   0.0 |  0.00
Comm    | 0.046988   | 0.52467    | 1.5805     |  60.4 | 16.59
Output  | 0          | 0          | 0          |   0.0 |  0.00
Modify  | 3.124e-05  | 0.0045138  | 0.01012    |   3.2 |  0.14
Other   |            | 0.3345     |            |       | 10.58

Nlocal:        2776.45 ave        3961 max           0 min
Histogram: 8 4 4 0 6 10 8 3 27 34
Nghost:        3879.04 ave        5424 max         232 min
Histogram: 8 0 8 0 16 0 8 8 16 40
Neighs:        79213.1 ave      115486 max           0 min
Histogram: 8 4 4 0 10 6 8 8 24 32

Total # of neighbors = 8238162
Ave neighs/atom = 28.530332
Neighbor list builds = 0
Dangerous builds = 0
The dot product: -3.02321772069974e-11
Setting up cg style minimization ...
  Unit style    : metal
  Current step  : 7671
Per MPI rank memory allocation (min/avg/max) = 5.441 | 5.816 | 6.074 Mbytes
Step PotEng KinEng TotEng v_fx v_fy v_fz 
    7671   -1152448.6            0   -1152448.6 -0.033994126    -2.037115  -0.30465818 
    7950   -1152449.5            0   -1152449.5 3.5959454e-06 1.6244165e-06 -1.8311064e-06 
Loop time of 3.18911 on 104 procs for 279 steps with 288751 atoms

99.9% CPU use with 104 MPI tasks x 1 OpenMP threads

Minimization stats:
  Stopping criterion = energy tolerance
  Energy initial, next-to-last, final = 
     -1152448.62459167  -1152449.45035286  -1152449.45035286
  Force two-norm initial, final = 2.0600509 9.1829544e-05
  Force max component initial, final = 2.0371150 8.5931602e-06
  Final line search alpha, max atom move = 1.0000000 8.5931602e-06
  Iterations, force evaluations = 279 552

MPI task timing breakdown:
Section |  min time  |  avg time  |  max time  |%varavg| %total
---------------------------------------------------------------
Pair    | 0.85045    | 2.3175     | 3.0013     |  40.7 | 72.67
Neigh   | 4.0166e-05 | 0.011844   | 0.017154   |   4.5 |  0.37
Comm    | 0.050227   | 0.52163    | 1.5919     |  60.5 | 16.36
Output  | 0          | 0          | 0          |   0.0 |  0.00
Modify  | 2.9563e-05 | 0.0029597  | 0.0080598  |   3.4 |  0.09
Other   |            | 0.3352     |            |       | 10.51

Nlocal:        2776.45 ave        3961 max           0 min
Histogram: 8 4 4 0 6 10 8 3 27 34
Nghost:        3879.08 ave        5424 max         232 min
Histogram: 8 0 8 0 16 0 8 8 16 40
Neighs:        79213.2 ave      115488 max           0 min
Histogram: 8 4 4 0 10 6 8 8 24 32

Total # of neighbors = 8238168
Ave neighs/atom = 28.530353
Neighbor list builds = 4
Dangerous builds = 0
