LAMMPS (29 Oct 2020)
OMP_NUM_THREADS environment is not set. Defaulting to 1 thread. (../comm.cpp:94)
  using 1 OpenMP thread(s) per MPI task
OMP_NUM_THREADS environment is not set. Defaulting to 1 thread. (../comm.cpp:94)
  using 1 OpenMP thread(s) per MPI task
Reading data file ...
  orthogonal box = (-122.39241 -121.13707 -37.090501) to (122.39241 121.13707 37.090501)
  13 by 4 by 2 MPI processor grid
  reading atoms ...
  288751 atoms
  read_data CPU = 0.376 seconds
199981 atoms in group inner
88770 atoms in group outer
1 atoms in group carbon
Neighbor list info ...
  update every 1 steps, delay 0 steps, check yes
  max neighbors/atom: 2000, page size: 100000
  master list distance cutoff = 5.6
  ghost atom cutoff = 5.6
  binsize = 2.8, bins = 88 87 27
  1 neighbor lists, perpetual/occasional/extra = 1 0 0
  (1) pair eam/alloy, perpetual
      attributes: half, newton on
      pair build: half/bin/atomonly/newton
      stencil: half/bin/3d/newton
      bin: standard
Setting up cg style minimization ...
  Unit style    : metal
  Current step  : 0
Per MPI rank memory allocation (min/avg/max) = 5.441 | 5.816 | 6.074 Mbytes
Step v_fx v_fy v_fz PotEng KinEng TotEng 
       0  -0.21668104   0.63176302   0.55215146   -1152447.8            0   -1152447.8 
     181 1.2194419e-07 -5.290912e-07 -9.6844093e-06   -1152449.5            0   -1152449.5 
Loop time of 2.16793 on 104 procs for 181 steps with 288751 atoms

99.8% CPU use with 104 MPI tasks x 1 OpenMP threads

Minimization stats:
  Stopping criterion = energy tolerance
  Energy initial, next-to-last, final = 
     -1152447.84212065  -1152449.45035272  -1152449.45035272
  Force two-norm initial, final = 9.8291019 3.6858949e-05
  Force max component initial, final = 4.6406364 9.6844093e-06
  Final line search alpha, max atom move = 1.0000000 9.6844093e-06
  Iterations, force evaluations = 181 361

MPI task timing breakdown:
Section |  min time  |  avg time  |  max time  |%varavg| %total
---------------------------------------------------------------
Pair    | 0.56504    | 1.5256     | 1.9953     |  33.0 | 70.37
Neigh   | 2.1326e-05 | 0.0058606  | 0.0085889  |   3.2 |  0.27
Comm    | 0.036189   | 0.34706    | 1.0218     |  47.8 | 16.01
Output  | 0          | 0          | 0          |   0.0 |  0.00
Modify  | 2.0173e-05 | 0.0019459  | 0.0049649  |   2.8 |  0.09
Other   |            | 0.2874     |            |       | 13.26

Nlocal:        2776.45 ave        3960 max           0 min
Histogram: 8 4 4 0 4 12 8 2 28 34
Nghost:        3879.01 ave        5424 max         232 min
Histogram: 8 0 8 0 16 0 8 8 16 40
Neighs:        79213.7 ave      115433 max           0 min
Histogram: 8 4 4 0 10 6 8 8 24 32

Total # of neighbors = 8238223
Ave neighs/atom = 28.530544
Neighbor list builds = 2
Dangerous builds = 0
Setting atom values ...
  1 settings made for x
  1 settings made for y
  1 settings made for z
Setting up cg style minimization ...
  Unit style    : metal
  Current step  : 181
Per MPI rank memory allocation (min/avg/max) = 5.441 | 5.816 | 6.074 Mbytes
Step PotEng KinEng TotEng v_fx v_fy v_fz 
     181   -1152449.4            0   -1152449.4  0.040940717 -0.010927922   0.04315254 
     434   -1152449.4            0   -1152449.4 2.227967e-07 8.9129039e-07 3.6924813e-07 
Loop time of 3.01276 on 104 procs for 253 steps with 288751 atoms

99.8% CPU use with 104 MPI tasks x 1 OpenMP threads

Minimization stats:
  Stopping criterion = linesearch alpha is zero
  Energy initial, next-to-last, final = 
     -1152449.44613428  -1152449.44880996  -1152449.44880996
  Force two-norm initial, final = 0.23857953 1.0128927e-05
  Force max component initial, final = 0.11774266 1.0804479e-06
  Final line search alpha, max atom move = 0.5 5.4022393e-07
  Iterations, force evaluations = 253 507

MPI task timing breakdown:
Section |  min time  |  avg time  |  max time  |%varavg| %total
---------------------------------------------------------------
Pair    | 0.78905    | 2.1486     | 2.7882     |  39.1 | 71.32
Neigh   | 0          | 0          | 0          |   0.0 |  0.00
Comm    | 0.056702   | 0.4845     | 1.4522     |  57.6 | 16.08
Output  | 0          | 0          | 0          |   0.0 |  0.00
Modify  | 3.2919e-05 | 0.0041793  | 0.0089687  |   3.1 |  0.14
Other   |            | 0.3755     |            |       | 12.46

Nlocal:        2776.45 ave        3960 max           0 min
Histogram: 8 4 4 0 4 12 8 2 28 34
Nghost:        3879.01 ave        5425 max         232 min
Histogram: 8 0 8 0 16 0 8 8 16 40
Neighs:        79213.4 ave      115424 max           0 min
Histogram: 8 4 4 0 10 6 8 8 24 32

Total # of neighbors = 8238197
Ave neighs/atom = 28.530454
Neighbor list builds = 0
Dangerous builds = 0
Setting atom values ...
  1 settings made for x
  1 settings made for y
  1 settings made for z
Setting up cg style minimization ...
  Unit style    : metal
  Current step  : 434
Per MPI rank memory allocation (min/avg/max) = 5.441 | 5.816 | 6.074 Mbytes
Step PotEng KinEng TotEng v_fx v_fy v_fz 
     434   -1152449.4            0   -1152449.4  0.042206981 -0.027003357  0.052434314 
     610   -1152449.4            0   -1152449.4 6.2027936e-06 -4.1542723e-05 7.0058599e-07 
Loop time of 2.05901 on 104 procs for 176 steps with 288751 atoms

99.9% CPU use with 104 MPI tasks x 1 OpenMP threads

Minimization stats:
  Stopping criterion = energy tolerance
  Energy initial, next-to-last, final = 
     -1152449.44004497  -1152449.44342451  -1152449.44342451
  Force two-norm initial, final = 0.2695059 0.00024638219
  Force max component initial, final = 0.13312828 4.1542723e-05
  Final line search alpha, max atom move = 1.0000000 4.1542723e-05
  Iterations, force evaluations = 176 352

MPI task timing breakdown:
Section |  min time  |  avg time  |  max time  |%varavg| %total
---------------------------------------------------------------
Pair    | 0.53639    | 1.4768     | 1.9367     |  32.8 | 71.73
Neigh   | 0          | 0          | 0          |   0.0 |  0.00
Comm    | 0.031953   | 0.3331     | 1.0021     |  48.2 | 16.18
Output  | 0          | 0          | 0          |   0.0 |  0.00
Modify  | 2.0714e-05 | 0.0029009  | 0.006257   |   2.6 |  0.14
Other   |            | 0.2462     |            |       | 11.96

Nlocal:        2776.45 ave        3960 max           0 min
Histogram: 8 4 4 0 4 12 8 2 28 34
Nghost:        3878.99 ave        5424 max         232 min
Histogram: 8 0 8 0 16 0 8 8 16 40
Neighs:        79213.4 ave      115424 max           0 min
Histogram: 8 4 4 0 10 6 8 8 24 32

Total # of neighbors = 8238197
Ave neighs/atom = 28.530454
Neighbor list builds = 0
Dangerous builds = 0
The dot product: 1.04914622189183e-06
The cos of the angle between the force vector and the displacement vector: 0.0249742692745944
The angle: 88.5689309848513
Setting atom values ...
  1 settings made for x
  1 settings made for y
  1 settings made for z
Setting up cg style minimization ...
  Unit style    : metal
  Current step  : 610
Per MPI rank memory allocation (min/avg/max) = 5.441 | 5.816 | 6.074 Mbytes
Step PotEng KinEng TotEng v_fx v_fy v_fz 
     610   -1152449.4            0   -1152449.4  0.040577387 -0.033376469  0.060082302 
     784   -1152449.4            0   -1152449.4 1.9415481e-07 3.1978949e-05 5.9952083e-06 
Loop time of 2.05714 on 104 procs for 174 steps with 288751 atoms

99.9% CPU use with 104 MPI tasks x 1 OpenMP threads

Minimization stats:
  Stopping criterion = energy tolerance
  Energy initial, next-to-last, final = 
     -1152449.43170715  -1152449.43496866  -1152449.43496866
  Force two-norm initial, final = 0.26500674 0.00020062526
  Force max component initial, final = 0.12671651 3.1978949e-05
  Final line search alpha, max atom move = 1.0000000 3.1978949e-05
  Iterations, force evaluations = 174 348

MPI task timing breakdown:
Section |  min time  |  avg time  |  max time  |%varavg| %total
---------------------------------------------------------------
Pair    | 0.53471    | 1.4692     | 1.9273     |  32.6 | 71.42
Neigh   | 0          | 0          | 0          |   0.0 |  0.00
Comm    | 0.037074   | 0.33285    | 0.97841    |  47.2 | 16.18
Output  | 0          | 0          | 0          |   0.0 |  0.00
Modify  | 2.066e-05  | 0.00287    | 0.006845   |   2.6 |  0.14
Other   |            | 0.2522     |            |       | 12.26

Nlocal:        2776.45 ave        3961 max           0 min
Histogram: 8 4 4 0 6 10 8 2 28 34
Nghost:        3879.07 ave        5424 max         232 min
Histogram: 8 0 8 0 16 0 8 8 16 40
Neighs:        79213.4 ave      115445 max           0 min
Histogram: 8 4 4 0 10 6 8 8 24 32

Total # of neighbors = 8238197
Ave neighs/atom = 28.530454
Neighbor list builds = 0
Dangerous builds = 0
The dot product: 1.79519994820637e-07
The cos of the angle between the force vector and the displacement vector: 0.0055174707213966
The angle: 89.6838706101023
Setting atom values ...
  1 settings made for x
  1 settings made for y
  1 settings made for z
Setting up cg style minimization ...
  Unit style    : metal
  Current step  : 784
Per MPI rank memory allocation (min/avg/max) = 5.441 | 5.816 | 6.074 Mbytes
Step PotEng KinEng TotEng v_fx v_fy v_fz 
     784   -1152449.4            0   -1152449.4  0.033115984 -0.036911709  0.058630653 
     987   -1152449.4            0   -1152449.4 -7.4797007e-06 4.6351373e-06 -1.3938306e-05 
Loop time of 2.38291 on 104 procs for 203 steps with 288751 atoms

99.9% CPU use with 104 MPI tasks x 1 OpenMP threads

Minimization stats:
  Stopping criterion = energy tolerance
  Energy initial, next-to-last, final = 
     -1152449.42058148  -1152449.42369457  -1152449.42369457
  Force two-norm initial, final = 0.25745485 7.0264602e-05
  Force max component initial, final = 0.11916543 1.3938306e-05
  Final line search alpha, max atom move = 1.0000000 1.3938306e-05
  Iterations, force evaluations = 203 406

MPI task timing breakdown:
Section |  min time  |  avg time  |  max time  |%varavg| %total
---------------------------------------------------------------
Pair    | 0.62262    | 1.704      | 2.231      |  35.2 | 71.51
Neigh   | 0          | 0          | 0          |   0.0 |  0.00
Comm    | 0.038456   | 0.38415    | 1.1591     |  51.5 | 16.12
Output  | 0          | 0          | 0          |   0.0 |  0.00
Modify  | 2.412e-05  | 0.0033426  | 0.0071104  |   2.7 |  0.14
Other   |            | 0.2914     |            |       | 12.23

Nlocal:        2776.45 ave        3960 max           0 min
Histogram: 8 4 4 0 4 12 8 2 28 34
Nghost:        3879.07 ave        5424 max         232 min
Histogram: 8 0 8 0 16 0 8 8 16 40
Neighs:        79213.4 ave      115422 max           0 min
Histogram: 8 4 4 0 10 6 8 8 24 32

Total # of neighbors = 8238197
Ave neighs/atom = 28.530454
Neighbor list builds = 0
Dangerous builds = 0
The dot product: -1.08155536027648e-06
The cos of the angle between the force vector and the displacement vector: -0.065614301788422
The angle: 93.7621253416296
Setting atom values ...
  1 settings made for x
  1 settings made for y
  1 settings made for z
Setting up cg style minimization ...
  Unit style    : metal
  Current step  : 987
Per MPI rank memory allocation (min/avg/max) = 5.441 | 5.816 | 6.074 Mbytes
Step PotEng KinEng TotEng v_fx v_fy v_fz 
     987   -1152449.4            0   -1152449.4  0.024897139 -0.040155817   0.05058803 
    1000   -1152449.4            0   -1152449.4 -0.00019867216 -0.0011573927 -0.00070691142 
    1178   -1152449.4            0   -1152449.4 -5.5535365e-06 1.014994e-05 -1.1039375e-05 
Loop time of 2.24456 on 104 procs for 191 steps with 288751 atoms

99.9% CPU use with 104 MPI tasks x 1 OpenMP threads

Minimization stats:
  Stopping criterion = energy tolerance
  Energy initial, next-to-last, final = 
      -1152449.4064368  -1152449.40941194  -1152449.40941194
  Force two-norm initial, final = 0.25074312 7.6740886e-05
  Force max component initial, final = 0.11211071 2.0707163e-05
  Final line search alpha, max atom move = 1.0000000 2.0707163e-05
  Iterations, force evaluations = 191 382

MPI task timing breakdown:
Section |  min time  |  avg time  |  max time  |%varavg| %total
---------------------------------------------------------------
Pair    | 0.58445    | 1.6094     | 2.1151     |  34.1 | 71.70
Neigh   | 0          | 0          | 0          |   0.0 |  0.00
Comm    | 0.034864   | 0.36035    | 1.0736     |  50.0 | 16.05
Output  | 0.00010365 | 0.00011313 | 0.00018683 |   0.0 |  0.01
Modify  | 2.2434e-05 | 0.0031465  | 0.006705   |   2.7 |  0.14
Other   |            | 0.2715     |            |       | 12.10

Nlocal:        2776.45 ave        3960 max           0 min
Histogram: 8 4 4 0 4 12 8 3 27 34
Nghost:        3879.05 ave        5424 max         232 min
Histogram: 8 0 8 0 16 0 8 8 16 40
Neighs:        79213.5 ave      115423 max           0 min
Histogram: 8 4 4 0 10 6 8 8 24 32

Total # of neighbors = 8238202
Ave neighs/atom = 28.530471
Neighbor list builds = 0
Dangerous builds = 0
The dot product: -6.65202512606455e-07
The cos of the angle between the force vector and the displacement vector: -0.0415970307687917
The angle: 92.3840221580964
Setting atom values ...
  1 settings made for x
  1 settings made for y
  1 settings made for z
Setting up cg style minimization ...
  Unit style    : metal
  Current step  : 1178
Per MPI rank memory allocation (min/avg/max) = 5.441 | 5.816 | 6.074 Mbytes
Step PotEng KinEng TotEng v_fx v_fy v_fz 
    1178   -1152449.4            0   -1152449.4  0.018370622 -0.043236311  0.040844503 
    1451   -1152449.4            0   -1152449.4 -2.8507924e-07 -4.8019855e-07 -8.8364293e-07 
Loop time of 3.17054 on 104 procs for 273 steps with 288751 atoms

99.9% CPU use with 104 MPI tasks x 1 OpenMP threads

Minimization stats:
  Stopping criterion = energy tolerance
  Energy initial, next-to-last, final = 
     -1152449.38911073  -1152449.39197992  -1152449.39197992
  Force two-norm initial, final = 0.24602529 3.3990290e-06
  Force max component initial, final = 0.1145771 8.8364293e-07
  Final line search alpha, max atom move = 1.0000000 8.8364293e-07
  Iterations, force evaluations = 273 546

MPI task timing breakdown:
Section |  min time  |  avg time  |  max time  |%varavg| %total
---------------------------------------------------------------
Pair    | 0.83019    | 2.2853     | 2.9919     |  40.7 | 72.08
Neigh   | 0          | 0          | 0          |   0.0 |  0.00
Comm    | 0.049692   | 0.51102    | 1.5488     |  60.3 | 16.12
Output  | 0          | 0          | 0          |   0.0 |  0.00
Modify  | 3.1924e-05 | 0.0044872  | 0.0095475  |   3.2 |  0.14
Other   |            | 0.3697     |            |       | 11.66

Nlocal:        2776.45 ave        3960 max           0 min
Histogram: 8 4 4 0 4 12 8 4 26 34
Nghost:        3879.09 ave        5424 max         232 min
Histogram: 8 0 8 0 16 0 8 8 16 40
Neighs:        79213.5 ave      115423 max           0 min
Histogram: 8 4 4 0 10 6 8 8 24 32

Total # of neighbors = 8238201
Ave neighs/atom = 28.530467
Neighbor list builds = 0
Dangerous builds = 0
The dot product: -2.89984467100158e-08
The cos of the angle between the force vector and the displacement vector: -0.0277413198013635
The angle: 91.5896644831014
Setting atom values ...
  1 settings made for x
  1 settings made for y
  1 settings made for z
Setting up cg style minimization ...
  Unit style    : metal
  Current step  : 1451
Per MPI rank memory allocation (min/avg/max) = 5.441 | 5.816 | 6.074 Mbytes
Step PotEng KinEng TotEng v_fx v_fy v_fz 
    1451   -1152449.4            0   -1152449.4  0.013602419 -0.046316416  0.031772783 
    1626   -1152449.4            0   -1152449.4 -2.9477743e-06 2.4780934e-05 -3.7200772e-06 
Loop time of 2.05618 on 104 procs for 175 steps with 288751 atoms

99.9% CPU use with 104 MPI tasks x 1 OpenMP threads

Minimization stats:
  Stopping criterion = energy tolerance
  Energy initial, next-to-last, final = 
     -1152449.36851198  -1152449.37131229  -1152449.37131229
  Force two-norm initial, final = 0.24317019 0.00014096364
  Force max component initial, final = 0.11882771 3.4970350e-05
  Final line search alpha, max atom move = 1.0000000 3.4970350e-05
  Iterations, force evaluations = 175 350

MPI task timing breakdown:
Section |  min time  |  avg time  |  max time  |%varavg| %total
---------------------------------------------------------------
Pair    | 0.53224    | 1.476      | 1.9233     |  32.8 | 71.79
Neigh   | 0          | 0          | 0          |   0.0 |  0.00
Comm    | 0.031775   | 0.33067    | 0.98544    |  47.9 | 16.08
Output  | 0          | 0          | 0          |   0.0 |  0.00
Modify  | 2.0714e-05 | 0.0028908  | 0.0061926  |   2.5 |  0.14
Other   |            | 0.2466     |            |       | 11.99

Nlocal:        2776.45 ave        3960 max           0 min
Histogram: 8 4 4 0 4 12 8 4 26 34
Nghost:        3879.11 ave        5425 max         232 min
Histogram: 8 0 8 0 16 0 8 8 16 40
Neighs:        79213.4 ave      115423 max           0 min
Histogram: 8 4 4 0 10 6 8 8 24 32

Total # of neighbors = 8238198
Ave neighs/atom = 28.530457
Neighbor list builds = 0
Dangerous builds = 0
The dot product: -3.98075421395524e-07
The cos of the angle between the force vector and the displacement vector: -0.0157769911961991
The angle: 90.9039925142517
Setting atom values ...
  1 settings made for x
  1 settings made for y
  1 settings made for z
Setting up cg style minimization ...
  Unit style    : metal
  Current step  : 1626
Per MPI rank memory allocation (min/avg/max) = 5.441 | 5.816 | 6.074 Mbytes
Step PotEng KinEng TotEng v_fx v_fy v_fz 
    1626   -1152449.3            0   -1152449.3  0.010103919  -0.04977024  0.024293675 
    1772   -1152449.3            0   -1152449.3 1.6445425e-05 -3.2337807e-06 5.4496616e-05 
Loop time of 1.70724 on 104 procs for 146 steps with 288751 atoms

99.9% CPU use with 104 MPI tasks x 1 OpenMP threads

Minimization stats:
  Stopping criterion = energy tolerance
  Energy initial, next-to-last, final = 
     -1152449.34459124  -1152449.34736236  -1152449.34736236
  Force two-norm initial, final = 0.24187237 0.00016587458
  Force max component initial, final = 0.12294121 5.4496616e-05
  Final line search alpha, max atom move = 1.0000000 5.4496616e-05
  Iterations, force evaluations = 146 292

MPI task timing breakdown:
Section |  min time  |  avg time  |  max time  |%varavg| %total
---------------------------------------------------------------
Pair    | 0.4476     | 1.2267     | 1.6022     |  29.8 | 71.85
Neigh   | 0          | 0          | 0          |   0.0 |  0.00
Comm    | 0.028362   | 0.27534    | 0.82639    |  44.0 | 16.13
Output  | 0          | 0          | 0          |   0.0 |  0.00
Modify  | 1.7572e-05 | 0.0024102  | 0.0051181  |   2.3 |  0.14
Other   |            | 0.2028     |            |       | 11.88

Nlocal:        2776.45 ave        3960 max           0 min
Histogram: 8 4 4 0 4 12 8 4 26 34
Nghost:        3879.12 ave        5425 max         232 min
Histogram: 8 0 8 0 16 0 8 8 16 40
Neighs:        79213.4 ave      115432 max           0 min
Histogram: 8 4 4 0 10 6 8 8 24 32

Total # of neighbors = 8238198
Ave neighs/atom = 28.530457
Neighbor list builds = 0
Dangerous builds = 0
The dot product: 1.10193357556441e-06
The cos of the angle between the force vector and the displacement vector: 0.0193268434859619
The angle: 88.89258448807
Setting atom values ...
  1 settings made for x
  1 settings made for y
  1 settings made for z
Setting up cg style minimization ...
  Unit style    : metal
  Current step  : 1772
Per MPI rank memory allocation (min/avg/max) = 5.441 | 5.816 | 6.074 Mbytes
Step PotEng KinEng TotEng v_fx v_fy v_fz 
    1772   -1152449.3            0   -1152449.3 0.0073874827 -0.054285042  0.018630834 
    1904   -1152449.3            0   -1152449.3 1.4759182e-05 -3.5643101e-05 4.7829505e-05 
Loop time of 1.56824 on 104 procs for 132 steps with 288751 atoms

99.9% CPU use with 104 MPI tasks x 1 OpenMP threads

Minimization stats:
  Stopping criterion = energy tolerance
  Energy initial, next-to-last, final = 
      -1152449.3173228  -1152449.32011263  -1152449.32011263
  Force two-norm initial, final = 0.2422521 0.00022379824
  Force max component initial, final = 0.12733134 4.7829505e-05
  Final line search alpha, max atom move = 1.0000000 4.7829505e-05
  Iterations, force evaluations = 132 264

MPI task timing breakdown:
Section |  min time  |  avg time  |  max time  |%varavg| %total
---------------------------------------------------------------
Pair    | 0.4034     | 1.1159     | 1.4519     |  28.4 | 71.15
Neigh   | 0          | 0          | 0          |   0.0 |  0.00
Comm    | 0.030463   | 0.25288    | 0.75197    |  41.6 | 16.13
Output  | 0          | 0          | 0          |   0.0 |  0.00
Modify  | 1.6021e-05 | 0.0021818  | 0.004647   |   2.2 |  0.14
Other   |            | 0.1973     |            |       | 12.58

Nlocal:        2776.45 ave        3960 max           0 min
Histogram: 8 4 4 0 4 12 8 5 25 34
Nghost:        3879.08 ave        5425 max         232 min
Histogram: 8 0 8 0 16 0 8 8 16 40
Neighs:        79213.4 ave      115432 max           0 min
Histogram: 8 4 4 0 10 6 8 8 24 32

Total # of neighbors = 8238193
Ave neighs/atom = 28.530440
Neighbor list builds = 0
Dangerous builds = 0
The dot product: 1.47977299671036e-06
The cos of the angle between the force vector and the displacement vector: 0.0240814915106559
The angle: 88.620098778492
Setting atom values ...
  1 settings made for x
  1 settings made for y
  1 settings made for z
Setting up cg style minimization ...
  Unit style    : metal
  Current step  : 1904
Per MPI rank memory allocation (min/avg/max) = 5.441 | 5.816 | 6.074 Mbytes
Step PotEng KinEng TotEng v_fx v_fy v_fz 
    1904   -1152449.3            0   -1152449.3 0.0049991939 -0.060458117  0.014755433 
    2000   -1152449.3            0   -1152449.3 2.9504699e-05 -9.5615827e-05 0.00010553615 
    2119   -1152449.3            0   -1152449.3 1.1631883e-06 7.0474243e-06 4.9247464e-06 
Loop time of 2.51998 on 104 procs for 215 steps with 288751 atoms

99.9% CPU use with 104 MPI tasks x 1 OpenMP threads

Minimization stats:
  Stopping criterion = linesearch alpha is zero
  Energy initial, next-to-last, final = 
     -1152449.28670117  -1152449.28955399  -1152449.28955399
  Force two-norm initial, final = 0.24453639 3.9835368e-05
  Force max component initial, final = 0.13234386 7.0474243e-06
  Final line search alpha, max atom move = 0.5 3.5237122e-06
  Iterations, force evaluations = 215 431

MPI task timing breakdown:
Section |  min time  |  avg time  |  max time  |%varavg| %total
---------------------------------------------------------------
Pair    | 0.65402    | 1.8109     | 2.3667     |  36.4 | 71.86
Neigh   | 0          | 0          | 0          |   0.0 |  0.00
Comm    | 0.043671   | 0.4089     | 1.2284     |  53.8 | 16.23
Output  | 0.00012791 | 0.0001373  | 0.00030242 |   0.0 |  0.01
Modify  | 2.5118e-05 | 0.0035489  | 0.00758    |   2.8 |  0.14
Other   |            | 0.2965     |            |       | 11.77

Nlocal:        2776.45 ave        3960 max           0 min
Histogram: 8 4 4 0 4 12 8 5 25 34
Nghost:        3879.07 ave        5425 max         232 min
Histogram: 8 0 8 0 16 0 8 8 16 40
Neighs:        79213.4 ave      115432 max           0 min
Histogram: 8 4 4 0 10 6 8 8 24 32

Total # of neighbors = 8238190
Ave neighs/atom = 28.530429
Neighbor list builds = 0
Dangerous builds = 0
The dot product: -1.25566857588979e-07
The cos of the angle between the force vector and the displacement vector: -0.0144729601144516
The angle: 90.8292684840093
Setting atom values ...
  1 settings made for x
  1 settings made for y
  1 settings made for z
Setting up cg style minimization ...
  Unit style    : metal
  Current step  : 2119
Per MPI rank memory allocation (min/avg/max) = 5.441 | 5.816 | 6.074 Mbytes
Step PotEng KinEng TotEng v_fx v_fy v_fz 
    2119   -1152449.3            0   -1152449.3 0.0024163753 -0.067588331  0.011986494 
    2245   -1152449.3            0   -1152449.3 6.654545e-06 -2.7550749e-05 2.7550478e-05 
Loop time of 1.50086 on 104 procs for 126 steps with 288751 atoms

99.9% CPU use with 104 MPI tasks x 1 OpenMP threads

Minimization stats:
  Stopping criterion = energy tolerance
  Energy initial, next-to-last, final = 
      -1152449.2527105  -1152449.25566077  -1152449.25566077
  Force two-norm initial, final = 0.24876323 0.00021491902
  Force max component initial, final = 0.13827676 6.2525931e-05
  Final line search alpha, max atom move = 1.0000000 6.2525931e-05
  Iterations, force evaluations = 126 252

MPI task timing breakdown:
Section |  min time  |  avg time  |  max time  |%varavg| %total
---------------------------------------------------------------
Pair    | 0.38359    | 1.0653     | 1.3877     |  27.8 | 70.98
Neigh   | 0          | 0          | 0          |   0.0 |  0.00
Comm    | 0.02183    | 0.24203    | 0.72176    |  40.5 | 16.13
Output  | 0          | 0          | 0          |   0.0 |  0.00
Modify  | 1.4902e-05 | 0.0020827  | 0.0044772  |   2.2 |  0.14
Other   |            | 0.1914     |            |       | 12.75

Nlocal:        2776.45 ave        3960 max           0 min
Histogram: 8 4 4 0 4 12 8 6 24 34
Nghost:        3879.07 ave        5425 max         232 min
Histogram: 8 0 8 0 16 0 8 8 16 40
Neighs:        79213.4 ave      115432 max           0 min
Histogram: 8 4 4 0 10 6 8 8 24 32

Total # of neighbors = 8238191
Ave neighs/atom = 28.530433
Neighbor list builds = 0
Dangerous builds = 0
The dot product: 1.12499104388198e-06
The cos of the angle between the force vector and the displacement vector: 0.0284615875133212
The angle: 88.3690509117148
Setting atom values ...
  1 settings made for x
  1 settings made for y
  1 settings made for z
Setting up cg style minimization ...
  Unit style    : metal
  Current step  : 2245
Per MPI rank memory allocation (min/avg/max) = 5.441 | 5.816 | 6.074 Mbytes
Step PotEng KinEng TotEng v_fx v_fy v_fz 
    2245   -1152449.2            0   -1152449.2 -0.00048434916 -0.074423509  0.010450245 
    2433   -1152449.2            0   -1152449.2 -4.8226284e-06 1.1667447e-05 -2.207611e-05 
Loop time of 2.17886 on 104 procs for 188 steps with 288751 atoms

99.9% CPU use with 104 MPI tasks x 1 OpenMP threads

Minimization stats:
  Stopping criterion = energy tolerance
  Energy initial, next-to-last, final = 
     -1152449.21534552  -1152449.21843975  -1152449.21843975
  Force two-norm initial, final = 0.2545329 9.0886451e-05
  Force max component initial, final = 0.14505234 2.2076110e-05
  Final line search alpha, max atom move = 1.0000000 2.2076110e-05
  Iterations, force evaluations = 188 376

MPI task timing breakdown:
Section |  min time  |  avg time  |  max time  |%varavg| %total
---------------------------------------------------------------
Pair    | 0.57101    | 1.5743     | 2.0607     |  33.8 | 72.25
Neigh   | 0          | 0          | 0          |   0.0 |  0.00
Comm    | 0.034886   | 0.35132    | 1.0592     |  50.1 | 16.12
Output  | 0          | 0          | 0          |   0.0 |  0.00
Modify  | 2.2206e-05 | 0.0030931  | 0.0065914  |   2.6 |  0.14
Other   |            | 0.2502     |            |       | 11.48

Nlocal:        2776.45 ave        3960 max           0 min
Histogram: 8 4 4 0 4 12 8 6 24 34
Nghost:        3879.07 ave        5425 max         232 min
Histogram: 8 0 8 0 16 0 8 8 16 40
Neighs:        79213.4 ave      115432 max           0 min
Histogram: 8 4 4 0 10 6 8 8 24 32

Total # of neighbors = 8238189
Ave neighs/atom = 28.530426
Neighbor list builds = 0
Dangerous builds = 0
The dot product: -5.90885330387906e-07
The cos of the angle between the force vector and the displacement vector: -0.0232347376055123
The angle: 91.3313722121056
Setting atom values ...
  1 settings made for x
  1 settings made for y
  1 settings made for z
Setting up cg style minimization ...
  Unit style    : metal
  Current step  : 2433
Per MPI rank memory allocation (min/avg/max) = 5.441 | 5.816 | 6.074 Mbytes
Step PotEng KinEng TotEng v_fx v_fy v_fz 
    2433   -1152449.2            0   -1152449.2 -0.0037922625 -0.079933011 0.0097170403 
    2567   -1152449.2            0   -1152449.2 -1.1175864e-05 1.3224205e-05 -5.2745057e-05 
Loop time of 1.56836 on 104 procs for 134 steps with 288751 atoms

99.9% CPU use with 104 MPI tasks x 1 OpenMP threads

Minimization stats:
  Stopping criterion = energy tolerance
  Energy initial, next-to-last, final = 
     -1152449.17467813  -1152449.17795126  -1152449.17795126
  Force two-norm initial, final = 0.26110162 0.00017497522
  Force max component initial, final = 0.15268918 5.2745057e-05
  Final line search alpha, max atom move = 1.0000000 5.2745057e-05
  Iterations, force evaluations = 134 268

MPI task timing breakdown:
Section |  min time  |  avg time  |  max time  |%varavg| %total
---------------------------------------------------------------
Pair    | 0.40818    | 1.1287     | 1.4841     |  28.6 | 71.97
Neigh   | 0          | 0          | 0          |   0.0 |  0.00
Comm    | 0.02435    | 0.25225    | 0.75213    |  41.9 | 16.08
Output  | 0          | 0          | 0          |   0.0 |  0.00
Modify  | 1.5949e-05 | 0.0022098  | 0.0046964  |   2.2 |  0.14
Other   |            | 0.1852     |            |       | 11.81

Nlocal:        2776.45 ave        3960 max           0 min
Histogram: 8 4 4 0 4 12 8 6 24 34
Nghost:        3879.05 ave        5425 max         232 min
Histogram: 8 0 8 0 16 0 8 8 16 40
Neighs:        79213.4 ave      115433 max           0 min
Histogram: 8 4 4 0 10 6 8 8 24 32

Total # of neighbors = 8238190
Ave neighs/atom = 28.530429
Neighbor list builds = 0
Dangerous builds = 0
The dot product: -9.10771496380002e-07
The cos of the angle between the force vector and the displacement vector: -0.0164061151076682
The angle: 90.9400433275312
Setting atom values ...
  1 settings made for x
  1 settings made for y
  1 settings made for z
Setting up cg style minimization ...
  Unit style    : metal
  Current step  : 2567
Per MPI rank memory allocation (min/avg/max) = 5.441 | 5.816 | 6.074 Mbytes
Step PotEng KinEng TotEng v_fx v_fy v_fz 
    2567   -1152449.1            0   -1152449.1 -0.0065978615 -0.081995391  0.012378166 
    2724   -1152449.1            0   -1152449.1 -3.4676211e-07 -5.0955245e-05 2.4547348e-05 
Loop time of 1.85697 on 104 procs for 157 steps with 288751 atoms

99.9% CPU use with 104 MPI tasks x 1 OpenMP threads

Minimization stats:
  Stopping criterion = energy tolerance
  Energy initial, next-to-last, final = 
     -1152449.13080599  -1152449.13426502  -1152449.13426502
  Force two-norm initial, final = 0.26736787 0.0002051122
  Force max component initial, final = 0.16117246 5.0955245e-05
  Final line search alpha, max atom move = 1.0000000 5.0955245e-05
  Iterations, force evaluations = 157 314

MPI task timing breakdown:
Section |  min time  |  avg time  |  max time  |%varavg| %total
---------------------------------------------------------------
Pair    | 0.47891    | 1.32       | 1.7302     |  31.0 | 71.08
Neigh   | 0          | 0          | 0          |   0.0 |  0.00
Comm    | 0.028353   | 0.29971    | 0.89706    |  45.0 | 16.14
Output  | 0          | 0          | 0          |   0.0 |  0.00
Modify  | 1.8444e-05 | 0.0025952  | 0.0055111  |   2.4 |  0.14
Other   |            | 0.2347     |            |       | 12.64

Nlocal:        2776.45 ave        3959 max           0 min
Histogram: 8 4 4 0 4 12 8 6 24 34
Nghost:        3879.01 ave        5425 max         232 min
Histogram: 8 0 8 0 16 0 8 8 16 40
Neighs:        79213.3 ave      115401 max           0 min
Histogram: 8 4 4 0 10 6 8 8 24 32

Total # of neighbors = 8238186
Ave neighs/atom = 28.530415
Neighbor list builds = 0
Dangerous builds = 0
The dot product: 2.17443373861743e-06
The cos of the angle between the force vector and the displacement vector: 0.0384441505245307
The angle: 87.7967694887932
Setting atom values ...
  1 settings made for x
  1 settings made for y
  1 settings made for z
Setting up cg style minimization ...
  Unit style    : metal
  Current step  : 2724
Per MPI rank memory allocation (min/avg/max) = 5.441 | 5.816 | 6.074 Mbytes
Step PotEng KinEng TotEng v_fx v_fy v_fz 
    2724   -1152449.1            0   -1152449.1 -0.0053052922 -0.074461251  0.028794997 
    2867   -1152449.1            0   -1152449.1 -6.5937516e-06 -1.057944e-05 -2.3228142e-05 
Loop time of 1.68032 on 104 procs for 143 steps with 288751 atoms

99.9% CPU use with 104 MPI tasks x 1 OpenMP threads

Minimization stats:
  Stopping criterion = energy tolerance
  Energy initial, next-to-last, final = 
     -1152449.08330802  -1152449.08696504  -1152449.08696504
  Force two-norm initial, final = 0.2722106 0.000172194
  Force max component initial, final = 0.17022532 2.4287460e-05
  Final line search alpha, max atom move = 1.0000000 2.4287460e-05
  Iterations, force evaluations = 143 286

MPI task timing breakdown:
Section |  min time  |  avg time  |  max time  |%varavg| %total
---------------------------------------------------------------
Pair    | 0.43709    | 1.2071     | 1.5849     |  29.6 | 71.84
Neigh   | 0          | 0          | 0          |   0.0 |  0.00
Comm    | 0.028488   | 0.27131    | 0.80534    |  43.0 | 16.15
Output  | 0          | 0          | 0          |   0.0 |  0.00
Modify  | 1.7422e-05 | 0.0023567  | 0.0050099  |   2.3 |  0.14
Other   |            | 0.1996     |            |       | 11.88

Nlocal:        2776.45 ave        3959 max           0 min
Histogram: 8 4 4 0 4 12 8 6 24 34
Nghost:        3878.99 ave        5425 max         232 min
Histogram: 8 0 8 0 16 0 8 8 16 40
Neighs:        79213.3 ave      115401 max           0 min
Histogram: 8 4 4 0 10 6 8 8 24 32

Total # of neighbors = 8238184
Ave neighs/atom = 28.530409
Neighbor list builds = 0
Dangerous builds = 0
The dot product: 7.13049422069403e-08
The cos of the angle between the force vector and the displacement vector: 0.00270485045825663
The angle: 89.8450232955538
Setting atom values ...
  1 settings made for x
  1 settings made for y
  1 settings made for z
Setting up cg style minimization ...
  Unit style    : metal
  Current step  : 2867
Per MPI rank memory allocation (min/avg/max) = 5.441 | 5.816 | 6.074 Mbytes
Step PotEng KinEng TotEng v_fx v_fy v_fz 
    2867     -1152449            0     -1152449 -0.0049672575 -0.067555288  0.039636003 
    3000     -1152449            0     -1152449 -2.9037178e-06 -1.6974996e-05 1.6856314e-06 
    3010     -1152449            0     -1152449 -7.2789829e-06 -2.1389493e-06 -3.4336778e-05 
Loop time of 1.67002 on 104 procs for 143 steps with 288751 atoms

99.9% CPU use with 104 MPI tasks x 1 OpenMP threads

Minimization stats:
  Stopping criterion = energy tolerance
  Energy initial, next-to-last, final = 
     -1152449.03187777  -1152449.03577087  -1152449.03577087
  Force two-norm initial, final = 0.27805119 0.0001082915
  Force max component initial, final = 0.17959686 3.4336778e-05
  Final line search alpha, max atom move = 1.0000000 3.4336778e-05
  Iterations, force evaluations = 143 286

MPI task timing breakdown:
Section |  min time  |  avg time  |  max time  |%varavg| %total
---------------------------------------------------------------
Pair    | 0.4361     | 1.1996     | 1.5701     |  29.5 | 71.83
Neigh   | 0          | 0          | 0          |   0.0 |  0.00
Comm    | 0.026908   | 0.26985    | 0.81561    |  43.3 | 16.16
Output  | 0.00013522 | 0.000145   | 0.00029629 |   0.0 |  0.01
Modify  | 1.7658e-05 | 0.0023621  | 0.005019   |   2.3 |  0.14
Other   |            | 0.198      |            |       | 11.86

Nlocal:        2776.45 ave        3957 max           0 min
Histogram: 8 4 4 0 4 12 8 6 24 34
Nghost:        3878.93 ave        5425 max         232 min
Histogram: 8 0 8 0 16 0 8 8 16 40
Neighs:        79213.3 ave      115325 max           0 min
Histogram: 8 4 4 0 10 6 8 8 24 32

Total # of neighbors = 8238183
Ave neighs/atom = 28.530405
Neighbor list builds = 0
Dangerous builds = 0
The dot product: -5.44853087047879e-07
The cos of the angle between the force vector and the displacement vector: -0.0154942133714782
The angle: 90.8877885574729
Setting atom values ...
  1 settings made for x
  1 settings made for y
  1 settings made for z
Setting up cg style minimization ...
  Unit style    : metal
  Current step  : 3010
Per MPI rank memory allocation (min/avg/max) = 5.441 | 5.816 | 6.074 Mbytes
Step PotEng KinEng TotEng v_fx v_fy v_fz 
    3010     -1152449            0     -1152449 -0.0083165898 -0.076307591  0.051096712 
    3155     -1152449            0     -1152449 -4.1841643e-06 -4.2750255e-06 -1.7667725e-05 
Loop time of 1.70238 on 104 procs for 145 steps with 288751 atoms

99.9% CPU use with 104 MPI tasks x 1 OpenMP threads

Minimization stats:
  Stopping criterion = energy tolerance
  Energy initial, next-to-last, final = 
     -1152448.97671918   -1152448.9813293   -1152448.9813293
  Force two-norm initial, final = 0.2883532 0.00012288666
  Force max component initial, final = 0.19016704 3.1181697e-05
  Final line search alpha, max atom move = 1.0000000 3.1181697e-05
  Iterations, force evaluations = 145 290

MPI task timing breakdown:
Section |  min time  |  avg time  |  max time  |%varavg| %total
---------------------------------------------------------------
Pair    | 0.45678    | 1.2287     | 1.5874     |  29.3 | 72.17
Neigh   | 0          | 0          | 0          |   0.0 |  0.00
Comm    | 0.030888   | 0.27365    | 0.82873    |  44.2 | 16.07
Output  | 0          | 0          | 0          |   0.0 |  0.00
Modify  | 1.7012e-05 | 0.0023933  | 0.0051036  |   2.3 |  0.14
Other   |            | 0.1977     |            |       | 11.61

Nlocal:        2776.45 ave        3955 max           0 min
Histogram: 8 4 4 0 4 12 8 0 30 34
Nghost:        3878.85 ave        5425 max         232 min
Histogram: 8 0 8 0 16 0 8 8 16 40
Neighs:        79213.3 ave      115266 max           0 min
Histogram: 8 4 4 0 10 6 8 8 24 32

Total # of neighbors = 8238183
Ave neighs/atom = 28.530405
Neighbor list builds = 0
Dangerous builds = 0
The dot product: -2.33177221445784e-07
The cos of the angle between the force vector and the displacement vector: -0.0125008401478463
The angle: 90.7162640368824
Setting atom values ...
  1 settings made for x
  1 settings made for y
  1 settings made for z
Setting up cg style minimization ...
  Unit style    : metal
  Current step  : 3155
Per MPI rank memory allocation (min/avg/max) = 5.441 | 5.816 | 6.074 Mbytes
Step PotEng KinEng TotEng v_fx v_fy v_fz 
    3155   -1152448.9            0   -1152448.9 -0.018505785  -0.10755928  0.078638524 
    3353   -1152448.9            0   -1152448.9 6.6456286e-07 1.0238877e-06 2.4214821e-06 
Loop time of 2.30295 on 104 procs for 198 steps with 288751 atoms

99.9% CPU use with 104 MPI tasks x 1 OpenMP threads

Minimization stats:
  Stopping criterion = energy tolerance
  Energy initial, next-to-last, final = 
     -1152448.91891369  -1152448.92514861  -1152448.92514861
  Force two-norm initial, final = 0.31153501 0.00012275658
  Force max component initial, final = 0.20438942 1.4873572e-05
  Final line search alpha, max atom move = 1.0000000 1.4873572e-05
  Iterations, force evaluations = 198 396

MPI task timing breakdown:
Section |  min time  |  avg time  |  max time  |%varavg| %total
---------------------------------------------------------------
Pair    | 0.60046    | 1.6623     | 2.1756     |  34.9 | 72.18
Neigh   | 0          | 0          | 0          |   0.0 |  0.00
Comm    | 0.034278   | 0.37432    | 1.1224     |  51.4 | 16.25
Output  | 0          | 0          | 0          |   0.0 |  0.00
Modify  | 2.3562e-05 | 0.0032559  | 0.0069568  |   2.7 |  0.14
Other   |            | 0.263      |            |       | 11.42

Nlocal:        2776.45 ave        3952 max           0 min
Histogram: 8 4 4 0 4 12 8 0 30 34
Nghost:        3878.75 ave        5426 max         232 min
Histogram: 8 0 8 0 16 0 8 8 16 40
Neighs:        79213.3 ave      115186 max           0 min
Histogram: 8 4 4 0 10 6 8 8 24 32

Total # of neighbors = 8238183
Ave neighs/atom = 28.530405
Neighbor list builds = 0
Dangerous builds = 0
The dot product: 3.87082462643547e-08
The cos of the angle between the force vector and the displacement vector: 0.0142742899460968
The angle: 89.1821156542203
Setting atom values ...
  1 settings made for x
  1 settings made for y
  1 settings made for z
Setting up cg style minimization ...
  Unit style    : metal
  Current step  : 3353
Per MPI rank memory allocation (min/avg/max) = 5.441 | 5.816 | 6.074 Mbytes
Step PotEng KinEng TotEng v_fx v_fy v_fz 
    3353   -1152448.9            0   -1152448.9 -0.036026649  -0.14294627   0.13758144 
    3619   -1152448.9            0   -1152448.9 -1.8792242e-06 -5.2330225e-06 -1.9048199e-07 
Loop time of 3.08891 on 104 procs for 266 steps with 288751 atoms

99.9% CPU use with 104 MPI tasks x 1 OpenMP threads

Minimization stats:
  Stopping criterion = energy tolerance
  Energy initial, next-to-last, final = 
     -1152448.86146082   -1152448.9314088   -1152448.9314088
  Force two-norm initial, final = 0.35930893 5.3901605e-05
  Force max component initial, final = 0.22255694 1.4399000e-05
  Final line search alpha, max atom move = 1.0000000 1.4399000e-05
  Iterations, force evaluations = 266 532

MPI task timing breakdown:
Section |  min time  |  avg time  |  max time  |%varavg| %total
---------------------------------------------------------------
Pair    | 0.81574    | 2.2442     | 2.9087     |  40.0 | 72.65
Neigh   | 2.0379e-05 | 0.0059078  | 0.0084515  |   3.2 |  0.19
Comm    | 0.04753    | 0.49801    | 1.4941     |  59.9 | 16.12
Output  | 0          | 0          | 0          |   0.0 |  0.00
Modify  | 3.105e-05  | 0.0043888  | 0.0093277  |   3.1 |  0.14
Other   |            | 0.3364     |            |       | 10.89

Nlocal:        2776.45 ave        3947 max           0 min
Histogram: 8 4 4 0 4 12 8 0 26 38
Nghost:        3878.75 ave        5425 max         232 min
Histogram: 8 0 8 0 16 0 8 8 16 40
Neighs:        79213.3 ave      115019 max           0 min
Histogram: 8 4 4 0 10 6 8 8 24 32

Total # of neighbors = 8238180
Ave neighs/atom = 28.530395
Neighbor list builds = 2
Dangerous builds = 0
The dot product: 6.65889248871422e-07
The cos of the angle between the force vector and the displacement vector: 0.11968937476635
The angle: 83.1258241397213
Setting atom values ...
  1 settings made for x
  1 settings made for y
  1 settings made for z
Setting up cg style minimization ...
  Unit style    : metal
  Current step  : 3619
Per MPI rank memory allocation (min/avg/max) = 5.441 | 5.816 | 6.074 Mbytes
Step PotEng KinEng TotEng v_fx v_fy v_fz 
    3619   -1152448.9            0   -1152448.9 -0.078807521  -0.13219767   0.20496196 
    3844   -1152448.9            0   -1152448.9 -2.1565445e-06 -3.8734934e-06 3.4389288e-06 
Loop time of 2.6124 on 104 procs for 225 steps with 288751 atoms

99.9% CPU use with 104 MPI tasks x 1 OpenMP threads

Minimization stats:
  Stopping criterion = energy tolerance
  Energy initial, next-to-last, final = 
      -1152448.8938179  -1152448.90546145  -1152448.90546145
  Force two-norm initial, final = 0.41733595 7.4550995e-05
  Force max component initial, final = 0.25616114 4.1994637e-06
  Final line search alpha, max atom move = 1.0000000 4.1994637e-06
  Iterations, force evaluations = 225 450

MPI task timing breakdown:
Section |  min time  |  avg time  |  max time  |%varavg| %total
---------------------------------------------------------------
Pair    | 0.68589    | 1.8923     | 2.4681     |  37.1 | 72.44
Neigh   | 0          | 0          | 0          |   0.0 |  0.00
Comm    | 0.039413   | 0.42272    | 1.2818     |  55.3 | 16.18
Output  | 0          | 0          | 0          |   0.0 |  0.00
Modify  | 2.6065e-05 | 0.0037073  | 0.0079003  |   2.9 |  0.14
Other   |            | 0.2937     |            |       | 11.24

Nlocal:        2776.45 ave        3953 max           0 min
Histogram: 8 4 4 0 4 12 8 0 30 34
Nghost:        3879.05 ave        5425 max         232 min
Histogram: 8 0 8 0 16 0 8 8 16 40
Neighs:        79213.3 ave      115190 max           0 min
Histogram: 8 4 4 0 10 6 8 8 24 32

Total # of neighbors = 8238183
Ave neighs/atom = 28.530405
Neighbor list builds = 0
Dangerous builds = 0
The dot product: 4.69164228764959e-07
The cos of the angle between the force vector and the displacement vector: 0.0836183424512138
The angle: 85.2034211392368
Setting atom values ...
  1 settings made for x
  1 settings made for y
  1 settings made for z
Setting up cg style minimization ...
  Unit style    : metal
  Current step  : 3844
Per MPI rank memory allocation (min/avg/max) = 5.441 | 5.816 | 6.074 Mbytes
Step PotEng KinEng TotEng v_fx v_fy v_fz 
    3844   -1152448.9            0   -1152448.9 -0.040373915 -0.048268791  0.091031516 
    4000   -1152448.9            0   -1152448.9 6.4581508e-05 0.00013049184 7.3834019e-05 
    4044   -1152448.9            0   -1152448.9 1.0911493e-06 4.5006577e-06 1.0703412e-05 
Loop time of 2.333 on 104 procs for 200 steps with 288751 atoms

99.9% CPU use with 104 MPI tasks x 1 OpenMP threads

Minimization stats:
  Stopping criterion = energy tolerance
  Energy initial, next-to-last, final = 
     -1152448.86878538  -1152448.87376063  -1152448.87376063
  Force two-norm initial, final = 0.34951726 0.00018122599
  Force max component initial, final = 0.26611507 5.4794323e-05
  Final line search alpha, max atom move = 1.0000000 5.4794323e-05
  Iterations, force evaluations = 200 400

MPI task timing breakdown:
Section |  min time  |  avg time  |  max time  |%varavg| %total
---------------------------------------------------------------
Pair    | 0.6086     | 1.6808     | 2.1911     |  34.8 | 72.04
Neigh   | 0          | 0          | 0          |   0.0 |  0.00
Comm    | 0.038317   | 0.37425    | 1.1227     |  51.4 | 16.04
Output  | 0.0001445  | 0.00015636 | 0.00032244 |   0.0 |  0.01
Modify  | 2.3278e-05 | 0.0032965  | 0.0070181  |   2.7 |  0.14
Other   |            | 0.2745     |            |       | 11.77

Nlocal:        2776.45 ave        3951 max           0 min
Histogram: 8 4 4 0 4 12 8 0 30 34
Nghost:        3879.03 ave        5427 max         232 min
Histogram: 8 0 8 0 16 0 8 8 16 40
Neighs:        79213.3 ave      115135 max           0 min
Histogram: 8 4 4 0 10 6 8 8 24 32

Total # of neighbors = 8238184
Ave neighs/atom = 28.530409
Neighbor list builds = 0
Dangerous builds = 0
The dot product: 1.63219381808157e-07
The cos of the angle between the force vector and the displacement vector: 0.0139954547073245
The angle: 89.19809333284
Setting atom values ...
  1 settings made for x
  1 settings made for y
  1 settings made for z
Setting up cg style minimization ...
  Unit style    : metal
  Current step  : 4044
Per MPI rank memory allocation (min/avg/max) = 5.441 | 5.816 | 6.074 Mbytes
Step PotEng KinEng TotEng v_fx v_fy v_fz 
    4044   -1152448.8            0   -1152448.8 -0.017301233 -0.018048715  0.039042669 
    4331   -1152448.8            0   -1152448.8 -3.7526844e-08 -2.5751131e-07 -6.9569684e-07 
Loop time of 3.33777 on 104 procs for 287 steps with 288751 atoms

99.9% CPU use with 104 MPI tasks x 1 OpenMP threads

Minimization stats:
  Stopping criterion = energy tolerance
  Energy initial, next-to-last, final = 
      -1152448.8324867  -1152448.83704861  -1152448.83704861
  Force two-norm initial, final = 0.34431827 3.8427681e-06
  Force max component initial, final = 0.27181972 9.9244336e-07
  Final line search alpha, max atom move = 1.0000000 9.9244336e-07
  Iterations, force evaluations = 287 574

MPI task timing breakdown:
Section |  min time  |  avg time  |  max time  |%varavg| %total
---------------------------------------------------------------
Pair    | 0.87073    | 2.4015     | 3.134      |  41.7 | 71.95
Neigh   | 0          | 0          | 0          |   0.0 |  0.00
Comm    | 0.050658   | 0.53705    | 1.619      |  61.7 | 16.09
Output  | 0          | 0          | 0          |   0.0 |  0.00
Modify  | 3.3647e-05 | 0.0047286  | 0.0101     |   3.3 |  0.14
Other   |            | 0.3945     |            |       | 11.82

Nlocal:        2776.45 ave        3945 max           0 min
Histogram: 8 4 4 0 4 12 8 0 28 36
Nghost:        3878.99 ave        5424 max         232 min
Histogram: 8 0 8 0 16 0 8 8 16 40
Neighs:        79213.3 ave      114964 max           0 min
Histogram: 8 4 4 0 10 6 8 8 24 32

Total # of neighbors = 8238179
Ave neighs/atom = 28.530391
Neighbor list builds = 0
Dangerous builds = 0
The dot product: -3.65440418139753e-09
The cos of the angle between the force vector and the displacement vector: -0.00491993550839957
The angle: 90.2818926773537
Setting atom values ...
  1 settings made for x
  1 settings made for y
  1 settings made for z
Setting up cg style minimization ...
  Unit style    : metal
  Current step  : 4331
Per MPI rank memory allocation (min/avg/max) = 5.441 | 5.816 | 6.074 Mbytes
Step PotEng KinEng TotEng v_fx v_fy v_fz 
    4331   -1152448.8            0   -1152448.8 -0.0083809305 -0.0080485393  0.020077974 
    4545   -1152448.8            0   -1152448.8 7.2533162e-07 1.6354374e-06 1.4884649e-06 
Loop time of 2.50287 on 104 procs for 214 steps with 288751 atoms

99.9% CPU use with 104 MPI tasks x 1 OpenMP threads

Minimization stats:
  Stopping criterion = energy tolerance
  Energy initial, next-to-last, final = 
     -1152448.79042637  -1152448.79525531  -1152448.79525531
  Force two-norm initial, final = 0.35232929 9.7941690e-05
  Force max component initial, final = 0.27696449 2.9231039e-05
  Final line search alpha, max atom move = 1.0000000 2.9231039e-05
  Iterations, force evaluations = 214 428

MPI task timing breakdown:
Section |  min time  |  avg time  |  max time  |%varavg| %total
---------------------------------------------------------------
Pair    | 0.65038    | 1.8012     | 2.3545     |  36.2 | 71.97
Neigh   | 0          | 0          | 0          |   0.0 |  0.00
Comm    | 0.036796   | 0.40231    | 1.2174     |  53.3 | 16.07
Output  | 0          | 0          | 0          |   0.0 |  0.00
Modify  | 2.5913e-05 | 0.003523   | 0.0075153  |   2.8 |  0.14
Other   |            | 0.2958     |            |       | 11.82

Nlocal:        2776.45 ave        3934 max           0 min
Histogram: 8 4 4 0 4 12 8 0 28 36
Nghost:        3878.99 ave        5424 max         232 min
Histogram: 8 0 8 0 16 0 8 8 16 40
Neighs:        79213.2 ave      114615 max           0 min
Histogram: 8 4 4 0 8 8 8 8 20 36

Total # of neighbors = 8238176
Ave neighs/atom = 28.530381
Neighbor list builds = 0
Dangerous builds = 0
The dot product: 1.6848417569077e-09
The cos of the angle between the force vector and the displacement vector: 0.000723949376454067
The angle: 89.9585207525251
Setting atom values ...
  1 settings made for x
  1 settings made for y
  1 settings made for z
Setting up cg style minimization ...
  Unit style    : metal
  Current step  : 4545
Per MPI rank memory allocation (min/avg/max) = 5.441 | 5.816 | 6.074 Mbytes
Step PotEng KinEng TotEng v_fx v_fy v_fz 
    4545   -1152448.7            0   -1152448.7 -0.0054375323 -0.0052080967  0.012923047 
    4744   -1152448.7            0   -1152448.7 -5.6278369e-06 -8.7095216e-06 2.0807693e-06 
Loop time of 2.31944 on 104 procs for 199 steps with 288751 atoms

99.9% CPU use with 104 MPI tasks x 1 OpenMP threads

Minimization stats:
  Stopping criterion = energy tolerance
  Energy initial, next-to-last, final = 
     -1152448.74311175   -1152448.7481659   -1152448.7481659
  Force two-norm initial, final = 0.36011419 0.00013798908
  Force max component initial, final = 0.28223462 4.9293942e-05
  Final line search alpha, max atom move = 1.0000000 4.9293942e-05
  Iterations, force evaluations = 199 398

MPI task timing breakdown:
Section |  min time  |  avg time  |  max time  |%varavg| %total
---------------------------------------------------------------
Pair    | 0.60341    | 1.6685     | 2.1763     |  34.8 | 71.94
Neigh   | 0          | 0          | 0          |   0.0 |  0.00
Comm    | 0.03402    | 0.37635    | 1.1307     |  51.0 | 16.23
Output  | 0          | 0          | 0          |   0.0 |  0.00
Modify  | 2.3292e-05 | 0.0032839  | 0.0069743  |   2.7 |  0.14
Other   |            | 0.2713     |            |       | 11.70

Nlocal:        2776.45 ave        3931 max           0 min
Histogram: 8 4 4 0 4 12 8 0 26 38
Nghost:        3879.03 ave        5425 max         232 min
Histogram: 8 0 8 0 16 0 8 8 16 40
Neighs:        79213.2 ave      114502 max           0 min
Histogram: 8 4 4 0 8 8 8 8 20 36

Total # of neighbors = 8238169
Ave neighs/atom = 28.530357
Neighbor list builds = 0
Dangerous builds = 0
The dot product: -1.01186181902664e-08
The cos of the angle between the force vector and the displacement vector: -0.000956726598682124
The angle: 90.0548164046148
Setting atom values ...
  1 settings made for x
  1 settings made for y
  1 settings made for z
Setting up cg style minimization ...
  Unit style    : metal
  Current step  : 4744
Per MPI rank memory allocation (min/avg/max) = 5.441 | 5.816 | 6.074 Mbytes
Step PotEng KinEng TotEng v_fx v_fy v_fz 
    4744   -1152448.7            0   -1152448.7 -0.0048951213 -0.0049822197   0.01070116 
    4942   -1152448.7            0   -1152448.7 -1.8816602e-06 -1.5803129e-06 5.2538364e-06 
Loop time of 2.32452 on 104 procs for 198 steps with 288751 atoms

99.9% CPU use with 104 MPI tasks x 1 OpenMP threads

Minimization stats:
  Stopping criterion = energy tolerance
  Energy initial, next-to-last, final = 
     -1152448.69048211  -1152448.69565174  -1152448.69565174
  Force two-norm initial, final = 0.36571024 0.00014424171
  Force max component initial, final = 0.28750536 5.1138279e-05
  Final line search alpha, max atom move = 1.0000000 5.1138279e-05
  Iterations, force evaluations = 198 396

MPI task timing breakdown:
Section |  min time  |  avg time  |  max time  |%varavg| %total
---------------------------------------------------------------
Pair    | 0.60612    | 1.6767     | 2.1912     |  34.9 | 72.13
Neigh   | 0          | 0          | 0          |   0.0 |  0.00
Comm    | 0.0381     | 0.37609    | 1.1224     |  51.0 | 16.18
Output  | 0          | 0          | 0          |   0.0 |  0.00
Modify  | 2.3275e-05 | 0.0032641  | 0.0069402  |   2.7 |  0.14
Other   |            | 0.2685     |            |       | 11.55

Nlocal:        2776.45 ave        3930 max           0 min
Histogram: 8 4 4 0 4 12 8 0 26 38
Nghost:        3879.12 ave        5425 max         232 min
Histogram: 8 0 8 0 16 0 8 8 16 40
Neighs:        79213.1 ave      114481 max           0 min
Histogram: 8 4 4 0 8 8 8 8 20 36

Total # of neighbors = 8238166
Ave neighs/atom = 28.530346
Neighbor list builds = 0
Dangerous builds = 0
The dot product: -8.27890998423866e-09
The cos of the angle between the force vector and the displacement vector: -0.00142738064730549
The angle: 90.0817829146204
Setting atom values ...
  1 settings made for x
  1 settings made for y
  1 settings made for z
Setting up cg style minimization ...
  Unit style    : metal
  Current step  : 4942
Per MPI rank memory allocation (min/avg/max) = 5.441 | 5.816 | 6.074 Mbytes
Step PotEng KinEng TotEng v_fx v_fy v_fz 
    4942   -1152448.6            0   -1152448.6 -0.0054619966 -0.0058641145  0.011040413 
    5000   -1152448.6            0   -1152448.6 -6.4617747e-06 1.9015072e-05 0.00010191804 
    5128   -1152448.6            0   -1152448.6 -2.7930243e-07 4.116724e-06 1.5686135e-05 
Loop time of 2.16012 on 104 procs for 186 steps with 288751 atoms

99.9% CPU use with 104 MPI tasks x 1 OpenMP threads

Minimization stats:
  Stopping criterion = energy tolerance
  Energy initial, next-to-last, final = 
     -1152448.63249875  -1152448.63769884  -1152448.63769884
  Force two-norm initial, final = 0.36988432 0.00026315397
  Force max component initial, final = 0.29309218 0.00010244479
  Final line search alpha, max atom move = 1.0000000 0.00010244479
  Iterations, force evaluations = 186 372

MPI task timing breakdown:
Section |  min time  |  avg time  |  max time  |%varavg| %total
---------------------------------------------------------------
Pair    | 0.56401    | 1.5594     | 2.0368     |  33.7 | 72.19
Neigh   | 0          | 0          | 0          |   0.0 |  0.00
Comm    | 0.035135   | 0.35114    | 1.0623     |  49.6 | 16.26
Output  | 9.9104e-05 | 0.00010142 | 0.00024037 |   0.0 |  0.00
Modify  | 2.216e-05  | 0.0030668  | 0.0065055  |   2.6 |  0.14
Other   |            | 0.2464     |            |       | 11.41

Nlocal:        2776.45 ave        3930 max           0 min
Histogram: 8 4 4 0 4 12 8 0 26 38
Nghost:        3879.06 ave        5425 max         232 min
Histogram: 8 0 8 0 16 0 8 8 16 40
Neighs:        79213.1 ave      114481 max           0 min
Histogram: 8 4 4 0 8 8 8 8 20 36

Total # of neighbors = 8238163
Ave neighs/atom = 28.530336
Neighbor list builds = 0
Dangerous builds = 0
The dot product: -1.80818943355051e-08
The cos of the angle between the force vector and the displacement vector: -0.00111480727739961
The angle: 90.0638737651959
Setting atom values ...
  1 settings made for x
  1 settings made for y
  1 settings made for z
Setting up cg style minimization ...
  Unit style    : metal
  Current step  : 5128
Per MPI rank memory allocation (min/avg/max) = 5.441 | 5.816 | 6.074 Mbytes
Step PotEng KinEng TotEng v_fx v_fy v_fz 
    5128   -1152448.6            0   -1152448.6 -0.0067141787 -0.0074467588  0.012940034 
    5430   -1152448.6            0   -1152448.6 -4.3553864e-08 -4.0695701e-08 1.1019396e-07 
Loop time of 3.49115 on 104 procs for 302 steps with 288751 atoms

99.9% CPU use with 104 MPI tasks x 1 OpenMP threads

Minimization stats:
  Stopping criterion = energy tolerance
  Energy initial, next-to-last, final = 
     -1152448.56921321  -1152448.57438035  -1152448.57438035
  Force two-norm initial, final = 0.37334361 3.3106830e-06
  Force max component initial, final = 0.29875112 1.2281706e-06
  Final line search alpha, max atom move = 1.0000000 1.2281706e-06
  Iterations, force evaluations = 302 604

MPI task timing breakdown:
Section |  min time  |  avg time  |  max time  |%varavg| %total
---------------------------------------------------------------
Pair    | 0.91675    | 2.5409     | 3.2952     |  42.8 | 72.78
Neigh   | 0          | 0          | 0          |   0.0 |  0.00
Comm    | 0.055529   | 0.565      | 1.6985     |  63.6 | 16.18
Output  | 0          | 0          | 0          |   0.0 |  0.00
Modify  | 3.4865e-05 | 0.0049707  | 0.010551   |   3.3 |  0.14
Other   |            | 0.3803     |            |       | 10.89

Nlocal:        2776.45 ave        3930 max           0 min
Histogram: 8 4 4 0 4 12 8 0 26 38
Nghost:        3879.03 ave        5425 max         232 min
Histogram: 8 0 8 0 16 0 8 8 16 40
Neighs:        79213.1 ave      114484 max           0 min
Histogram: 8 4 4 0 8 8 8 8 20 36

Total # of neighbors = 8238160
Ave neighs/atom = 28.530325
Neighbor list builds = 0
Dangerous builds = 0
The dot product: -1.90184200408415e-10
The cos of the angle between the force vector and the displacement vector: -0.00151803878922452
The angle: 90.0869772491654
Setting up cg style minimization ...
  Unit style    : metal
  Current step  : 5430
Per MPI rank memory allocation (min/avg/max) = 5.441 | 5.816 | 6.074 Mbytes
Step PotEng KinEng TotEng v_fx v_fy v_fz 
    5430   -1152448.6            0   -1152448.6   -1.8651517    1.1183487  -0.32417895 
    5687   -1152449.5            0   -1152449.5 6.7720457e-06 1.7125995e-05 -2.3727969e-05 
Loop time of 2.96333 on 104 procs for 257 steps with 288751 atoms

99.9% CPU use with 104 MPI tasks x 1 OpenMP threads

Minimization stats:
  Stopping criterion = energy tolerance
  Energy initial, next-to-last, final = 
     -1152448.57438035  -1152449.45035267  -1152449.45035267
  Force two-norm initial, final = 2.1987693 0.00022411609
  Force max component initial, final = 1.8651517 3.8656447e-05
  Final line search alpha, max atom move = 1.0000000 3.8656447e-05
  Iterations, force evaluations = 257 508

MPI task timing breakdown:
Section |  min time  |  avg time  |  max time  |%varavg| %total
---------------------------------------------------------------
Pair    | 0.78643    | 2.138      | 2.7761     |  39.1 | 72.15
Neigh   | 3.9947e-05 | 0.011839   | 0.017088   |   4.5 |  0.40
Comm    | 0.049499   | 0.47837    | 1.4426     |  58.6 | 16.14
Output  | 0          | 0          | 0          |   0.0 |  0.00
Modify  | 2.7868e-05 | 0.0027277  | 0.0069895  |   3.3 |  0.09
Other   |            | 0.3324     |            |       | 11.22

Nlocal:        2776.45 ave        3932 max           0 min
Histogram: 8 4 4 0 4 12 8 0 26 38
Nghost:        3878.92 ave        5425 max         232 min
Histogram: 8 0 8 0 16 0 8 8 16 40
Neighs:        79213.2 ave      114537 max           0 min
Histogram: 8 4 4 0 8 8 8 8 20 36

Total # of neighbors = 8238168
Ave neighs/atom = 28.530353
Neighbor list builds = 4
Dangerous builds = 0
OMP_NUM_THREADS environment is not set. Defaulting to 1 thread. (../comm.cpp:94)
  using 1 OpenMP thread(s) per MPI task
Reading data file ...
  orthogonal box = (-122.39241 -121.13707 -37.090501) to (122.39241 121.13707 37.090501)
  13 by 4 by 2 MPI processor grid
  reading atoms ...
  288751 atoms
  read_data CPU = 0.344 seconds
199981 atoms in group inner
88770 atoms in group outer
1 atoms in group carbon
Neighbor list info ...
  update every 1 steps, delay 0 steps, check yes
  max neighbors/atom: 2000, page size: 100000
  master list distance cutoff = 5.6
  ghost atom cutoff = 5.6
  binsize = 2.8, bins = 88 87 27
  1 neighbor lists, perpetual/occasional/extra = 1 0 0
  (1) pair eam/alloy, perpetual
      attributes: half, newton on
      pair build: half/bin/atomonly/newton
      stencil: half/bin/3d/newton
      bin: standard
Setting up cg style minimization ...
  Unit style    : metal
  Current step  : 0
Per MPI rank memory allocation (min/avg/max) = 5.441 | 5.816 | 6.074 Mbytes
Step v_fx v_fy v_fz PotEng KinEng TotEng 
       0  -0.21668104   0.63176302   0.55215146   -1152447.8            0   -1152447.8 
     181 1.2194419e-07 -5.290912e-07 -9.6844093e-06   -1152449.5            0   -1152449.5 
Loop time of 2.12291 on 104 procs for 181 steps with 288751 atoms

99.9% CPU use with 104 MPI tasks x 1 OpenMP threads

Minimization stats:
  Stopping criterion = energy tolerance
  Energy initial, next-to-last, final = 
     -1152447.84212065  -1152449.45035272  -1152449.45035272
  Force two-norm initial, final = 9.8291019 3.6858949e-05
  Force max component initial, final = 4.6406364 9.6844093e-06
  Final line search alpha, max atom move = 1.0000000 9.6844093e-06
  Iterations, force evaluations = 181 361

MPI task timing breakdown:
Section |  min time  |  avg time  |  max time  |%varavg| %total
---------------------------------------------------------------
Pair    | 0.55906    | 1.525      | 1.998      |  33.2 | 71.84
Neigh   | 2.0253e-05 | 0.0059167  | 0.0086049  |   3.2 |  0.28
Comm    | 0.031103   | 0.34943    | 1.044      |  48.9 | 16.46
Output  | 0          | 0          | 0          |   0.0 |  0.00
Modify  | 2.1456e-05 | 0.0019332  | 0.0049877  |   2.8 |  0.09
Other   |            | 0.2406     |            |       | 11.33

Nlocal:        2776.45 ave        3960 max           0 min
Histogram: 8 4 4 0 4 12 8 2 28 34
Nghost:        3879.01 ave        5424 max         232 min
Histogram: 8 0 8 0 16 0 8 8 16 40
Neighs:        79213.7 ave      115433 max           0 min
Histogram: 8 4 4 0 10 6 8 8 24 32

Total # of neighbors = 8238223
Ave neighs/atom = 28.530544
Neighbor list builds = 2
Dangerous builds = 0
Setting atom values ...
  1 settings made for x
  1 settings made for y
  1 settings made for z
Setting up cg style minimization ...
  Unit style    : metal
  Current step  : 181
Per MPI rank memory allocation (min/avg/max) = 5.441 | 5.816 | 6.074 Mbytes
Step PotEng KinEng TotEng v_fx v_fy v_fz 
     181   -1152449.4            0   -1152449.4  0.041073953  0.014446738 -0.022864158 
     365   -1152449.4            0   -1152449.4 -1.6594023e-05 -1.2813661e-05 -1.1792072e-05 
Loop time of 2.15453 on 104 procs for 184 steps with 288751 atoms

99.9% CPU use with 104 MPI tasks x 1 OpenMP threads

Minimization stats:
  Stopping criterion = energy tolerance
  Energy initial, next-to-last, final = 
     -1152449.44390579  -1152449.44784661  -1152449.44784661
  Force two-norm initial, final = 0.28162053 0.00016078546
  Force max component initial, final = 0.13847576 1.6594023e-05
  Final line search alpha, max atom move = 1.0000000 1.6594023e-05
  Iterations, force evaluations = 184 368

MPI task timing breakdown:
Section |  min time  |  avg time  |  max time  |%varavg| %total
---------------------------------------------------------------
Pair    | 0.56937    | 1.5503     | 2.0193     |  33.3 | 71.95
Neigh   | 0          | 0          | 0          |   0.0 |  0.00
Comm    | 0.035001   | 0.34861    | 1.0455     |  49.2 | 16.18
Output  | 0          | 0          | 0          |   0.0 |  0.00
Modify  | 2.3269e-05 | 0.0030317  | 0.0064994  |   2.6 |  0.14
Other   |            | 0.2526     |            |       | 11.72

Nlocal:        2776.45 ave        3960 max           0 min
Histogram: 8 4 4 0 4 12 8 2 28 34
Nghost:        3879.01 ave        5425 max         232 min
Histogram: 8 0 8 0 16 0 8 8 16 40
Neighs:        79213.4 ave      115424 max           0 min
Histogram: 8 4 4 0 10 6 8 8 24 32

Total # of neighbors = 8238197
Ave neighs/atom = 28.530454
Neighbor list builds = 0
Dangerous builds = 0
Setting atom values ...
  1 settings made for x
  1 settings made for y
  1 settings made for z
Setting up cg style minimization ...
  Unit style    : metal
  Current step  : 365
Per MPI rank memory allocation (min/avg/max) = 5.441 | 5.816 | 6.074 Mbytes
Step PotEng KinEng TotEng v_fx v_fy v_fz 
     365   -1152449.4            0   -1152449.4  0.040867569  0.015796227 -0.026360589 
     568   -1152449.4            0   -1152449.4 -7.1342041e-07 4.4642551e-08 1.4749311e-06 
Loop time of 2.36704 on 104 procs for 203 steps with 288751 atoms

99.9% CPU use with 104 MPI tasks x 1 OpenMP threads

Minimization stats:
  Stopping criterion = energy tolerance
  Energy initial, next-to-last, final = 
      -1152449.4384999  -1152449.44154564  -1152449.44154564
  Force two-norm initial, final = 0.24715946 8.4642138e-05
  Force max component initial, final = 0.13011684 1.8723793e-06
  Final line search alpha, max atom move = 1.0000000 1.8723793e-06
  Iterations, force evaluations = 203 406

MPI task timing breakdown:
Section |  min time  |  avg time  |  max time  |%varavg| %total
---------------------------------------------------------------
Pair    | 0.61665    | 1.7103     | 2.2362     |  35.4 | 72.26
Neigh   | 0          | 0          | 0          |   0.0 |  0.00
Comm    | 0.034431   | 0.38564    | 1.1577     |  52.0 | 16.29
Output  | 0          | 0          | 0          |   0.0 |  0.00
Modify  | 2.5874e-05 | 0.0033414  | 0.007148   |   2.7 |  0.14
Other   |            | 0.2677     |            |       | 11.31

Nlocal:        2776.45 ave        3959 max           0 min
Histogram: 8 4 4 0 4 12 8 2 28 34
Nghost:        3879.01 ave        5424 max         232 min
Histogram: 8 0 8 0 16 0 8 8 16 40
Neighs:        79213.4 ave      115390 max           0 min
Histogram: 8 4 4 0 10 6 8 8 24 32

Total # of neighbors = 8238195
Ave neighs/atom = 28.530447
Neighbor list builds = 0
Dangerous builds = 0
The dot product: -6.8617018114104e-08
The cos of the angle between the force vector and the displacement vector: -0.0418646874767659
The angle: 92.3993711285359
Setting atom values ...
  1 settings made for x
  1 settings made for y
  1 settings made for z
Setting up cg style minimization ...
  Unit style    : metal
  Current step  : 568
Per MPI rank memory allocation (min/avg/max) = 5.441 | 5.816 | 6.074 Mbytes
Step PotEng KinEng TotEng v_fx v_fy v_fz 
     568   -1152449.4            0   -1152449.4  0.044188124  0.018451882 -0.035783744 
     766   -1152449.4            0   -1152449.4  7.77495e-06 -2.3017874e-06 -2.5566058e-05 
Loop time of 2.3077 on 104 procs for 198 steps with 288751 atoms

99.9% CPU use with 104 MPI tasks x 1 OpenMP threads

Minimization stats:
  Stopping criterion = energy tolerance
  Energy initial, next-to-last, final = 
     -1152449.42853386   -1152449.4315908   -1152449.4315908
  Force two-norm initial, final = 0.24634539 7.9254037e-05
  Force max component initial, final = 0.13899783 2.5566058e-05
  Final line search alpha, max atom move = 1.0000000 2.5566058e-05
  Iterations, force evaluations = 198 396

MPI task timing breakdown:
Section |  min time  |  avg time  |  max time  |%varavg| %total
---------------------------------------------------------------
Pair    | 0.60529    | 1.6619     | 2.1742     |  34.7 | 72.01
Neigh   | 0          | 0          | 0          |   0.0 |  0.00
Comm    | 0.034761   | 0.37276    | 1.1203     |  50.9 | 16.15
Output  | 0          | 0          | 0          |   0.0 |  0.00
Modify  | 2.5039e-05 | 0.0032595  | 0.0069906  |   2.7 |  0.14
Other   |            | 0.2698     |            |       | 11.69

Nlocal:        2776.45 ave        3958 max           0 min
Histogram: 8 4 4 0 4 12 8 2 28 34
Nghost:        3879.01 ave        5424 max         232 min
Histogram: 8 0 8 0 16 0 8 8 16 40
Neighs:        79213.4 ave      115355 max           0 min
Histogram: 8 4 4 0 10 6 8 8 24 32

Total # of neighbors = 8238196
Ave neighs/atom = 28.530450
Neighbor list builds = 0
Dangerous builds = 0
The dot product: 1.38285083861722e-06
The cos of the angle between the force vector and the displacement vector: 0.051558319129562
The angle: 87.0446155640538
Setting atom values ...
  1 settings made for x
  1 settings made for y
  1 settings made for z
Setting up cg style minimization ...
  Unit style    : metal
  Current step  : 766
Per MPI rank memory allocation (min/avg/max) = 5.441 | 5.816 | 6.074 Mbytes
Step PotEng KinEng TotEng v_fx v_fy v_fz 
     766   -1152449.4            0   -1152449.4  0.042482117  0.019802545  -0.04406119 
     920   -1152449.4            0   -1152449.4 -6.9400603e-08 -1.5434692e-06 -6.23371e-06 
Loop time of 1.78957 on 104 procs for 154 steps with 288751 atoms

99.9% CPU use with 104 MPI tasks x 1 OpenMP threads

Minimization stats:
  Stopping criterion = energy tolerance
  Energy initial, next-to-last, final = 
      -1152449.4151444  -1152449.41819405  -1152449.41819405
  Force two-norm initial, final = 0.24430005 4.7337437e-05
  Force max component initial, final = 0.14837555 6.2337100e-06
  Final line search alpha, max atom move = 1.0000000 6.2337100e-06
  Iterations, force evaluations = 154 308

MPI task timing breakdown:
Section |  min time  |  avg time  |  max time  |%varavg| %total
---------------------------------------------------------------
Pair    | 0.4696     | 1.2949     | 1.6882     |  30.7 | 72.36
Neigh   | 0          | 0          | 0          |   0.0 |  0.00
Comm    | 0.028056   | 0.28943    | 0.86732    |  45.2 | 16.17
Output  | 0          | 0          | 0          |   0.0 |  0.00
Modify  | 1.9437e-05 | 0.0025343  | 0.0054226  |   2.4 |  0.14
Other   |            | 0.2027     |            |       | 11.33

Nlocal:        2776.45 ave        3954 max           0 min
Histogram: 8 4 4 0 4 12 8 0 30 34
Nghost:        3879.01 ave        5424 max         232 min
Histogram: 8 0 8 0 16 0 8 8 16 40
Neighs:        79213.4 ave      115225 max           0 min
Histogram: 8 4 4 0 10 6 8 8 24 32

Total # of neighbors = 8238196
Ave neighs/atom = 28.530450
Neighbor list builds = 0
Dangerous builds = 0
The dot product: 2.73344654538546e-07
The cos of the angle between the force vector and the displacement vector: 0.0425616374794391
The angle: 87.5606609506471
Setting atom values ...
  1 settings made for x
  1 settings made for y
  1 settings made for z
Setting up cg style minimization ...
  Unit style    : metal
  Current step  : 920
Per MPI rank memory allocation (min/avg/max) = 5.441 | 5.816 | 6.074 Mbytes
Step PotEng KinEng TotEng v_fx v_fy v_fz 
     920   -1152449.4            0   -1152449.4  0.034617996  0.018114893 -0.047617485 
    1000   -1152449.4            0   -1152449.4 -0.00017951564 -0.00016848256 -0.00016059898 
    1076   -1152449.4            0   -1152449.4 9.5868106e-06 6.7963333e-06 -3.4572709e-06 
Loop time of 1.81343 on 104 procs for 156 steps with 288751 atoms

99.9% CPU use with 104 MPI tasks x 1 OpenMP threads

Minimization stats:
  Stopping criterion = energy tolerance
  Energy initial, next-to-last, final = 
     -1152449.39875864   -1152449.4017106   -1152449.4017106
  Force two-norm initial, final = 0.24129678 9.4371105e-05
  Force max component initial, final = 0.15727946 1.0983326e-05
  Final line search alpha, max atom move = 1.0000000 1.0983326e-05
  Iterations, force evaluations = 156 312

MPI task timing breakdown:
Section |  min time  |  avg time  |  max time  |%varavg| %total
---------------------------------------------------------------
Pair    | 0.47684    | 1.3106     | 1.7123     |  30.9 | 72.27
Neigh   | 0          | 0          | 0          |   0.0 |  0.00
Comm    | 0.027571   | 0.29412    | 0.8876     |  45.4 | 16.22
Output  | 9.4051e-05 | 0.00010108 | 0.00024342 |   0.0 |  0.01
Modify  | 2.063e-05  | 0.0025738  | 0.0055045  |   2.4 |  0.14
Other   |            | 0.206      |            |       | 11.36

Nlocal:        2776.45 ave        3952 max           0 min
Histogram: 8 4 4 0 4 12 8 0 30 34
Nghost:        3879.01 ave        5424 max         232 min
Histogram: 8 0 8 0 16 0 8 8 16 40
Neighs:        79213.4 ave      115163 max           0 min
Histogram: 8 4 4 0 10 6 8 8 24 32

Total # of neighbors = 8238192
Ave neighs/atom = 28.530436
Neighbor list builds = 0
Dangerous builds = 0
The dot product: 4.59464537968191e-07
The cos of the angle between the force vector and the displacement vector: 0.0375088958961519
The angle: 87.8503943169871
Setting atom values ...
  1 settings made for x
  1 settings made for y
  1 settings made for z
Setting up cg style minimization ...
  Unit style    : metal
  Current step  : 1076
Per MPI rank memory allocation (min/avg/max) = 5.441 | 5.816 | 6.074 Mbytes
Step PotEng KinEng TotEng v_fx v_fy v_fz 
    1076   -1152449.4            0   -1152449.4  0.027813373  0.016774751 -0.046637022 
    1253   -1152449.4            0   -1152449.4 -1.5332709e-05 -1.4518312e-05 -1.5583341e-05 
Loop time of 2.09135 on 104 procs for 177 steps with 288751 atoms

99.9% CPU use with 104 MPI tasks x 1 OpenMP threads

Minimization stats:
  Stopping criterion = energy tolerance
  Energy initial, next-to-last, final = 
      -1152449.3797138  -1152449.38256238  -1152449.38256238
  Force two-norm initial, final = 0.23965749 0.00013187406
  Force max component initial, final = 0.16489756 1.8303605e-05
  Final line search alpha, max atom move = 1.0000000 1.8303605e-05
  Iterations, force evaluations = 177 354

MPI task timing breakdown:
Section |  min time  |  avg time  |  max time  |%varavg| %total
---------------------------------------------------------------
Pair    | 0.53939    | 1.4945     | 1.9557     |  33.1 | 71.46
Neigh   | 0          | 0          | 0          |   0.0 |  0.00
Comm    | 0.046735   | 0.34203    | 1.0091     |  48.0 | 16.35
Output  | 0          | 0          | 0          |   0.0 |  0.00
Modify  | 2.1899e-05 | 0.0029156  | 0.0062354  |   2.6 |  0.14
Other   |            | 0.2519     |            |       | 12.04

Nlocal:        2776.45 ave        3951 max           0 min
Histogram: 8 4 4 0 4 12 8 0 30 34
Nghost:        3879.01 ave        5424 max         232 min
Histogram: 8 0 8 0 16 0 8 8 16 40
Neighs:        79213.4 ave      115131 max           0 min
Histogram: 8 4 4 0 10 6 8 8 24 32

Total # of neighbors = 8238191
Ave neighs/atom = 28.530433
Neighbor list builds = 0
Dangerous builds = 0
The dot product: 3.04725954282791e-07
The cos of the angle between the force vector and the displacement vector: 0.011611545543464
The angle: 89.3346924958189
Setting atom values ...
  1 settings made for x
  1 settings made for y
  1 settings made for z
Setting up cg style minimization ...
  Unit style    : metal
  Current step  : 1253
Per MPI rank memory allocation (min/avg/max) = 5.441 | 5.816 | 6.074 Mbytes
Step PotEng KinEng TotEng v_fx v_fy v_fz 
    1253   -1152449.4            0   -1152449.4  0.025231436  0.017759633 -0.044159305 
    1431   -1152449.4            0   -1152449.4 5.4582338e-06 2.4316533e-06 -2.753185e-05 
Loop time of 2.08909 on 104 procs for 178 steps with 288751 atoms

99.9% CPU use with 104 MPI tasks x 1 OpenMP threads

Minimization stats:
  Stopping criterion = energy tolerance
  Energy initial, next-to-last, final = 
     -1152449.35797784   -1152449.3607586   -1152449.3607586
  Force two-norm initial, final = 0.23914297 0.00012562149
  Force max component initial, final = 0.17139472 2.7531850e-05
  Final line search alpha, max atom move = 1.0000000 2.7531850e-05
  Iterations, force evaluations = 178 356

MPI task timing breakdown:
Section |  min time  |  avg time  |  max time  |%varavg| %total
---------------------------------------------------------------
Pair    | 0.54356    | 1.4946     | 1.9499     |  32.9 | 71.54
Neigh   | 0          | 0          | 0          |   0.0 |  0.00
Comm    | 0.032084   | 0.33556    | 1.0092     |  48.6 | 16.06
Output  | 0          | 0          | 0          |   0.0 |  0.00
Modify  | 2.2274e-05 | 0.0029298  | 0.0062967  |   2.6 |  0.14
Other   |            | 0.256      |            |       | 12.25

Nlocal:        2776.45 ave        3949 max           0 min
Histogram: 8 4 4 0 4 12 8 0 28 36
Nghost:        3879.01 ave        5424 max         232 min
Histogram: 8 0 8 0 16 0 8 8 16 40
Neighs:        79213.3 ave      115073 max           0 min
Histogram: 8 4 4 0 10 6 8 8 24 32

Total # of neighbors = 8238187
Ave neighs/atom = 28.530419
Neighbor list builds = 0
Dangerous builds = 0
The dot product: 9.88968341243352e-07
The cos of the angle between the force vector and the displacement vector: 0.0351036275219704
The angle: 87.988296994628
Setting atom values ...
  1 settings made for x
  1 settings made for y
  1 settings made for z
Setting up cg style minimization ...
  Unit style    : metal
  Current step  : 1431
Per MPI rank memory allocation (min/avg/max) = 5.441 | 5.816 | 6.074 Mbytes
Step PotEng KinEng TotEng v_fx v_fy v_fz 
    1431   -1152449.3            0   -1152449.3  0.026173115   0.02117088  -0.04130597 
    1622   -1152449.3            0   -1152449.3 -6.1963512e-06 -5.5926623e-06 -6.4880087e-06 
Loop time of 2.26782 on 104 procs for 191 steps with 288751 atoms

99.9% CPU use with 104 MPI tasks x 1 OpenMP threads

Minimization stats:
  Stopping criterion = energy tolerance
  Energy initial, next-to-last, final = 
     -1152449.33349195  -1152449.33624221  -1152449.33624221
  Force two-norm initial, final = 0.24020884 8.4600737e-05
  Force max component initial, final = 0.17758901 1.1573381e-05
  Final line search alpha, max atom move = 1.0000000 1.1573381e-05
  Iterations, force evaluations = 191 382

MPI task timing breakdown:
Section |  min time  |  avg time  |  max time  |%varavg| %total
---------------------------------------------------------------
Pair    | 0.58283    | 1.6168     | 2.1136     |  34.4 | 71.30
Neigh   | 0          | 0          | 0          |   0.0 |  0.00
Comm    | 0.036578   | 0.37422    | 1.1088     |  49.9 | 16.50
Output  | 0          | 0          | 0          |   0.0 |  0.00
Modify  | 2.3995e-05 | 0.0031481  | 0.006726   |   2.7 |  0.14
Other   |            | 0.2736     |            |       | 12.06

Nlocal:        2776.45 ave        3944 max           0 min
Histogram: 8 4 4 0 4 12 8 0 28 36
Nghost:        3879.01 ave        5424 max         232 min
Histogram: 8 0 8 0 16 0 8 8 16 40
Neighs:        79213.3 ave      114913 max           0 min
Histogram: 8 4 4 0 10 6 8 8 22 34

Total # of neighbors = 8238186
Ave neighs/atom = 28.530415
Neighbor list builds = 0
Dangerous builds = 0
The dot product: 3.42533563483927e-08
[...]
     -1152448.90384537  -1152448.95037282  -1152448.95037282
  Force two-norm initial, final = 0.31389853 0.00017181017
  Force max component initial, final = 0.20459821 4.6263973e-05
  Final line search alpha, max atom move = 1.0000000 4.6263973e-05
  Iterations, force evaluations = 253 505

MPI task timing breakdown:
Section |  min time  |  avg time  |  max time  |%varavg| %total
---------------------------------------------------------------
Pair    | 0.77516    | 2.1228     | 2.7567     |  39.2 | 72.35
Neigh   | 2.0307e-05 | 0.0059035  | 0.008519   |   3.2 |  0.20
Comm    | 0.045647   | 0.47463    | 1.4384     |  58.1 | 16.18
Output  | 0          | 0          | 0          |   0.0 |  0.00
Modify  | 3.0824e-05 | 0.0041543  | 0.0089468  |   3.0 |  0.14
Other   |            | 0.3267     |            |       | 11.13

Nlocal:        2776.45 ave        3954 max           0 min
Histogram: 8 4 4 0 4 12 8 0 30 34
Nghost:        3878.71 ave        5425 max         232 min
Histogram: 8 0 8 0 16 0 8 8 16 40
Neighs:        79213.3 ave      115227 max           0 min
Histogram: 8 4 4 0 10 6 8 8 24 32

Total # of neighbors = 8238179
Ave neighs/atom = 28.530391
Neighbor list builds = 2
Dangerous builds = 0
The dot product: 2.27364796448529e-06
The cos of the angle between the force vector and the displacement vector: 0.0889346106355111
The angle: 84.8976810062589
Setting atom values ...
  1 settings made for x
  1 settings made for y
  1 settings made for z
Setting up cg style minimization ...
  Unit style    : metal
  Current step  : 3794
Per MPI rank memory allocation (min/avg/max) = 5.441 | 5.816 | 6.074 Mbytes
Step PotEng KinEng TotEng v_fx v_fy v_fz 
    3794   -1152448.9            0   -1152448.9  -0.09352683  -0.18678074   0.18944356 
    4000   -1152448.9            0   -1152448.9 1.4746402e-05 3.5793103e-05 2.2162046e-05 
    4084   -1152448.9            0   -1152448.9 -5.2806014e-08 -2.1577968e-07 -7.9796124e-07 
Loop time of 3.40024 on 104 procs for 290 steps with 288751 atoms

99.9% CPU use with 104 MPI tasks x 1 OpenMP threads

Minimization stats:
  Stopping criterion = energy tolerance
  Energy initial, next-to-last, final = 
     -1152448.91272988  -1152448.92573263  -1152448.92573263
  Force two-norm initial, final = 0.42612149 4.6064036e-06
  Force max component initial, final = 0.24724355 1.2843097e-06
  Final line search alpha, max atom move = 1.0000000 1.2843097e-06
  Iterations, force evaluations = 290 580

MPI task timing breakdown:
Section |  min time  |  avg time  |  max time  |%varavg| %total
---------------------------------------------------------------
Pair    | 0.88646    | 2.4322     | 3.1753     |  41.9 | 71.53
Neigh   | 1.0168e-05 | 0.0029552  | 0.0042782  |   2.2 |  0.09
Comm    | 0.051208   | 0.5517     | 1.6412     |  61.0 | 16.23
Output  | 0.00010251 | 0.00011072 | 0.00028225 |   0.0 |  0.00
Modify  | 3.4202e-05 | 0.0047695  | 0.010241   |   3.3 |  0.14
Other   |            | 0.4085     |            |       | 12.01

Nlocal:        2776.45 ave        3957 max           0 min
Histogram: 8 4 4 0 4 12 8 6 24 34
Nghost:        3879.01 ave        5424 max         232 min
Histogram: 8 0 8 0 16 0 8 8 16 40
Neighs:        79213.3 ave      115315 max           0 min
Histogram: 8 4 4 0 10 6 8 8 24 32

Total # of neighbors = 8238188
Ave neighs/atom = 28.530422
Neighbor list builds = 1
Dangerous builds = 0
The dot product: -3.39170029187508e-08
The cos of the angle between the force vector and the displacement vector: -0.0409474117474419
The angle: 92.3467699880966
Setting atom values ...
  1 settings made for x
  1 settings made for y
  1 settings made for z
Setting up cg style minimization ...
  Unit style    : metal
  Current step  : 4084
Per MPI rank memory allocation (min/avg/max) = 5.441 | 5.816 | 6.074 Mbytes
Step PotEng KinEng TotEng v_fx v_fy v_fz 
    4084   -1152448.9            0   -1152448.9 -0.055101663 -0.077561777  0.096550682 
    4271   -1152448.9            0   -1152448.9 -2.1463121e-05 -3.7388452e-05 7.5364403e-06 
Loop time of 2.19551 on 104 procs for 187 steps with 288751 atoms

99.9% CPU use with 104 MPI tasks x 1 OpenMP threads

Minimization stats:
  Stopping criterion = energy tolerance
  Energy initial, next-to-last, final = 
     -1152448.89000417  -1152448.89621006  -1152448.89621006
  Force two-norm initial, final = 0.35917125 0.00021373193
  Force max component initial, final = 0.26083335 5.4288561e-05
  Final line search alpha, max atom move = 1.0000000 5.4288561e-05
  Iterations, force evaluations = 187 374

MPI task timing breakdown:
Section |  min time  |  avg time  |  max time  |%varavg| %total
---------------------------------------------------------------
Pair    | 0.56735    | 1.5724     | 2.0433     |  33.9 | 71.62
Neigh   | 0          | 0          | 0          |   0.0 |  0.00
Comm    | 0.033229   | 0.3576     | 1.0647     |  49.3 | 16.29
Output  | 0          | 0          | 0          |   0.0 |  0.00
Modify  | 2.2249e-05 | 0.0030863  | 0.0066763  |   2.6 |  0.14
Other   |            | 0.2624     |            |       | 11.95

Nlocal:        2776.45 ave        3953 max           0 min
Histogram: 8 4 4 0 4 12 8 0 30 34
Nghost:        3879.03 ave        5427 max         232 min
Histogram: 8 0 8 0 16 0 8 8 16 40
Neighs:        79213.3 ave      115204 max           0 min
Histogram: 8 4 4 0 10 6 8 8 24 32

Total # of neighbors = 8238183
Ave neighs/atom = 28.530405
Neighbor list builds = 0
Dangerous builds = 0
The dot product: 1.53137064856076e-06
The cos of the angle between the force vector and the displacement vector: 0.0349909010297805
The angle: 87.9947597172084
Setting atom values ...
  1 settings made for x
  1 settings made for y
  1 settings made for z
Setting up cg style minimization ...
  Unit style    : metal
  Current step  : 4271
Per MPI rank memory allocation (min/avg/max) = 5.441 | 5.816 | 6.074 Mbytes
Step PotEng KinEng TotEng v_fx v_fy v_fz 
    4271   -1152448.9            0   -1152448.9  -0.02449064 -0.028987955  0.045155891 
    4473   -1152448.9            0   -1152448.9 4.8350387e-06 9.9777688e-06 6.3391415e-06 
Loop time of 2.36504 on 104 procs for 202 steps with 288751 atoms

99.9% CPU use with 104 MPI tasks x 1 OpenMP threads

Minimization stats:
  Stopping criterion = energy tolerance
  Energy initial, next-to-last, final = 
     -1152448.85831563  -1152448.86268287  -1152448.86268287
  Force two-norm initial, final = 0.33852947 0.00013633482
  Force max component initial, final = 0.2677722 3.5118674e-05
  Final line search alpha, max atom move = 1.0000000 3.5118674e-05
  Iterations, force evaluations = 202 404

MPI task timing breakdown:
Section |  min time  |  avg time  |  max time  |%varavg| %total
---------------------------------------------------------------
Pair    | 0.6146     | 1.6981     | 2.2229     |  35.1 | 71.80
Neigh   | 0          | 0          | 0          |   0.0 |  0.00
Comm    | 0.034277   | 0.38883    | 1.1687     |  50.7 | 16.44
Output  | 0          | 0          | 0          |   0.0 |  0.00
Modify  | 2.3989e-05 | 0.0033191  | 0.007129   |   2.7 |  0.14
Other   |            | 0.2748     |            |       | 11.62

Nlocal:        2776.45 ave        3949 max           0 min
Histogram: 8 4 4 0 4 12 8 0 28 36
Nghost:        3879.05 ave        5424 max         232 min
Histogram: 8 0 8 0 16 0 8 8 16 40
Neighs:        79213.3 ave      115079 max           0 min
Histogram: 8 4 4 0 10 6 8 8 24 32

Total # of neighbors = 8238181
Ave neighs/atom = 28.530398
Neighbor list builds = 0
Dangerous builds = 0
The dot product: -4.80932153479755e-08
The cos of the angle between the force vector and the displacement vector: -0.00376558645660836
The angle: 90.2157527212399
Setting atom values ...
  1 settings made for x
  1 settings made for y
  1 settings made for z
Setting up cg style minimization ...
  Unit style    : metal
  Current step  : 4473
Per MPI rank memory allocation (min/avg/max) = 5.441 | 5.816 | 6.074 Mbytes
Step PotEng KinEng TotEng v_fx v_fy v_fz 
    4473   -1152448.8            0   -1152448.8 -0.011119626 -0.011792894  0.022958305 
    4683   -1152448.8            0   -1152448.8 -1.1950142e-06 -3.7827085e-06 -6.1656076e-06 
Loop time of 2.44788 on 104 procs for 210 steps with 288751 atoms

99.9% CPU use with 104 MPI tasks x 1 OpenMP threads

Minimization stats:
  Stopping criterion = energy tolerance
  Energy initial, next-to-last, final = 
     -1152448.81974087  -1152448.82435159  -1152448.82435159
  Force two-norm initial, final = 0.34563418 0.00011263224
  Force max component initial, final = 0.27332627 3.7854936e-05
  Final line search alpha, max atom move = 1.0000000 3.7854936e-05
  Iterations, force evaluations = 210 420

MPI task timing breakdown:
Section |  min time  |  avg time  |  max time  |%varavg| %total
---------------------------------------------------------------
Pair    | 0.63776    | 1.7639     | 2.2961     |  35.9 | 72.06
Neigh   | 0          | 0          | 0          |   0.0 |  0.00
Comm    | 0.038409   | 0.3937     | 1.1919     |  52.6 | 16.08
Output  | 0          | 0          | 0          |   0.0 |  0.00
Modify  | 2.4914e-05 | 0.0034587  | 0.0073761  |   2.8 |  0.14
Other   |            | 0.2868     |            |       | 11.72

Nlocal:        2776.45 ave        3944 max           0 min
Histogram: 8 4 4 0 4 12 8 0 28 36
Nghost:        3878.99 ave        5424 max         232 min
Histogram: 8 0 8 0 16 0 8 8 16 40
Neighs:        79213.2 ave      114921 max           0 min
Histogram: 8 4 4 0 10 6 8 8 22 34

Total # of neighbors = 8238177
Ave neighs/atom = 28.530384
Neighbor list builds = 0
Dangerous builds = 0
The dot product: -6.46554988191358e-09
The cos of the angle between the force vector and the displacement vector: -0.000881880069533204
The angle: 90.0505280125705
Setting atom values ...
  1 settings made for x
  1 settings made for y
  1 settings made for z
Setting up cg style minimization ...
  Unit style    : metal
  Current step  : 4683
Per MPI rank memory allocation (min/avg/max) = 5.441 | 5.816 | 6.074 Mbytes
Step PotEng KinEng TotEng v_fx v_fy v_fz 
    4683   -1152448.8            0   -1152448.8 -0.0062141132 -0.0061210903  0.014117982 
    4898   -1152448.8            0   -1152448.8 5.4364797e-06 6.2262459e-06 -9.3964726e-06 
Loop time of 2.47693 on 104 procs for 215 steps with 288751 atoms

99.9% CPU use with 104 MPI tasks x 1 OpenMP threads

Minimization stats:
  Stopping criterion = energy tolerance
  Energy initial, next-to-last, final = 
     -1152448.77598262  -1152448.78089418  -1152448.78089418
  Force two-norm initial, final = 0.35482488 9.5800105e-05
  Force max component initial, final = 0.27860051 3.0487113e-05
  Final line search alpha, max atom move = 1.0000000 3.0487113e-05
  Iterations, force evaluations = 215 430

MPI task timing breakdown:
Section |  min time  |  avg time  |  max time  |%varavg| %total
---------------------------------------------------------------
Pair    | 0.65145    | 1.8013     | 2.3307     |  36.2 | 72.72
Neigh   | 0          | 0          | 0          |   0.0 |  0.00
Comm    | 0.03711    | 0.40382    | 1.2254     |  53.3 | 16.30
Output  | 0          | 0          | 0          |   0.0 |  0.00
Modify  | 2.564e-05  | 0.0035331  | 0.0076164  |   2.8 |  0.14
Other   |            | 0.2683     |            |       | 10.83

Nlocal:        2776.45 ave        3932 max           0 min
Histogram: 8 4 4 0 4 12 8 0 26 38
Nghost:        3879.03 ave        5425 max         232 min
Histogram: 8 0 8 0 16 0 8 8 16 40
Neighs:        79213.2 ave      114543 max           0 min
Histogram: 8 4 4 0 8 8 8 8 20 36

Total # of neighbors = 8238175
Ave neighs/atom = 28.530377
Neighbor list builds = 0
Dangerous builds = 0
The dot product: 4.33825603765842e-09
The cos of the angle between the force vector and the displacement vector: 0.000346655663669339
The angle: 89.9801380931294
Setting atom values ...
  1 settings made for x
  1 settings made for y
  1 settings made for z
Setting up cg style minimization ...
  Unit style    : metal
  Current step  : 4898
Per MPI rank memory allocation (min/avg/max) = 5.441 | 5.816 | 6.074 Mbytes
Step PotEng KinEng TotEng v_fx v_fy v_fz 
    4898   -1152448.7            0   -1152448.7 -0.0047936017 -0.0047717057  0.010745965 
    5000   -1152448.7            0   -1152448.7 2.194944e-05 3.1817548e-05 -1.5407423e-05 
    5108   -1152448.7            0   -1152448.7 -2.7206772e-06 -3.8368701e-06 2.2724884e-06 
Loop time of 2.44754 on 104 procs for 210 steps with 288751 atoms

99.9% CPU use with 104 MPI tasks x 1 OpenMP threads

Minimization stats:
  Stopping criterion = energy tolerance
  Energy initial, next-to-last, final = 
     -1152448.72698847  -1152448.73209072  -1152448.73209072
  Force two-norm initial, final = 0.36201365 0.0001103332
  Force max component initial, final = 0.28383308 3.4977967e-05
  Final line search alpha, max atom move = 1.0000000 3.4977967e-05
  Iterations, force evaluations = 210 420

MPI task timing breakdown:
Section |  min time  |  avg time  |  max time  |%varavg| %total
---------------------------------------------------------------
Pair    | 0.63646    | 1.7629     | 2.2893     |  35.9 | 72.03
Neigh   | 0          | 0          | 0          |   0.0 |  0.00
Comm    | 0.038742   | 0.39778    | 1.1898     |  52.3 | 16.25
Output  | 0.00016042 | 0.00017431 | 0.0003312  |   0.0 |  0.01
Modify  | 2.5225e-05 | 0.0034651  | 0.0074251  |   2.8 |  0.14
Other   |            | 0.2833     |            |       | 11.57

Nlocal:        2776.45 ave        3930 max           0 min
Histogram: 8 4 4 0 4 12 8 0 26 38
Nghost:        3879.01 ave        5425 max         232 min
Histogram: 8 0 8 0 16 0 8 8 16 40
Neighs:        79213.1 ave      114481 max           0 min
Histogram: 8 4 4 0 8 8 8 8 20 36

Total # of neighbors = 8238167
Ave neighs/atom = 28.530350
Neighbor list builds = 0
Dangerous builds = 0
The dot product: -7.42352289501399e-09
The cos of the angle between the force vector and the displacement vector: -0.00142110220511118
The angle: 90.081423186016
Setting atom values ...
  1 settings made for x
  1 settings made for y
  1 settings made for z
Setting up cg style minimization ...
  Unit style    : metal
  Current step  : 5108
Per MPI rank memory allocation (min/avg/max) = 5.441 | 5.816 | 6.074 Mbytes
Step PotEng KinEng TotEng v_fx v_fy v_fz 
    5108   -1152448.7            0   -1152448.7 -0.0048743804 -0.0051114016  0.010163456 
    5271   -1152448.7            0   -1152448.7 2.4975661e-06 6.1707533e-06 6.888186e-06 
Loop time of 1.89057 on 104 procs for 163 steps with 288751 atoms

99.9% CPU use with 104 MPI tasks x 1 OpenMP threads

Minimization stats:
  Stopping criterion = energy tolerance
  Energy initial, next-to-last, final = 
     -1152448.67265897  -1152448.67784666  -1152448.67784666
  Force two-norm initial, final = 0.36717492 0.00030565619
  Force max component initial, final = 0.28930693 0.00011366247
  Final line search alpha, max atom move = 1.0000000 0.00011366247
  Iterations, force evaluations = 163 326

MPI task timing breakdown:
Section |  min time  |  avg time  |  max time  |%varavg| %total
---------------------------------------------------------------
Pair    | 0.49296    | 1.3683     | 1.7769     |  31.5 | 72.38
Neigh   | 0          | 0          | 0          |   0.0 |  0.00
Comm    | 0.030356   | 0.30546    | 0.9235     |  46.2 | 16.16
Output  | 0          | 0          | 0          |   0.0 |  0.00
Modify  | 1.9604e-05 | 0.0026852  | 0.0057737  |   2.5 |  0.14
Other   |            | 0.2141     |            |       | 11.32

Nlocal:        2776.45 ave        3930 max           0 min
Histogram: 8 4 4 0 4 12 8 0 26 38
Nghost:        3879.09 ave        5425 max         232 min
Histogram: 8 0 8 0 16 0 8 8 16 40
Neighs:        79213.1 ave      114481 max           0 min
Histogram: 8 4 4 0 8 8 8 8 20 36

Total # of neighbors = 8238165
Ave neighs/atom = 28.530343
Neighbor list builds = 0
Dangerous builds = 0
The dot product: -1.82240021322961e-09
The cos of the angle between the force vector and the displacement vector: -0.00019024341104343
The angle: 90.0109001445988
Setting atom values ...
  1 settings made for x
  1 settings made for y
  1 settings made for z
Setting up cg style minimization ...
  Unit style    : metal
  Current step  : 5271
Per MPI rank memory allocation (min/avg/max) = 5.441 | 5.816 | 6.074 Mbytes
Step PotEng KinEng TotEng v_fx v_fy v_fz 
    5271   -1152448.6            0   -1152448.6 -0.0057356618 -0.0062794695  0.011222701 
    5490   -1152448.6            0   -1152448.6 1.6588025e-06 3.5514696e-06 2.7069612e-06 
Loop time of 2.52237 on 104 procs for 219 steps with 288751 atoms

99.9% CPU use with 104 MPI tasks x 1 OpenMP threads

Minimization stats:
  Stopping criterion = energy tolerance
  Energy initial, next-to-last, final = 
     -1152448.61298573  -1152448.61818022  -1152448.61818022
  Force two-norm initial, final = 0.37084563 9.2918018e-05
  Force max component initial, final = 0.29468143 3.3955948e-05
  Final line search alpha, max atom move = 1.0000000 3.3955948e-05
  Iterations, force evaluations = 219 438

MPI task timing breakdown:
Section |  min time  |  avg time  |  max time  |%varavg| %total
---------------------------------------------------------------
Pair    | 0.6618     | 1.8368     | 2.3801     |  36.7 | 72.82
Neigh   | 0          | 0          | 0          |   0.0 |  0.00
Comm    | 0.038743   | 0.40892    | 1.2476     |  54.5 | 16.21
Output  | 0          | 0          | 0          |   0.0 |  0.00
Modify  | 2.625e-05  | 0.0036036  | 0.0077229  |   2.8 |  0.14
Other   |            | 0.273      |            |       | 10.82

Nlocal:        2776.45 ave        3930 max           0 min
Histogram: 8 4 4 0 4 12 8 0 26 38
Nghost:        3879.05 ave        5425 max         232 min
Histogram: 8 0 8 0 16 0 8 8 16 40
Neighs:        79213.1 ave      114481 max           0 min
Histogram: 8 4 4 0 8 8 8 8 20 36

Total # of neighbors = 8238163
Ave neighs/atom = 28.530336
Neighbor list builds = 0
Dangerous builds = 0
The dot product: -2.89776603354955e-10
The cos of the angle between the force vector and the displacement vector: -6.08310075382968e-05
The angle: 90.0034853599975
Setting up cg style minimization ...
  Unit style    : metal
  Current step  : 5490
Per MPI rank memory allocation (min/avg/max) = 5.441 | 5.816 | 6.074 Mbytes
Step PotEng KinEng TotEng v_fx v_fy v_fz 
    5490   -1152448.6            0   -1152448.6    -1.762131    1.0581894  -0.30849263 
    5794   -1152449.5            0   -1152449.5 -9.8778307e-07 -1.3950325e-06 5.8179194e-07 
Loop time of 3.49516 on 104 procs for 304 steps with 288751 atoms

99.9% CPU use with 104 MPI tasks x 1 OpenMP threads

Minimization stats:
  Stopping criterion = energy tolerance
  Energy initial, next-to-last, final = 
     -1152448.61818022  -1152449.45035272  -1152449.45035272
  Force two-norm initial, final = 2.0784701 3.4438156e-05
  Force max component initial, final = 1.7621310 2.8466841e-06
  Final line search alpha, max atom move = 1.0000000 2.8466841e-06
  Iterations, force evaluations = 304 603

MPI task timing breakdown:
Section |  min time  |  avg time  |  max time  |%varavg| %total
---------------------------------------------------------------
Pair    | 0.93242    | 2.5299     | 3.2734     |  42.4 | 72.38
Neigh   | 4.9883e-05 | 0.014822   | 0.021434   |   5.0 |  0.42
Comm    | 0.052437   | 0.56771    | 1.7361     |  63.1 | 16.24
Output  | 0          | 0          | 0          |   0.0 |  0.00
Modify  | 3.3497e-05 | 0.0032271  | 0.0083863  |   3.6 |  0.09
Other   |            | 0.3795     |            |       | 10.86

Nlocal:        2776.45 ave        3932 max           0 min
Histogram: 8 4 4 0 4 12 8 0 26 38
Nghost:        3878.97 ave        5425 max         232 min
Histogram: 8 0 8 0 16 0 8 8 16 40
Neighs:        79213.2 ave      114540 max           0 min
Histogram: 8 4 4 0 8 8 8 8 20 36

Total # of neighbors = 8238178
Ave neighs/atom = 28.530388
Neighbor list builds = 5
Dangerous builds = 0
