LAMMPS (29 Oct 2020)
OMP_NUM_THREADS environment is not set. Defaulting to 1 thread. (../comm.cpp:94)
  using 1 OpenMP thread(s) per MPI task
OMP_NUM_THREADS environment is not set. Defaulting to 1 thread. (../comm.cpp:94)
  using 1 OpenMP thread(s) per MPI task
Reading data file ...
  orthogonal box = (-122.39241 -121.13707 -37.090501) to (122.39241 121.13707 37.090501)
  13 by 4 by 2 MPI processor grid
  reading atoms ...
  288751 atoms
  read_data CPU = 0.371 seconds
199981 atoms in group inner
88770 atoms in group outer
1 atoms in group carbon
Neighbor list info ...
  update every 1 steps, delay 0 steps, check yes
  max neighbors/atom: 2000, page size: 100000
  master list distance cutoff = 5.6
  ghost atom cutoff = 5.6
  binsize = 2.8, bins = 88 87 27
  1 neighbor lists, perpetual/occasional/extra = 1 0 0
  (1) pair eam/alloy, perpetual
      attributes: half, newton on
      pair build: half/bin/atomonly/newton
      stencil: half/bin/3d/newton
      bin: standard
Setting up cg style minimization ...
  Unit style    : metal
  Current step  : 0
Per MPI rank memory allocation (min/avg/max) = 5.441 | 5.816 | 6.074 Mbytes
Step v_fx v_fy v_fz PotEng KinEng TotEng 
       0   0.36887447  -0.48872896   -0.5300004   -1152447.8            0   -1152447.8 
     160 -3.8050146e-05 2.3950851e-06 2.0495992e-05   -1152449.5            0   -1152449.5 
Loop time of 1.89031 on 104 procs for 160 steps with 288751 atoms

99.8% CPU use with 104 MPI tasks x 1 OpenMP threads

Minimization stats:
  Stopping criterion = energy tolerance
  Energy initial, next-to-last, final = 
     -1152447.84525598  -1152449.45035286  -1152449.45035286
  Force two-norm initial, final = 9.8051299 0.00012207436
  Force max component initial, final = 5.2753948 3.8050146e-05
  Final line search alpha, max atom move = 1.0000000 3.8050146e-05
  Iterations, force evaluations = 160 319

MPI task timing breakdown:
Section |  min time  |  avg time  |  max time  |%varavg| %total
---------------------------------------------------------------
Pair    | 0.4927     | 1.3463     | 1.7564     |  31.1 | 71.22
Neigh   | 2.3621e-05 | 0.0058496  | 0.0083958  |   3.1 |  0.31
Comm    | 0.031064   | 0.30541    | 0.90961    |  45.4 | 16.16
Output  | 0          | 0          | 0          |   0.0 |  0.00
Modify  | 1.8155e-05 | 0.001721   | 0.0043969  |   2.6 |  0.09
Other   |            | 0.231      |            |       | 12.22

Nlocal:        2776.45 ave        3957 max           0 min
Histogram: 8 4 4 0 4 12 8 2 28 34
Nghost:        3879.03 ave        5424 max         232 min
Histogram: 8 0 8 0 16 0 8 8 16 40
Neighs:        79213.7 ave      115327 max           0 min
Histogram: 8 4 4 0 10 6 8 8 24 32

Total # of neighbors = 8238222
Ave neighs/atom = 28.530540
Neighbor list builds = 2
Dangerous builds = 0
Setting atom values ...
  1 settings made for x
  1 settings made for y
  1 settings made for z
Setting up cg style minimization ...
  Unit style    : metal
  Current step  : 160
Per MPI rank memory allocation (min/avg/max) = 5.441 | 5.816 | 6.074 Mbytes
Step PotEng KinEng TotEng v_fx v_fy v_fz 
     160   -1152449.4            0   -1152449.4  0.025607442    0.0221353  0.031086619 
     365   -1152449.4            0   -1152449.4 -2.0903256e-05 -1.8393984e-06 -2.3081413e-05 
Loop time of 2.42917 on 104 procs for 205 steps with 288751 atoms

99.9% CPU use with 104 MPI tasks x 1 OpenMP threads

Minimization stats:
  Stopping criterion = energy tolerance
  Energy initial, next-to-last, final = 
     -1152449.44521877  -1152449.44877995  -1152449.44877995
  Force two-norm initial, final = 0.28109224 9.1581473e-05
  Force max component initial, final = 0.14430414 2.4548093e-05
  Final line search alpha, max atom move = 1.0000000 2.4548093e-05
  Iterations, force evaluations = 205 410

MPI task timing breakdown:
Section |  min time  |  avg time  |  max time  |%varavg| %total
---------------------------------------------------------------
Pair    | 0.62773    | 1.7374     | 2.2616     |  35.4 | 71.52
Neigh   | 0          | 0          | 0          |   0.0 |  0.00
Comm    | 0.040483   | 0.39412    | 1.1745     |  51.5 | 16.22
Output  | 0          | 0          | 0          |   0.0 |  0.00
Modify  | 2.7182e-05 | 0.0033866  | 0.0072797  |   2.7 |  0.14
Other   |            | 0.2943     |            |       | 12.11

Nlocal:        2776.45 ave        3960 max           0 min
Histogram: 8 4 4 0 4 12 8 2 28 34
Nghost:        3879.03 ave        5424 max         232 min
Histogram: 8 0 8 0 16 0 8 8 16 40
Neighs:        79213.4 ave      115436 max           0 min
Histogram: 8 4 4 0 10 6 8 8 24 32

Total # of neighbors = 8238197
Ave neighs/atom = 28.530454
Neighbor list builds = 0
Dangerous builds = 0
Setting atom values ...
  1 settings made for x
  1 settings made for y
  1 settings made for z
Setting up cg style minimization ...
  Unit style    : metal
  Current step  : 365
Per MPI rank memory allocation (min/avg/max) = 5.441 | 5.816 | 6.074 Mbytes
Step PotEng KinEng TotEng v_fx v_fy v_fz 
     365   -1152449.4            0   -1152449.4  0.031919967  0.033134932  0.052620185 
     553   -1152449.4            0   -1152449.4 7.4831811e-06 1.1642598e-06 1.0469945e-05 
Loop time of 2.21164 on 104 procs for 188 steps with 288751 atoms

99.9% CPU use with 104 MPI tasks x 1 OpenMP threads

Minimization stats:
  Stopping criterion = energy tolerance
  Energy initial, next-to-last, final = 
     -1152449.43848324   -1152449.4431219   -1152449.4431219
  Force two-norm initial, final = 0.32341749 0.00017072796
  Force max component initial, final = 0.16013088 1.4689657e-05
  Final line search alpha, max atom move = 1.0000000 1.4689657e-05
  Iterations, force evaluations = 188 376

MPI task timing breakdown:
Section |  min time  |  avg time  |  max time  |%varavg| %total
---------------------------------------------------------------
Pair    | 0.56842    | 1.5817     | 2.0651     |  34.1 | 71.52
Neigh   | 0          | 0          | 0          |   0.0 |  0.00
Comm    | 0.034776   | 0.35783    | 1.0674     |  49.3 | 16.18
Output  | 0          | 0          | 0          |   0.0 |  0.00
Modify  | 2.2765e-05 | 0.0031023  | 0.0065981  |   2.6 |  0.14
Other   |            | 0.269      |            |       | 12.16

Nlocal:        2776.45 ave        3960 max           0 min
Histogram: 8 4 4 0 4 12 8 2 28 34
Nghost:        3879.03 ave        5424 max         232 min
Histogram: 8 0 8 0 16 0 8 8 16 40
Neighs:        79213.4 ave      115435 max           0 min
Histogram: 8 4 4 0 10 6 8 8 24 32

Total # of neighbors = 8238197
Ave neighs/atom = 28.530454
Neighbor list builds = 0
Dangerous builds = 0
The dot product: 1.27459176411294e-06
The cos of the angle between the force vector and the displacement vector: 0.0986387710038421
The angle: 84.3392097481182
Setting atom values ...
  1 settings made for x
  1 settings made for y
  1 settings made for z
Setting up cg style minimization ...
  Unit style    : metal
  Current step  : 553
Per MPI rank memory allocation (min/avg/max) = 5.441 | 5.816 | 6.074 Mbytes
Step PotEng KinEng TotEng v_fx v_fy v_fz 
     553   -1152449.4            0   -1152449.4  0.037265924   0.03982343  0.078692526 
     732   -1152449.4            0   -1152449.4 -5.8104118e-06 4.6581378e-07 -9.5424707e-06 
Loop time of 2.09759 on 104 procs for 179 steps with 288751 atoms

99.9% CPU use with 104 MPI tasks x 1 OpenMP threads

Minimization stats:
  Stopping criterion = energy tolerance
  Energy initial, next-to-last, final = 
     -1152449.42919309  -1152449.43384364  -1152449.43384364
  Force two-norm initial, final = 0.32545756 0.0001714488
  Force max component initial, final = 0.1590033 3.8595694e-05
  Final line search alpha, max atom move = 1.0000000 3.8595694e-05
  Iterations, force evaluations = 179 358

MPI task timing breakdown:
Section |  min time  |  avg time  |  max time  |%varavg| %total
---------------------------------------------------------------
Pair    | 0.54299    | 1.513      | 1.969      |  33.3 | 72.13
Neigh   | 0          | 0          | 0          |   0.0 |  0.00
Comm    | 0.03374    | 0.33816    | 1.0215     |  48.8 | 16.12
Output  | 0          | 0          | 0          |   0.0 |  0.00
Modify  | 2.1709e-05 | 0.0029502  | 0.0062988  |   2.6 |  0.14
Other   |            | 0.2435     |            |       | 11.61

Nlocal:        2776.45 ave        3960 max           0 min
Histogram: 8 4 4 0 4 12 8 2 28 34
Nghost:        3879.03 ave        5424 max         232 min
Histogram: 8 0 8 0 16 0 8 8 16 40
Neighs:        79213.5 ave      115426 max           0 min
Histogram: 8 4 4 0 10 6 8 8 24 32

Total # of neighbors = 8238199
Ave neighs/atom = 28.530461
Neighbor list builds = 0
Dangerous builds = 0
The dot product: -1.35661799397069e-06
The cos of the angle between the force vector and the displacement vector: -0.121321834717181
The angle: 96.9683955488342
Setting atom values ...
  1 settings made for x
  1 settings made for y
  1 settings made for z
Setting up cg style minimization ...
  Unit style    : metal
  Current step  : 732
Per MPI rank memory allocation (min/avg/max) = 5.441 | 5.816 | 6.074 Mbytes
Step PotEng KinEng TotEng v_fx v_fy v_fz 
     732   -1152449.4            0   -1152449.4  0.034516359  0.039484861   0.10280082 
     880   -1152449.4            0   -1152449.4 -1.1864577e-06 -1.4001164e-06 -3.5594229e-06 
Loop time of 1.73499 on 104 procs for 148 steps with 288751 atoms

99.9% CPU use with 104 MPI tasks x 1 OpenMP threads

Minimization stats:
  Stopping criterion = energy tolerance
  Energy initial, next-to-last, final = 
      -1152449.4171015  -1152449.42180771  -1152449.42180771
  Force two-norm initial, final = 0.32556568 5.2908441e-05
  Force max component initial, final = 0.15805351 1.0794872e-05
  Final line search alpha, max atom move = 1.0000000 1.0794872e-05
  Iterations, force evaluations = 148 296

MPI task timing breakdown:
Section |  min time  |  avg time  |  max time  |%varavg| %total
---------------------------------------------------------------
Pair    | 0.44351    | 1.2428     | 1.6258     |  30.3 | 71.63
Neigh   | 0          | 0          | 0          |   0.0 |  0.00
Comm    | 0.027416   | 0.27965    | 0.83452    |  43.8 | 16.12
Output  | 0          | 0          | 0          |   0.0 |  0.00
Modify  | 1.787e-05  | 0.0024447  | 0.0052158  |   2.3 |  0.14
Other   |            | 0.2101     |            |       | 12.11

Nlocal:        2776.45 ave        3960 max           0 min
Histogram: 8 4 4 0 4 12 8 4 26 34
Nghost:        3879.07 ave        5424 max         232 min
Histogram: 8 0 8 0 16 0 8 8 16 40
Neighs:        79213.5 ave      115426 max           0 min
Histogram: 8 4 4 0 10 6 8 8 24 32

Total # of neighbors = 8238202
Ave neighs/atom = 28.530471
Neighbor list builds = 0
Dangerous builds = 0
The dot product: -4.77055019500462e-07
The cos of the angle between the force vector and the displacement vector: -0.119124240114918
The angle: 96.8415626957194
Setting atom values ...
  1 settings made for x
  1 settings made for y
  1 settings made for z
Setting up cg style minimization ...
  Unit style    : metal
  Current step  : 880
Per MPI rank memory allocation (min/avg/max) = 5.441 | 5.816 | 6.074 Mbytes
Step PotEng KinEng TotEng v_fx v_fy v_fz 
     880   -1152449.4            0   -1152449.4  0.024375243   0.02845683   0.10894701 
    1000   -1152449.4            0   -1152449.4 2.8939212e-05 1.1745728e-05 0.00010973781 
    1073   -1152449.4            0   -1152449.4 -5.4764397e-06 -4.3253484e-06 -2.2637383e-05 
Loop time of 2.26961 on 104 procs for 193 steps with 288751 atoms

99.9% CPU use with 104 MPI tasks x 1 OpenMP threads

Minimization stats:
  Stopping criterion = energy tolerance
  Energy initial, next-to-last, final = 
     -1152449.40240071   -1152449.4069708   -1152449.4069708
  Force two-norm initial, final = 0.31831834 0.00010117349
  Force max component initial, final = 0.15406425 2.2637383e-05
  Final line search alpha, max atom move = 1.0000000 2.2637383e-05
  Iterations, force evaluations = 193 386

MPI task timing breakdown:
Section |  min time  |  avg time  |  max time  |%varavg| %total
---------------------------------------------------------------
Pair    | 0.58148    | 1.6278     | 2.1236     |  34.5 | 71.72
Neigh   | 0          | 0          | 0          |   0.0 |  0.00
Comm    | 0.03614    | 0.3659     | 1.096      |  50.5 | 16.12
Output  | 0.00016689 | 0.00017113 | 0.00032763 |   0.0 |  0.01
Modify  | 2.356e-05  | 0.0031883  | 0.0068184  |   2.7 |  0.14
Other   |            | 0.2726     |            |       | 12.01

Nlocal:        2776.45 ave        3960 max           0 min
Histogram: 8 4 4 0 4 12 8 4 26 34
Nghost:        3879.07 ave        5424 max         232 min
Histogram: 8 0 8 0 16 0 8 8 16 40
Neighs:        79213.5 ave      115437 max           0 min
Histogram: 8 4 4 0 10 6 8 8 24 32

Total # of neighbors = 8238203
Ave neighs/atom = 28.530474
Neighbor list builds = 0
Dangerous builds = 0
The dot product: -2.35574588796969e-06
The cos of the angle between the force vector and the displacement vector: -0.0994462753046715
The angle: 95.7072854490642
Setting atom values ...
  1 settings made for x
  1 settings made for y
  1 settings made for z
Setting up cg style minimization ...
  Unit style    : metal
  Current step  : 1073
Per MPI rank memory allocation (min/avg/max) = 5.441 | 5.816 | 6.074 Mbytes
Step PotEng KinEng TotEng v_fx v_fy v_fz 
    1073   -1152449.4            0   -1152449.4  0.014951105  0.013607395   0.10169894 
    1271   -1152449.4            0   -1152449.4 3.5183329e-06 2.2582588e-06 2.2670339e-05 
Loop time of 2.3075 on 104 procs for 198 steps with 288751 atoms

99.9% CPU use with 104 MPI tasks x 1 OpenMP threads

Minimization stats:
  Stopping criterion = energy tolerance
  Energy initial, next-to-last, final = 
     -1152449.38471351  -1152449.38910459  -1152449.38910459
  Force two-norm initial, final = 0.30820388 0.00011491055
  Force max component initial, final = 0.14900583 2.2670339e-05
  Final line search alpha, max atom move = 1.0000000 2.2670339e-05
  Iterations, force evaluations = 198 396

MPI task timing breakdown:
Section |  min time  |  avg time  |  max time  |%varavg| %total
---------------------------------------------------------------
Pair    | 0.59309    | 1.6598     | 2.169      |  34.9 | 71.93
Neigh   | 0          | 0          | 0          |   0.0 |  0.00
Comm    | 0.033246   | 0.37335    | 1.1236     |  51.1 | 16.18
Output  | 0          | 0          | 0          |   0.0 |  0.00
Modify  | 2.3639e-05 | 0.0032664  | 0.0069695  |   2.7 |  0.14
Other   |            | 0.2711     |            |       | 11.75

Nlocal:        2776.45 ave        3960 max           0 min
Histogram: 8 4 4 0 4 12 8 4 26 34
Nghost:        3879.07 ave        5424 max         232 min
Histogram: 8 0 8 0 16 0 8 8 16 40
Neighs:        79213.5 ave      115428 max           0 min
Histogram: 8 4 4 0 10 6 8 8 24 32

Total # of neighbors = 8238204
Ave neighs/atom = 28.530478
Neighbor list builds = 0
Dangerous builds = 0
The dot product: 1.82009628374785e-06
The cos of the angle between the force vector and the displacement vector: 0.0789540336751778
The angle: 85.4715538994637
Setting atom values ...
  1 settings made for x
  1 settings made for y
  1 settings made for z
Setting up cg style minimization ...
  Unit style    : metal
  Current step  : 1271
Per MPI rank memory allocation (min/avg/max) = 5.441 | 5.816 | 6.074 Mbytes
Step PotEng KinEng TotEng v_fx v_fy v_fz 
    1271   -1152449.4            0   -1152449.4 0.0087607057 -0.0012871311   0.09077269 
    1463   -1152449.4            0   -1152449.4 7.0903426e-07 -1.992767e-06 3.1490199e-06 
Loop time of 2.24195 on 104 procs for 192 steps with 288751 atoms

99.9% CPU use with 104 MPI tasks x 1 OpenMP threads

Minimization stats:
  Stopping criterion = energy tolerance
  Energy initial, next-to-last, final = 
      -1152449.3638131  -1152449.36811723  -1152449.36811723
  Force two-norm initial, final = 0.29930261 0.00014373238
  Force max component initial, final = 0.14400046 1.9177378e-05
  Final line search alpha, max atom move = 1.0000000 1.9177378e-05
  Iterations, force evaluations = 192 384

MPI task timing breakdown:
Section |  min time  |  avg time  |  max time  |%varavg| %total
---------------------------------------------------------------
Pair    | 0.57863    | 1.6189     | 2.111      |  34.4 | 72.21
Neigh   | 0          | 0          | 0          |   0.0 |  0.00
Comm    | 0.033202   | 0.36338    | 1.0942     |  50.2 | 16.21
Output  | 0          | 0          | 0          |   0.0 |  0.00
Modify  | 2.2828e-05 | 0.0031684  | 0.0067523  |   2.6 |  0.14
Other   |            | 0.2565     |            |       | 11.44

Nlocal:        2776.45 ave        3960 max           0 min
Histogram: 8 4 4 0 4 12 8 4 26 34
Nghost:        3879.07 ave        5424 max         232 min
Histogram: 8 0 8 0 16 0 8 8 16 40
Neighs:        79213.5 ave      115430 max           0 min
Histogram: 8 4 4 0 10 6 8 8 24 32

Total # of neighbors = 8238206
Ave neighs/atom = 28.530485
Neighbor list builds = 0
Dangerous builds = 0
The dot product: 2.94436440584861e-07
The cos of the angle between the force vector and the displacement vector: 0.0776172943084333
The angle: 85.5483792086687
Setting atom values ...
  1 settings made for x
  1 settings made for y
  1 settings made for z
Setting up cg style minimization ...
  Unit style    : metal
  Current step  : 1463
Per MPI rank memory allocation (min/avg/max) = 5.441 | 5.816 | 6.074 Mbytes
Step PotEng KinEng TotEng v_fx v_fy v_fz 
    1463   -1152449.3            0   -1152449.3  0.004564862 -0.015566708  0.083183702 
    1701   -1152449.3            0   -1152449.3 1.9103269e-07 -5.8266394e-07 3.9827277e-06 
Loop time of 2.78343 on 104 procs for 238 steps with 288751 atoms

99.9% CPU use with 104 MPI tasks x 1 OpenMP threads

Minimization stats:
  Stopping criterion = energy tolerance
  Energy initial, next-to-last, final = 
     -1152449.33970984  -1152449.34430788  -1152449.34430788
  Force two-norm initial, final = 0.29300506 3.6922814e-05
  Force max component initial, final = 0.13868678 8.7323663e-06
  Final line search alpha, max atom move = 1.0000000 8.7323663e-06
  Iterations, force evaluations = 238 476

MPI task timing breakdown:
Section |  min time  |  avg time  |  max time  |%varavg| %total
---------------------------------------------------------------
Pair    | 0.71956    | 1.9978     | 2.6062     |  38.2 | 71.77
Neigh   | 0          | 0          | 0          |   0.0 |  0.00
Comm    | 0.04439    | 0.44887    | 1.3535     |  56.0 | 16.13
Output  | 0          | 0          | 0          |   0.0 |  0.00
Modify  | 2.8715e-05 | 0.0039236  | 0.0083875  |   2.9 |  0.14
Other   |            | 0.3329     |            |       | 11.96

Nlocal:        2776.45 ave        3961 max           0 min
Histogram: 8 4 4 0 6 10 8 4 26 34
Nghost:        3879.05 ave        5424 max         232 min
Histogram: 8 0 8 0 16 0 8 8 16 40
Neighs:        79213.5 ave      115465 max           0 min
Histogram: 8 4 4 0 10 6 8 8 24 32

Total # of neighbors = 8238206
Ave neighs/atom = 28.530485
Neighbor list builds = 0
Dangerous builds = 0
The dot product: 3.69425366350675e-07
The cos of the angle between the force vector and the displacement vector: 0.0916766989217186
The angle: 84.7399262991345
Setting atom values ...
  1 settings made for x
  1 settings made for y
  1 settings made for z
Setting up cg style minimization ...
  Unit style    : metal
  Current step  : 1701
Per MPI rank memory allocation (min/avg/max) = 5.441 | 5.816 | 6.074 Mbytes
Step PotEng KinEng TotEng v_fx v_fy v_fz 
    1701   -1152449.3            0   -1152449.3 -0.0019949595 -0.034181364  0.097108557 
    1907   -1152449.3            0   -1152449.3 -1.5815239e-06 -2.7693389e-07 2.5424543e-05 
Loop time of 2.42855 on 104 procs for 206 steps with 288751 atoms

99.9% CPU use with 104 MPI tasks x 1 OpenMP threads

Minimization stats:
  Stopping criterion = energy tolerance
  Energy initial, next-to-last, final = 
     -1152449.31320197  -1152449.31862172  -1152449.31862172
  Force two-norm initial, final = 0.29231487 0.00014923666
  Force max component initial, final = 0.12880064 2.5424543e-05
  Final line search alpha, max atom move = 1.0000000 2.5424543e-05
  Iterations, force evaluations = 206 412

MPI task timing breakdown:
Section |  min time  |  avg time  |  max time  |%varavg| %total
---------------------------------------------------------------
Pair    | 0.61901    | 1.744      | 2.2742     |  35.5 | 71.81
Neigh   | 0          | 0          | 0          |   0.0 |  0.00
Comm    | 0.039442   | 0.3945     | 1.1773     |  51.7 | 16.24
Output  | 0          | 0          | 0          |   0.0 |  0.00
Modify  | 2.4426e-05 | 0.0033966  | 0.0072894  |   2.7 |  0.14
Other   |            | 0.2867     |            |       | 11.80

Nlocal:        2776.45 ave        3961 max           0 min
Histogram: 8 4 4 0 6 10 8 4 26 34
Nghost:        3879.03 ave        5424 max         232 min
Histogram: 8 0 8 0 16 0 8 8 16 40
Neighs:        79213.5 ave      115469 max           0 min
Histogram: 8 4 4 0 10 6 8 8 24 32

Total # of neighbors = 8238206
Ave neighs/atom = 28.530485
Neighbor list builds = 0
Dangerous builds = 0
The dot product: 2.44642482198753e-06
The cos of the angle between the force vector and the displacement vector: 0.0960316618883909
The angle: 84.4892988158592
Setting atom values ...
  1 settings made for x
  1 settings made for y
  1 settings made for z
Setting up cg style minimization ...
  Unit style    : metal
  Current step  : 1907
Per MPI rank memory allocation (min/avg/max) = 5.441 | 5.816 | 6.074 Mbytes
Step PotEng KinEng TotEng v_fx v_fy v_fz 
    1907   -1152449.3            0   -1152449.3 -0.013185408 -0.047660542   0.10346935 
    2000   -1152449.3            0   -1152449.3 9.0025181e-05 -2.9540926e-05 -0.0005469454 
    2099   -1152449.3            0   -1152449.3 -6.2422545e-06 2.3386118e-06 3.7794196e-05 
Loop time of 2.24717 on 104 procs for 192 steps with 288751 atoms

99.9% CPU use with 104 MPI tasks x 1 OpenMP threads

Minimization stats:
  Stopping criterion = energy tolerance
  Energy initial, next-to-last, final = 
      -1152449.2852052  -1152449.29048793  -1152449.29048793
  Force two-norm initial, final = 0.29053114 0.00022867999
  Force max component initial, final = 0.13992469 3.7794196e-05
  Final line search alpha, max atom move = 1.0000000 3.7794196e-05
  Iterations, force evaluations = 192 384

MPI task timing breakdown:
Section |  min time  |  avg time  |  max time  |%varavg| %total
---------------------------------------------------------------
Pair    | 0.57874    | 1.6141     | 2.1103     |  34.5 | 71.83
Neigh   | 0          | 0          | 0          |   0.0 |  0.00
Comm    | 0.033572   | 0.36233    | 1.0891     |  50.5 | 16.12
Output  | 0.00015351 | 0.00015768 | 0.00032125 |   0.0 |  0.01
Modify  | 2.2841e-05 | 0.0031615  | 0.0067542  |   2.6 |  0.14
Other   |            | 0.2674     |            |       | 11.90

Nlocal:        2776.45 ave        3960 max           0 min
Histogram: 8 4 4 0 4 12 8 4 26 34
Nghost:        3878.99 ave        5424 max         232 min
Histogram: 8 0 8 0 16 0 8 8 16 40
Neighs:        79213.5 ave      115442 max           0 min
Histogram: 8 4 4 0 10 6 8 8 24 32

Total # of neighbors = 8238207
Ave neighs/atom = 28.530488
Neighbor list builds = 0
Dangerous builds = 0
The dot product: 3.03176330818346e-06
The cos of the angle between the force vector and the displacement vector: 0.0789983620377017
The angle: 85.4690061133735
Setting atom values ...
  1 settings made for x
  1 settings made for y
  1 settings made for z
Setting up cg style minimization ...
  Unit style    : metal
  Current step  : 2099
Per MPI rank memory allocation (min/avg/max) = 5.441 | 5.816 | 6.074 Mbytes
Step PotEng KinEng TotEng v_fx v_fy v_fz 
    2099   -1152449.3            0   -1152449.3 -0.020465962 -0.050081984  0.088666807 
    2412   -1152449.3            0   -1152449.3 1.0582517e-07 3.0487187e-10 -4.2999414e-07 
Loop time of 3.67411 on 104 procs for 313 steps with 288751 atoms

99.9% CPU use with 104 MPI tasks x 1 OpenMP threads

Minimization stats:
  Stopping criterion = energy tolerance
  Energy initial, next-to-last, final = 
     -1152449.25442565  -1152449.25956935  -1152449.25956935
  Force two-norm initial, final = 0.28254066 4.3929487e-06
  Force max component initial, final = 0.1538439 4.2999414e-07
  Final line search alpha, max atom move = 1.0000000 4.2999414e-07
  Iterations, force evaluations = 313 626

MPI task timing breakdown:
Section |  min time  |  avg time  |  max time  |%varavg| %total
---------------------------------------------------------------
Pair    | 0.93961    | 2.6405     | 3.4526     |  44.1 | 71.87
Neigh   | 0          | 0          | 0          |   0.0 |  0.00
Comm    | 0.069338   | 0.59367    | 1.7717     |  63.8 | 16.16
Output  | 0          | 0          | 0          |   0.0 |  0.00
Modify  | 3.7329e-05 | 0.0051491  | 0.011016   |   3.4 |  0.14
Other   |            | 0.4348     |            |       | 11.83

Nlocal:        2776.45 ave        3960 max           0 min
Histogram: 8 4 4 0 4 12 8 4 26 34
Nghost:        3879.03 ave        5425 max         232 min
Histogram: 8 0 8 0 16 0 8 8 16 40
Neighs:        79213.6 ave      115461 max           0 min
Histogram: 8 4 4 0 10 6 8 8 24 32

Total # of neighbors = 8238211
Ave neighs/atom = 28.530502
Neighbor list builds = 0
Dangerous builds = 0
The dot product: -3.23211318617118e-08
The cos of the angle between the force vector and the displacement vector: -0.072988491476198
The angle: 94.1856545263335
Setting atom values ...
  1 settings made for x
  1 settings made for y
  1 settings made for z
Setting up cg style minimization ...
  Unit style    : metal
  Current step  : 2412
Per MPI rank memory allocation (min/avg/max) = 5.441 | 5.816 | 6.074 Mbytes
Step PotEng KinEng TotEng v_fx v_fy v_fz 
    2412   -1152449.2            0   -1152449.2 -0.025843655 -0.044894663  0.078092191 
    2622   -1152449.2            0   -1152449.2 3.8622566e-06 -5.8335453e-07 -1.1896653e-05 
Loop time of 2.4679 on 104 procs for 210 steps with 288751 atoms

99.9% CPU use with 104 MPI tasks x 1 OpenMP threads

Minimization stats:
  Stopping criterion = energy tolerance
  Energy initial, next-to-last, final = 
     -1152449.22103703  -1152449.22605873  -1152449.22605873
  Force two-norm initial, final = 0.27597401 0.00013808774
  Force max component initial, final = 0.16538296 1.1896653e-05
  Final line search alpha, max atom move = 1.0000000 1.1896653e-05
  Iterations, force evaluations = 210 420

MPI task timing breakdown:
Section |  min time  |  avg time  |  max time  |%varavg| %total
---------------------------------------------------------------
Pair    | 0.63264    | 1.7604     | 2.3134     |  35.9 | 71.33
Neigh   | 0          | 0          | 0          |   0.0 |  0.00
Comm    | 0.035702   | 0.39892    | 1.1867     |  52.0 | 16.16
Output  | 0          | 0          | 0          |   0.0 |  0.00
Modify  | 2.5165e-05 | 0.0034621  | 0.0073884  |   2.8 |  0.14
Other   |            | 0.3051     |            |       | 12.36

Nlocal:        2776.45 ave        3960 max           0 min
Histogram: 8 4 4 0 4 12 8 4 26 34
Nghost:        3879.01 ave        5424 max         232 min
Histogram: 8 0 8 0 16 0 8 8 16 40
Neighs:        79213.6 ave      115464 max           0 min
Histogram: 8 4 4 0 10 6 8 8 24 32

Total # of neighbors = 8238218
Ave neighs/atom = 28.530526
Neighbor list builds = 0
Dangerous builds = 0
The dot product: -8.13160424778572e-07
The cos of the angle between the force vector and the displacement vector: -0.0649411920005261
The angle: 93.7234765581912
Setting atom values ...
  1 settings made for x
  1 settings made for y
  1 settings made for z
Setting up cg style minimization ...
  Unit style    : metal
  Current step  : 2622
Per MPI rank memory allocation (min/avg/max) = 5.441 | 5.816 | 6.074 Mbytes
Step PotEng KinEng TotEng v_fx v_fy v_fz 
    2622   -1152449.2            0   -1152449.2 -0.029342613 -0.033362098  0.070270282 
    2835   -1152449.2            0   -1152449.2 3.7455735e-06 -8.4416023e-08 -9.3689667e-06 
Loop time of 2.51809 on 104 procs for 213 steps with 288751 atoms

99.9% CPU use with 104 MPI tasks x 1 OpenMP threads

Minimization stats:
  Stopping criterion = energy tolerance
  Energy initial, next-to-last, final = 
     -1152449.18520402  -1152449.19057424  -1152449.19057424
  Force two-norm initial, final = 0.27064964 0.00013952222
  Force max component initial, final = 0.17528783 9.3689667e-06
  Final line search alpha, max atom move = 1.0000000 9.3689667e-06
  Iterations, force evaluations = 213 426

MPI task timing breakdown:
Section |  min time  |  avg time  |  max time  |%varavg| %total
---------------------------------------------------------------
Pair    | 0.64903    | 1.7954     | 2.3413     |  36.0 | 71.30
Neigh   | 0          | 0          | 0          |   0.0 |  0.00
Comm    | 0.039109   | 0.40479    | 1.208      |  52.9 | 16.08
Output  | 0          | 0          | 0          |   0.0 |  0.00
Modify  | 2.5711e-05 | 0.0035107  | 0.0075119  |   2.8 |  0.14
Other   |            | 0.3143     |            |       | 12.48

Nlocal:        2776.45 ave        3959 max           0 min
Histogram: 8 4 4 0 4 12 8 4 26 34
Nghost:        3879.04 ave        5424 max         232 min
Histogram: 8 0 8 0 16 0 8 8 16 40
Neighs:        79213.6 ave      115441 max           0 min
Histogram: 8 4 4 0 10 6 8 8 24 32

Total # of neighbors = 8238216
Ave neighs/atom = 28.530519
Neighbor list builds = 0
Dangerous builds = 0
The dot product: -6.9674907339648e-07
The cos of the angle between the force vector and the displacement vector: -0.0690514309126663
The angle: 93.9595063757568
Setting atom values ...
  1 settings made for x
  1 settings made for y
  1 settings made for z
Setting up cg style minimization ...
  Unit style    : metal
  Current step  : 2835
Per MPI rank memory allocation (min/avg/max) = 5.441 | 5.816 | 6.074 Mbytes
Step PotEng KinEng TotEng v_fx v_fy v_fz 
    2835   -1152449.1            0   -1152449.1 -0.035236117 -0.018400189  0.071017246 
    3000   -1152449.2            0   -1152449.2 3.9860887e-05 3.241114e-06 -8.2198559e-05 
    3023   -1152449.2            0   -1152449.2 -1.7814631e-05 -2.3688434e-06 3.663877e-05 
Loop time of 2.20467 on 104 procs for 188 steps with 288751 atoms

99.9% CPU use with 104 MPI tasks x 1 OpenMP threads

Minimization stats:
  Stopping criterion = energy tolerance
  Energy initial, next-to-last, final = 
     -1152449.14831752   -1152449.1536034   -1152449.1536034
  Force two-norm initial, final = 0.26794425 0.00019130269
  Force max component initial, final = 0.18325362 3.6638770e-05
  Final line search alpha, max atom move = 1.0000000 3.6638770e-05
  Iterations, force evaluations = 188 376

MPI task timing breakdown:
Section |  min time  |  avg time  |  max time  |%varavg| %total
---------------------------------------------------------------
Pair    | 0.57063    | 1.58       | 2.0613     |  33.9 | 71.66
Neigh   | 0          | 0          | 0          |   0.0 |  0.00
Comm    | 0.036459   | 0.3562     | 1.0722     |  49.7 | 16.16
Output  | 0.00015319 | 0.00016286 | 0.00033696 |   0.0 |  0.01
Modify  | 2.3287e-05 | 0.0031028  | 0.0066173  |   2.6 |  0.14
Other   |            | 0.2652     |            |       | 12.03

Nlocal:        2776.45 ave        3957 max           0 min
Histogram: 8 4 4 0 4 12 8 2 28 34
Nghost:        3879.03 ave        5424 max         232 min
Histogram: 8 0 8 0 16 0 8 8 16 40
Neighs:        79213.6 ave      115375 max           0 min
Histogram: 8 4 4 0 10 6 8 8 24 32

Total # of neighbors = 8238217
Ave neighs/atom = 28.530523
Neighbor list builds = 0
Dangerous builds = 0
The dot product: 2.50468221711556e-06
The cos of the angle between the force vector and the displacement vector: 0.0613757781286401
The angle: 86.4812153842646
Setting atom values ...
  1 settings made for x
  1 settings made for y
  1 settings made for z
Setting up cg style minimization ...
  Unit style    : metal
  Current step  : 3023
Per MPI rank memory allocation (min/avg/max) = 5.441 | 5.816 | 6.074 Mbytes
Step PotEng KinEng TotEng v_fx v_fy v_fz 
    3023   -1152449.1            0   -1152449.1 -0.034316073 -0.0074099866  0.060417282 
    3203   -1152449.1            0   -1152449.1 -7.9334186e-06 -7.6460258e-06 1.3369616e-05 
Loop time of 2.09441 on 104 procs for 180 steps with 288751 atoms

99.9% CPU use with 104 MPI tasks x 1 OpenMP threads

Minimization stats:
  Stopping criterion = energy tolerance
  Energy initial, next-to-last, final = 
     -1152449.10961736   -1152449.1142696   -1152449.1142696
  Force two-norm initial, final = 0.26438355 0.00022322326
  Force max component initial, final = 0.19091465 4.8160851e-05
  Final line search alpha, max atom move = 1.0000000 4.8160851e-05
  Iterations, force evaluations = 180 360

MPI task timing breakdown:
Section |  min time  |  avg time  |  max time  |%varavg| %total
---------------------------------------------------------------
Pair    | 0.53962    | 1.5138     | 1.9772     |  33.3 | 72.28
Neigh   | 0          | 0          | 0          |   0.0 |  0.00
Comm    | 0.031024   | 0.33866    | 1.0218     |  48.9 | 16.17
Output  | 0          | 0          | 0          |   0.0 |  0.00
Modify  | 2.208e-05  | 0.0029695  | 0.0063651  |   2.6 |  0.14
Other   |            | 0.239      |            |       | 11.41

Nlocal:        2776.45 ave        3958 max           0 min
Histogram: 8 4 4 0 4 12 8 2 28 34
Nghost:        3878.98 ave        5424 max         232 min
Histogram: 8 0 8 0 16 0 8 8 16 40
Neighs:        79213.6 ave      115411 max           0 min
Histogram: 8 4 4 0 10 6 8 8 24 32

Total # of neighbors = 8238217
Ave neighs/atom = 28.530523
Neighbor list builds = 0
Dangerous builds = 0
The dot product: 7.44564065225071e-07
The cos of the angle between the force vector and the displacement vector: 0.0429768645913884
The angle: 87.5368484003885
Setting atom values ...
  1 settings made for x
  1 settings made for y
  1 settings made for z
Setting up cg style minimization ...
  Unit style    : metal
  Current step  : 3203
Per MPI rank memory allocation (min/avg/max) = 5.441 | 5.816 | 6.074 Mbytes
Step PotEng KinEng TotEng v_fx v_fy v_fz 
    3203   -1152449.1            0   -1152449.1 -0.027953965 -0.0019861455  0.044461356 
    3390   -1152449.1            0   -1152449.1 -1.0365669e-05 8.8641716e-07 1.6636518e-05 
Loop time of 2.16459 on 104 procs for 187 steps with 288751 atoms

99.9% CPU use with 104 MPI tasks x 1 OpenMP threads

Minimization stats:
  Stopping criterion = energy tolerance
  Energy initial, next-to-last, final = 
     -1152449.06797854  -1152449.07208897  -1152449.07208897
  Force two-norm initial, final = 0.2618949 0.0001539083
  Force max component initial, final = 0.19824245 3.0914963e-05
  Final line search alpha, max atom move = 1.0000000 3.0914963e-05
  Iterations, force evaluations = 187 374

MPI task timing breakdown:
Section |  min time  |  avg time  |  max time  |%varavg| %total
---------------------------------------------------------------
Pair    | 0.55997    | 1.5666     | 2.0468     |  33.9 | 72.38
Neigh   | 0          | 0          | 0          |   0.0 |  0.00
Comm    | 0.032788   | 0.34946    | 1.0526     |  49.8 | 16.14
Output  | 0          | 0          | 0          |   0.0 |  0.00
Modify  | 2.2479e-05 | 0.0030833  | 0.0065877  |   2.6 |  0.14
Other   |            | 0.2454     |            |       | 11.34

Nlocal:        2776.45 ave        3958 max           0 min
Histogram: 8 4 4 0 4 12 8 2 28 34
Nghost:        3878.97 ave        5424 max         232 min
Histogram: 8 0 8 0 16 0 8 8 16 40
Neighs:        79213.6 ave      115412 max           0 min
Histogram: 8 4 4 0 10 6 8 8 24 32

Total # of neighbors = 8238212
Ave neighs/atom = 28.530506
Neighbor list builds = 0
Dangerous builds = 0
The dot product: 7.08838123230878e-07
The cos of the angle between the force vector and the displacement vector: 0.0361254276616251
The angle: 87.9297149922246
Setting atom values ...
  1 settings made for x
  1 settings made for y
  1 settings made for z
Setting up cg style minimization ...
  Unit style    : metal
  Current step  : 3390
Per MPI rank memory allocation (min/avg/max) = 5.441 | 5.816 | 6.074 Mbytes
Step PotEng KinEng TotEng v_fx v_fy v_fz 
    3390     -1152449            0     -1152449 -0.020377849 -0.0004354246  0.030033054 
    3646     -1152449            0     -1152449 6.4490879e-07 -3.4900192e-08 -9.5462522e-07 
Loop time of 2.99669 on 104 procs for 256 steps with 288751 atoms

99.9% CPU use with 104 MPI tasks x 1 OpenMP threads

Minimization stats:
  Stopping criterion = energy tolerance
  Energy initial, next-to-last, final = 
     -1152449.02317868  -1152449.02705876  -1152449.02705876
  Force two-norm initial, final = 0.26183341 1.2321991e-05
  Force max component initial, final = 0.20503056 2.9609585e-06
  Final line search alpha, max atom move = 1.0000000 2.9609585e-06
  Iterations, force evaluations = 256 512

MPI task timing breakdown:
Section |  min time  |  avg time  |  max time  |%varavg| %total
---------------------------------------------------------------
Pair    | 0.76825    | 2.1581     | 2.8211     |  39.8 | 72.02
Neigh   | 0          | 0          | 0          |   0.0 |  0.00
Comm    | 0.044893   | 0.48603    | 1.4584     |  58.0 | 16.22
Output  | 0          | 0          | 0          |   0.0 |  0.00
Modify  | 3.0619e-05 | 0.0042149  | 0.0090183  |   3.1 |  0.14
Other   |            | 0.3483     |            |       | 11.62

Nlocal:        2776.45 ave        3958 max           0 min
Histogram: 8 4 4 0 4 12 8 2 28 34
Nghost:        3878.89 ave        5424 max         232 min
Histogram: 8 0 8 0 16 0 8 8 16 40
Neighs:        79213.6 ave      115410 max           0 min
Histogram: 8 4 4 0 10 6 8 8 24 32

Total # of neighbors = 8238214
Ave neighs/atom = 28.530512
Neighbor list builds = 0
Dangerous builds = 0
The dot product: -3.19833616713591e-08
The cos of the angle between the force vector and the displacement vector: -0.0277494260634773
The angle: 91.5901291165814
Setting atom values ...
  1 settings made for x
  1 settings made for y
  1 settings made for z
Setting up cg style minimization ...
  Unit style    : metal
  Current step  : 3646
Per MPI rank memory allocation (min/avg/max) = 5.441 | 5.816 | 6.074 Mbytes
Step PotEng KinEng TotEng v_fx v_fy v_fz 
    3646     -1152449            0     -1152449 -0.013798245 -0.0003228799  0.019165179 
    3878     -1152449            0     -1152449 1.6331922e-06 1.2124703e-06 -2.1738794e-06 
Loop time of 2.70564 on 104 procs for 232 steps with 288751 atoms

99.9% CPU use with 104 MPI tasks x 1 OpenMP threads

Minimization stats:
  Stopping criterion = energy tolerance
  Energy initial, next-to-last, final = 
     -1152448.97563843  -1152448.97949457  -1152448.97949457
  Force two-norm initial, final = 0.26314344 4.8323204e-05
  Force max component initial, final = 0.21070706 9.1180984e-06
  Final line search alpha, max atom move = 1.0000000 9.1180984e-06
  Iterations, force evaluations = 232 464

MPI task timing breakdown:
Section |  min time  |  avg time  |  max time  |%varavg| %total
---------------------------------------------------------------
Pair    | 0.69668    | 1.9483     | 2.5501     |  37.9 | 72.01
Neigh   | 0          | 0          | 0          |   0.0 |  0.00
Comm    | 0.040394   | 0.43945    | 1.3136     |  55.2 | 16.24
Output  | 0          | 0          | 0          |   0.0 |  0.00
Modify  | 2.7756e-05 | 0.0038198  | 0.0081641  |   2.9 |  0.14
Other   |            | 0.314      |            |       | 11.61

Nlocal:        2776.45 ave        3958 max           0 min
Histogram: 8 4 4 0 4 12 8 2 28 34
Nghost:        3878.88 ave        5425 max         232 min
Histogram: 8 0 8 0 16 0 8 8 16 40
Neighs:        79213.6 ave      115414 max           0 min
Histogram: 8 4 4 0 10 6 8 8 24 32

Total # of neighbors = 8238219
Ave neighs/atom = 28.530530
Neighbor list builds = 0
Dangerous builds = 0
The dot product: -5.90135799667511e-08
The cos of the angle between the force vector and the displacement vector: -0.0198224732794017
The angle: 91.1358184496451
Setting atom values ...
  1 settings made for x
  1 settings made for y
  1 settings made for z
Setting up cg style minimization ...
  Unit style    : metal
  Current step  : 3878
Per MPI rank memory allocation (min/avg/max) = 5.441 | 5.816 | 6.074 Mbytes
Step PotEng KinEng TotEng v_fx v_fy v_fz 
    3878   -1152448.9            0   -1152448.9 -0.0080503916 -4.9659948e-05  0.010689139 
    4000   -1152448.9            0   -1152448.9 0.00010022175 2.8733641e-05 -0.00013090097 
    4074   -1152448.9            0   -1152448.9 1.9822242e-05 2.5572611e-06 -2.6131498e-05 
Loop time of 2.29691 on 104 procs for 196 steps with 288751 atoms

99.9% CPU use with 104 MPI tasks x 1 OpenMP threads

Minimization stats:
  Stopping criterion = energy tolerance
  Energy initial, next-to-last, final = 
     -1152448.92578022  -1152448.92972183  -1152448.92972183
  Force two-norm initial, final = 0.26504523 0.00017576624
  Force max component initial, final = 0.21550238 2.6131498e-05
  Final line search alpha, max atom move = 1.0000000 2.6131498e-05
  Iterations, force evaluations = 196 392

MPI task timing breakdown:
Section |  min time  |  avg time  |  max time  |%varavg| %total
---------------------------------------------------------------
Pair    | 0.58998    | 1.6539     | 2.1621     |  34.8 | 72.01
Neigh   | 0          | 0          | 0          |   0.0 |  0.00
Comm    | 0.039414   | 0.36974    | 1.1194     |  50.9 | 16.10
Output  | 0.00011345 | 0.00012396 | 0.00027609 |   0.0 |  0.01
Modify  | 2.4115e-05 | 0.0032344  | 0.0069242  |   2.7 |  0.14
Other   |            | 0.2699     |            |       | 11.75

Nlocal:        2776.45 ave        3958 max           0 min
Histogram: 8 4 4 0 4 12 8 2 28 34
Nghost:        3878.86 ave        5425 max         232 min
Histogram: 8 0 8 0 16 0 8 8 16 40
Neighs:        79213.6 ave      115412 max           0 min
Histogram: 8 4 4 0 10 6 8 8 24 32

Total # of neighbors = 8238217
Ave neighs/atom = 28.530523
Neighbor list builds = 0
Dangerous builds = 0
The dot product: -5.96368300990883e-07
The cos of the angle between the force vector and the displacement vector: -0.0181274830395635
The angle: 91.0386851629599
Setting atom values ...
  1 settings made for x
  1 settings made for y
  1 settings made for z
Setting up cg style minimization ...
  Unit style    : metal
  Current step  : 4074
Per MPI rank memory allocation (min/avg/max) = 5.441 | 5.816 | 6.074 Mbytes
Step PotEng KinEng TotEng v_fx v_fy v_fz 
    4074   -1152448.9            0   -1152448.9 -0.0030839667 0.00062269518 0.0039911936 
    4297   -1152448.9            0   -1152448.9 -1.4229699e-05 -1.2191877e-06 1.810926e-05 
Loop time of 2.61476 on 104 procs for 223 steps with 288751 atoms

99.9% CPU use with 104 MPI tasks x 1 OpenMP threads

Minimization stats:
  Stopping criterion = energy tolerance
  Energy initial, next-to-last, final = 
      -1152448.8740585  -1152448.87779412  -1152448.87779412
  Force two-norm initial, final = 0.26676272 8.6455603e-05
  Force max component initial, final = 0.21921514 1.9560675e-05
  Final line search alpha, max atom move = 1.0000000 1.9560675e-05
  Iterations, force evaluations = 223 446

MPI task timing breakdown:
Section |  min time  |  avg time  |  max time  |%varavg| %total
---------------------------------------------------------------
Pair    | 0.67117    | 1.877      | 2.4594     |  37.2 | 71.78
Neigh   | 0          | 0          | 0          |   0.0 |  0.00
Comm    | 0.039739   | 0.42447    | 1.2833     |  54.5 | 16.23
Output  | 0          | 0          | 0          |   0.0 |  0.00
Modify  | 2.7265e-05 | 0.0036763  | 0.0078821  |   2.9 |  0.14
Other   |            | 0.3096     |            |       | 11.84

Nlocal:        2776.45 ave        3957 max           0 min
Histogram: 8 4 4 0 4 12 8 2 28 34
Nghost:        3878.85 ave        5425 max         232 min
Histogram: 8 0 8 0 16 0 8 8 16 40
Neighs:        79213.6 ave      115382 max           0 min
Histogram: 8 4 4 0 10 6 8 8 24 32

Total # of neighbors = 8238217
Ave neighs/atom = 28.530523
Neighbor list builds = 0
Dangerous builds = 0
The dot product: 3.12585860471074e-07
The cos of the angle between the force vector and the displacement vector: 0.0135533854113138
The angle: 89.2234244411684
Setting atom values ...
  1 settings made for x
  1 settings made for y
  1 settings made for z
Setting up cg style minimization ...
  Unit style    : metal
  Current step  : 4297
Per MPI rank memory allocation (min/avg/max) = 5.441 | 5.816 | 6.074 Mbytes
Step PotEng KinEng TotEng v_fx v_fy v_fz 
    4297   -1152448.8            0   -1152448.8    0.0035291 0.0013259215 -0.0042920818 
    4534   -1152448.8            0   -1152448.8 -2.2288386e-06 8.5274716e-07 2.8350921e-06 
Loop time of 2.77551 on 104 procs for 237 steps with 288751 atoms

99.9% CPU use with 104 MPI tasks x 1 OpenMP threads

Minimization stats:
  Stopping criterion = energy tolerance
  Energy initial, next-to-last, final = 
     -1152448.81981332  -1152448.82362967  -1152448.82362967
  Force two-norm initial, final = 0.26966114 5.2564986e-05
  Force max component initial, final = 0.22332605 8.4873131e-06
  Final line search alpha, max atom move = 1.0000000 8.4873131e-06
  Iterations, force evaluations = 237 474

MPI task timing breakdown:
Section |  min time  |  avg time  |  max time  |%varavg| %total
---------------------------------------------------------------
Pair    | 0.71       | 1.9899     | 2.6114     |  38.2 | 71.70
Neigh   | 0          | 0          | 0          |   0.0 |  0.00
Comm    | 0.039976   | 0.44979    | 1.3462     |  55.3 | 16.21
Output  | 0          | 0          | 0          |   0.0 |  0.00
Modify  | 2.8615e-05 | 0.0039092  | 0.0083758  |   2.9 |  0.14
Other   |            | 0.3319     |            |       | 11.96

Nlocal:        2776.45 ave        3957 max           0 min
Histogram: 8 4 4 0 4 12 8 2 28 34
Nghost:        3878.84 ave        5425 max         232 min
Histogram: 8 0 8 0 16 0 8 8 16 40
Neighs:        79213.6 ave      115381 max           0 min
Histogram: 8 4 4 0 10 6 8 8 24 32

Total # of neighbors = 8238214
Ave neighs/atom = 28.530512
Neighbor list builds = 0
Dangerous builds = 0
The dot product: 3.75052758128967e-08
The cos of the angle between the force vector and the displacement vector: 0.0101208093226908
The angle: 89.420110440509
Setting atom values ...
  1 settings made for x
  1 settings made for y
  1 settings made for z
Setting up cg style minimization ...
  Unit style    : metal
  Current step  : 4534
Per MPI rank memory allocation (min/avg/max) = 5.441 | 5.816 | 6.074 Mbytes
Step PotEng KinEng TotEng v_fx v_fy v_fz 
    4534   -1152448.8            0   -1152448.8 0.0093177645 0.0025134978 -0.011160418 
    4716   -1152448.8            0   -1152448.8 9.9108792e-07 -6.1311415e-06 -1.6550089e-06 
Loop time of 2.12692 on 104 procs for 182 steps with 288751 atoms

99.9% CPU use with 104 MPI tasks x 1 OpenMP threads

Minimization stats:
  Stopping criterion = energy tolerance
  Energy initial, next-to-last, final = 
     -1152448.76368931  -1152448.76737112  -1152448.76737112
  Force two-norm initial, final = 0.27144889 0.0002578104
  Force max component initial, final = 0.22628044 4.8406189e-05
  Final line search alpha, max atom move = 1.0000000 4.8406189e-05
  Iterations, force evaluations = 182 364

MPI task timing breakdown:
Section |  min time  |  avg time  |  max time  |%varavg| %total
---------------------------------------------------------------
Pair    | 0.54713    | 1.5289     | 1.9931     |  33.5 | 71.89
Neigh   | 0          | 0          | 0          |   0.0 |  0.00
Comm    | 0.030357   | 0.34503    | 1.0398     |  49.0 | 16.22
Output  | 0          | 0          | 0          |   0.0 |  0.00
Modify  | 2.2315e-05 | 0.0030022  | 0.0064327  |   2.6 |  0.14
Other   |            | 0.2499     |            |       | 11.75

Nlocal:        2776.45 ave        3956 max           0 min
Histogram: 8 4 4 0 4 12 8 0 30 34
Nghost:        3878.83 ave        5425 max         232 min
Histogram: 8 0 8 0 16 0 8 8 16 40
Neighs:        79213.6 ave      115356 max           0 min
Histogram: 8 4 4 0 10 6 8 8 24 32

Total # of neighbors = 8238212
Ave neighs/atom = 28.530506
Neighbor list builds = 0
Dangerous builds = 0
The dot product: -9.00357584092688e-09
The cos of the angle between the force vector and the displacement vector: -0.00140079903173981
The angle: 90.0802598987127
Setting atom values ...
  1 settings made for x
  1 settings made for y
  1 settings made for z
Setting up cg style minimization ...
  Unit style    : metal
  Current step  : 4716
Per MPI rank memory allocation (min/avg/max) = 5.441 | 5.816 | 6.074 Mbytes
Step PotEng KinEng TotEng v_fx v_fy v_fz 
    4716   -1152448.7            0   -1152448.7  0.016311956 0.0044141255 -0.019273883 
    4935   -1152448.7            0   -1152448.7 8.0318631e-07 -7.4316657e-07 -1.0195545e-06 
Loop time of 2.57903 on 104 procs for 219 steps with 288751 atoms

99.9% CPU use with 104 MPI tasks x 1 OpenMP threads

Minimization stats:
  Stopping criterion = energy tolerance
  Energy initial, next-to-last, final = 
      -1152448.7052347  -1152448.70915128  -1152448.70915128
  Force two-norm initial, final = 0.27320635 8.0089336e-05
  Force max component initial, final = 0.22935595 5.5145804e-06
  Final line search alpha, max atom move = 1.0000000 5.5145804e-06
  Iterations, force evaluations = 219 438

MPI task timing breakdown:
Section |  min time  |  avg time  |  max time  |%varavg| %total
---------------------------------------------------------------
Pair    | 0.65758    | 1.845      | 2.405      |  36.8 | 71.54
Neigh   | 0          | 0          | 0          |   0.0 |  0.00
Comm    | 0.03992    | 0.41365    | 1.2463     |  53.8 | 16.04
Output  | 0          | 0          | 0          |   0.0 |  0.00
Modify  | 2.6355e-05 | 0.0036138  | 0.0077128  |   2.8 |  0.14
Other   |            | 0.3167     |            |       | 12.28

Nlocal:        2776.45 ave        3955 max           0 min
Histogram: 8 4 4 0 4 12 8 0 30 34
Nghost:        3878.82 ave        5425 max         232 min
Histogram: 8 0 8 0 16 0 8 8 16 40
Neighs:        79213.6 ave      115324 max           0 min
Histogram: 8 4 4 0 10 6 8 8 24 32

Total # of neighbors = 8238212
Ave neighs/atom = 28.530506
Neighbor list builds = 0
Dangerous builds = 0
The dot product: -4.13060973131963e-09
The cos of the angle between the force vector and the displacement vector: -0.00276179385903599
The angle: 90.1582393331704
Setting atom values ...
  1 settings made for x
  1 settings made for y
  1 settings made for z
Setting up cg style minimization ...
  Unit style    : metal
  Current step  : 4935
Per MPI rank memory allocation (min/avg/max) = 5.441 | 5.816 | 6.074 Mbytes
Step PotEng KinEng TotEng v_fx v_fy v_fz 
    4935   -1152448.6            0   -1152448.6  0.021745461 0.0067602013 -0.025417185 
    5000   -1152448.6            0   -1152448.6 -0.00022386847 -5.3193644e-05 0.0002628964 
    5119   -1152448.6            0   -1152448.6 -3.5642643e-07 2.1080152e-06 5.826873e-07 
Loop time of 2.13545 on 104 procs for 184 steps with 288751 atoms

99.9% CPU use with 104 MPI tasks x 1 OpenMP threads

Minimization stats:
  Stopping criterion = energy tolerance
  Energy initial, next-to-last, final = 
     -1152448.64584478  -1152448.64987917  -1152448.64987917
  Force two-norm initial, final = 0.27171773 0.00015110762
  Force max component initial, final = 0.23017751 1.0113721e-05
  Final line search alpha, max atom move = 1.0000000 1.0113721e-05
  Iterations, force evaluations = 184 368

MPI task timing breakdown:
Section |  min time  |  avg time  |  max time  |%varavg| %total
---------------------------------------------------------------
Pair    | 0.5521     | 1.5416     | 2.0158     |  33.6 | 72.19
Neigh   | 0          | 0          | 0          |   0.0 |  0.00
Comm    | 0.032718   | 0.34506    | 1.0392     |  49.3 | 16.16
Output  | 9.3104e-05 | 0.00010135 | 0.00023031 |   0.0 |  0.00
Modify  | 2.2004e-05 | 0.0030335  | 0.006484   |   2.6 |  0.14
Other   |            | 0.2456     |            |       | 11.50

Nlocal:        2776.45 ave        3955 max           0 min
Histogram: 8 4 4 0 4 12 8 0 30 34
Nghost:        3878.75 ave        5425 max         232 min
Histogram: 8 0 8 0 16 0 8 8 16 40
Neighs:        79213.5 ave      115329 max           0 min
Histogram: 8 4 4 0 10 6 8 8 24 32

Total # of neighbors = 8238204
Ave neighs/atom = 28.530478
Neighbor list builds = 0
Dangerous builds = 0
The dot product: -3.48682324341329e-09
The cos of the angle between the force vector and the displacement vector: -0.00157353444739412
The angle: 90.0901569199591
Setting atom values ...
  1 settings made for x
  1 settings made for y
  1 settings made for z
Setting up cg style minimization ...
  Unit style    : metal
  Current step  : 5119
Per MPI rank memory allocation (min/avg/max) = 5.441 | 5.816 | 6.074 Mbytes
Step PotEng KinEng TotEng v_fx v_fy v_fz 
    5119   -1152448.6            0   -1152448.6  0.028677748 0.0064617804 -0.033650966 
    5340   -1152448.6            0   -1152448.6 -3.641721e-05 -3.5819467e-06 4.3091523e-05 
Loop time of 2.58738 on 104 procs for 221 steps with 288751 atoms

99.9% CPU use with 104 MPI tasks x 1 OpenMP threads

Minimization stats:
  Stopping criterion = energy tolerance
  Energy initial, next-to-last, final = 
     -1152448.58669228  -1152448.59185185  -1152448.59185185
  Force two-norm initial, final = 0.2708341 0.00019532877
  Force max component initial, final = 0.22868363 4.3221835e-05
  Final line search alpha, max atom move = 1.0000000 4.3221835e-05
  Iterations, force evaluations = 221 442

MPI task timing breakdown:
Section |  min time  |  avg time  |  max time  |%varavg| %total
---------------------------------------------------------------
Pair    | 0.66469    | 1.866      | 2.4347     |  37.0 | 72.12
Neigh   | 0          | 0          | 0          |   0.0 |  0.00
Comm    | 0.040661   | 0.41896    | 1.2568     |  54.0 | 16.19
Output  | 0          | 0          | 0          |   0.0 |  0.00
Modify  | 2.6478e-05 | 0.0036385  | 0.0077929  |   2.8 |  0.14
Other   |            | 0.2988     |            |       | 11.55

Nlocal:        2776.45 ave        3954 max           0 min
Histogram: 8 4 4 0 4 12 8 0 30 34
Nghost:        3878.73 ave        5425 max         232 min
Histogram: 8 0 8 0 16 0 8 8 16 40
Neighs:        79213.5 ave      115293 max           0 min
Histogram: 8 4 4 0 10 6 8 8 24 32

Total # of neighbors = 8238203
Ave neighs/atom = 28.530474
Neighbor list builds = 0
Dangerous builds = 0
The dot product: 5.1678257704175e-08
The cos of the angle between the force vector and the displacement vector: 0.000914133693554744
The angle: 89.9476239901542
Setting atom values ...
  1 settings made for x
  1 settings made for y
  1 settings made for z
Setting up cg style minimization ...
  Unit style    : metal
  Current step  : 5340
Per MPI rank memory allocation (min/avg/max) = 5.441 | 5.816 | 6.074 Mbytes
Step PotEng KinEng TotEng v_fx v_fy v_fz 
    5340   -1152448.5            0   -1152448.5  0.032046901 0.0015621419 -0.037979996 
    5639   -1152448.6            0   -1152448.6 2.1680291e-06 2.7484746e-07 -2.5555286e-06 
Loop time of 3.47814 on 104 procs for 299 steps with 288751 atoms

99.9% CPU use with 104 MPI tasks x 1 OpenMP threads

Minimization stats:
  Stopping criterion = energy tolerance
  Energy initial, next-to-last, final = 
     -1152448.53330089  -1152448.55480464  -1152448.55480464
  Force two-norm initial, final = 0.2869328 1.2335579e-05
  Force max component initial, final = 0.22215924 3.1992507e-06
  Final line search alpha, max atom move = 1.0000000 3.1992507e-06
  Iterations, force evaluations = 299 598

MPI task timing breakdown:
Section |  min time  |  avg time  |  max time  |%varavg| %total
---------------------------------------------------------------
Pair    | 0.90236    | 2.5037     | 3.2668     |  42.8 | 71.98
Neigh   | 1.0303e-05 | 0.0029438  | 0.004271   |   2.2 |  0.08
Comm    | 0.053217   | 0.56041    | 1.679      |  62.7 | 16.11
Output  | 0          | 0          | 0          |   0.0 |  0.00
Modify  | 3.5664e-05 | 0.0049257  | 0.010534   |   3.3 |  0.14
Other   |            | 0.4061     |            |       | 11.68

Nlocal:        2776.45 ave        3953 max           0 min
Histogram: 8 4 4 0 4 12 8 0 30 34
Nghost:        3878.71 ave        5424 max         232 min
Histogram: 8 0 8 0 16 0 8 8 16 40
Neighs:        79213.4 ave      115243 max           0 min
Histogram: 8 4 4 0 10 6 8 8 24 32

Total # of neighbors = 8238194
Ave neighs/atom = 28.530443
Neighbor list builds = 1
Dangerous builds = 0
The dot product: -6.36691359740175e-08
The cos of the angle between the force vector and the displacement vector: -0.0189348817705803
The angle: 91.0849536489803
Setting atom values ...
  1 settings made for x
  1 settings made for y
  1 settings made for z
Setting up cg style minimization ...
  Unit style    : metal
  Current step  : 5639
Per MPI rank memory allocation (min/avg/max) = 5.441 | 5.816 | 6.074 Mbytes
Step PotEng KinEng TotEng v_fx v_fy v_fz 
    5639   -1152448.5            0   -1152448.5  0.035907074  0.012736243 -0.040031829 
    5863   -1152448.5            0   -1152448.5 2.9111882e-05 2.8561468e-06 -3.3083819e-05 
Loop time of 2.62095 on 104 procs for 224 steps with 288751 atoms

99.9% CPU use with 104 MPI tasks x 1 OpenMP threads

Minimization stats:
  Stopping criterion = energy tolerance
  Energy initial, next-to-last, final = 
     -1152448.51650394  -1152448.52171529  -1152448.52171529
  Force two-norm initial, final = 0.26539793 0.00015929477
  Force max component initial, final = 0.22005458 4.3993184e-05
  Final line search alpha, max atom move = 1.0000000 4.3993184e-05
  Iterations, force evaluations = 224 448

MPI task timing breakdown:
Section |  min time  |  avg time  |  max time  |%varavg| %total
---------------------------------------------------------------
Pair    | 0.67247    | 1.8897     | 2.4626     |  37.0 | 72.10
Neigh   | 0          | 0          | 0          |   0.0 |  0.00
Comm    | 0.047413   | 0.42344    | 1.2661     |  54.1 | 16.16
Output  | 0          | 0          | 0          |   0.0 |  0.00
Modify  | 2.7096e-05 | 0.0036856  | 0.0078861  |   2.9 |  0.14
Other   |            | 0.3041     |            |       | 11.60

Nlocal:        2776.45 ave        3953 max           0 min
Histogram: 8 4 4 0 4 12 8 0 30 34
Nghost:        3878.92 ave        5424 max         232 min
Histogram: 8 0 8 0 16 0 8 8 16 40
Neighs:        79213.4 ave      115241 max           0 min
Histogram: 8 4 4 0 10 6 8 8 24 32

Total # of neighbors = 8238195
Ave neighs/atom = 28.530447
Neighbor list builds = 0
Dangerous builds = 0
The dot product: -2.4877072965425e-07
The cos of the angle between the force vector and the displacement vector: -0.00563326113398051
The angle: 90.3227637949651
Setting atom values ...
  1 settings made for x
  1 settings made for y
  1 settings made for z
Setting up cg style minimization ...
  Unit style    : metal
  Current step  : 5863
Per MPI rank memory allocation (min/avg/max) = 5.441 | 5.816 | 6.074 Mbytes
Step PotEng KinEng TotEng v_fx v_fy v_fz 
    5863   -1152448.5            0   -1152448.5  0.054213442  0.036334069  -0.05852052 
    6000   -1152448.5            0   -1152448.5 0.00011331281 -1.8924721e-06 -0.00012831129 
    6150   -1152448.5            0   -1152448.5 2.795915e-06 4.8867478e-08 -3.1586303e-06 
Loop time of 3.37492 on 104 procs for 287 steps with 288751 atoms

99.9% CPU use with 104 MPI tasks x 1 OpenMP threads

Minimization stats:
  Stopping criterion = energy tolerance
  Energy initial, next-to-last, final = 
     -1152448.48642406  -1152448.49770807  -1152448.49770807
  Force two-norm initial, final = 0.26812147 3.1003664e-05
  Force max component initial, final = 0.21246733 4.4327855e-06
  Final line search alpha, max atom move = 1.0000000 4.4327855e-06
  Iterations, force evaluations = 287 578

MPI task timing breakdown:
Section |  min time  |  avg time  |  max time  |%varavg| %total
---------------------------------------------------------------
Pair    | 0.87221    | 2.4293     | 3.1743     |  42.2 | 71.98
Neigh   | 1.0263e-05 | 0.0029649  | 0.004287   |   2.2 |  0.09
Comm    | 0.049017   | 0.5468     | 1.6547     |  62.0 | 16.20
Output  | 0.00014054 | 0.00014759 | 0.00030689 |   0.0 |  0.00
Modify  | 3.4355e-05 | 0.0047655  | 0.010196   |   3.2 |  0.14
Other   |            | 0.3909     |            |       | 11.58

Nlocal:        2776.45 ave        3950 max           0 min
Histogram: 8 4 4 0 4 12 8 0 28 36
Nghost:        3878.93 ave        5424 max         232 min
Histogram: 8 0 8 0 16 0 8 8 16 40
Neighs:        79213.3 ave      115132 max           0 min
Histogram: 8 4 4 0 10 6 8 8 24 32

Total # of neighbors = 8238187
Ave neighs/atom = 28.530419
Neighbor list builds = 1
Dangerous builds = 0
The dot product: 1.80334283238462e-07
The cos of the angle between the force vector and the displacement vector: 0.0427475586619196
The angle: 87.5499987476532
Setting atom values ...
  1 settings made for x
  1 settings made for y
  1 settings made for z
Setting up cg style minimization ...
  Unit style    : metal
  Current step  : 6150
Per MPI rank memory allocation (min/avg/max) = 5.441 | 5.816 | 6.074 Mbytes
Step PotEng KinEng TotEng v_fx v_fy v_fz 
    6150   -1152448.5            0   -1152448.5  0.071988517   0.11116638 -0.096562036 
    6433   -1152448.6            0   -1152448.6 4.0895171e-06 -1.2934956e-06 -4.9411323e-06 
Loop time of 3.31055 on 104 procs for 283 steps with 288751 atoms

99.9% CPU use with 104 MPI tasks x 1 OpenMP threads

Minimization stats:
  Stopping criterion = energy tolerance
  Energy initial, next-to-last, final = 
     -1152448.47442114  -1152448.55443155  -1152448.55443155
  Force two-norm initial, final = 0.28805203 4.0212086e-05
  Force max component initial, final = 0.18807695 5.4625447e-06
  Final line search alpha, max atom move = 1.0000000 5.4625447e-06
  Iterations, force evaluations = 283 566

MPI task timing breakdown:
Section |  min time  |  avg time  |  max time  |%varavg| %total
---------------------------------------------------------------
Pair    | 0.8562     | 2.3866     | 3.1107     |  41.7 | 72.09
Neigh   | 2.0404e-05 | 0.0059079  | 0.0084995  |   3.2 |  0.18
Comm    | 0.048844   | 0.53687    | 1.609      |  60.9 | 16.22
Output  | 0          | 0          | 0          |   0.0 |  0.00
Modify  | 3.4277e-05 | 0.004664   | 0.00995    |   3.2 |  0.14
Other   |            | 0.3765     |            |       | 11.37

Nlocal:        2776.45 ave        3949 max           0 min
Histogram: 8 4 4 0 4 12 8 0 28 36
Nghost:        3878.99 ave        5424 max         232 min
Histogram: 8 0 8 0 16 0 8 8 16 40
Neighs:        79213.6 ave      115109 max           0 min
Histogram: 8 4 4 0 10 6 8 8 24 32

Total # of neighbors = 8238211
Ave neighs/atom = 28.530502
Neighbor list builds = 2
Dangerous builds = 0
The dot product: 3.900023158785e-07
The cos of the angle between the force vector and the displacement vector: 0.0596051903602324
The angle: 86.5828487177054
Setting atom values ...
  1 settings made for x
  1 settings made for y
  1 settings made for z
Setting up cg style minimization ...
  Unit style    : metal
  Current step  : 6433
Per MPI rank memory allocation (min/avg/max) = 5.441 | 5.816 | 6.074 Mbytes
Step PotEng KinEng TotEng v_fx v_fy v_fz 
    6433   -1152448.6            0   -1152448.6  0.041359599  0.026777822 -0.076962106 
    6613   -1152448.6            0   -1152448.6 6.8117622e-06 6.9799028e-07 -1.0861053e-05 
Loop time of 2.11639 on 104 procs for 180 steps with 288751 atoms

99.9% CPU use with 104 MPI tasks x 1 OpenMP threads

Minimization stats:
  Stopping criterion = energy tolerance
  Energy initial, next-to-last, final = 
     -1152448.55190388  -1152448.55514875  -1152448.55514875
  Force two-norm initial, final = 0.21021616 7.2432494e-05
  Force max component initial, final = 0.13948828 1.0861053e-05
  Final line search alpha, max atom move = 1.0000000 1.0861053e-05
  Iterations, force evaluations = 180 360

MPI task timing breakdown:
Section |  min time  |  avg time  |  max time  |%varavg| %total
---------------------------------------------------------------
Pair    | 0.53943    | 1.5147     | 1.9754     |  33.4 | 71.57
Neigh   | 0          | 0          | 0          |   0.0 |  0.00
Comm    | 0.030214   | 0.34214    | 1.0308     |  48.7 | 16.17
Output  | 0          | 0          | 0          |   0.0 |  0.00
Modify  | 2.1559e-05 | 0.0029748  | 0.0063671  |   2.6 |  0.14
Other   |            | 0.2566     |            |       | 12.12

Nlocal:        2776.45 ave        3951 max           0 min
Histogram: 8 4 4 0 4 12 8 0 30 34
Nghost:        3879.05 ave        5426 max         232 min
Histogram: 8 0 8 0 16 0 8 8 16 40
Neighs:        79213.5 ave      115179 max           0 min
Histogram: 8 4 4 0 10 6 8 8 24 32

Total # of neighbors = 8238204
Ave neighs/atom = 28.530478
Neighbor list builds = 0
Dangerous builds = 0
The dot product: -1.44838408367092e-07
The cos of the angle between the force vector and the displacement vector: -0.0112807917419003
The angle: 90.6463554656677
Setting atom values ...
  1 settings made for x
  1 settings made for y
  1 settings made for z
Setting up cg style minimization ...
  Unit style    : metal
  Current step  : 6613
Per MPI rank memory allocation (min/avg/max) = 5.441 | 5.816 | 6.074 Mbytes
Step PotEng KinEng TotEng v_fx v_fy v_fz 
    6613   -1152448.6            0   -1152448.6  0.053278359  0.033280575 -0.095796184 
    6780   -1152448.6            0   -1152448.6 -1.5212911e-05 -6.6979133e-07 2.3237968e-05 
Loop time of 1.94307 on 104 procs for 167 steps with 288751 atoms

99.9% CPU use with 104 MPI tasks x 1 OpenMP threads

Minimization stats:
  Stopping criterion = energy tolerance
  Energy initial, next-to-last, final = 
     -1152448.55214978  -1152448.55499604  -1152448.55499604
  Force two-norm initial, final = 0.22158956 0.00014954763
  Force max component initial, final = 0.13610713 2.3237968e-05
  Final line search alpha, max atom move = 1.0000000 2.3237968e-05
  Iterations, force evaluations = 167 334

MPI task timing breakdown:
Section |  min time  |  avg time  |  max time  |%varavg| %total
---------------------------------------------------------------
Pair    | 0.50231    | 1.4064     | 1.8368     |  32.1 | 72.38
Neigh   | 0          | 0          | 0          |   0.0 |  0.00
Comm    | 0.028479   | 0.31448    | 0.95171    |  47.0 | 16.18
Output  | 0          | 0          | 0          |   0.0 |  0.00
Modify  | 2.0472e-05 | 0.0027536  | 0.005866   |   2.5 |  0.14
Other   |            | 0.2194     |            |       | 11.29

Nlocal:        2776.45 ave        3950 max           0 min
Histogram: 8 4 4 0 4 12 8 0 28 36
Nghost:        3879.03 ave        5426 max         232 min
Histogram: 8 0 8 0 16 0 8 8 16 40
Neighs:        79213.5 ave      115145 max           0 min
Histogram: 8 4 4 0 10 6 8 8 24 32

Total # of neighbors = 8238202
Ave neighs/atom = 28.530471
Neighbor list builds = 0
Dangerous builds = 0
The dot product: 6.54929762576314e-08
The cos of the angle between the force vector and the displacement vector: 0.00235732023345409
The angle: 89.8649353745706
Setting atom values ...
  1 settings made for x
  1 settings made for y
  1 settings made for z
Setting up cg style minimization ...
  Unit style    : metal
  Current step  : 6780
Per MPI rank memory allocation (min/avg/max) = 5.441 | 5.816 | 6.074 Mbytes
Step PotEng KinEng TotEng v_fx v_fy v_fz 
    6780   -1152448.5            0   -1152448.5  0.054072948  0.038300114 -0.098648935 
    6943   -1152448.6            0   -1152448.6 -1.6360019e-05 1.4572599e-07 2.4461766e-05 
Loop time of 1.88551 on 104 procs for 163 steps with 288751 atoms

99.9% CPU use with 104 MPI tasks x 1 OpenMP threads

Minimization stats:
  Stopping criterion = energy tolerance
  Energy initial, next-to-last, final = 
      -1152448.5498875  -1152448.55261435  -1152448.55261435
  Force two-norm initial, final = 0.22836002 0.00026269057
  Force max component initial, final = 0.13297533 2.4461766e-05
  Final line search alpha, max atom move = 1.0000000 2.4461766e-05
  Iterations, force evaluations = 163 326

MPI task timing breakdown:
Section |  min time  |  avg time  |  max time  |%varavg| %total
---------------------------------------------------------------
Pair    | 0.48776    | 1.3644     | 1.7805     |  31.7 | 72.36
Neigh   | 0          | 0          | 0          |   0.0 |  0.00
Comm    | 0.027398   | 0.30436    | 0.92238    |  46.5 | 16.14
Output  | 0          | 0          | 0          |   0.0 |  0.00
Modify  | 1.9496e-05 | 0.002693   | 0.0057301  |   2.4 |  0.14
Other   |            | 0.2141     |            |       | 11.35

Nlocal:        2776.45 ave        3950 max           0 min
Histogram: 8 4 4 0 4 12 8 0 28 36
Nghost:        3879.05 ave        5426 max         232 min
Histogram: 8 0 8 0 16 0 8 8 16 40
Neighs:        79213.5 ave      115149 max           0 min
Histogram: 8 4 4 0 10 6 8 8 24 32

Total # of neighbors = 8238208
Ave neighs/atom = 28.530492
Neighbor list builds = 0
Dangerous builds = 0
The dot product: -3.96063872311697e-08
The cos of the angle between the force vector and the displacement vector: -0.00134584138886404
The angle: 90.0771110547546
Setting atom values ...
  1 settings made for x
  1 settings made for y
  1 settings made for z
Setting up cg style minimization ...
  Unit style    : metal
  Current step  : 6943
Per MPI rank memory allocation (min/avg/max) = 5.441 | 5.816 | 6.074 Mbytes
Step PotEng KinEng TotEng v_fx v_fy v_fz 
    6943   -1152448.5            0   -1152448.5  0.053563649  0.041808882 -0.099813644 
    7000   -1152448.5            0   -1152448.5 -9.0028939e-05 -9.7334125e-06 0.00013987298 
    7149   -1152448.5            0   -1152448.5 1.2721241e-06 1.0275667e-07 -1.9604053e-06 
Loop time of 2.40901 on 104 procs for 206 steps with 288751 atoms

99.9% CPU use with 104 MPI tasks x 1 OpenMP threads

Minimization stats:
  Stopping criterion = energy tolerance
  Energy initial, next-to-last, final = 
     -1152448.54443835  -1152448.54723346  -1152448.54723346
  Force two-norm initial, final = 0.2317505 5.7896489e-05
  Force max component initial, final = 0.13107413 1.9604053e-06
  Final line search alpha, max atom move = 1.0000000 1.9604053e-06
  Iterations, force evaluations = 206 412

MPI task timing breakdown:
Section |  min time  |  avg time  |  max time  |%varavg| %total
---------------------------------------------------------------
Pair    | 0.62308    | 1.7392     | 2.2634     |  35.6 | 72.19
Neigh   | 0          | 0          | 0          |   0.0 |  0.00
Comm    | 0.03592    | 0.38779    | 1.1711     |  52.4 | 16.10
Output  | 0.00014334 | 0.00015058 | 0.00029793 |   0.0 |  0.01
Modify  | 2.4892e-05 | 0.0033949  | 0.007244   |   2.7 |  0.14
Other   |            | 0.2785     |            |       | 11.56

Nlocal:        2776.45 ave        3951 max           0 min
Histogram: 8 4 4 0 4 12 8 0 30 34
Nghost:        3879.07 ave        5426 max         232 min
Histogram: 8 0 8 0 16 0 8 8 16 40
Neighs:        79213.5 ave      115175 max           0 min
Histogram: 8 4 4 0 10 6 8 8 24 32

Total # of neighbors = 8238207
Ave neighs/atom = 28.530488
Neighbor list builds = 0
Dangerous builds = 0
The dot product: 4.12727725167895e-09
The cos of the angle between the force vector and the displacement vector: 0.0017643661057081
The angle: 89.898909216178
Setting atom values ...
  1 settings made for x
  1 settings made for y
  1 settings made for z
Setting up cg style minimization ...
  Unit style    : metal
  Current step  : 7149
Per MPI rank memory allocation (min/avg/max) = 5.441 | 5.816 | 6.074 Mbytes
Step PotEng KinEng TotEng v_fx v_fy v_fz 
    7149   -1152448.5            0   -1152448.5  0.052095466  0.043926744 -0.099056609 
    7576   -1152448.5            0   -1152448.5 -1.07794e-05 -7.0547933e-07 1.6600169e-05 
Loop time of 4.97988 on 104 procs for 427 steps with 288751 atoms

99.9% CPU use with 104 MPI tasks x 1 OpenMP threads

Minimization stats:
  Stopping criterion = energy tolerance
  Energy initial, next-to-last, final = 
     -1152448.53568859  -1152448.53852883  -1152448.53852883
  Force two-norm initial, final = 0.23099201 0.00023299039
  Force max component initial, final = 0.12948974 1.6600169e-05
  Final line search alpha, max atom move = 1.0000000 1.6600169e-05
  Iterations, force evaluations = 427 854

MPI task timing breakdown:
Section |  min time  |  avg time  |  max time  |%varavg| %total
---------------------------------------------------------------
Pair    | 1.2808     | 3.5771     | 4.6788     |  51.2 | 71.83
Neigh   | 0          | 0          | 0          |   0.0 |  0.00
Comm    | 0.075245   | 0.80596    | 2.3981     |  74.4 | 16.18
Output  | 0          | 0          | 0          |   0.0 |  0.00
Modify  | 5.0928e-05 | 0.0070199  | 0.014995   |   3.9 |  0.14
Other   |            | 0.5898     |            |       | 11.84

Nlocal:        2776.45 ave        3951 max           0 min
Histogram: 8 4 4 0 4 12 8 0 30 34
Nghost:        3879.07 ave        5426 max         232 min
Histogram: 8 0 8 0 16 0 8 8 16 40
Neighs:        79213.5 ave      115176 max           0 min
Histogram: 8 4 4 0 10 6 8 8 24 32

Total # of neighbors = 8238205
Ave neighs/atom = 28.530481
Neighbor list builds = 0
Dangerous builds = 0
The dot product: -8.60952741918957e-09
The cos of the angle between the force vector and the displacement vector: -0.000434703346611915
The angle: 90.0249066678855
Setting atom values ...
  1 settings made for x
  1 settings made for y
  1 settings made for z
Setting up cg style minimization ...
  Unit style    : metal
  Current step  : 7576
Per MPI rank memory allocation (min/avg/max) = 5.441 | 5.816 | 6.074 Mbytes
Step PotEng KinEng TotEng v_fx v_fy v_fz 
    7576   -1152448.5            0   -1152448.5  0.049704532  0.044863294 -0.096074822 
    7788   -1152448.5            0   -1152448.5 -8.6682637e-07 -3.2637798e-07 1.4622804e-06 
Loop time of 2.47491 on 104 procs for 212 steps with 288751 atoms

99.9% CPU use with 104 MPI tasks x 1 OpenMP threads

Minimization stats:
  Stopping criterion = energy tolerance
  Energy initial, next-to-last, final = 
     -1152448.52363815  -1152448.52644316  -1152448.52644316
  Force two-norm initial, final = 0.22691745 6.0546892e-05
  Force max component initial, final = 0.12782429 1.6826866e-06
  Final line search alpha, max atom move = 1.0000000 1.6826866e-06
  Iterations, force evaluations = 212 424

MPI task timing breakdown:
Section |  min time  |  avg time  |  max time  |%varavg| %total
---------------------------------------------------------------
Pair    | 0.63599    | 1.789      | 2.3315     |  36.2 | 72.28
Neigh   | 0          | 0          | 0          |   0.0 |  0.00
Comm    | 0.039658   | 0.39804    | 1.1972     |  53.2 | 16.08
Output  | 0          | 0          | 0          |   0.0 |  0.00
Modify  | 2.5931e-05 | 0.0034943  | 0.0074762  |   2.8 |  0.14
Other   |            | 0.2844     |            |       | 11.49

Nlocal:        2776.45 ave        3953 max           0 min
Histogram: 8 4 4 0 4 12 8 0 30 34
Nghost:        3879.05 ave        5426 max         232 min
Histogram: 8 0 8 0 16 0 8 8 16 40
Neighs:        79213.5 ave      115254 max           0 min
Histogram: 8 4 4 0 10 6 8 8 24 32

Total # of neighbors = 8238206
Ave neighs/atom = 28.530485
Neighbor list builds = 0
Dangerous builds = 0
The dot product: -2.00399992712377e-09
The cos of the angle between the force vector and the displacement vector: -0.00115774829707761
The angle: 90.0663341059797
Setting atom values ...
  1 settings made for x
  1 settings made for y
  1 settings made for z
Setting up cg style minimization ...
  Unit style    : metal
  Current step  : 7788
Per MPI rank memory allocation (min/avg/max) = 5.441 | 5.816 | 6.074 Mbytes
Step PotEng KinEng TotEng v_fx v_fy v_fz 
    7788   -1152448.5            0   -1152448.5  0.046929099  0.045979495 -0.092745601 
    7982   -1152448.5            0   -1152448.5 4.4520864e-06 1.6750661e-06 -7.5290928e-06 
Loop time of 2.28207 on 104 procs for 194 steps with 288751 atoms

99.9% CPU use with 104 MPI tasks x 1 OpenMP threads

Minimization stats:
  Stopping criterion = energy tolerance
  Energy initial, next-to-last, final = 
     -1152448.50805204  -1152448.51078044  -1152448.51078044
  Force two-norm initial, final = 0.22224318 8.8806300e-05
  Force max component initial, final = 0.1264541 7.5290928e-06
  Final line search alpha, max atom move = 1.0000000 7.5290928e-06
  Iterations, force evaluations = 194 388

MPI task timing breakdown:
Section |  min time  |  avg time  |  max time  |%varavg| %total
---------------------------------------------------------------
Pair    | 0.5863     | 1.6328     | 2.1384     |  34.5 | 71.55
Neigh   | 0          | 0          | 0          |   0.0 |  0.00
Comm    | 0.038793   | 0.37002    | 1.1105     |  50.4 | 16.21
Output  | 0          | 0          | 0          |   0.0 |  0.00
Modify  | 2.3269e-05 | 0.0032039  | 0.0068456  |   2.7 |  0.14
Other   |            | 0.276      |            |       | 12.09

Nlocal:        2776.45 ave        3952 max           0 min
Histogram: 8 4 4 0 4 12 8 0 30 34
Nghost:        3879.03 ave        5426 max         232 min
Histogram: 8 0 8 0 16 0 8 8 16 40
Neighs:        79213.5 ave      115230 max           0 min
Histogram: 8 4 4 0 10 6 8 8 24 32

Total # of neighbors = 8238206
Ave neighs/atom = 28.530485
Neighbor list builds = 0
Dangerous builds = 0
The dot product: 9.74852340921266e-09
The cos of the angle between the force vector and the displacement vector: 0.00109462024873418
The angle: 89.9372828670536
Setting atom values ...
  1 settings made for x
  1 settings made for y
  1 settings made for z
Setting up cg style minimization ...
  Unit style    : metal
  Current step  : 7982
Per MPI rank memory allocation (min/avg/max) = 5.441 | 5.816 | 6.074 Mbytes
Step PotEng KinEng TotEng v_fx v_fy v_fz 
    7982   -1152448.5            0   -1152448.5  0.043467734  0.047399282 -0.088548941 
    8000   -1152448.5            0   -1152448.5 -0.00015373684 -0.00018901987 0.00032341324 
    8232   -1152448.5            0   -1152448.5 -3.6828753e-07 8.9689311e-07 1.2869378e-07 
Loop time of 2.91499 on 104 procs for 250 steps with 288751 atoms

99.9% CPU use with 104 MPI tasks x 1 OpenMP threads

Minimization stats:
  Stopping criterion = energy tolerance
  Energy initial, next-to-last, final = 
     -1152448.48885028  -1152448.49158661  -1152448.49158661
  Force two-norm initial, final = 0.21793244 0.00018475149
  Force max component initial, final = 0.12522038 6.9063170e-06
  Final line search alpha, max atom move = 1.0000000 6.9063170e-06
  Iterations, force evaluations = 250 500

MPI task timing breakdown:
Section |  min time  |  avg time  |  max time  |%varavg| %total
---------------------------------------------------------------
Pair    | 0.74993    | 2.1028     | 2.749      |  39.3 | 72.14
Neigh   | 0          | 0          | 0          |   0.0 |  0.00
Comm    | 0.044408   | 0.4738     | 1.4233     |  57.1 | 16.25
Output  | 0.00010528 | 0.00010796 | 0.00020583 |   0.0 |  0.00
Modify  | 3.0239e-05 | 0.0041174  | 0.0087814  |   3.0 |  0.14
Other   |            | 0.3342     |            |       | 11.46

Nlocal:        2776.45 ave        3952 max           0 min
Histogram: 8 4 4 0 4 12 8 0 30 34
Nghost:        3879.02 ave        5425 max         232 min
Histogram: 8 0 8 0 16 0 8 8 16 40
Neighs:        79213.5 ave      115228 max           0 min
Histogram: 8 4 4 0 10 6 8 8 24 32

Total # of neighbors = 8238202
Ave neighs/atom = 28.530471
Neighbor list builds = 0
Dangerous builds = 0
The dot product: 3.01397731798635e-09
[...]
  Unit style    : metal
  Current step  : 6896
Per MPI rank memory allocation (min/avg/max) = 5.441 | 5.816 | 6.074 Mbytes
Step PotEng KinEng TotEng v_fx v_fy v_fz 
    6896   -1152448.5            0   -1152448.5  0.052164358  0.043868684 -0.099116661 
    7000   -1152448.5            0   -1152448.5 -8.4587441e-06 -1.1449053e-05 1.8086517e-05 
    7349   -1152448.5            0   -1152448.5 -1.2852715e-05 -8.3450092e-07 1.9787386e-05 
Loop time of 5.30149 on 104 procs for 453 steps with 288751 atoms

99.9% CPU use with 104 MPI tasks x 1 OpenMP threads

Minimization stats:
  Stopping criterion = energy tolerance
  Energy initial, next-to-last, final = 
      -1152448.5360538  -1152448.53888873  -1152448.53888873
  Force two-norm initial, final = 0.23107851 0.00026642112
  Force max component initial, final = 0.12954405 1.9787386e-05
  Final line search alpha, max atom move = 1.0000000 1.9787386e-05
  Iterations, force evaluations = 453 906

MPI task timing breakdown:
Section |  min time  |  avg time  |  max time  |%varavg| %total
---------------------------------------------------------------
Pair    | 1.3594     | 3.7939     | 5.0039     |  52.8 | 71.56
Neigh   | 0          | 0          | 0          |   0.0 |  0.00
Comm    | 0.083681   | 0.85636    | 2.5567     |  77.0 | 16.15
Output  | 9.7183e-05 | 0.00010453 | 0.00024117 |   0.0 |  0.00
Modify  | 5.2615e-05 | 0.0074472  | 0.015862   |   4.1 |  0.14
Other   |            | 0.6436     |            |       | 12.14

Nlocal:        2776.45 ave        3951 max           0 min
Histogram: 8 4 4 0 4 12 8 0 30 34
Nghost:        3879.07 ave        5426 max         232 min
Histogram: 8 0 8 0 16 0 8 8 16 40
Neighs:        79213.5 ave      115176 max           0 min
Histogram: 8 4 4 0 10 6 8 8 24 32

Total # of neighbors = 8238205
Ave neighs/atom = 28.530481
Neighbor list builds = 0
Dangerous builds = 0
The dot product: -1.05471090818918e-08
The cos of the angle between the force vector and the displacement vector: -0.000446723227370673
The angle: 90.0255953563904
Setting atom values ...
  1 settings made for x
  1 settings made for y
  1 settings made for z
Setting up cg style minimization ...
  Unit style    : metal
  Current step  : 7349
Per MPI rank memory allocation (min/avg/max) = 5.441 | 5.816 | 6.074 Mbytes
Step PotEng KinEng TotEng v_fx v_fy v_fz 
    7349   -1152448.5            0   -1152448.5  0.049802286  0.044843358 -0.096199545 
    7531   -1152448.5            0   -1152448.5 -2.3973999e-06 -6.1950628e-07 3.911416e-06 
Loop time of 2.13837 on 104 procs for 182 steps with 288751 atoms

99.9% CPU use with 104 MPI tasks x 1 OpenMP threads

Minimization stats:
  Stopping criterion = energy tolerance
  Energy initial, next-to-last, final = 
     -1152448.52411876  -1152448.52692742  -1152448.52692742
  Force two-norm initial, final = 0.22710042 0.00016270081
  Force max component initial, final = 0.12789291 5.5060140e-06
  Final line search alpha, max atom move = 1.0000000 5.5060140e-06
  Iterations, force evaluations = 182 364

MPI task timing breakdown:
Section |  min time  |  avg time  |  max time  |%varavg| %total
---------------------------------------------------------------
Pair    | 0.54799    | 1.5342     | 2.0189     |  33.7 | 71.75
Neigh   | 0          | 0          | 0          |   0.0 |  0.00
Comm    | 0.03021    | 0.35293    | 1.0532     |  48.9 | 16.50
Output  | 0          | 0          | 0          |   0.0 |  0.00
Modify  | 2.1749e-05 | 0.0030077  | 0.0064912  |   2.6 |  0.14
Other   |            | 0.2482     |            |       | 11.61

Nlocal:        2776.45 ave        3953 max           0 min
Histogram: 8 4 4 0 4 12 8 0 30 34
Nghost:        3879.03 ave        5426 max         232 min
Histogram: 8 0 8 0 16 0 8 8 16 40
Neighs:        79213.5 ave      115253 max           0 min
Histogram: 8 4 4 0 10 6 8 8 24 32

Total # of neighbors = 8238207
Ave neighs/atom = 28.530488
Neighbor list builds = 0
Dangerous builds = 0
The dot product: -4.88485755395379e-09
The cos of the angle between the force vector and the displacement vector: -0.0010552026157102
The angle: 90.0604586676312
Setting atom values ...
  1 settings made for x
  1 settings made for y
  1 settings made for z
Setting up cg style minimization ...
  Unit style    : metal
  Current step  : 7531
Per MPI rank memory allocation (min/avg/max) = 5.441 | 5.816 | 6.074 Mbytes
Step PotEng KinEng TotEng v_fx v_fy v_fz 
    7531   -1152448.5            0   -1152448.5  0.047041775   0.04593588 -0.092883507 
    7710   -1152448.5            0   -1152448.5 5.556454e-06 3.2658902e-06 -9.9510362e-06 
Loop time of 2.11345 on 104 procs for 179 steps with 288751 atoms

99.9% CPU use with 104 MPI tasks x 1 OpenMP threads

Minimization stats:
  Stopping criterion = energy tolerance
  Energy initial, next-to-last, final = 
     -1152448.50866003  -1152448.51139108  -1152448.51139108
  Force two-norm initial, final = 0.22240897 0.00017618692
  Force max component initial, final = 0.12649596 9.9510362e-06
  Final line search alpha, max atom move = 1.0000000 9.9510362e-06
  Iterations, force evaluations = 179 358

MPI task timing breakdown:
Section |  min time  |  avg time  |  max time  |%varavg| %total
---------------------------------------------------------------
Pair    | 0.53639    | 1.5065     | 1.9773     |  33.2 | 71.28
Neigh   | 0          | 0          | 0          |   0.0 |  0.00
Comm    | 0.034388   | 0.34305    | 1.0189     |  48.6 | 16.23
Output  | 0          | 0          | 0          |   0.0 |  0.00
Modify  | 2.1115e-05 | 0.002956   | 0.0063022  |   2.6 |  0.14
Other   |            | 0.261      |            |       | 12.35

Nlocal:        2776.45 ave        3952 max           0 min
Histogram: 8 4 4 0 4 12 8 0 30 34
Nghost:        3879.03 ave        5426 max         232 min
Histogram: 8 0 8 0 16 0 8 8 16 40
Neighs:        79213.5 ave      115230 max           0 min
Histogram: 8 4 4 0 10 6 8 8 24 32

Total # of neighbors = 8238207
Ave neighs/atom = 28.530488
Neighbor list builds = 0
Dangerous builds = 0
The dot product: 1.61484799649153e-08
The cos of the angle between the force vector and the displacement vector: 0.00136205804260402
The angle: 89.9219597985767
Setting atom values ...
  1 settings made for x
  1 settings made for y
  1 settings made for z
Setting up cg style minimization ...
  Unit style    : metal
  Current step  : 7710
Per MPI rank memory allocation (min/avg/max) = 5.441 | 5.816 | 6.074 Mbytes
Step PotEng KinEng TotEng v_fx v_fy v_fz 
    7710   -1152448.5            0   -1152448.5  0.043601129  0.047341727  -0.08871226 
    8000   -1152448.5            0   -1152448.5 4.2290671e-06 2.4629632e-06 -7.58602e-06 
    8110   -1152448.5            0   -1152448.5 -1.371342e-06 -3.5724439e-07 2.2486957e-06 
Loop time of 4.73787 on 104 procs for 400 steps with 288751 atoms

99.9% CPU use with 104 MPI tasks x 1 OpenMP threads

Minimization stats:
  Stopping criterion = energy tolerance
  Energy initial, next-to-last, final = 
     -1152448.48958488  -1152448.49231693  -1152448.49231693
  Force two-norm initial, final = 0.21806745 2.4535651e-05
  Force max component initial, final = 0.12526264 2.2486957e-06
  Final line search alpha, max atom move = 1.0000000 2.2486957e-06
  Iterations, force evaluations = 400 800

MPI task timing breakdown:
Section |  min time  |  avg time  |  max time  |%varavg| %total
---------------------------------------------------------------
Pair    | 1.1972     | 3.3679     | 4.4759     |  50.1 | 71.08
Neigh   | 0          | 0          | 0          |   0.0 |  0.00
Comm    | 0.065149   | 0.78834    | 2.3415     |  71.6 | 16.64
Output  | 0.00010423 | 0.00011862 | 0.00028634 |   0.0 |  0.00
Modify  | 4.6742e-05 | 0.0065826  | 0.014181   |   3.8 |  0.14
Other   |            | 0.5749     |            |       | 12.13

Nlocal:        2776.45 ave        3952 max           0 min
Histogram: 8 4 4 0 4 12 8 0 30 34
Nghost:        3879.02 ave        5425 max         232 min
Histogram: 8 0 8 0 16 0 8 8 16 40
Neighs:        79213.5 ave      115228 max           0 min
Histogram: 8 4 4 0 10 6 8 8 24 32

Total # of neighbors = 8238203
Ave neighs/atom = 28.530474
Neighbor list builds = 0
Dangerous builds = 0
The dot product: 2.48696683680219e-09
The cos of the angle between the force vector and the displacement vector: 0.000935661996365804
The angle: 89.9463905087354
Setting atom values ...
  1 settings made for x
  1 settings made for y
  1 settings made for z
Setting up cg style minimization ...
  Unit style    : metal
  Current step  : 8110
Per MPI rank memory allocation (min/avg/max) = 5.441 | 5.816 | 6.074 Mbytes
Step PotEng KinEng TotEng v_fx v_fy v_fz 
    8110   -1152448.5            0   -1152448.5  0.039145098  0.048699692 -0.082646376 
    8295   -1152448.5            0   -1152448.5 -5.0835086e-06 -2.8606071e-06 9.0603281e-06 
Loop time of 2.20936 on 104 procs for 185 steps with 288751 atoms

99.9% CPU use with 104 MPI tasks x 1 OpenMP threads

Minimization stats:
  Stopping criterion = energy tolerance
  Energy initial, next-to-last, final = 
     -1152448.46714211  -1152448.46987872  -1152448.46987872
  Force two-norm initial, final = 0.21431086 0.00016612132
  Force max component initial, final = 0.12390868 9.0603281e-06
  Final line search alpha, max atom move = 1.0000000 9.0603281e-06
  Iterations, force evaluations = 185 370

MPI task timing breakdown:
Section |  min time  |  avg time  |  max time  |%varavg| %total
---------------------------------------------------------------
Pair    | 0.55911    | 1.5593     | 2.0609     |  33.9 | 70.58
Neigh   | 0          | 0          | 0          |   0.0 |  0.00
Comm    | 0.032985   | 0.35738    | 1.0629     |  48.6 | 16.18
Output  | 0          | 0          | 0          |   0.0 |  0.00
Modify  | 2.1773e-05 | 0.0030499  | 0.0065049  |   2.6 |  0.14
Other   |            | 0.2896     |            |       | 13.11

Nlocal:        2776.45 ave        3952 max           0 min
Histogram: 8 4 4 0 4 12 8 0 30 34
Nghost:        3879.03 ave        5426 max         232 min
Histogram: 8 0 8 0 16 0 8 8 16 40
Neighs:        79213.5 ave      115237 max           0 min
Histogram: 8 4 4 0 10 6 8 8 24 32

Total # of neighbors = 8238208
Ave neighs/atom = 28.530492
Neighbor list builds = 0
Dangerous builds = 0
The dot product: 1.59423997784998e-08
The cos of the angle between the force vector and the displacement vector: 0.00147948353053834
The angle: 89.9152318069163
Setting atom values ...
  1 settings made for x
  1 settings made for y
  1 settings made for z
Setting up cg style minimization ...
  Unit style    : metal
  Current step  : 8295
Per MPI rank memory allocation (min/avg/max) = 5.441 | 5.816 | 6.074 Mbytes
Step PotEng KinEng TotEng v_fx v_fy v_fz 
    8295   -1152448.4            0   -1152448.4  0.035143235  0.051158683 -0.077722914 
    8513   -1152448.4            0   -1152448.4 -1.53138e-06 -1.101145e-06 2.8370622e-06 
Loop time of 2.61842 on 104 procs for 218 steps with 288751 atoms

99.9% CPU use with 104 MPI tasks x 1 OpenMP threads

Minimization stats:
  Stopping criterion = energy tolerance
  Energy initial, next-to-last, final = 
     -1152448.44138514  -1152448.44430431  -1152448.44430431
  Force two-norm initial, final = 0.21338338 0.00015487655
  Force max component initial, final = 0.12266057 5.3457228e-06
  Final line search alpha, max atom move = 1.0000000 5.3457228e-06
  Iterations, force evaluations = 218 436

MPI task timing breakdown:
Section |  min time  |  avg time  |  max time  |%varavg| %total
---------------------------------------------------------------
Pair    | 0.65723    | 1.8465     | 2.4493     |  37.1 | 70.52
Neigh   | 0          | 0          | 0          |   0.0 |  0.00
Comm    | 0.037023   | 0.42782    | 1.2515     |  52.6 | 16.34
Output  | 0          | 0          | 0          |   0.0 |  0.00
Modify  | 2.5078e-05 | 0.0035948  | 0.0076692  |   2.8 |  0.14
Other   |            | 0.3406     |            |       | 13.01

Nlocal:        2776.45 ave        3953 max           0 min
Histogram: 8 4 4 0 4 12 8 0 30 34
Nghost:        3879.07 ave        5425 max         232 min
Histogram: 8 0 8 0 16 0 8 8 16 40
Neighs:        79213.5 ave      115273 max           0 min
Histogram: 8 4 4 0 10 6 8 8 24 32

Total # of neighbors = 8238208
Ave neighs/atom = 28.530492
Neighbor list builds = 0
Dangerous builds = 0
The dot product: 1.12218592043871e-08
The cos of the angle between the force vector and the displacement vector: 0.00329391901552599
The angle: 89.8112720010713
Setting atom values ...
  1 settings made for x
  1 settings made for y
  1 settings made for z
Setting up cg style minimization ...
  Unit style    : metal
  Current step  : 8513
Per MPI rank memory allocation (min/avg/max) = 5.441 | 5.816 | 6.074 Mbytes
Step PotEng KinEng TotEng v_fx v_fy v_fz 
    8513   -1152448.4            0   -1152448.4  0.030482324  0.054420274 -0.071987432 
    8718   -1152448.4            0   -1152448.4 -1.6092636e-07 -8.6313777e-08 2.8153426e-07 
Loop time of 2.41191 on 104 procs for 205 steps with 288751 atoms

99.9% CPU use with 104 MPI tasks x 1 OpenMP threads

Minimization stats:
  Stopping criterion = energy tolerance
  Energy initial, next-to-last, final = 
     -1152448.41264241  -1152448.41537552  -1152448.41537552
  Force two-norm initial, final = 0.21397399 5.1898095e-05
  Force max component initial, final = 0.12152955 1.4792905e-06
  Final line search alpha, max atom move = 1.0000000 1.4792905e-06
  Iterations, force evaluations = 205 410

MPI task timing breakdown:
Section |  min time  |  avg time  |  max time  |%varavg| %total
---------------------------------------------------------------
Pair    | 0.61549    | 1.725      | 2.2671     |  35.7 | 71.52
Neigh   | 0          | 0          | 0          |   0.0 |  0.00
Comm    | 0.034978   | 0.39137    | 1.1637     |  51.8 | 16.23
Output  | 0          | 0          | 0          |   0.0 |  0.00
Modify  | 2.4661e-05 | 0.0033829  | 0.0072204  |   2.7 |  0.14
Other   |            | 0.2922     |            |       | 12.11

Nlocal:        2776.45 ave        3952 max           0 min
Histogram: 8 4 4 0 4 12 8 0 30 34
Nghost:        3879.12 ave        5426 max         232 min
Histogram: 8 0 8 0 16 0 8 8 16 40
Neighs:        79213.6 ave      115252 max           0 min
Histogram: 8 4 4 0 10 6 8 8 24 32

Total # of neighbors = 8238215
Ave neighs/atom = 28.530516
Neighbor list builds = 0
Dangerous builds = 0
The dot product: 4.57667250099527e-10
The cos of the angle between the force vector and the displacement vector: 0.00136384014138089
The angle: 89.9218576917434
OMP_NUM_THREADS environment is not set. Defaulting to 1 thread. (../comm.cpp:94)
  using 1 OpenMP thread(s) per MPI task
Reading data file ...
  orthogonal box = (-122.39241 -121.13707 -37.090501) to (122.39241 121.13707 37.090501)
  13 by 4 by 2 MPI processor grid
  reading atoms ...
  288751 atoms
  read_data CPU = 0.343 seconds
199981 atoms in group inner
88770 atoms in group outer
Setting atom values ...
  1 settings made for x
  1 settings made for y
  1 settings made for z
Neighbor list info ...
  update every 1 steps, delay 0 steps, check yes
  max neighbors/atom: 2000, page size: 100000
  master list distance cutoff = 5.6
  ghost atom cutoff = 5.6
  binsize = 2.8, bins = 88 87 27
  1 neighbor lists, perpetual/occasional/extra = 1 0 0
  (1) pair eam/alloy, perpetual
      attributes: half, newton on
      pair build: half/bin/atomonly/newton
      stencil: half/bin/3d/newton
      bin: standard
Setting up cg style minimization ...
  Unit style    : metal
  Current step  : 0
Per MPI rank memory allocation (min/avg/max) = 5.441 | 5.816 | 6.074 Mbytes
Step Temp E_pair E_mol TotEng Press 
       0            0   -1152438.1            0   -1152438.1   -518.06365 
     168            0   -1152449.5            0   -1152449.5   -526.37365 
Loop time of 1.94462 on 104 procs for 168 steps with 288751 atoms

99.9% CPU use with 104 MPI tasks x 1 OpenMP threads

Minimization stats:
  Stopping criterion = energy tolerance
  Energy initial, next-to-last, final = 
     -1152438.06202044  -1152449.45035285  -1152449.45035285
  Force two-norm initial, final = 65.625332 0.00015227876
  Force max component initial, final = 42.376265 2.0585862e-05
  Final line search alpha, max atom move = 1.0000000 2.0585862e-05
  Iterations, force evaluations = 168 330

MPI task timing breakdown:
Section |  min time  |  avg time  |  max time  |%varavg| %total
---------------------------------------------------------------
Pair    | 0.52293    | 1.3937     | 1.8116     |  31.1 | 71.67
Neigh   | 6.0225e-05 | 0.017757   | 0.02571    |   5.5 |  0.91
Comm    | 0.030229   | 0.31319    | 0.94662    |  46.7 | 16.11
Output  | 0          | 0          | 0          |   0.0 |  0.00
Modify  | 1.8436e-05 | 0.0017717  | 0.0045226  |   2.6 |  0.09
Other   |            | 0.2182     |            |       | 11.22

Nlocal:        2776.45 ave        3958 max           0 min
Histogram: 8 4 4 0 4 12 8 2 28 34
Nghost:        3879.03 ave        5425 max         232 min
Histogram: 8 0 8 0 16 0 8 8 16 40
Neighs:        79213.6 ave      115370 max           0 min
Histogram: 8 4 4 0 10 6 8 8 24 32

Total # of neighbors = 8238219
Ave neighs/atom = 28.530530
Neighbor list builds = 6
Dangerous builds = 1
OMP_NUM_THREADS environment is not set. Defaulting to 1 thread. (../comm.cpp:94)
  using 1 OpenMP thread(s) per MPI task
Reading data file ...
  orthogonal box = (-122.39241 -121.13707 -37.090501) to (122.39241 121.13707 37.090501)
  13 by 4 by 2 MPI processor grid
  reading atoms ...
  288751 atoms
  read_data CPU = 0.341 seconds
199981 atoms in group inner
88770 atoms in group outer
Setting atom values ...
  1 settings made for x
  1 settings made for y
  1 settings made for z
Neighbor list info ...
  update every 1 steps, delay 0 steps, check yes
  max neighbors/atom: 2000, page size: 100000
  master list distance cutoff = 5.6
  ghost atom cutoff = 5.6
  binsize = 2.8, bins = 88 87 27
  1 neighbor lists, perpetual/occasional/extra = 1 0 0
  (1) pair eam/alloy, perpetual
      attributes: half, newton on
      pair build: half/bin/atomonly/newton
      stencil: half/bin/3d/newton
      bin: standard
Setting up cg style minimization ...
  Unit style    : metal
  Current step  : 0
Per MPI rank memory allocation (min/avg/max) = 5.441 | 5.816 | 6.074 Mbytes
Step Temp E_pair E_mol TotEng Press 
       0            0   -1152402.5            0   -1152402.5   -511.54507 
     240            0   -1152448.4            0   -1152448.4   -524.76564 
Loop time of 2.79858 on 104 procs for 240 steps with 288751 atoms

99.9% CPU use with 104 MPI tasks x 1 OpenMP threads

Minimization stats:
  Stopping criterion = energy tolerance
  Energy initial, next-to-last, final = 
     -1152402.49575204  -1152448.43543482  -1152448.43543482
  Force two-norm initial, final = 200.59155 1.4546284e-05
  Force max component initial, final = 108.21418 2.1007926e-06
  Final line search alpha, max atom move = 1.0000000 2.1007926e-06
  Iterations, force evaluations = 240 476

MPI task timing breakdown:
Section |  min time  |  avg time  |  max time  |%varavg| %total
---------------------------------------------------------------
Pair    | 0.73975    | 2.0039     | 2.6203     |  37.8 | 71.60
Neigh   | 5.0174e-05 | 0.014799   | 0.021434   |   5.0 |  0.53
Comm    | 0.04395    | 0.44985    | 1.3461     |  56.1 | 16.07
Output  | 0          | 0          | 0          |   0.0 |  0.00
Modify  | 2.6796e-05 | 0.0025486  | 0.0064835  |   3.2 |  0.09
Other   |            | 0.3275     |            |       | 11.70

Nlocal:        2776.45 ave        3954 max           0 min
Histogram: 8 4 4 0 4 12 8 0 30 34
Nghost:        3879.03 ave        5425 max         232 min
Histogram: 8 0 8 0 16 0 8 8 16 40
Neighs:        79213.7 ave      115255 max           0 min
Histogram: 8 4 4 0 10 6 8 8 24 32

Total # of neighbors = 8238222
Ave neighs/atom = 28.530540
Neighbor list builds = 5
Dangerous builds = 0
1.16563764007212 2.80428719679545 35.0299189139667
