LAMMPS (29 Oct 2020)
OMP_NUM_THREADS environment is not set. Defaulting to 1 thread. (../comm.cpp:94)
  using 1 OpenMP thread(s) per MPI task
Reading data file ...
  orthogonal box = (-122.39241 -121.13707 -37.090501) to (122.39241 121.13707 37.090501)
  13 by 4 by 1 MPI processor grid
  reading atoms ...
  288751 atoms
  read_data CPU = 0.432 seconds
199981 atoms in group inner
88770 atoms in group outer
1 atoms in group carbon
Neighbor list info ...
  update every 1 steps, delay 0 steps, check yes
  max neighbors/atom: 2000, page size: 100000
  master list distance cutoff = 5.6
  ghost atom cutoff = 5.6
  binsize = 2.8, bins = 88 87 27
  1 neighbor lists, perpetual/occasional/extra = 1 0 0
  (1) pair eam/alloy, perpetual
      attributes: half, newton on
      pair build: half/bin/atomonly/newton
      stencil: half/bin/3d/newton
      bin: standard
Setting up cg style minimization ...
  Unit style    : metal
  Current step  : 0
Per MPI rank memory allocation (min/avg/max) = 5.465 | 6.344 | 6.728 Mbytes
Step v_fx v_fy v_fz PotEng KinEng TotEng 
       0   -26.096535    15.445301    51.171732   -1152433.1            0   -1152433.1 
     158 2.8043047e-07 2.3276869e-07 3.1568446e-05   -1152449.5            0   -1152449.5 
Loop time of 3.43898 on 52 procs for 158 steps with 288751 atoms

99.8% CPU use with 52 MPI tasks x 1 OpenMP threads

Minimization stats:
  Stopping criterion = energy tolerance
  Energy initial, next-to-last, final = 
     -1152433.06116819  -1152449.45035257  -1152449.45035257
  Force two-norm initial, final = 89.031308 0.00018011062
  Force max component initial, final = 58.275514 3.1568446e-05
  Final line search alpha, max atom move = 1.0000000 3.1568446e-05
  Iterations, force evaluations = 158 307

MPI task timing breakdown:
Section |  min time  |  avg time  |  max time  |%varavg| %total
---------------------------------------------------------------
Pair    | 0.92917    | 2.4767     | 3.2348     |  42.3 | 72.02
Neigh   | 0.00011927 | 0.032159   | 0.046613   |   7.6 |  0.94
Comm    | 0.047053   | 0.55725    | 1.7668     |  65.7 | 16.20
Output  | 0          | 0          | 0          |   0.0 |  0.00
Modify  | 4.1476e-05 | 0.0033769  | 0.0085726  |   3.6 |  0.10
Other   |            | 0.3694     |            |       | 10.74

Nlocal:        5552.90 ave        7911 max           0 min
Histogram: 4 2 2 0 2 6 4 0 15 17
Nghost:        6213.54 ave        8769 max         412 min
Histogram: 4 0 4 0 8 0 4 5 7 20
Neighs:       158427.0 ave      230596 max           0 min
Histogram: 4 2 2 0 5 3 4 4 12 16

Total # of neighbors = 8238207
Ave neighs/atom = 28.530488
Neighbor list builds = 5
Dangerous builds = 0
-0.4 0.24 11.61 -0.582746973378169 1.02288113948889 12.124298619692
Total wall time: 0:00:04
