LAMMPS (29 Oct 2020)
OMP_NUM_THREADS environment is not set. Defaulting to 1 thread. (../comm.cpp:94)
  using 1 OpenMP thread(s) per MPI task
OMP_NUM_THREADS environment is not set. Defaulting to 1 thread. (../comm.cpp:94)
  using 1 OpenMP thread(s) per MPI task
Reading data file ...
  orthogonal box = (-122.39241 -121.13707 -37.090501) to (122.39241 121.13707 37.090501)
  13 by 4 by 2 MPI processor grid
  reading atoms ...
  288751 atoms
  read_data CPU = 0.392 seconds
199981 atoms in group inner
88770 atoms in group outer
1 atoms in group carbon
Neighbor list info ...
  update every 1 steps, delay 0 steps, check yes
  max neighbors/atom: 2000, page size: 100000
  master list distance cutoff = 5.6
  ghost atom cutoff = 5.6
  binsize = 2.8, bins = 88 87 27
  1 neighbor lists, perpetual/occasional/extra = 1 0 0
  (1) pair eam/alloy, perpetual
      attributes: half, newton on
      pair build: half/bin/atomonly/newton
      stencil: half/bin/3d/newton
      bin: standard
Setting up cg style minimization ...
  Unit style    : metal
  Current step  : 0
Per MPI rank memory allocation (min/avg/max) = 5.441 | 5.816 | 6.074 Mbytes
Step v_fx v_fy v_fz PotEng KinEng TotEng 
       0    26.539833    15.423209    51.792172   -1152432.8            0   -1152432.8 
     251 3.8769605e-06 -2.0293223e-08 -2.0473362e-06   -1152449.5            0   -1152449.5 
Loop time of 2.89601 on 104 procs for 251 steps with 288751 atoms

99.9% CPU use with 104 MPI tasks x 1 OpenMP threads

Minimization stats:
  Stopping criterion = energy tolerance
  Energy initial, next-to-last, final = 
     -1152432.84712527  -1152449.45035286  -1152449.45035286
  Force two-norm initial, final = 90.022258 2.0926177e-05
  Force max component initial, final = 58.856260 3.8769605e-06
  Final line search alpha, max atom move = 1.0000000 3.8769605e-06
  Iterations, force evaluations = 251 494

MPI task timing breakdown:
Section |  min time  |  avg time  |  max time  |%varavg| %total
---------------------------------------------------------------
Pair    | 0.77425    | 2.0745     | 2.705      |  38.3 | 71.63
Neigh   | 5.0886e-05 | 0.014724   | 0.021291   |   5.0 |  0.51
Comm    | 0.058538   | 0.46665    | 1.4102     |  57.2 | 16.11
Output  | 0          | 0          | 0          |   0.0 |  0.00
Modify  | 3.0228e-05 | 0.0026479  | 0.0068114  |   3.2 |  0.09
Other   |            | 0.3375     |            |       | 11.65

Nlocal:        2776.45 ave        3960 max           0 min
Histogram: 8 4 4 0 4 12 8 2 28 34
Nghost:        3879.01 ave        5424 max         232 min
Histogram: 8 0 8 0 16 0 8 8 16 40
Neighs:        79213.6 ave      115433 max           0 min
Histogram: 8 4 4 0 10 6 8 8 24 32

Total # of neighbors = 8238211
Ave neighs/atom = 28.530502
Neighbor list builds = 5
Dangerous builds = 0
Setting atom values ...
  1 settings made for x
  1 settings made for y
  1 settings made for z
Setting up cg style minimization ...
  Unit style    : metal
  Current step  : 251
Per MPI rank memory allocation (min/avg/max) = 5.441 | 5.816 | 6.074 Mbytes
Step PotEng KinEng TotEng v_fx v_fy v_fz 
     251   -1152449.4            0   -1152449.4  0.012431624 -0.016212398 -0.020766211 
     374   -1152449.5            0   -1152449.5 -1.4665037e-05 1.2556688e-05 3.5258041e-06 
Loop time of 1.44518 on 104 procs for 123 steps with 288751 atoms

99.9% CPU use with 104 MPI tasks x 1 OpenMP threads

Minimization stats:
  Stopping criterion = energy tolerance
  Energy initial, next-to-last, final = 
     -1152449.44947024   -1152449.4500204   -1152449.4500204
  Force two-norm initial, final = 0.10821713 0.00016938589
  Force max component initial, final = 0.047628822 2.3919117e-05
  Final line search alpha, max atom move = 1.0000000 2.3919117e-05
  Iterations, force evaluations = 123 246

MPI task timing breakdown:
Section |  min time  |  avg time  |  max time  |%varavg| %total
---------------------------------------------------------------
Pair    | 0.37489    | 1.0376     | 1.3542     |  27.5 | 71.80
Neigh   | 0          | 0          | 0          |   0.0 |  0.00
Comm    | 0.028295   | 0.23575    | 0.71653    |  40.2 | 16.31
Output  | 0          | 0          | 0          |   0.0 |  0.00
Modify  | 1.4488e-05 | 0.0020261  | 0.0043164  |   2.1 |  0.14
Other   |            | 0.1698     |            |       | 11.75

Nlocal:        2776.45 ave        3961 max           0 min
Histogram: 8 4 4 0 6 10 8 2 28 34
Nghost:        3879.01 ave        5424 max         232 min
Histogram: 8 0 8 0 16 0 8 8 16 40
Neighs:        79213.4 ave      115455 max           0 min
Histogram: 8 4 4 0 10 6 8 8 24 32

Total # of neighbors = 8238197
Ave neighs/atom = 28.530454
Neighbor list builds = 0
Dangerous builds = 0
Setting atom values ...
  1 settings made for x
  1 settings made for y
  1 settings made for z
Setting up cg style minimization ...
  Unit style    : metal
  Current step  : 374
Per MPI rank memory allocation (min/avg/max) = 5.441 | 5.816 | 6.074 Mbytes
Step PotEng KinEng TotEng v_fx v_fy v_fz 
     374   -1152449.4            0   -1152449.4  0.021654642 -0.023245882 -0.033902433 
     489   -1152449.4            0   -1152449.4 4.0741847e-06 1.5470039e-05 9.1941413e-05 
Loop time of 1.33953 on 104 procs for 115 steps with 288751 atoms

99.9% CPU use with 104 MPI tasks x 1 OpenMP threads

Minimization stats:
  Stopping criterion = energy tolerance
  Energy initial, next-to-last, final = 
     -1152449.44665781  -1152449.44808483  -1152449.44808483
  Force two-norm initial, final = 0.17472475 0.00025285219
  Force max component initial, final = 0.079519221 9.1941413e-05
  Final line search alpha, max atom move = 1.0000000 9.1941413e-05
  Iterations, force evaluations = 115 230

MPI task timing breakdown:
Section |  min time  |  avg time  |  max time  |%varavg| %total
---------------------------------------------------------------
Pair    | 0.34907    | 0.96467    | 1.2611     |  26.6 | 72.02
Neigh   | 0          | 0          | 0          |   0.0 |  0.00
Comm    | 0.02657    | 0.21737    | 0.6568     |  39.1 | 16.23
Output  | 0          | 0          | 0          |   0.0 |  0.00
Modify  | 1.5822e-05 | 0.001896   | 0.0040387  |   2.0 |  0.14
Other   |            | 0.1556     |            |       | 11.62

Nlocal:        2776.45 ave        3961 max           0 min
Histogram: 8 4 4 0 6 10 8 2 28 34
Nghost:        3879.01 ave        5424 max         232 min
Histogram: 8 0 8 0 16 0 8 8 16 40
Neighs:        79213.5 ave      115455 max           0 min
Histogram: 8 4 4 0 10 6 8 8 24 32

Total # of neighbors = 8238199
Ave neighs/atom = 28.530461
Neighbor list builds = 0
Dangerous builds = 0
The dot product: -2.30392608223107e-07
Setting atom values ...
  1 settings made for x
  1 settings made for y
  1 settings made for z
Setting up cg style minimization ...
  Unit style    : metal
  Current step  : 489
Per MPI rank memory allocation (min/avg/max) = 5.441 | 5.816 | 6.074 Mbytes
Step PotEng KinEng TotEng v_fx v_fy v_fz 
     489   -1152449.4            0   -1152449.4   0.02102658 -0.019024526 -0.031860167 
     616   -1152449.4            0   -1152449.4 -1.366031e-06 5.333627e-07 -4.6930204e-06 
Loop time of 1.48783 on 104 procs for 127 steps with 288751 atoms

99.9% CPU use with 104 MPI tasks x 1 OpenMP threads

Minimization stats:
  Stopping criterion = energy tolerance
  Energy initial, next-to-last, final = 
     -1152449.44328009  -1152449.44466021  -1152449.44466021
  Force two-norm initial, final = 0.17147251 8.9059798e-05
  Force max component initial, final = 0.079141982 1.6936481e-05
  Final line search alpha, max atom move = 1.0000000 1.6936481e-05
  Iterations, force evaluations = 127 254

MPI task timing breakdown:
Section |  min time  |  avg time  |  max time  |%varavg| %total
---------------------------------------------------------------
Pair    | 0.38701    | 1.0716     | 1.3987     |  27.9 | 72.02
Neigh   | 0          | 0          | 0          |   0.0 |  0.00
Comm    | 0.021644   | 0.2424     | 0.72676    |  41.0 | 16.29
Output  | 0          | 0          | 0          |   0.0 |  0.00
Modify  | 1.5298e-05 | 0.0020975  | 0.0045009  |   2.2 |  0.14
Other   |            | 0.1718     |            |       | 11.55

Nlocal:        2776.45 ave        3961 max           0 min
Histogram: 8 4 4 0 6 10 8 2 28 34
Nghost:        3879.01 ave        5424 max         232 min
Histogram: 8 0 8 0 16 0 8 8 16 40
Neighs:        79213.5 ave      115455 max           0 min
Histogram: 8 4 4 0 10 6 8 8 24 32

Total # of neighbors = 8238199
Ave neighs/atom = 28.530461
Neighbor list builds = 0
Dangerous builds = 0
The dot product: 1.65524641552337e-08
Setting atom values ...
  1 settings made for x
  1 settings made for y
  1 settings made for z
Setting up cg style minimization ...
  Unit style    : metal
  Current step  : 616
Per MPI rank memory allocation (min/avg/max) = 5.441 | 5.816 | 6.074 Mbytes
Step PotEng KinEng TotEng v_fx v_fy v_fz 
     616   -1152449.4            0   -1152449.4   0.01961238  -0.01558205 -0.026183589 
     842   -1152449.4            0   -1152449.4 -2.4603201e-06 1.7808149e-06 -4.0805071e-06 
Loop time of 2.6065 on 104 procs for 226 steps with 288751 atoms

99.9% CPU use with 104 MPI tasks x 1 OpenMP threads

Minimization stats:
  Stopping criterion = energy tolerance
  Energy initial, next-to-last, final = 
     -1152449.43854613  -1152449.43990963  -1152449.43990963
  Force two-norm initial, final = 0.16883418 2.0454992e-05
  Force max component initial, final = 0.077237358 4.0805071e-06
  Final line search alpha, max atom move = 1.0000000 4.0805071e-06
  Iterations, force evaluations = 226 452

MPI task timing breakdown:
Section |  min time  |  avg time  |  max time  |%varavg| %total
---------------------------------------------------------------
Pair    | 0.68944    | 1.8894     | 2.4695     |  36.9 | 72.49
Neigh   | 0          | 0          | 0          |   0.0 |  0.00
Comm    | 0.040706   | 0.42175    | 1.2791     |  55.0 | 16.18
Output  | 0          | 0          | 0          |   0.0 |  0.00
Modify  | 2.8638e-05 | 0.0037147  | 0.0079035  |   2.9 |  0.14
Other   |            | 0.2917     |            |       | 11.19

Nlocal:        2776.45 ave        3961 max           0 min
Histogram: 8 4 4 0 6 10 8 2 28 34
Nghost:        3879.01 ave        5424 max         232 min
Histogram: 8 0 8 0 16 0 8 8 16 40
Neighs:        79213.5 ave      115455 max           0 min
Histogram: 8 4 4 0 10 6 8 8 24 32

Total # of neighbors = 8238201
Ave neighs/atom = 28.530467
Neighbor list builds = 0
Dangerous builds = 0
The dot product: 1.81233168574243e-08
Setting atom values ...
  1 settings made for x
  1 settings made for y
  1 settings made for z
Setting up cg style minimization ...
  Unit style    : metal
  Current step  : 842
Per MPI rank memory allocation (min/avg/max) = 5.441 | 5.816 | 6.074 Mbytes
Step PotEng KinEng TotEng v_fx v_fy v_fz 
     842   -1152449.4            0   -1152449.4   0.01787411 -0.013471281 -0.019475728 
    1000   -1152449.4            0   -1152449.4 -2.4535495e-06 3.698466e-06 -4.8119379e-05 
    1022   -1152449.4            0   -1152449.4 9.3246965e-06 -6.21166e-06 -3.2576382e-05 
Loop time of 2.08713 on 104 procs for 180 steps with 288751 atoms

99.9% CPU use with 104 MPI tasks x 1 OpenMP threads

Minimization stats:
  Stopping criterion = energy tolerance
  Energy initial, next-to-last, final = 
     -1152449.43244154  -1152449.43379734  -1152449.43379734
  Force two-norm initial, final = 0.16728336 0.00010794987
  Force max component initial, final = 0.07459174 3.2576382e-05
  Final line search alpha, max atom move = 1.0000000 3.2576382e-05
  Iterations, force evaluations = 180 360

MPI task timing breakdown:
Section |  min time  |  avg time  |  max time  |%varavg| %total
---------------------------------------------------------------
Pair    | 0.54954    | 1.5156     | 1.9701     |  33.1 | 72.61
Neigh   | 0          | 0          | 0          |   0.0 |  0.00
Comm    | 0.032859   | 0.33805    | 1.0282     |  49.3 | 16.20
Output  | 0.0001584  | 0.00016616 | 0.00030687 |   0.0 |  0.01
Modify  | 2.1668e-05 | 0.0029672  | 0.006376   |   2.6 |  0.14
Other   |            | 0.2304     |            |       | 11.04

Nlocal:        2776.45 ave        3961 max           0 min
Histogram: 8 4 4 0 6 10 8 2 28 34
Nghost:        3879.01 ave        5424 max         232 min
Histogram: 8 0 8 0 16 0 8 8 16 40
Neighs:        79213.5 ave      115455 max           0 min
Histogram: 8 4 4 0 10 6 8 8 24 32

Total # of neighbors = 8238202
Ave neighs/atom = 28.530471
Neighbor list builds = 0
Dangerous builds = 0
The dot product: 7.53816442237119e-08
Setting atom values ...
  1 settings made for x
  1 settings made for y
  1 settings made for z
Setting up cg style minimization ...
  Unit style    : metal
  Current step  : 1022
Per MPI rank memory allocation (min/avg/max) = 5.441 | 5.816 | 6.074 Mbytes
Step PotEng KinEng TotEng v_fx v_fy v_fz 
    1022   -1152449.4            0   -1152449.4  0.016166176 -0.012361942 -0.013415523 
    1197   -1152449.4            0   -1152449.4 -2.0561663e-05 1.5678787e-05 1.7618627e-05 
Loop time of 2.02592 on 104 procs for 175 steps with 288751 atoms

99.9% CPU use with 104 MPI tasks x 1 OpenMP threads

Minimization stats:
  Stopping criterion = energy tolerance
  Energy initial, next-to-last, final = 
     -1152449.42492656  -1152449.42628317  -1152449.42628317
  Force two-norm initial, final = 0.16675222 0.00013908792
  Force max component initial, final = 0.074427163 2.5202479e-05
  Final line search alpha, max atom move = 1.0000000 2.5202479e-05
  Iterations, force evaluations = 175 350

MPI task timing breakdown:
Section |  min time  |  avg time  |  max time  |%varavg| %total
---------------------------------------------------------------
Pair    | 0.5396     | 1.4662     | 1.9107     |  32.4 | 72.37
Neigh   | 0          | 0          | 0          |   0.0 |  0.00
Comm    | 0.034364   | 0.32758    | 0.98788    |  48.4 | 16.17
Output  | 0          | 0          | 0          |   0.0 |  0.00
Modify  | 2.065e-05  | 0.0028747  | 0.0061164  |   2.5 |  0.14
Other   |            | 0.2292     |            |       | 11.31

Nlocal:        2776.45 ave        3961 max           0 min
Histogram: 8 4 4 0 6 10 8 2 28 34
Nghost:        3879.01 ave        5424 max         232 min
Histogram: 8 0 8 0 16 0 8 8 16 40
Neighs:        79213.5 ave      115455 max           0 min
Histogram: 8 4 4 0 10 6 8 8 24 32

Total # of neighbors = 8238201
Ave neighs/atom = 28.530467
Neighbor list builds = 0
Dangerous builds = 0
The dot product: 2.32452095800126e-08
Setting atom values ...
  1 settings made for x
  1 settings made for y
  1 settings made for z
Setting up cg style minimization ...
  Unit style    : metal
  Current step  : 1197
Per MPI rank memory allocation (min/avg/max) = 5.441 | 5.816 | 6.074 Mbytes
Step PotEng KinEng TotEng v_fx v_fy v_fz 
    1197   -1152449.4            0   -1152449.4  0.014737124 -0.011889389 -0.0085436422 
    1311   -1152449.4            0   -1152449.4 -3.1892152e-05 2.0637189e-05 6.4206747e-05 
Loop time of 1.31875 on 104 procs for 114 steps with 288751 atoms

99.9% CPU use with 104 MPI tasks x 1 OpenMP threads

Minimization stats:
  Stopping criterion = energy tolerance
  Energy initial, next-to-last, final = 
     -1152449.41597258  -1152449.41733588  -1152449.41733588
  Force two-norm initial, final = 0.1667735 0.00028302227
  Force max component initial, final = 0.074763425 6.7804369e-05
  Final line search alpha, max atom move = 1.0000000 6.7804369e-05
  Iterations, force evaluations = 114 228

MPI task timing breakdown:
Section |  min time  |  avg time  |  max time  |%varavg| %total
---------------------------------------------------------------
Pair    | 0.34612    | 0.95957    | 1.2509     |  26.4 | 72.76
Neigh   | 0          | 0          | 0          |   0.0 |  0.00
Comm    | 0.019297   | 0.21493    | 0.65937    |  39.3 | 16.30
Output  | 0          | 0          | 0          |   0.0 |  0.00
Modify  | 1.3716e-05 | 0.001879   | 0.004025   |   2.0 |  0.14
Other   |            | 0.1424     |            |       | 10.80

Nlocal:        2776.45 ave        3961 max           0 min
Histogram: 8 4 4 0 6 10 8 2 28 34
Nghost:        3879.01 ave        5424 max         232 min
Histogram: 8 0 8 0 16 0 8 8 16 40
Neighs:        79213.5 ave      115455 max           0 min
Histogram: 8 4 4 0 10 6 8 8 24 32

Total # of neighbors = 8238203
Ave neighs/atom = 28.530474
Neighbor list builds = 0
Dangerous builds = 0
The dot product: -2.19877213895625e-08
Setting atom values ...
  1 settings made for x
  1 settings made for y
  1 settings made for z
Setting up cg style minimization ...
  Unit style    : metal
  Current step  : 1311
Per MPI rank memory allocation (min/avg/max) = 5.441 | 5.816 | 6.074 Mbytes
Step PotEng KinEng TotEng v_fx v_fy v_fz 
    1311   -1152449.4            0   -1152449.4  0.013875246 -0.012000961 -0.0048207287 
    1483   -1152449.4            0   -1152449.4 7.5923493e-07 -1.848517e-06 8.5641512e-06 
Loop time of 1.98863 on 104 procs for 172 steps with 288751 atoms

99.9% CPU use with 104 MPI tasks x 1 OpenMP threads

Minimization stats:
  Stopping criterion = energy tolerance
  Energy initial, next-to-last, final = 
     -1152449.40555842  -1152449.40693038  -1152449.40693038
  Force two-norm initial, final = 0.16711578 0.00017311785
  Force max component initial, final = 0.074772449 1.9352738e-05
  Final line search alpha, max atom move = 1.0000000 1.9352738e-05
  Iterations, force evaluations = 172 344

MPI task timing breakdown:
Section |  min time  |  avg time  |  max time  |%varavg| %total
---------------------------------------------------------------
Pair    | 0.5219     | 1.4408     | 1.8779     |  32.4 | 72.45
Neigh   | 0          | 0          | 0          |   0.0 |  0.00
Comm    | 0.036392   | 0.3218     | 0.97941    |  48.3 | 16.18
Output  | 0          | 0          | 0          |   0.0 |  0.00
Modify  | 2.0398e-05 | 0.002826   | 0.0060259  |   2.5 |  0.14
Other   |            | 0.2232     |            |       | 11.22

Nlocal:        2776.45 ave        3958 max           0 min
Histogram: 8 4 4 0 4 12 8 2 28 34
Nghost:        3879.01 ave        5424 max         232 min
Histogram: 8 0 8 0 16 0 8 8 16 40
Neighs:        79213.5 ave      115360 max           0 min
Histogram: 8 4 4 0 10 6 8 8 24 32

Total # of neighbors = 8238201
Ave neighs/atom = 28.530467
Neighbor list builds = 0
Dangerous builds = 0
The dot product: -2.09806799668725e-08
Setting atom values ...
  1 settings made for x
  1 settings made for y
  1 settings made for z
Setting up cg style minimization ...
  Unit style    : metal
  Current step  : 1483
Per MPI rank memory allocation (min/avg/max) = 5.441 | 5.816 | 6.074 Mbytes
Step PotEng KinEng TotEng v_fx v_fy v_fz 
    1483   -1152449.4            0   -1152449.4  0.013857366 -0.012780216 -0.0024331777 
    1706   -1152449.4            0   -1152449.4 -3.3161501e-06 3.1479403e-06 5.5255354e-10 
Loop time of 2.59486 on 104 procs for 223 steps with 288751 atoms

99.9% CPU use with 104 MPI tasks x 1 OpenMP threads

Minimization stats:
  Stopping criterion = energy tolerance
  Energy initial, next-to-last, final = 
     -1152449.39366456  -1152449.39504301  -1152449.39504301
  Force two-norm initial, final = 0.16754821 2.7809108e-05
  Force max component initial, final = 0.074509079 5.1816326e-06
  Final line search alpha, max atom move = 1.0000000 5.1816326e-06
  Iterations, force evaluations = 223 446

MPI task timing breakdown:
Section |  min time  |  avg time  |  max time  |%varavg| %total
---------------------------------------------------------------
Pair    | 0.67898    | 1.8783     | 2.4502     |  36.9 | 72.39
Neigh   | 0          | 0          | 0          |   0.0 |  0.00
Comm    | 0.038895   | 0.42426    | 1.2763     |  54.1 | 16.35
Output  | 0          | 0          | 0          |   0.0 |  0.00
Modify  | 2.8263e-05 | 0.0036677  | 0.0078798  |   2.9 |  0.14
Other   |            | 0.2886     |            |       | 11.12

Nlocal:        2776.45 ave        3956 max           0 min
Histogram: 8 4 4 0 4 12 8 2 28 34
Nghost:        3879.01 ave        5424 max         232 min
Histogram: 8 0 8 0 16 0 8 8 16 40
Neighs:        79213.5 ave      115299 max           0 min
Histogram: 8 4 4 0 10 6 8 8 24 32

Total # of neighbors = 8238202
Ave neighs/atom = 28.530471
Neighbor list builds = 0
Dangerous builds = 0
The dot product: 1.30830914957399e-08
Setting atom values ...
  1 settings made for x
  1 settings made for y
  1 settings made for z
Setting up cg style minimization ...
  Unit style    : metal
  Current step  : 1706
Per MPI rank memory allocation (min/avg/max) = 5.441 | 5.816 | 6.074 Mbytes
Step PotEng KinEng TotEng v_fx v_fy v_fz 
    1706   -1152449.4            0   -1152449.4  0.014521065 -0.014136232 -0.00068957551 
    1838   -1152449.4            0   -1152449.4 -1.8347317e-05 9.7748201e-06 4.8529048e-05 
Loop time of 1.52348 on 104 procs for 132 steps with 288751 atoms

99.9% CPU use with 104 MPI tasks x 1 OpenMP threads

Minimization stats:
  Stopping criterion = energy tolerance
  Energy initial, next-to-last, final = 
     -1152449.38027081  -1152449.38165431  -1152449.38165431
  Force two-norm initial, final = 0.16798077 0.00018616902
  Force max component initial, final = 0.074367796 4.8529048e-05
  Final line search alpha, max atom move = 1.0000000 4.8529048e-05
  Iterations, force evaluations = 132 264

MPI task timing breakdown:
Section |  min time  |  avg time  |  max time  |%varavg| %total
---------------------------------------------------------------
Pair    | 0.40162    | 1.1085     | 1.4448     |  28.4 | 72.76
Neigh   | 0          | 0          | 0          |   0.0 |  0.00
Comm    | 0.025471   | 0.24823    | 0.75688    |  42.3 | 16.29
Output  | 0          | 0          | 0          |   0.0 |  0.00
Modify  | 1.6002e-05 | 0.0021716  | 0.0046432  |   2.2 |  0.14
Other   |            | 0.1646     |            |       | 10.80

Nlocal:        2776.45 ave        3954 max           0 min
Histogram: 8 4 4 0 4 12 8 2 28 34
Nghost:        3879.01 ave        5424 max         232 min
Histogram: 8 0 8 0 16 0 8 8 16 40
Neighs:        79213.5 ave      115232 max           0 min
Histogram: 8 4 4 0 10 6 8 8 24 32

Total # of neighbors = 8238203
Ave neighs/atom = 28.530474
Neighbor list builds = 0
Dangerous builds = 0
The dot product: -2.36059746072245e-08
Setting atom values ...
  1 settings made for x
  1 settings made for y
  1 settings made for z
Setting up cg style minimization ...
  Unit style    : metal
  Current step  : 1838
Per MPI rank memory allocation (min/avg/max) = 5.441 | 5.816 | 6.074 Mbytes
Step PotEng KinEng TotEng v_fx v_fy v_fz 
    1838   -1152449.4            0   -1152449.4  0.015525483  -0.01573952 0.00051345081 
    1966   -1152449.4            0   -1152449.4 -5.0756455e-06 -5.8106447e-07 3.1094369e-05 
Loop time of 1.48308 on 104 procs for 128 steps with 288751 atoms

99.9% CPU use with 104 MPI tasks x 1 OpenMP threads

Minimization stats:
  Stopping criterion = energy tolerance
  Energy initial, next-to-last, final = 
     -1152449.36535971  -1152449.36674782  -1152449.36674782
  Force two-norm initial, final = 0.16837005 0.00025895919
  Force max component initial, final = 0.07436245 5.5388880e-05
  Final line search alpha, max atom move = 1.0000000 5.5388880e-05
  Iterations, force evaluations = 128 256

MPI task timing breakdown:
Section |  min time  |  avg time  |  max time  |%varavg| %total
---------------------------------------------------------------
Pair    | 0.39084    | 1.0782     | 1.4018     |  28.0 | 72.70
Neigh   | 0          | 0          | 0          |   0.0 |  0.00
Comm    | 0.024256   | 0.24237    | 0.74369    |  41.4 | 16.34
Output  | 0          | 0          | 0          |   0.0 |  0.00
Modify  | 1.646e-05  | 0.0021095  | 0.0045399  |   2.2 |  0.14
Other   |            | 0.1604     |            |       | 10.82

Nlocal:        2776.45 ave        3951 max           0 min
Histogram: 8 4 4 0 4 12 8 2 28 34
Nghost:        3879.01 ave        5424 max         232 min
Histogram: 8 0 8 0 16 0 8 8 16 40
Neighs:        79213.5 ave      115132 max           0 min
Histogram: 8 4 4 0 10 6 8 8 24 32

Total # of neighbors = 8238204
Ave neighs/atom = 28.530478
Neighbor list builds = 0
Dangerous builds = 0
The dot product: -4.2428194081326e-08
Setting atom values ...
  1 settings made for x
  1 settings made for y
  1 settings made for z
Setting up cg style minimization ...
  Unit style    : metal
  Current step  : 1966
Per MPI rank memory allocation (min/avg/max) = 5.441 | 5.816 | 6.074 Mbytes
Step PotEng KinEng TotEng v_fx v_fy v_fz 
    1966   -1152449.3            0   -1152449.3  0.016224175 -0.016840754 0.00074642626 
    2000   -1152449.4            0   -1152449.4 -3.2571776e-05 2.8761292e-05 2.4265764e-05 
    2143   -1152449.4            0   -1152449.4 1.7820081e-05 -6.4094517e-06 -6.0870857e-05 
Loop time of 2.08043 on 104 procs for 177 steps with 288751 atoms

99.9% CPU use with 104 MPI tasks x 1 OpenMP threads

Minimization stats:
  Stopping criterion = energy tolerance
  Energy initial, next-to-last, final = 
     -1152449.34890871  -1152449.35030159  -1152449.35030159
  Force two-norm initial, final = 0.16864999 0.00017131782
  Force max component initial, final = 0.074450215 6.0870857e-05
  Final line search alpha, max atom move = 1.0000000 6.0870857e-05
  Iterations, force evaluations = 177 354

MPI task timing breakdown:
Section |  min time  |  avg time  |  max time  |%varavg| %total
---------------------------------------------------------------
Pair    | 0.53772    | 1.4884     | 1.9301     |  32.8 | 71.54
Neigh   | 0          | 0          | 0          |   0.0 |  0.00
Comm    | 0.03079    | 0.33637    | 1.0147     |  48.6 | 16.17
Output  | 9.7217e-05 | 0.00010661 | 0.00019187 |   0.0 |  0.01
Modify  | 2.0935e-05 | 0.0029099  | 0.0062022  |   2.5 |  0.14
Other   |            | 0.2526     |            |       | 12.14

Nlocal:        2776.45 ave        3947 max           0 min
Histogram: 8 4 4 0 4 12 8 2 26 36
Nghost:        3879.01 ave        5424 max         232 min
Histogram: 8 0 8 0 16 0 8 8 16 40
Neighs:        79213.5 ave      115005 max           0 min
Histogram: 8 4 4 0 10 6 8 8 24 32

Total # of neighbors = 8238204
Ave neighs/atom = 28.530478
Neighbor list builds = 0
Dangerous builds = 0
The dot product: 8.19748109547841e-08
Setting atom values ...
  1 settings made for x
  1 settings made for y
  1 settings made for z
Setting up cg style minimization ...
  Unit style    : metal
  Current step  : 2143
Per MPI rank memory allocation (min/avg/max) = 5.441 | 5.816 | 6.074 Mbytes
Step PotEng KinEng TotEng v_fx v_fy v_fz 
    2143   -1152449.3            0   -1152449.3  0.016152784 -0.016881219 -0.00023748793 
    2282   -1152449.3            0   -1152449.3 1.8073737e-05 -1.2533476e-05 -3.0524356e-05 
Loop time of 1.61223 on 104 procs for 139 steps with 288751 atoms

99.9% CPU use with 104 MPI tasks x 1 OpenMP threads

Minimization stats:
  Stopping criterion = energy tolerance
  Energy initial, next-to-last, final = 
     -1152449.33089039  -1152449.33230224  -1152449.33230224
  Force two-norm initial, final = 0.16873856 0.00021083503
  Force max component initial, final = 0.074468612 3.2427366e-05
  Final line search alpha, max atom move = 1.0000000 3.2427366e-05
  Iterations, force evaluations = 139 278

MPI task timing breakdown:
Section |  min time  |  avg time  |  max time  |%varavg| %total
---------------------------------------------------------------
Pair    | 0.42445    | 1.1692     | 1.519      |  29.1 | 72.52
Neigh   | 0          | 0          | 0          |   0.0 |  0.00
Comm    | 0.023831   | 0.26205    | 0.79258    |  43.1 | 16.25
Output  | 0          | 0          | 0          |   0.0 |  0.00
Modify  | 1.67e-05   | 0.0022864  | 0.0049086  |   2.3 |  0.14
Other   |            | 0.1787     |            |       | 11.08

Nlocal:        2776.45 ave        3943 max           0 min
Histogram: 8 4 4 0 4 12 8 2 26 36
Nghost:        3879.05 ave        5424 max         232 min
Histogram: 8 0 8 0 16 0 8 8 16 40
Neighs:        79213.5 ave      114883 max           0 min
Histogram: 8 4 4 0 10 6 8 8 22 34

Total # of neighbors = 8238202
Ave neighs/atom = 28.530471
Neighbor list builds = 0
Dangerous builds = 0
The dot product: 3.05757917818359e-08
Setting atom values ...
  1 settings made for x
  1 settings made for y
  1 settings made for z
Setting up cg style minimization ...
  Unit style    : metal
  Current step  : 2282
Per MPI rank memory allocation (min/avg/max) = 5.441 | 5.816 | 6.074 Mbytes
Step PotEng KinEng TotEng v_fx v_fy v_fz 
    2282   -1152449.3            0   -1152449.3  0.013846403 -0.013874209 -0.0042417823 
    2510   -1152449.3            0   -1152449.3 1.9061732e-07 1.0839751e-06 -5.5931052e-06 
Loop time of 2.62691 on 104 procs for 228 steps with 288751 atoms

99.9% CPU use with 104 MPI tasks x 1 OpenMP threads

Minimization stats:
  Stopping criterion = linesearch alpha is zero
  Energy initial, next-to-last, final = 
     -1152449.31130179  -1152449.31287005  -1152449.31287005
  Force two-norm initial, final = 0.16866084 4.4391751e-05
  Force max component initial, final = 0.074308303 9.9377567e-06
  Final line search alpha, max atom move = 0.5 4.9688784e-06
  Iterations, force evaluations = 228 457

MPI task timing breakdown:
Section |  min time  |  avg time  |  max time  |%varavg| %total
---------------------------------------------------------------
Pair    | 0.69412    | 1.9099     | 2.4874     |  37.2 | 72.70
Neigh   | 0          | 0          | 0          |   0.0 |  0.00
Comm    | 0.046232   | 0.42473    | 1.2938     |  55.7 | 16.17
Output  | 0          | 0          | 0          |   0.0 |  0.00
Modify  | 2.6786e-05 | 0.0037549  | 0.0079981  |   2.9 |  0.14
Other   |            | 0.2886     |            |       | 10.99

Nlocal:        2776.45 ave        3936 max           0 min
Histogram: 8 4 4 0 4 12 8 0 28 36
Nghost:        3879.05 ave        5424 max         232 min
Histogram: 8 0 8 0 16 0 8 8 16 40
Neighs:        79213.4 ave      114645 max           0 min
Histogram: 8 4 4 0 8 8 8 8 20 36

Total # of neighbors = 8238196
Ave neighs/atom = 28.530450
Neighbor list builds = 0
Dangerous builds = 0
The dot product: 5.51697858076817e-08
Setting atom values ...
  1 settings made for x
  1 settings made for y
  1 settings made for z
Setting up cg style minimization ...
  Unit style    : metal
  Current step  : 2510
Per MPI rank memory allocation (min/avg/max) = 5.441 | 5.816 | 6.074 Mbytes
Step PotEng KinEng TotEng v_fx v_fy v_fz 
    2510   -1152449.3            0   -1152449.3 -0.001896486  0.010154295 -0.027628483 
    2821   -1152449.3            0   -1152449.3 -7.7781819e-08 -7.1086004e-08 5.5489568e-07 
Loop time of 3.60018 on 104 procs for 311 steps with 288751 atoms

99.9% CPU use with 104 MPI tasks x 1 OpenMP threads

Minimization stats:
  Stopping criterion = energy tolerance
  Energy initial, next-to-last, final = 
     -1152449.29039044  -1152449.29271315  -1152449.29271315
  Force two-norm initial, final = 0.17086057 4.0593195e-06
  Force max component initial, final = 0.072001759 5.7632461e-07
  Final line search alpha, max atom move = 1.0000000 5.7632461e-07
  Iterations, force evaluations = 311 622

MPI task timing breakdown:
Section |  min time  |  avg time  |  max time  |%varavg| %total
---------------------------------------------------------------
Pair    | 0.94761    | 2.6138     | 3.3981     |  43.5 | 72.60
Neigh   | 0          | 0          | 0          |   0.0 |  0.00
Comm    | 0.052609   | 0.58615    | 1.775      |  64.4 | 16.28
Output  | 0          | 0          | 0          |   0.0 |  0.00
Modify  | 3.9541e-05 | 0.0051074  | 0.010899   |   3.4 |  0.14
Other   |            | 0.3951     |            |       | 10.97

Nlocal:        2776.45 ave        3930 max           0 min
Histogram: 8 4 4 0 4 12 8 0 26 38
Nghost:        3879.05 ave        5424 max         232 min
Histogram: 8 0 8 0 16 0 8 8 16 40
Neighs:        79213.5 ave      114456 max           0 min
Histogram: 8 4 4 0 8 8 8 8 20 36

Total # of neighbors = 8238199
Ave neighs/atom = 28.530461
Neighbor list builds = 0
Dangerous builds = 0
The dot product: -9.74432272494419e-09
Setting atom values ...
  1 settings made for x
  1 settings made for y
  1 settings made for z
Setting up cg style minimization ...
  Unit style    : metal
  Current step  : 2821
Per MPI rank memory allocation (min/avg/max) = 5.441 | 5.816 | 6.074 Mbytes
Step PotEng KinEng TotEng v_fx v_fy v_fz 
    2821   -1152449.3            0   -1152449.3 -0.025322684  0.058444003 -0.059041728 
    3000   -1152449.3            0   -1152449.3 -2.8082626e-05 3.1151614e-06 8.2241544e-05 
    3090   -1152449.3            0   -1152449.3 -1.1591769e-06 9.0575453e-08 3.485718e-06 
Loop time of 3.08873 on 104 procs for 269 steps with 288751 atoms

99.9% CPU use with 104 MPI tasks x 1 OpenMP threads

Minimization stats:
  Stopping criterion = energy tolerance
  Energy initial, next-to-last, final = 
      -1152449.2690871  -1152449.27260591  -1152449.27260591
  Force two-norm initial, final = 0.19071928 1.1087752e-05
  Force max component initial, final = 0.078975936 3.4857180e-06
  Final line search alpha, max atom move = 1.0000000 3.4857180e-06
  Iterations, force evaluations = 269 538

MPI task timing breakdown:
Section |  min time  |  avg time  |  max time  |%varavg| %total
---------------------------------------------------------------
Pair    | 0.81547    | 2.2461     | 2.9221     |  40.4 | 72.72
Neigh   | 0          | 0          | 0          |   0.0 |  0.00
Comm    | 0.050124   | 0.49829    | 1.5169     |  60.4 | 16.13
Output  | 9.9372e-05 | 0.00010207 | 0.00023569 |   0.0 |  0.00
Modify  | 3.2102e-05 | 0.0044142  | 0.0094052  |   3.1 |  0.14
Other   |            | 0.3398     |            |       | 11.00

Nlocal:        2776.45 ave        3930 max           0 min
Histogram: 8 4 4 0 4 12 8 0 26 38
Nghost:        3879.12 ave        5425 max         232 min
Histogram: 8 0 8 0 16 0 8 8 16 40
Neighs:        79213.4 ave      114455 max           0 min
Histogram: 8 4 4 0 8 8 8 8 20 36

Total # of neighbors = 8238195
Ave neighs/atom = 28.530447
Neighbor list builds = 0
Dangerous builds = 0
The dot product: -4.91863060902091e-08
Setting atom values ...
  1 settings made for x
  1 settings made for y
  1 settings made for z
Setting up cg style minimization ...
  Unit style    : metal
  Current step  : 3090
Per MPI rank memory allocation (min/avg/max) = 5.441 | 5.816 | 6.074 Mbytes
Step PotEng KinEng TotEng v_fx v_fy v_fz 
    3090   -1152449.2            0   -1152449.2 -0.031722015  0.091167671 -0.064406984 
    3321   -1152449.3            0   -1152449.3 4.426124e-07 1.5337988e-06 -3.7113296e-06 
Loop time of 2.67521 on 104 procs for 231 steps with 288751 atoms

99.9% CPU use with 104 MPI tasks x 1 OpenMP threads

Minimization stats:
  Stopping criterion = energy tolerance
  Energy initial, next-to-last, final = 
     -1152449.24799213  -1152449.25211683  -1152449.25211683
  Force two-norm initial, final = 0.20676811 5.3976964e-05
  Force max component initial, final = 0.091167671 9.5339616e-06
  Final line search alpha, max atom move = 1.0000000 9.5339616e-06
  Iterations, force evaluations = 231 462

MPI task timing breakdown:
Section |  min time  |  avg time  |  max time  |%varavg| %total
---------------------------------------------------------------
Pair    | 0.70079    | 1.9431     | 2.5309     |  37.6 | 72.64
Neigh   | 0          | 0          | 0          |   0.0 |  0.00
Comm    | 0.045444   | 0.43725    | 1.33       |  55.5 | 16.34
Output  | 0          | 0          | 0          |   0.0 |  0.00
Modify  | 2.751e-05  | 0.0038054  | 0.0081918  |   2.9 |  0.14
Other   |            | 0.291      |            |       | 10.88

Nlocal:        2776.45 ave        3936 max           0 min
Histogram: 8 4 4 0 4 12 8 0 28 36
Nghost:        3879.12 ave        5425 max         232 min
Histogram: 8 0 8 0 16 0 8 8 16 40
Neighs:        79213.4 ave      114642 max           0 min
Histogram: 8 4 4 0 8 8 8 8 20 36

Total # of neighbors = 8238198
Ave neighs/atom = 28.530457
Neighbor list builds = 0
Dangerous builds = 0
The dot product: 1.10731597471245e-07
Setting atom values ...
  1 settings made for x
  1 settings made for y
  1 settings made for z
Setting up cg style minimization ...
  Unit style    : metal
  Current step  : 3321
Per MPI rank memory allocation (min/avg/max) = 5.441 | 5.816 | 6.074 Mbytes
Step PotEng KinEng TotEng v_fx v_fy v_fz 
    3321   -1152449.2            0   -1152449.2 -0.025491167   0.10292473 -0.056940023 
    3532   -1152449.2            0   -1152449.2 -2.8717399e-06 8.2711952e-07 5.8450125e-06 
Loop time of 2.45576 on 104 procs for 211 steps with 288751 atoms

99.9% CPU use with 104 MPI tasks x 1 OpenMP threads

Minimization stats:
  Stopping criterion = energy tolerance
  Energy initial, next-to-last, final = 
     -1152449.22678379  -1152449.23080501  -1152449.23080501
  Force two-norm initial, final = 0.20958004 0.00013727247
  Force max component initial, final = 0.10292473 2.3998141e-05
  Final line search alpha, max atom move = 1.0000000 2.3998141e-05
  Iterations, force evaluations = 211 422

MPI task timing breakdown:
Section |  min time  |  avg time  |  max time  |%varavg| %total
---------------------------------------------------------------
Pair    | 0.64069    | 1.7721     | 2.3094     |  35.9 | 72.16
Neigh   | 0          | 0          | 0          |   0.0 |  0.00
Comm    | 0.04222    | 0.40049    | 1.206      |  53.1 | 16.31
Output  | 0          | 0          | 0          |   0.0 |  0.00
Modify  | 2.5175e-05 | 0.0034653  | 0.0074001  |   2.8 |  0.14
Other   |            | 0.2797     |            |       | 11.39

Nlocal:        2776.45 ave        3946 max           0 min
Histogram: 8 4 4 0 4 12 8 2 26 36
Nghost:        3879.07 ave        5425 max         232 min
Histogram: 8 0 8 0 16 0 8 8 16 40
Neighs:        79213.5 ave      114957 max           0 min
Histogram: 8 4 4 0 10 6 8 8 22 34

Total # of neighbors = 8238203
Ave neighs/atom = 28.530474
Neighbor list builds = 0
Dangerous builds = 0
The dot product: -5.1059769964255e-08
Setting atom values ...
  1 settings made for x
  1 settings made for y
  1 settings made for z
Setting up cg style minimization ...
  Unit style    : metal
  Current step  : 3532
Per MPI rank memory allocation (min/avg/max) = 5.441 | 5.816 | 6.074 Mbytes
Step PotEng KinEng TotEng v_fx v_fy v_fz 
    3532   -1152449.2            0   -1152449.2 -0.015408117  0.093988612 -0.043177173 
    3742   -1152449.2            0   -1152449.2 1.0355888e-05 -2.1550255e-06 -2.0468884e-05 
Loop time of 2.43284 on 104 procs for 210 steps with 288751 atoms

99.9% CPU use with 104 MPI tasks x 1 OpenMP threads

Minimization stats:
  Stopping criterion = energy tolerance
  Energy initial, next-to-last, final = 
     -1152449.20476325   -1152449.2082078   -1152449.2082078
  Force two-norm initial, final = 0.20086127 0.0001365364
  Force max component initial, final = 0.11014282 2.8708372e-05
  Final line search alpha, max atom move = 1.0000000 2.8708372e-05
  Iterations, force evaluations = 210 420

MPI task timing breakdown:
Section |  min time  |  avg time  |  max time  |%varavg| %total
---------------------------------------------------------------
Pair    | 0.63829    | 1.7667     | 2.3088     |  35.8 | 72.62
Neigh   | 0          | 0          | 0          |   0.0 |  0.00
Comm    | 0.038898   | 0.39706    | 1.1931     |  52.8 | 16.32
Output  | 0          | 0          | 0          |   0.0 |  0.00
Modify  | 2.4667e-05 | 0.0034482  | 0.0074023  |   2.8 |  0.14
Other   |            | 0.2656     |            |       | 10.92

Nlocal:        2776.45 ave        3954 max           0 min
Histogram: 8 4 4 0 4 12 8 2 28 34
Nghost:        3879.07 ave        5425 max         232 min
Histogram: 8 0 8 0 16 0 8 8 16 40
Neighs:        79213.5 ave      115230 max           0 min
Histogram: 8 4 4 0 10 6 8 8 24 32

Total # of neighbors = 8238207
Ave neighs/atom = 28.530488
Neighbor list builds = 0
Dangerous builds = 0
The dot product: 2.10677772129942e-07
Setting atom values ...
  1 settings made for x
  1 settings made for y
  1 settings made for z
Setting up cg style minimization ...
  Unit style    : metal
  Current step  : 3742
Per MPI rank memory allocation (min/avg/max) = 5.441 | 5.816 | 6.074 Mbytes
Step PotEng KinEng TotEng v_fx v_fy v_fz 
    3742   -1152449.2            0   -1152449.2 -0.0059669858   0.07763617 -0.034103776 
    3922   -1152449.2            0   -1152449.2 4.0505178e-05 -6.2858643e-06 -7.6366735e-05 
Loop time of 2.08495 on 104 procs for 180 steps with 288751 atoms

99.9% CPU use with 104 MPI tasks x 1 OpenMP threads

Minimization stats:
  Stopping criterion = energy tolerance
  Energy initial, next-to-last, final = 
     -1152449.18156094  -1152449.18465059  -1152449.18465059
  Force two-norm initial, final = 0.19069954 0.00027362686
  Force max component initial, final = 0.11588715 7.6366735e-05
  Final line search alpha, max atom move = 1.0000000 7.6366735e-05
  Iterations, force evaluations = 180 360

MPI task timing breakdown:
Section |  min time  |  avg time  |  max time  |%varavg| %total
---------------------------------------------------------------
Pair    | 0.54833    | 1.5124     | 1.9726     |  33.2 | 72.54
Neigh   | 0          | 0          | 0          |   0.0 |  0.00
Comm    | 0.035879   | 0.33902    | 1.0283     |  49.5 | 16.26
Output  | 0          | 0          | 0          |   0.0 |  0.00
Modify  | 2.1668e-05 | 0.0029602  | 0.0063296  |   2.6 |  0.14
Other   |            | 0.2306     |            |       | 11.06

Nlocal:        2776.45 ave        3955 max           0 min
Histogram: 8 4 4 0 4 12 8 2 28 34
Nghost:        3879.00 ave        5425 max         232 min
Histogram: 8 0 8 0 16 0 8 8 16 40
Neighs:        79213.5 ave      115269 max           0 min
Histogram: 8 4 4 0 10 6 8 8 24 32

Total # of neighbors = 8238206
Ave neighs/atom = 28.530485
Neighbor list builds = 0
Dangerous builds = 0
The dot product: 9.72278668335525e-07
Setting atom values ...
  1 settings made for x
  1 settings made for y
  1 settings made for z
Setting up cg style minimization ...
  Unit style    : metal
  Current step  : 3922
Per MPI rank memory allocation (min/avg/max) = 5.441 | 5.816 | 6.074 Mbytes
Step PotEng KinEng TotEng v_fx v_fy v_fz 
    3922   -1152449.2            0   -1152449.2 0.0025438144  0.063869644 -0.032469475 
    4000   -1152449.2            0   -1152449.2 0.00016461643 2.0858874e-05 -0.00030965657 
    4135   -1152449.2            0   -1152449.2 -3.5655969e-06 3.3497115e-06 5.0510424e-06 
Loop time of 2.47078 on 104 procs for 213 steps with 288751 atoms

99.9% CPU use with 104 MPI tasks x 1 OpenMP threads

Minimization stats:
  Stopping criterion = energy tolerance
  Energy initial, next-to-last, final = 
     -1152449.15754005  -1152449.16027439  -1152449.16027439
  Force two-norm initial, final = 0.18403353 9.0976497e-05
  Force max component initial, final = 0.11998179 2.0139045e-05
  Final line search alpha, max atom move = 1.0000000 2.0139045e-05
  Iterations, force evaluations = 213 426

MPI task timing breakdown:
Section |  min time  |  avg time  |  max time  |%varavg| %total
---------------------------------------------------------------
Pair    | 0.65247    | 1.7893     | 2.339      |  35.8 | 72.42
Neigh   | 0          | 0          | 0          |   0.0 |  0.00
Comm    | 0.035891   | 0.40037    | 1.2192     |  53.3 | 16.20
Output  | 9.7028e-05 | 0.0001047  | 0.00023318 |   0.0 |  0.00
Modify  | 2.5343e-05 | 0.0034944  | 0.0075051  |   2.8 |  0.14
Other   |            | 0.2775     |            |       | 11.23

Nlocal:        2776.45 ave        3955 max           0 min
Histogram: 8 4 4 0 4 12 8 2 28 34
Nghost:        3878.99 ave        5425 max         232 min
Histogram: 8 0 8 0 16 0 8 8 16 40
Neighs:        79213.6 ave      115272 max           0 min
Histogram: 8 4 4 0 10 6 8 8 24 32

Total # of neighbors = 8238211
Ave neighs/atom = 28.530502
Neighbor list builds = 0
Dangerous builds = 0
The dot product: -2.15800900866887e-08
Setting atom values ...
  1 settings made for x
  1 settings made for y
  1 settings made for z
Setting up cg style minimization ...
  Unit style    : metal
  Current step  : 4135
Per MPI rank memory allocation (min/avg/max) = 5.441 | 5.816 | 6.074 Mbytes
Step PotEng KinEng TotEng v_fx v_fy v_fz 
    4135   -1152449.1            0   -1152449.1 0.0087474112  0.056001378 -0.032687649 
    4347   -1152449.1            0   -1152449.1 7.8121861e-06 9.4103522e-07 -1.349323e-05 
Loop time of 2.49009 on 104 procs for 212 steps with 288751 atoms

99.9% CPU use with 104 MPI tasks x 1 OpenMP threads

Minimization stats:
  Stopping criterion = energy tolerance
  Energy initial, next-to-last, final = 
     -1152449.13244303  -1152449.13491131  -1152449.13491131
  Force two-norm initial, final = 0.18140385 8.8164847e-05
  Force max component initial, final = 0.12423741 2.2264028e-05
  Final line search alpha, max atom move = 1.0000000 2.2264028e-05
  Iterations, force evaluations = 212 424

MPI task timing breakdown:
Section |  min time  |  avg time  |  max time  |%varavg| %total
---------------------------------------------------------------
Pair    | 0.64388    | 1.7802     | 2.3379     |  36.1 | 71.49
Neigh   | 0          | 0          | 0          |   0.0 |  0.00
Comm    | 0.040145   | 0.40149    | 1.2111     |  52.8 | 16.12
Output  | 0          | 0          | 0          |   0.0 |  0.00
Modify  | 2.5104e-05 | 0.003486   | 0.0074392  |   2.8 |  0.14
Other   |            | 0.3049     |            |       | 12.25

Nlocal:        2776.45 ave        3956 max           0 min
Histogram: 8 4 4 0 4 12 8 2 28 34
Nghost:        3878.98 ave        5425 max         232 min
Histogram: 8 0 8 0 16 0 8 8 16 40
Neighs:        79213.6 ave      115314 max           0 min
Histogram: 8 4 4 0 10 6 8 8 24 32

Total # of neighbors = 8238214
Ave neighs/atom = 28.530512
Neighbor list builds = 0
Dangerous builds = 0
The dot product: 2.2917953286161e-07
Setting atom values ...
  1 settings made for x
  1 settings made for y
  1 settings made for z
Setting up cg style minimization ...
  Unit style    : metal
  Current step  : 4347
Per MPI rank memory allocation (min/avg/max) = 5.441 | 5.816 | 6.074 Mbytes
Step PotEng KinEng TotEng v_fx v_fy v_fz 
    4347   -1152449.1            0   -1152449.1  0.011400904  0.046521717 -0.028947961 
    4576   -1152449.1            0   -1152449.1 2.0854501e-06 6.7636125e-07 -3.4428317e-06 
Loop time of 2.65242 on 104 procs for 229 steps with 288751 atoms

99.9% CPU use with 104 MPI tasks x 1 OpenMP threads

Minimization stats:
  Stopping criterion = energy tolerance
  Energy initial, next-to-last, final = 
     -1152449.10615928  -1152449.10829673  -1152449.10829673
  Force two-norm initial, final = 0.17858805 2.9042508e-05
  Force max component initial, final = 0.12819546 8.5095474e-06
  Final line search alpha, max atom move = 1.0000000 8.5095474e-06
  Iterations, force evaluations = 229 458

MPI task timing breakdown:
Section |  min time  |  avg time  |  max time  |%varavg| %total
---------------------------------------------------------------
Pair    | 0.69674    | 1.9264     | 2.5148     |  37.4 | 72.63
Neigh   | 0          | 0          | 0          |   0.0 |  0.00
Comm    | 0.043291   | 0.43263    | 1.3136     |  55.4 | 16.31
Output  | 0          | 0          | 0          |   0.0 |  0.00
Modify  | 2.7602e-05 | 0.0037626  | 0.0080554  |   2.9 |  0.14
Other   |            | 0.2896     |            |       | 10.92

Nlocal:        2776.45 ave        3956 max           0 min
Histogram: 8 4 4 0 4 12 8 2 28 34
Nghost:        3879.00 ave        5426 max         232 min
Histogram: 8 0 8 0 16 0 8 8 16 40
Neighs:        79213.6 ave      115311 max           0 min
Histogram: 8 4 4 0 10 6 8 8 24 32

Total # of neighbors = 8238213
Ave neighs/atom = 28.530509
Neighbor list builds = 0
Dangerous builds = 0
The dot product: 5.71406004515794e-08
Setting atom values ...
  1 settings made for x
  1 settings made for y
  1 settings made for z
Setting up cg style minimization ...
  Unit style    : metal
  Current step  : 4576
Per MPI rank memory allocation (min/avg/max) = 5.441 | 5.816 | 6.074 Mbytes
Step PotEng KinEng TotEng v_fx v_fy v_fz 
    4576   -1152449.1            0   -1152449.1  0.010853898  0.035966007 -0.022582635 
    4798   -1152449.1            0   -1152449.1 -7.5625902e-06 1.1849881e-06 1.1027034e-05 
Loop time of 2.57596 on 104 procs for 222 steps with 288751 atoms

99.9% CPU use with 104 MPI tasks x 1 OpenMP threads

Minimization stats:
  Stopping criterion = energy tolerance
  Energy initial, next-to-last, final = 
     -1152449.07842718   -1152449.0803283   -1152449.0803283
  Force two-norm initial, final = 0.17611727 3.5420046e-05
  Force max component initial, final = 0.13180124 1.1027034e-05
  Final line search alpha, max atom move = 1.0000000 1.1027034e-05
  Iterations, force evaluations = 222 444

MPI task timing breakdown:
Section |  min time  |  avg time  |  max time  |%varavg| %total
---------------------------------------------------------------
Pair    | 0.67673    | 1.8584     | 2.4336     |  36.7 | 72.15
Neigh   | 0          | 0          | 0          |   0.0 |  0.00
Comm    | 0.046808   | 0.41703    | 1.2568     |  54.4 | 16.19
Output  | 0          | 0          | 0          |   0.0 |  0.00
Modify  | 2.7478e-05 | 0.0036524  | 0.0078019  |   2.8 |  0.14
Other   |            | 0.2968     |            |       | 11.52

Nlocal:        2776.45 ave        3956 max           0 min
Histogram: 8 4 4 0 4 12 8 1 29 34
Nghost:        3878.99 ave        5426 max         232 min
Histogram: 8 0 8 0 16 0 8 8 16 40
Neighs:        79213.6 ave      115312 max           0 min
Histogram: 8 4 4 0 10 6 8 8 24 32

Total # of neighbors = 8238212
Ave neighs/atom = 28.530506
Neighbor list builds = 0
Dangerous builds = 0
The dot product: -1.27016834437921e-07
Setting atom values ...
  1 settings made for x
  1 settings made for y
  1 settings made for z
Setting up cg style minimization ...
  Unit style    : metal
  Current step  : 4798
Per MPI rank memory allocation (min/avg/max) = 5.441 | 5.816 | 6.074 Mbytes
Step PotEng KinEng TotEng v_fx v_fy v_fz 
    4798     -1152449            0     -1152449 0.0089181069  0.026437623 -0.016391825 
    5000   -1152449.1            0   -1152449.1 -1.5569128e-05 7.6435575e-07 2.1995302e-05 
    5004   -1152449.1            0   -1152449.1 -1.2887966e-05 3.507993e-06 1.7801719e-05 
Loop time of 2.40444 on 104 procs for 206 steps with 288751 atoms

99.9% CPU use with 104 MPI tasks x 1 OpenMP threads

Minimization stats:
  Stopping criterion = energy tolerance
  Energy initial, next-to-last, final = 
     -1152449.04926787   -1152449.0510235   -1152449.0510235
  Force two-norm initial, final = 0.17483228 8.8512547e-05
  Force max component initial, final = 0.1349662 2.2214722e-05
  Final line search alpha, max atom move = 1.0000000 2.2214722e-05
  Iterations, force evaluations = 206 412

MPI task timing breakdown:
Section |  min time  |  avg time  |  max time  |%varavg| %total
---------------------------------------------------------------
Pair    | 0.62712    | 1.7401     | 2.2761     |  35.5 | 72.37
Neigh   | 0          | 0          | 0          |   0.0 |  0.00
Comm    | 0.035664   | 0.39338    | 1.1781     |  52.4 | 16.36
Output  | 0.00011051 | 0.00011304 | 0.00025579 |   0.0 |  0.00
Modify  | 2.5014e-05 | 0.0033801  | 0.007222   |   2.7 |  0.14
Other   |            | 0.2675     |            |       | 11.12

Nlocal:        2776.45 ave        3956 max           0 min
Histogram: 8 4 4 0 4 12 8 0 30 34
Nghost:        3879.01 ave        5426 max         232 min
Histogram: 8 0 8 0 16 0 8 8 16 40
Neighs:        79213.6 ave      115312 max           0 min
Histogram: 8 4 4 0 10 6 8 8 24 32

Total # of neighbors = 8238215
Ave neighs/atom = 28.530516
Neighbor list builds = 0
Dangerous builds = 0
The dot product: -1.68426464060518e-07
Setting atom values ...
  1 settings made for x
  1 settings made for y
  1 settings made for z
Setting up cg style minimization ...
  Unit style    : metal
  Current step  : 5004
Per MPI rank memory allocation (min/avg/max) = 5.441 | 5.816 | 6.074 Mbytes
Step PotEng KinEng TotEng v_fx v_fy v_fz 
    5004     -1152449            0     -1152449 0.0066461382  0.018747883 -0.011264716 
    5176     -1152449            0     -1152449 -2.8390455e-05 9.3358723e-06 3.7776795e-05 
Loop time of 1.98991 on 104 procs for 172 steps with 288751 atoms

99.9% CPU use with 104 MPI tasks x 1 OpenMP threads

Minimization stats:
  Stopping criterion = energy tolerance
  Energy initial, next-to-last, final = 
      -1152449.0187696   -1152449.0204885   -1152449.0204885
  Force two-norm initial, final = 0.1746202 0.00022030562
  Force max component initial, final = 0.13773847 5.5967971e-05
  Final line search alpha, max atom move = 1.0000000 5.5967971e-05
  Iterations, force evaluations = 172 344

MPI task timing breakdown:
Section |  min time  |  avg time  |  max time  |%varavg| %total
---------------------------------------------------------------
Pair    | 0.52304    | 1.4397     | 1.888      |  32.4 | 72.35
Neigh   | 0          | 0          | 0          |   0.0 |  0.00
Comm    | 0.033807   | 0.32216    | 0.97426    |  48.0 | 16.19
Output  | 0          | 0          | 0          |   0.0 |  0.00
Modify  | 2.0892e-05 | 0.0028311  | 0.0060631  |   2.5 |  0.14
Other   |            | 0.2252     |            |       | 11.32

Nlocal:        2776.45 ave        3956 max           0 min
Histogram: 8 4 4 0 4 12 8 0 30 34
Nghost:        3879.03 ave        5426 max         232 min
Histogram: 8 0 8 0 16 0 8 8 16 40
Neighs:        79213.6 ave      115313 max           0 min
Histogram: 8 4 4 0 10 6 8 8 24 32

Total # of neighbors = 8238218
Ave neighs/atom = 28.530526
Neighbor list builds = 0
Dangerous builds = 0
The dot product: -3.18562884452639e-07
Setting atom values ...
  1 settings made for x
  1 settings made for y
  1 settings made for z
Setting up cg style minimization ...
  Unit style    : metal
  Current step  : 5176
Per MPI rank memory allocation (min/avg/max) = 5.441 | 5.816 | 6.074 Mbytes
Step PotEng KinEng TotEng v_fx v_fy v_fz 
    5176     -1152449            0     -1152449 0.0047580789  0.012995135 -0.0075977266 
    5352     -1152449            0     -1152449 -1.3813437e-05 5.0012018e-06 1.7842263e-05 
Loop time of 2.05048 on 104 procs for 176 steps with 288751 atoms

99.9% CPU use with 104 MPI tasks x 1 OpenMP threads

Minimization stats:
  Stopping criterion = energy tolerance
  Energy initial, next-to-last, final = 
     -1152448.98715148  -1152448.98883453  -1152448.98883453
  Force two-norm initial, final = 0.17497686 0.00018813927
  Force max component initial, final = 0.14007356 3.8775103e-05
  Final line search alpha, max atom move = 1.0000000 3.8775103e-05
  Iterations, force evaluations = 176 352

MPI task timing breakdown:
Section |  min time  |  avg time  |  max time  |%varavg| %total
---------------------------------------------------------------
Pair    | 0.53443    | 1.4814     | 1.9457     |  32.9 | 72.25
Neigh   | 0          | 0          | 0          |   0.0 |  0.00
Comm    | 0.032602   | 0.33545    | 1.0001     |  47.9 | 16.36
Output  | 0          | 0          | 0          |   0.0 |  0.00
Modify  | 2.1786e-05 | 0.0028924  | 0.00617    |   2.5 |  0.14
Other   |            | 0.2307     |            |       | 11.25

Nlocal:        2776.45 ave        3956 max           0 min
Histogram: 8 4 4 0 4 12 8 0 30 34
Nghost:        3879.01 ave        5426 max         232 min
Histogram: 8 0 8 0 16 0 8 8 16 40
Neighs:        79213.6 ave      115364 max           0 min
Histogram: 8 4 4 0 10 6 8 8 24 32

Total # of neighbors = 8238215
Ave neighs/atom = 28.530516
Neighbor list builds = 0
Dangerous builds = 0
The dot product: -1.36049730779252e-07
Setting atom values ...
  1 settings made for x
  1 settings made for y
  1 settings made for z
Setting up cg style minimization ...
  Unit style    : metal
  Current step  : 5352
Per MPI rank memory allocation (min/avg/max) = 5.441 | 5.816 | 6.074 Mbytes
Step PotEng KinEng TotEng v_fx v_fy v_fz 
    5352     -1152449            0     -1152449 0.0027528068   0.00878655 -0.004329497 
    5530     -1152449            0     -1152449 -1.9507851e-05 4.5204332e-06 2.4841102e-05 
Loop time of 2.07834 on 104 procs for 178 steps with 288751 atoms

99.9% CPU use with 104 MPI tasks x 1 OpenMP threads

Minimization stats:
  Stopping criterion = energy tolerance
  Energy initial, next-to-last, final = 
     -1152448.95444914  -1152448.95615677  -1152448.95615677
  Force two-norm initial, final = 0.17567984 0.00019421758
  Force max component initial, final = 0.14214126 2.5910453e-05
  Final line search alpha, max atom move = 1.0000000 2.5910453e-05
  Iterations, force evaluations = 178 356

MPI task timing breakdown:
Section |  min time  |  avg time  |  max time  |%varavg| %total
---------------------------------------------------------------
Pair    | 0.54338    | 1.4972     | 1.9609     |  33.0 | 72.04
Neigh   | 0          | 0          | 0          |   0.0 |  0.00
Comm    | 0.036303   | 0.33747    | 1.0194     |  48.8 | 16.24
Output  | 0          | 0          | 0          |   0.0 |  0.00
Modify  | 2.1979e-05 | 0.0029295  | 0.0062859  |   2.6 |  0.14
Other   |            | 0.2407     |            |       | 11.58

Nlocal:        2776.45 ave        3956 max           0 min
Histogram: 8 4 4 0 4 12 8 0 30 34
Nghost:        3879.03 ave        5426 max         232 min
Histogram: 8 0 8 0 16 0 8 8 16 40
Neighs:        79213.6 ave      115368 max           0 min
Histogram: 8 4 4 0 10 6 8 8 24 32

Total # of neighbors = 8238219
Ave neighs/atom = 28.530530
Neighbor list builds = 0
Dangerous builds = 0
The dot product: -1.85956413622986e-07
Setting atom values ...
  1 settings made for x
  1 settings made for y
  1 settings made for z
Setting up cg style minimization ...
  Unit style    : metal
  Current step  : 5530
Per MPI rank memory allocation (min/avg/max) = 5.441 | 5.816 | 6.074 Mbytes
Step PotEng KinEng TotEng v_fx v_fy v_fz 
    5530   -1152448.9            0   -1152448.9 0.0011581737 0.0059330445 -0.0019395266 
    5726   -1152448.9            0   -1152448.9 -1.328118e-05 3.8340958e-06 1.6489007e-05 
Loop time of 2.28069 on 104 procs for 196 steps with 288751 atoms

99.9% CPU use with 104 MPI tasks x 1 OpenMP threads

Minimization stats:
  Stopping criterion = energy tolerance
  Energy initial, next-to-last, final = 
     -1152448.92086286  -1152448.92257323  -1152448.92257323
  Force two-norm initial, final = 0.17635826 0.00011996491
  Force max component initial, final = 0.14380741 2.6413995e-05
  Final line search alpha, max atom move = 1.0000000 2.6413995e-05
  Iterations, force evaluations = 196 392

MPI task timing breakdown:
Section |  min time  |  avg time  |  max time  |%varavg| %total
---------------------------------------------------------------
Pair    | 0.59768    | 1.6499     | 2.16       |  34.6 | 72.34
Neigh   | 0          | 0          | 0          |   0.0 |  0.00
Comm    | 0.03884    | 0.3721     | 1.137      |  51.2 | 16.32
Output  | 0          | 0          | 0          |   0.0 |  0.00
Modify  | 2.4062e-05 | 0.0032239  | 0.0068932  |   2.7 |  0.14
Other   |            | 0.2554     |            |       | 11.20

Nlocal:        2776.45 ave        3955 max           0 min
Histogram: 8 4 4 0 4 12 8 0 30 34
Nghost:        3879.03 ave        5426 max         232 min
Histogram: 8 0 8 0 16 0 8 8 16 40
Neighs:        79213.6 ave      115324 max           0 min
Histogram: 8 4 4 0 10 6 8 8 24 32

Total # of neighbors = 8238214
Ave neighs/atom = 28.530512
Neighbor list builds = 0
Dangerous builds = 0
The dot product: -1.11719365542688e-07
Setting atom values ...
  1 settings made for x
  1 settings made for y
  1 settings made for z
Setting up cg style minimization ...
  Unit style    : metal
  Current step  : 5726
Per MPI rank memory allocation (min/avg/max) = 5.441 | 5.816 | 6.074 Mbytes
Step PotEng KinEng TotEng v_fx v_fy v_fz 
    5726   -1152448.9            0   -1152448.9 -0.00085926087  0.003947115 0.00076838674 
    5978   -1152448.9            0   -1152448.9 -2.5822916e-06 3.1414848e-07 3.1791324e-06 
Loop time of 2.92975 on 104 procs for 252 steps with 288751 atoms

99.9% CPU use with 104 MPI tasks x 1 OpenMP threads

Minimization stats:
  Stopping criterion = energy tolerance
  Energy initial, next-to-last, final = 
     -1152448.88636461  -1152448.88798703  -1152448.88798703
  Force two-norm initial, final = 0.17723832 1.2458595e-05
  Force max component initial, final = 0.1454212 3.1791324e-06
  Final line search alpha, max atom move = 1.0000000 3.1791324e-06
  Iterations, force evaluations = 252 504

MPI task timing breakdown:
Section |  min time  |  avg time  |  max time  |%varavg| %total
---------------------------------------------------------------
Pair    | 0.76541    | 2.1142     | 2.7684     |  39.2 | 72.16
Neigh   | 0          | 0          | 0          |   0.0 |  0.00
Comm    | 0.048988   | 0.4748     | 1.4441     |  58.2 | 16.21
Output  | 0          | 0          | 0          |   0.0 |  0.00
Modify  | 2.9656e-05 | 0.0041388  | 0.0089159  |   3.0 |  0.14
Other   |            | 0.3366     |            |       | 11.49

Nlocal:        2776.45 ave        3956 max           0 min
Histogram: 8 4 4 0 4 12 8 0 30 34
Nghost:        3879.03 ave        5426 max         232 min
Histogram: 8 0 8 0 16 0 8 8 16 40
Neighs:        79213.6 ave      115343 max           0 min
Histogram: 8 4 4 0 10 6 8 8 24 32

Total # of neighbors = 8238216
Ave neighs/atom = 28.530519
Neighbor list builds = 0
Dangerous builds = 0
The dot product: -1.80776373603422e-08
Setting atom values ...
  1 settings made for x
  1 settings made for y
  1 settings made for z
Setting up cg style minimization ...
  Unit style    : metal
  Current step  : 5978
Per MPI rank memory allocation (min/avg/max) = 5.441 | 5.816 | 6.074 Mbytes
Step PotEng KinEng TotEng v_fx v_fy v_fz 
    5978   -1152448.9            0   -1152448.9 -0.0036857274 0.0026176191 0.0043125289 
    6000   -1152448.9            0   -1152448.9 0.00086595916 4.9954137e-05 -0.0010615147 
    6182   -1152448.9            0   -1152448.9 1.3471636e-05 -6.6705961e-07 -1.6408998e-05 
Loop time of 2.37894 on 104 procs for 204 steps with 288751 atoms

99.9% CPU use with 104 MPI tasks x 1 OpenMP threads

Minimization stats:
  Stopping criterion = energy tolerance
  Energy initial, next-to-last, final = 
     -1152448.85072609   -1152448.8523509   -1152448.8523509
  Force two-norm initial, final = 0.17856021 8.8249668e-05
  Force max component initial, final = 0.14718091 1.9225699e-05
  Final line search alpha, max atom move = 1.0000000 1.9225699e-05
  Iterations, force evaluations = 204 408

MPI task timing breakdown:
Section |  min time  |  avg time  |  max time  |%varavg| %total
---------------------------------------------------------------
Pair    | 0.62115    | 1.7146     | 2.2463     |  35.3 | 72.07
Neigh   | 0          | 0          | 0          |   0.0 |  0.00
Comm    | 0.035923   | 0.38663    | 1.1754     |  52.0 | 16.25
Output  | 9.2835e-05 | 9.8092e-05 | 0.00016679 |   0.0 |  0.00
Modify  | 2.5198e-05 | 0.0033561  | 0.0071925  |   2.7 |  0.14
Other   |            | 0.2743     |            |       | 11.53

Nlocal:        2776.45 ave        3956 max           0 min
Histogram: 8 4 4 0 4 12 8 0 30 34
Nghost:        3879.02 ave        5426 max         232 min
Histogram: 8 0 8 0 16 0 8 8 16 40
Neighs:        79213.6 ave      115337 max           0 min
Histogram: 8 4 4 0 10 6 8 8 24 32

Total # of neighbors = 8238215
Ave neighs/atom = 28.530516
Neighbor list builds = 0
Dangerous builds = 0
The dot product: 7.70387929255906e-08
Setting atom values ...
  1 settings made for x
  1 settings made for y
  1 settings made for z
Setting up cg style minimization ...
  Unit style    : metal
  Current step  : 6182
Per MPI rank memory allocation (min/avg/max) = 5.441 | 5.816 | 6.074 Mbytes
Step PotEng KinEng TotEng v_fx v_fy v_fz 
    6182   -1152448.8            0   -1152448.8 -0.0062589041 0.0019393814 0.0074174597 
    6368   -1152448.8            0   -1152448.8 9.8050718e-06 1.8228609e-07 -1.1849482e-05 
Loop time of 2.15492 on 104 procs for 186 steps with 288751 atoms

99.9% CPU use with 104 MPI tasks x 1 OpenMP threads

Minimization stats:
  Stopping criterion = energy tolerance
  Energy initial, next-to-last, final = 
     -1152448.81408482  -1152448.81584477  -1152448.81584477
  Force two-norm initial, final = 0.17976252 0.00021946885
  Force max component initial, final = 0.1487226 1.6767903e-05
  Final line search alpha, max atom move = 1.0000000 1.6767903e-05
  Iterations, force evaluations = 186 372

MPI task timing breakdown:
Section |  min time  |  avg time  |  max time  |%varavg| %total
---------------------------------------------------------------
Pair    | 0.56325    | 1.5548     | 2.0401     |  33.6 | 72.15
Neigh   | 0          | 0          | 0          |   0.0 |  0.00
Comm    | 0.036689   | 0.3478     | 1.0496     |  49.8 | 16.14
Output  | 0          | 0          | 0          |   0.0 |  0.00
Modify  | 2.2191e-05 | 0.0030603  | 0.0065533  |   2.6 |  0.14
Other   |            | 0.2493     |            |       | 11.57

Nlocal:        2776.45 ave        3955 max           0 min
Histogram: 8 4 4 0 4 12 8 0 30 34
Nghost:        3879.01 ave        5426 max         232 min
Histogram: 8 0 8 0 16 0 8 8 16 40
Neighs:        79213.6 ave      115320 max           0 min
Histogram: 8 4 4 0 10 6 8 8 24 32

Total # of neighbors = 8238213
Ave neighs/atom = 28.530509
Neighbor list builds = 0
Dangerous builds = 0
The dot product: 4.82573093351346e-08
Setting atom values ...
  1 settings made for x
  1 settings made for y
  1 settings made for z
Setting up cg style minimization ...
  Unit style    : metal
  Current step  : 6368
Per MPI rank memory allocation (min/avg/max) = 5.441 | 5.816 | 6.074 Mbytes
Step PotEng KinEng TotEng v_fx v_fy v_fz 
    6368   -1152448.8            0   -1152448.8 -0.0083838444 0.0017453188 0.0098973095 
    6559   -1152448.8            0   -1152448.8 7.0264153e-06 -6.98997e-07 -8.3489119e-06 
Loop time of 2.22047 on 104 procs for 191 steps with 288751 atoms

99.9% CPU use with 104 MPI tasks x 1 OpenMP threads

Minimization stats:
  Stopping criterion = energy tolerance
  Energy initial, next-to-last, final = 
     -1152448.77674227  -1152448.77836003  -1152448.77836003
  Force two-norm initial, final = 0.18037964 0.00012159282
  Force max component initial, final = 0.14980833 8.3489119e-06
  Final line search alpha, max atom move = 1.0000000 8.3489119e-06
  Iterations, force evaluations = 191 382

MPI task timing breakdown:
Section |  min time  |  avg time  |  max time  |%varavg| %total
---------------------------------------------------------------
Pair    | 0.58023    | 1.6099     | 2.1077     |  34.3 | 72.50
Neigh   | 0          | 0          | 0          |   0.0 |  0.00
Comm    | 0.038671   | 0.3631     | 1.1028     |  50.4 | 16.35
Output  | 0          | 0          | 0          |   0.0 |  0.00
Modify  | 2.2554e-05 | 0.0031436  | 0.0067402  |   2.7 |  0.14
Other   |            | 0.2443     |            |       | 11.00

Nlocal:        2776.45 ave        3956 max           0 min
Histogram: 8 4 4 0 4 12 8 0 30 34
Nghost:        3879.00 ave        5426 max         232 min
Histogram: 8 0 8 0 16 0 8 8 16 40
Neighs:        79213.6 ave      115335 max           0 min
Histogram: 8 4 4 0 10 6 8 8 24 32

Total # of neighbors = 8238215
Ave neighs/atom = 28.530516
Neighbor list builds = 0
Dangerous builds = 0
The dot product: 2.25530876626908e-08
Setting atom values ...
  1 settings made for x
  1 settings made for y
  1 settings made for z
Setting up cg style minimization ...
  Unit style    : metal
  Current step  : 6559
Per MPI rank memory allocation (min/avg/max) = 5.441 | 5.816 | 6.074 Mbytes
Step PotEng KinEng TotEng v_fx v_fy v_fz 
    6559   -1152448.7            0   -1152448.7 -0.011529009 0.0020542865  0.013547854 
    6753   -1152448.7            0   -1152448.7 -2.2124969e-05 5.5045599e-06 2.5888286e-05 
Loop time of 2.24909 on 104 procs for 194 steps with 288751 atoms

99.9% CPU use with 104 MPI tasks x 1 OpenMP threads

Minimization stats:
  Stopping criterion = energy tolerance
  Energy initial, next-to-last, final = 
     -1152448.73824872  -1152448.73989511  -1152448.73989511
  Force two-norm initial, final = 0.18131814 0.00012939611
  Force max component initial, final = 0.15113852 3.2455501e-05
  Final line search alpha, max atom move = 1.0000000 3.2455501e-05
  Iterations, force evaluations = 194 388

MPI task timing breakdown:
Section |  min time  |  avg time  |  max time  |%varavg| %total
---------------------------------------------------------------
Pair    | 0.58835    | 1.6229     | 2.1293     |  34.4 | 72.16
Neigh   | 0          | 0          | 0          |   0.0 |  0.00
Comm    | 0.035047   | 0.36332    | 1.0944     |  50.9 | 16.15
Output  | 0          | 0          | 0          |   0.0 |  0.00
Modify  | 2.3502e-05 | 0.0031926  | 0.0068476  |   2.7 |  0.14
Other   |            | 0.2596     |            |       | 11.54

Nlocal:        2776.45 ave        3956 max           0 min
Histogram: 8 4 4 0 4 12 8 0 30 34
Nghost:        3878.99 ave        5426 max         232 min
Histogram: 8 0 8 0 16 0 8 8 16 40
Neighs:        79213.6 ave      115335 max           0 min
Histogram: 8 4 4 0 10 6 8 8 24 32

Total # of neighbors = 8238213
Ave neighs/atom = 28.530509
Neighbor list builds = 0
Dangerous builds = 0
The dot product: -4.1693394848187e-08
Setting atom values ...
  1 settings made for x
  1 settings made for y
  1 settings made for z
Setting up cg style minimization ...
  Unit style    : metal
  Current step  : 6753
Per MPI rank memory allocation (min/avg/max) = 5.441 | 5.816 | 6.074 Mbytes
Step PotEng KinEng TotEng v_fx v_fy v_fz 
    6753   -1152448.7            0   -1152448.7 -0.014285456 0.0027526058  0.016711818 
    6915   -1152448.7            0   -1152448.7 -3.1035529e-05 5.7857161e-06 3.6320827e-05 
Loop time of 1.88116 on 104 procs for 162 steps with 288751 atoms

99.9% CPU use with 104 MPI tasks x 1 OpenMP threads

Minimization stats:
  Stopping criterion = energy tolerance
  Energy initial, next-to-last, final = 
     -1152448.69892437  -1152448.70080969  -1152448.70080969
  Force two-norm initial, final = 0.18154859 0.00014153384
  Force max component initial, final = 0.15210526 3.8391011e-05
  Final line search alpha, max atom move = 1.0000000 3.8391011e-05
  Iterations, force evaluations = 162 324

MPI task timing breakdown:
Section |  min time  |  avg time  |  max time  |%varavg| %total
---------------------------------------------------------------
Pair    | 0.49251    | 1.3654     | 1.7853     |  31.5 | 72.58
Neigh   | 0          | 0          | 0          |   0.0 |  0.00
Comm    | 0.028696   | 0.30535    | 0.92256    |  46.7 | 16.23
Output  | 0          | 0          | 0          |   0.0 |  0.00
Modify  | 1.9643e-05 | 0.0026711  | 0.0056845  |   2.4 |  0.14
Other   |            | 0.2078     |            |       | 11.05

Nlocal:        2776.45 ave        3955 max           0 min
Histogram: 8 4 4 0 4 12 8 0 30 34
Nghost:        3878.97 ave        5425 max         232 min
Histogram: 8 0 8 0 16 0 8 8 16 40
Neighs:        79213.6 ave      115296 max           0 min
Histogram: 8 4 4 0 10 6 8 8 24 32

Total # of neighbors = 8238215
Ave neighs/atom = 28.530516
Neighbor list builds = 0
Dangerous builds = 0
The dot product: -3.12665082218228e-08
Setting atom values ...
  1 settings made for x
  1 settings made for y
  1 settings made for z
Setting up cg style minimization ...
  Unit style    : metal
  Current step  : 6915
Per MPI rank memory allocation (min/avg/max) = 5.441 | 5.816 | 6.074 Mbytes
Step PotEng KinEng TotEng v_fx v_fy v_fz 
    6915   -1152448.7            0   -1152448.7 -0.016361745 0.0033001569  0.019093446 
    7000   -1152448.7            0   -1152448.7 -0.00012853498 1.792434e-05 0.00015058288 
    7079   -1152448.7            0   -1152448.7 2.5638808e-05 -3.5199751e-06 -3.0040765e-05 
Loop time of 1.89577 on 104 procs for 164 steps with 288751 atoms

99.9% CPU use with 104 MPI tasks x 1 OpenMP threads

Minimization stats:
  Stopping criterion = energy tolerance
  Energy initial, next-to-last, final = 
      -1152448.6594663  -1152448.66125745  -1152448.66125745
  Force two-norm initial, final = 0.18023654 0.00011514781
  Force max component initial, final = 0.15193365 3.0040765e-05
  Final line search alpha, max atom move = 1.0000000 3.0040765e-05
  Iterations, force evaluations = 164 328

MPI task timing breakdown:
Section |  min time  |  avg time  |  max time  |%varavg| %total
---------------------------------------------------------------
Pair    | 0.49799    | 1.3746     | 1.7979     |  31.7 | 72.51
Neigh   | 0          | 0          | 0          |   0.0 |  0.00
Comm    | 0.033979   | 0.30695    | 0.93149    |  47.1 | 16.19
Output  | 0.00010576 | 0.0001085  | 0.00022735 |   0.0 |  0.01
Modify  | 1.9618e-05 | 0.0026975  | 0.0057795  |   2.5 |  0.14
Other   |            | 0.2114     |            |       | 11.15

Nlocal:        2776.45 ave        3956 max           0 min
Histogram: 8 4 4 0 4 12 8 0 30 34
Nghost:        3878.92 ave        5425 max         232 min
Histogram: 8 0 8 0 16 0 8 8 16 40
Neighs:        79213.5 ave      115329 max           0 min
Histogram: 8 4 4 0 10 6 8 8 24 32

Total # of neighbors = 8238200
Ave neighs/atom = 28.530464
Neighbor list builds = 0
Dangerous builds = 0
The dot product: -1.99062856493772e-08
Setting atom values ...
  1 settings made for x
  1 settings made for y
  1 settings made for z
Setting up cg style minimization ...
  Unit style    : metal
  Current step  : 7079
Per MPI rank memory allocation (min/avg/max) = 5.441 | 5.816 | 6.074 Mbytes
Step PotEng KinEng TotEng v_fx v_fy v_fz 
    7079   -1152448.6            0   -1152448.6 -0.019187919  0.003737587  0.022430331 
    7235   -1152448.6            0   -1152448.6 5.0120075e-05 -6.7286541e-06 -5.8820261e-05 
Loop time of 1.83224 on 104 procs for 156 steps with 288751 atoms

99.9% CPU use with 104 MPI tasks x 1 OpenMP threads

Minimization stats:
  Stopping criterion = energy tolerance
  Energy initial, next-to-last, final = 
     -1152448.61983159  -1152448.62198124  -1152448.62198124
  Force two-norm initial, final = 0.17909788 0.00024398377
  Force max component initial, final = 0.15118444 5.8988519e-05
  Final line search alpha, max atom move = 1.0000000 5.8988519e-05
  Iterations, force evaluations = 156 312

MPI task timing breakdown:
Section |  min time  |  avg time  |  max time  |%varavg| %total
---------------------------------------------------------------
Pair    | 0.47635    | 1.314      | 1.72       |  30.9 | 71.71
Neigh   | 0          | 0          | 0          |   0.0 |  0.00
Comm    | 0.027763   | 0.29635    | 0.90035    |  45.4 | 16.17
Output  | 0          | 0          | 0          |   0.0 |  0.00
Modify  | 1.9399e-05 | 0.0025681  | 0.0055206  |   2.4 |  0.14
Other   |            | 0.2194     |            |       | 11.97

Nlocal:        2776.45 ave        3955 max           0 min
Histogram: 8 4 4 0 4 12 8 0 30 34
Nghost:        3878.91 ave        5425 max         232 min
Histogram: 8 0 8 0 16 0 8 8 16 40
Neighs:        79213.5 ave      115285 max           0 min
Histogram: 8 4 4 0 10 6 8 8 24 32

Total # of neighbors = 8238201
Ave neighs/atom = 28.530467
Neighbor list builds = 0
Dangerous builds = 0
The dot product: -4.00972855538664e-08
Setting atom values ...
  1 settings made for x
  1 settings made for y
  1 settings made for z
Setting up cg style minimization ...
  Unit style    : metal
  Current step  : 7235
Per MPI rank memory allocation (min/avg/max) = 5.441 | 5.816 | 6.074 Mbytes
Step PotEng KinEng TotEng v_fx v_fy v_fz 
    7235   -1152448.6            0   -1152448.6 -0.021440333 0.00086143505  0.025357976 
    7474   -1152448.6            0   -1152448.6 -6.9750271e-07 -2.7586038e-06 1.0460919e-06 
Loop time of 2.80945 on 104 procs for 239 steps with 288751 atoms

99.9% CPU use with 104 MPI tasks x 1 OpenMP threads

Minimization stats:
  Stopping criterion = energy tolerance
  Energy initial, next-to-last, final = 
     -1152448.58159073  -1152448.58609926  -1152448.58609926
  Force two-norm initial, final = 0.17837537 0.00019558928
  Force max component initial, final = 0.14824953 4.0677088e-06
  Final line search alpha, max atom move = 1.0000000 4.0677088e-06
  Iterations, force evaluations = 239 478

MPI task timing breakdown:
Section |  min time  |  avg time  |  max time  |%varavg| %total
---------------------------------------------------------------
Pair    | 0.73502    | 2.0084     | 2.6248     |  38.0 | 71.49
Neigh   | 1.0721e-05 | 0.0029592  | 0.0042886  |   2.2 |  0.11
Comm    | 0.056947   | 0.45472    | 1.3671     |  56.4 | 16.19
Output  | 0          | 0          | 0          |   0.0 |  0.00
Modify  | 3.0104e-05 | 0.0039314  | 0.0083989  |   3.0 |  0.14
Other   |            | 0.3394     |            |       | 12.08

Nlocal:        2776.45 ave        3956 max           0 min
Histogram: 8 4 4 0 4 12 8 0 30 34
Nghost:        3878.95 ave        5425 max         232 min
Histogram: 8 0 8 0 16 0 8 8 16 40
Neighs:        79213.4 ave      115332 max           0 min
Histogram: 8 4 4 0 10 6 8 8 24 32

Total # of neighbors = 8238196
Ave neighs/atom = 28.530450
Neighbor list builds = 1
Dangerous builds = 0
The dot product: -6.59544625620678e-09
Setting atom values ...
  1 settings made for x
  1 settings made for y
  1 settings made for z
Setting up cg style minimization ...
  Unit style    : metal
  Current step  : 7474
Per MPI rank memory allocation (min/avg/max) = 5.441 | 5.816 | 6.074 Mbytes
Step PotEng KinEng TotEng v_fx v_fy v_fz 
    7474   -1152448.6            0   -1152448.6 -0.011707583 -0.0012515533  0.013544067 
    7837   -1152448.6            0   -1152448.6 5.661551e-08 -8.5616689e-09 -6.4265797e-08 
Loop time of 4.20995 on 104 procs for 363 steps with 288751 atoms

99.9% CPU use with 104 MPI tasks x 1 OpenMP threads

Minimization stats:
  Stopping criterion = energy tolerance
  Energy initial, next-to-last, final = 
     -1152448.55848434  -1152448.56158284  -1152448.56158284
  Force two-norm initial, final = 0.18441492 3.9647637e-07
  Force max component initial, final = 0.14847312 8.2036293e-08
  Final line search alpha, max atom move = 1.0000000 8.2036293e-08
  Iterations, force evaluations = 363 726

MPI task timing breakdown:
Section |  min time  |  avg time  |  max time  |%varavg| %total
---------------------------------------------------------------
Pair    | 1.1053     | 3.0552     | 3.9957     |  47.1 | 72.57
Neigh   | 0          | 0          | 0          |   0.0 |  0.00
Comm    | 0.062673   | 0.68849    | 2.0984     |  69.6 | 16.35
Output  | 0          | 0          | 0          |   0.0 |  0.00
Modify  | 4.3241e-05 | 0.0059553  | 0.012714   |   3.6 |  0.14
Other   |            | 0.4603     |            |       | 10.93

Nlocal:        2776.45 ave        3956 max           0 min
Histogram: 8 4 4 0 4 12 8 0 30 34
Nghost:        3879.05 ave        5426 max         232 min
Histogram: 8 0 8 0 16 0 8 8 16 40
Neighs:        79213.5 ave      115317 max           0 min
Histogram: 8 4 4 0 10 6 8 8 24 32

Total # of neighbors = 8238199
Ave neighs/atom = 28.530461
Neighbor list builds = 0
Dangerous builds = 0
The dot product: 5.25998674333054e-10
Setting atom values ...
  1 settings made for x
  1 settings made for y
  1 settings made for z
Setting up cg style minimization ...
  Unit style    : metal
  Current step  : 7837
Per MPI rank memory allocation (min/avg/max) = 5.441 | 5.816 | 6.074 Mbytes
Step PotEng KinEng TotEng v_fx v_fy v_fz 
    7837   -1152448.5            0   -1152448.5 -0.024695777 0.0041691036  0.027553132 
    8000   -1152448.5            0   -1152448.5 -5.8098027e-05  7.17576e-06 6.5045945e-05 
[...]
Histogram: 8 0 8 0 16 0 8 8 16 40
Neighs:        79213.2 ave      115484 max           0 min
Histogram: 8 4 4 0 10 6 8 8 24 32

Total # of neighbors = 8238174
Ave neighs/atom = 28.530374
Neighbor list builds = 0
Dangerous builds = 0
The dot product: 1.023300153569e-08
Setting atom values ...
  1 settings made for x
  1 settings made for y
  1 settings made for z
Setting up cg style minimization ...
  Unit style    : metal
  Current step  : 27269
Per MPI rank memory allocation (min/avg/max) = 5.441 | 5.816 | 6.074 Mbytes
Step PotEng KinEng TotEng v_fx v_fy v_fz 
   27269   -1152449.1            0   -1152449.1 0.00069029613 0.0083359522 -0.010820498 
   27457   -1152449.1            0   -1152449.1 1.7715408e-05 -2.2923687e-06 -9.8837195e-06 
Loop time of 2.21312 on 104 procs for 188 steps with 288751 atoms

99.9% CPU use with 104 MPI tasks x 1 OpenMP threads

Minimization stats:
  Stopping criterion = energy tolerance
  Energy initial, next-to-last, final = 
     -1152449.12559193  -1152449.12694019  -1152449.12694019
  Force two-norm initial, final = 0.16242587 6.9411591e-05
  Force max component initial, final = 0.09361369 1.7715408e-05
  Final line search alpha, max atom move = 1.0000000 1.7715408e-05
  Iterations, force evaluations = 188 376

MPI task timing breakdown:
Section |  min time  |  avg time  |  max time  |%varavg| %total
---------------------------------------------------------------
Pair    | 0.58349    | 1.5839     | 2.0719     |  33.9 | 71.57
Neigh   | 0          | 0          | 0          |   0.0 |  0.00
Comm    | 0.032913   | 0.36563    | 1.0748     |  49.0 | 16.52
Output  | 0          | 0          | 0          |   0.0 |  0.00
Modify  | 2.2738e-05 | 0.0030932  | 0.0065912  |   2.6 |  0.14
Other   |            | 0.2605     |            |       | 11.77

Nlocal:        2776.45 ave        3961 max           0 min
Histogram: 8 4 4 0 6 10 8 4 26 34
Nghost:        3879.09 ave        5424 max         232 min
Histogram: 8 0 8 0 16 0 8 8 16 40
Neighs:        79213.2 ave      115483 max           0 min
Histogram: 8 4 4 0 10 6 8 8 24 32

Total # of neighbors = 8238174
Ave neighs/atom = 28.530374
Neighbor list builds = 0
Dangerous builds = 0
The dot product: -1.17843112241181e-08
Setting atom values ...
  1 settings made for x
  1 settings made for y
  1 settings made for z
Setting up cg style minimization ...
  Unit style    : metal
  Current step  : 27457
Per MPI rank memory allocation (min/avg/max) = 5.441 | 5.816 | 6.074 Mbytes
Step PotEng KinEng TotEng v_fx v_fy v_fz 
   27457   -1152449.1            0   -1152449.1 0.00093260962 0.0072734885 -0.009690681 
   27652   -1152449.1            0   -1152449.1 4.6701918e-06 -6.9362737e-06 5.249435e-06 
Loop time of 2.24238 on 104 procs for 195 steps with 288751 atoms

99.9% CPU use with 104 MPI tasks x 1 OpenMP threads

Minimization stats:
  Stopping criterion = energy tolerance
  Energy initial, next-to-last, final = 
     -1152449.10685524  -1152449.10821439  -1152449.10821439
  Force two-norm initial, final = 0.16203089 5.8860889e-05
  Force max component initial, final = 0.094534662 1.0413723e-05
  Final line search alpha, max atom move = 1.0000000 1.0413723e-05
  Iterations, force evaluations = 195 390

MPI task timing breakdown:
Section |  min time  |  avg time  |  max time  |%varavg| %total
---------------------------------------------------------------
Pair    | 0.59452    | 1.6331     | 2.1253     |  34.5 | 72.83
Neigh   | 0          | 0          | 0          |   0.0 |  0.00
Comm    | 0.03388    | 0.36617    | 1.1139     |  51.1 | 16.33
Output  | 0          | 0          | 0          |   0.0 |  0.00
Modify  | 2.2389e-05 | 0.0032107  | 0.006866   |   2.7 |  0.14
Other   |            | 0.2399     |            |       | 10.70

Nlocal:        2776.45 ave        3961 max           0 min
Histogram: 8 4 4 0 6 10 8 4 26 34
Nghost:        3879.12 ave        5425 max         232 min
Histogram: 8 0 8 0 16 0 8 8 16 40
Neighs:        79213.2 ave      115486 max           0 min
Histogram: 8 4 4 0 10 6 8 8 24 32

Total # of neighbors = 8238172
Ave neighs/atom = 28.530367
Neighbor list builds = 0
Dangerous builds = 0
The dot product: -2.09154644075392e-08
Setting atom values ...
  1 settings made for x
  1 settings made for y
  1 settings made for z
Setting up cg style minimization ...
  Unit style    : metal
  Current step  : 27652
Per MPI rank memory allocation (min/avg/max) = 5.441 | 5.816 | 6.074 Mbytes
Step PotEng KinEng TotEng v_fx v_fy v_fz 
   27652   -1152449.1            0   -1152449.1 0.0010698255 0.0061306241 -0.0083807567 
   27899   -1152449.1            0   -1152449.1 -2.0483679e-07 1.4952756e-08 1.284635e-07 
Loop time of 2.86725 on 104 procs for 247 steps with 288751 atoms

99.9% CPU use with 104 MPI tasks x 1 OpenMP threads

Minimization stats:
  Stopping criterion = energy tolerance
  Energy initial, next-to-last, final = 
      -1152449.0870658  -1152449.08846212  -1152449.08846212
  Force two-norm initial, final = 0.16179258 7.0237088e-06
  Force max component initial, final = 0.095354942 1.1143579e-06
  Final line search alpha, max atom move = 1.0000000 1.1143579e-06
  Iterations, force evaluations = 247 494

MPI task timing breakdown:
Section |  min time  |  avg time  |  max time  |%varavg| %total
---------------------------------------------------------------
Pair    | 0.76102    | 2.0748     | 2.7139     |  38.8 | 72.36
Neigh   | 0          | 0          | 0          |   0.0 |  0.00
Comm    | 0.042579   | 0.48028    | 1.4297     |  56.5 | 16.75
Output  | 0          | 0          | 0          |   0.0 |  0.00
Modify  | 2.7632e-05 | 0.0040615  | 0.0086353  |   3.0 |  0.14
Other   |            | 0.3081     |            |       | 10.75

Nlocal:        2776.45 ave        3961 max           0 min
Histogram: 8 4 4 0 6 10 8 4 26 34
Nghost:        3879.12 ave        5425 max         232 min
Histogram: 8 0 8 0 16 0 8 8 16 40
Neighs:        79213.2 ave      115486 max           0 min
Histogram: 8 4 4 0 10 6 8 8 24 32

Total # of neighbors = 8238172
Ave neighs/atom = 28.530367
Neighbor list builds = 0
Dangerous builds = 0
The dot product: 1.66822784083782e-10
Setting atom values ...
  1 settings made for x
  1 settings made for y
  1 settings made for z
Setting up cg style minimization ...
  Unit style    : metal
  Current step  : 27899
Per MPI rank memory allocation (min/avg/max) = 5.441 | 5.816 | 6.074 Mbytes
Step PotEng KinEng TotEng v_fx v_fy v_fz 
   27899   -1152449.1            0   -1152449.1 0.0011845786 0.0051954225 -0.0073093685 
   28000   -1152449.1            0   -1152449.1 -6.076862e-05 8.4805505e-06 3.3055237e-05 
   28085   -1152449.1            0   -1152449.1 1.1440276e-05 -6.1621337e-06 -5.4656003e-07 
Loop time of 2.13673 on 104 procs for 186 steps with 288751 atoms

99.9% CPU use with 104 MPI tasks x 1 OpenMP threads

Minimization stats:
  Stopping criterion = energy tolerance
  Energy initial, next-to-last, final = 
     -1152449.06626912  -1152449.06765523  -1152449.06765523
  Force two-norm initial, final = 0.16181243 8.6278707e-05
  Force max component initial, final = 0.096102576 2.1038598e-05
  Final line search alpha, max atom move = 1.0000000 2.1038598e-05
  Iterations, force evaluations = 186 372

MPI task timing breakdown:
Section |  min time  |  avg time  |  max time  |%varavg| %total
---------------------------------------------------------------
Pair    | 0.56844    | 1.5571     | 2.0255     |  33.5 | 72.87
Neigh   | 0          | 0          | 0          |   0.0 |  0.00
Comm    | 0.031857   | 0.35002    | 1.0704     |  50.0 | 16.38
Output  | 9.9245e-05 | 0.00010287 | 0.00026504 |   0.0 |  0.00
Modify  | 2.1234e-05 | 0.0030574  | 0.0065049  |   2.6 |  0.14
Other   |            | 0.2265     |            |       | 10.60

Nlocal:        2776.45 ave        3961 max           0 min
Histogram: 8 4 4 0 6 10 8 4 26 34
Nghost:        3879.16 ave        5425 max         232 min
Histogram: 8 0 8 0 16 0 8 8 16 40
Neighs:        79213.2 ave      115483 max           0 min
Histogram: 8 4 4 0 10 6 8 8 24 32

Total # of neighbors = 8238171
Ave neighs/atom = 28.530364
Neighbor list builds = 0
Dangerous builds = 0
The dot product: -2.15846467476693e-08
Setting atom values ...
  1 settings made for x
  1 settings made for y
  1 settings made for z
Setting up cg style minimization ...
  Unit style    : metal
  Current step  : 28085
Per MPI rank memory allocation (min/avg/max) = 5.441 | 5.816 | 6.074 Mbytes
Step PotEng KinEng TotEng v_fx v_fy v_fz 
   28085     -1152449            0     -1152449 0.0011736457 0.0042992396 -0.006192779 
   28250     -1152449            0     -1152449 -4.8293185e-07 3.5989402e-06 -4.1331149e-06 
Loop time of 1.90811 on 104 procs for 165 steps with 288751 atoms

99.9% CPU use with 104 MPI tasks x 1 OpenMP threads

Minimization stats:
  Stopping criterion = energy tolerance
  Energy initial, next-to-last, final = 
      -1152449.0443125  -1152449.04566563  -1152449.04566563
  Force two-norm initial, final = 0.16194272 0.00021598948
  Force max component initial, final = 0.096827292 3.8591219e-05
  Final line search alpha, max atom move = 1.0000000 3.8591219e-05
  Iterations, force evaluations = 165 330

MPI task timing breakdown:
Section |  min time  |  avg time  |  max time  |%varavg| %total
---------------------------------------------------------------
Pair    | 0.50938    | 1.3877     | 1.8033     |  31.6 | 72.73
Neigh   | 0          | 0          | 0          |   0.0 |  0.00
Comm    | 0.029609   | 0.31597    | 0.94477    |  46.8 | 16.56
Output  | 0          | 0          | 0          |   0.0 |  0.00
Modify  | 1.8958e-05 | 0.0027104  | 0.0057354  |   2.5 |  0.14
Other   |            | 0.2017     |            |       | 10.57

Nlocal:        2776.45 ave        3960 max           0 min
Histogram: 8 4 4 0 4 12 8 4 26 34
Nghost:        3879.16 ave        5425 max         232 min
Histogram: 8 0 8 0 16 0 8 8 16 40
Neighs:        79213.2 ave      115454 max           0 min
Histogram: 8 4 4 0 10 6 8 8 24 32

Total # of neighbors = 8238170
Ave neighs/atom = 28.530360
Neighbor list builds = 0
Dangerous builds = 0
The dot product: 7.62550044331365e-09
Setting atom values ...
  1 settings made for x
  1 settings made for y
  1 settings made for z
Setting up cg style minimization ...
  Unit style    : metal
  Current step  : 28250
Per MPI rank memory allocation (min/avg/max) = 5.441 | 5.816 | 6.074 Mbytes
Step PotEng KinEng TotEng v_fx v_fy v_fz 
   28250     -1152449            0     -1152449 0.00084877405 0.0035300365 -0.0050061069 
   28415     -1152449            0     -1152449 -5.9011872e-05 -2.7545491e-06 4.5736299e-05 
Loop time of 1.91918 on 104 procs for 165 steps with 288751 atoms

99.9% CPU use with 104 MPI tasks x 1 OpenMP threads

Minimization stats:
  Stopping criterion = energy tolerance
  Energy initial, next-to-last, final = 
     -1152449.02105284  -1152449.02238562  -1152449.02238562
  Force two-norm initial, final = 0.16220948 0.00023806201
  Force max component initial, final = 0.097505083 5.9689524e-05
  Final line search alpha, max atom move = 1.0000000 5.9689524e-05
  Iterations, force evaluations = 165 330

MPI task timing breakdown:
Section |  min time  |  avg time  |  max time  |%varavg| %total
---------------------------------------------------------------
Pair    | 0.50164    | 1.3804     | 1.8077     |  31.7 | 71.93
Neigh   | 0          | 0          | 0          |   0.0 |  0.00
Comm    | 0.027989   | 0.31238    | 0.95067    |  46.9 | 16.28
Output  | 0          | 0          | 0          |   0.0 |  0.00
Modify  | 2.0328e-05 | 0.0027183  | 0.0057504  |   2.5 |  0.14
Other   |            | 0.2237     |            |       | 11.66

Nlocal:        2776.45 ave        3960 max           0 min
Histogram: 8 4 4 0 4 12 8 4 26 34
Nghost:        3879.16 ave        5425 max         232 min
Histogram: 8 0 8 0 16 0 8 8 16 40
Neighs:        79213.2 ave      115455 max           0 min
Histogram: 8 4 4 0 10 6 8 8 24 32

Total # of neighbors = 8238171
Ave neighs/atom = 28.530364
Neighbor list builds = 0
Dangerous builds = 0
The dot product: 2.90872614162961e-08
Setting atom values ...
  1 settings made for x
  1 settings made for y
  1 settings made for z
Setting up cg style minimization ...
  Unit style    : metal
  Current step  : 28415
Per MPI rank memory allocation (min/avg/max) = 5.441 | 5.816 | 6.074 Mbytes
Step PotEng KinEng TotEng v_fx v_fy v_fz 
   28415     -1152449            0     -1152449 0.00018300792 0.0028466572 -0.0036800352 
   28666     -1152449            0     -1152449 -9.1348091e-08 1.6724355e-07 -1.4304283e-07 
Loop time of 2.93537 on 104 procs for 251 steps with 288751 atoms

99.9% CPU use with 104 MPI tasks x 1 OpenMP threads

Minimization stats:
  Stopping criterion = energy tolerance
  Energy initial, next-to-last, final = 
      -1152448.9964018  -1152448.99771641  -1152448.99771641
  Force two-norm initial, final = 0.16263271 7.3879533e-06
  Force max component initial, final = 0.098119238 9.5319530e-07
  Final line search alpha, max atom move = 1.0000000 9.5319530e-07
  Iterations, force evaluations = 251 502

MPI task timing breakdown:
Section |  min time  |  avg time  |  max time  |%varavg| %total
---------------------------------------------------------------
Pair    | 0.76612    | 2.1072     | 2.7709     |  39.3 | 71.79
Neigh   | 0          | 0          | 0          |   0.0 |  0.00
Comm    | 0.044882   | 0.48593    | 1.4352     |  56.6 | 16.55
Output  | 0          | 0          | 0          |   0.0 |  0.00
Modify  | 3.0376e-05 | 0.0041246  | 0.008771   |   3.0 |  0.14
Other   |            | 0.3382     |            |       | 11.52

Nlocal:        2776.45 ave        3960 max           0 min
Histogram: 8 4 4 0 4 12 8 4 26 34
Nghost:        3879.16 ave        5425 max         232 min
Histogram: 8 0 8 0 16 0 8 8 16 40
Neighs:        79213.2 ave      115457 max           0 min
Histogram: 8 4 4 0 10 6 8 8 24 32

Total # of neighbors = 8238173
Ave neighs/atom = 28.530370
Neighbor list builds = 0
Dangerous builds = 0
The dot product: 2.7537192420018e-10
Setting atom values ...
  1 settings made for x
  1 settings made for y
  1 settings made for z
Setting up cg style minimization ...
  Unit style    : metal
  Current step  : 28666
Per MPI rank memory allocation (min/avg/max) = 5.441 | 5.816 | 6.074 Mbytes
Step PotEng KinEng TotEng v_fx v_fy v_fz 
   28666     -1152449            0     -1152449 -0.00057349581 0.0022502746 -0.0023961457 
   28855     -1152449            0     -1152449 -3.5900037e-06 1.3838064e-06 8.4487319e-07 
Loop time of 2.18024 on 104 procs for 189 steps with 288751 atoms

99.9% CPU use with 104 MPI tasks x 1 OpenMP threads

Minimization stats:
  Stopping criterion = energy tolerance
  Energy initial, next-to-last, final = 
     -1152448.97025841  -1152448.97155836  -1152448.97155836
  Force two-norm initial, final = 0.16327666 0.00010641704
  Force max component initial, final = 0.09868326 2.1552130e-05
  Final line search alpha, max atom move = 1.0000000 2.1552130e-05
  Iterations, force evaluations = 189 378

MPI task timing breakdown:
Section |  min time  |  avg time  |  max time  |%varavg| %total
---------------------------------------------------------------
Pair    | 0.57665    | 1.5812     | 2.0622     |  33.9 | 72.52
Neigh   | 0          | 0          | 0          |   0.0 |  0.00
Comm    | 0.032528   | 0.35687    | 1.079      |  50.1 | 16.37
Output  | 0          | 0          | 0          |   0.0 |  0.00
Modify  | 2.1061e-05 | 0.0031053  | 0.0065957  |   2.6 |  0.14
Other   |            | 0.2391     |            |       | 10.97

Nlocal:        2776.45 ave        3960 max           0 min
Histogram: 8 4 4 0 4 12 8 4 26 34
Nghost:        3879.16 ave        5425 max         232 min
Histogram: 8 0 8 0 16 0 8 8 16 40
Neighs:        79213.2 ave      115455 max           0 min
Histogram: 8 4 4 0 10 6 8 8 24 32

Total # of neighbors = 8238171
Ave neighs/atom = 28.530364
Neighbor list builds = 0
Dangerous builds = 0
The dot product: 4.84778095889936e-09
Setting atom values ...
  1 settings made for x
  1 settings made for y
  1 settings made for z
Setting up cg style minimization ...
  Unit style    : metal
  Current step  : 28855
Per MPI rank memory allocation (min/avg/max) = 5.441 | 5.816 | 6.074 Mbytes
Step PotEng KinEng TotEng v_fx v_fy v_fz 
   28855   -1152448.9            0   -1152448.9 -0.0014217564 0.0017420359 -0.0011562523 
   29000   -1152448.9            0   -1152448.9 1.8143804e-05 -5.6569629e-06 -5.9248301e-06 
   29044   -1152448.9            0   -1152448.9 1.5388035e-05 -1.2674818e-05 4.8036943e-06 
Loop time of 2.20501 on 104 procs for 189 steps with 288751 atoms

99.9% CPU use with 104 MPI tasks x 1 OpenMP threads

Minimization stats:
  Stopping criterion = energy tolerance
  Energy initial, next-to-last, final = 
     -1152448.94253135  -1152448.94382551  -1152448.94382551
  Force two-norm initial, final = 0.16416351 0.00010893089
  Force max component initial, final = 0.099262819 2.6260118e-05
  Final line search alpha, max atom move = 1.0000000 2.6260118e-05
  Iterations, force evaluations = 189 378

MPI task timing breakdown:
Section |  min time  |  avg time  |  max time  |%varavg| %total
---------------------------------------------------------------
Pair    | 0.57634    | 1.5863     | 2.0874     |  34.1 | 71.94
Neigh   | 0          | 0          | 0          |   0.0 |  0.00
Comm    | 0.03766    | 0.36508    | 1.0846     |  49.6 | 16.56
Output  | 9.2448e-05 | 9.9364e-05 | 0.00029539 |   0.0 |  0.00
Modify  | 2.2748e-05 | 0.0031058  | 0.0066003  |   2.6 |  0.14
Other   |            | 0.2505     |            |       | 11.36

Nlocal:        2776.45 ave        3960 max           0 min
Histogram: 8 4 4 0 4 12 8 4 26 34
Nghost:        3879.09 ave        5425 max         232 min
Histogram: 8 0 8 0 16 0 8 8 16 40
Neighs:        79213.2 ave      115455 max           0 min
Histogram: 8 4 4 0 10 6 8 8 24 32

Total # of neighbors = 8238172
Ave neighs/atom = 28.530367
Neighbor list builds = 0
Dangerous builds = 0
The dot product: -2.49720135538069e-08
Setting atom values ...
  1 settings made for x
  1 settings made for y
  1 settings made for z
Setting up cg style minimization ...
  Unit style    : metal
  Current step  : 29044
Per MPI rank memory allocation (min/avg/max) = 5.441 | 5.816 | 6.074 Mbytes
Step PotEng KinEng TotEng v_fx v_fy v_fz 
   29044   -1152448.9            0   -1152448.9 -0.0020677427 0.0012809296 -0.00012033954 
   29254   -1152448.9            0   -1152448.9 -1.5353745e-05 6.4774468e-06 2.8926996e-06 
Loop time of 2.41515 on 104 procs for 210 steps with 288751 atoms

99.9% CPU use with 104 MPI tasks x 1 OpenMP threads

Minimization stats:
  Stopping criterion = energy tolerance
  Energy initial, next-to-last, final = 
     -1152448.91315116  -1152448.91444495  -1152448.91444495
  Force two-norm initial, final = 0.16521244 5.8005552e-05
  Force max component initial, final = 0.099795847 1.5353745e-05
  Final line search alpha, max atom move = 1.0000000 1.5353745e-05
  Iterations, force evaluations = 210 420

MPI task timing breakdown:
Section |  min time  |  avg time  |  max time  |%varavg| %total
---------------------------------------------------------------
Pair    | 0.64081    | 1.7576     | 2.2897     |  35.7 | 72.77
Neigh   | 0          | 0          | 0          |   0.0 |  0.00
Comm    | 0.036205   | 0.39488    | 1.1992     |  53.0 | 16.35
Output  | 0          | 0          | 0          |   0.0 |  0.00
Modify  | 2.4678e-05 | 0.0034481  | 0.0073084  |   2.8 |  0.14
Other   |            | 0.2592     |            |       | 10.73

Nlocal:        2776.45 ave        3960 max           0 min
Histogram: 8 4 4 0 4 12 8 4 26 34
Nghost:        3879.06 ave        5425 max         232 min
Histogram: 8 0 8 0 16 0 8 8 16 40
Neighs:        79213.2 ave      115457 max           0 min
Histogram: 8 4 4 0 10 6 8 8 24 32

Total # of neighbors = 8238170
Ave neighs/atom = 28.530360
Neighbor list builds = 0
Dangerous builds = 0
The dot product: 2.30484979898898e-08
