LAMMPS (29 Oct 2020)
OMP_NUM_THREADS environment is not set. Defaulting to 1 thread. (../comm.cpp:94)
  using 1 OpenMP thread(s) per MPI task
OMP_NUM_THREADS environment is not set. Defaulting to 1 thread. (../comm.cpp:94)
  using 1 OpenMP thread(s) per MPI task
Reading data file ...
  orthogonal box = (-122.39241 -121.13707 -37.090501) to (122.39241 121.13707 37.090501)
  13 by 4 by 2 MPI processor grid
  reading atoms ...
  288751 atoms
  read_data CPU = 0.383 seconds
199981 atoms in group inner
88770 atoms in group outer
1 atoms in group carbon
Neighbor list info ...
  update every 1 steps, delay 0 steps, check yes
  max neighbors/atom: 2000, page size: 100000
  master list distance cutoff = 5.6
  ghost atom cutoff = 5.6
  binsize = 2.8, bins = 88 87 27
  1 neighbor lists, perpetual/occasional/extra = 1 0 0
  (1) pair eam/alloy, perpetual
      attributes: half, newton on
      pair build: half/bin/atomonly/newton
      stencil: half/bin/3d/newton
      bin: standard
Setting up cg style minimization ...
  Unit style    : metal
  Current step  : 0
Per MPI rank memory allocation (min/avg/max) = 5.441 | 5.816 | 6.074 Mbytes
Step v_fx v_fy v_fz PotEng KinEng TotEng 
       0   -12.421145    22.329366   -13.064487   -1152441.9            0   -1152441.9 
     304 -3.3377809e-06 9.6637137e-06 -8.8160757e-06     -1152449            0     -1152449 
Loop time of 3.63954 on 104 procs for 304 steps with 288751 atoms

99.8% CPU use with 104 MPI tasks x 1 OpenMP threads

Minimization stats:
  Stopping criterion = energy tolerance
  Energy initial, next-to-last, final = 
     -1152441.87058835  -1152448.97218789  -1152448.97218789
  Force two-norm initial, final = 46.910705 5.4446696e-05
  Force max component initial, final = 28.401563 1.2906265e-05
  Final line search alpha, max atom move = 1.0000000 1.2906265e-05
  Iterations, force evaluations = 304 605

MPI task timing breakdown:
Section |  min time  |  avg time  |  max time  |%varavg| %total
---------------------------------------------------------------
Pair    | 0.95505    | 2.5574     | 3.3335     |  42.4 | 70.27
Neigh   | 9.51e-05   | 0.026402   | 0.038278   |   6.7 |  0.73
Comm    | 0.062961   | 0.58688    | 1.712      |  61.6 | 16.13
Output  | 0          | 0          | 0          |   0.0 |  0.00
Modify  | 3.5842e-05 | 0.003295   | 0.0091697  |   3.6 |  0.09
Other   |            | 0.4655     |            |       | 12.79

Nlocal:        2776.45 ave        3956 max           0 min
Histogram: 8 4 4 0 4 12 8 0 30 34
Nghost:        3879.02 ave        5424 max         232 min
Histogram: 8 0 8 0 16 0 8 8 16 40
Neighs:        79213.7 ave      115307 max           0 min
Histogram: 8 4 4 0 10 6 8 8 24 32

Total # of neighbors = 8238221
Ave neighs/atom = 28.530537
Neighbor list builds = 9
Dangerous builds = 1
Setting atom values ...
  1 settings made for x
  1 settings made for y
  1 settings made for z
Setting up cg style minimization ...
  Unit style    : metal
  Current step  : 304
Per MPI rank memory allocation (min/avg/max) = 5.441 | 5.816 | 6.074 Mbytes
Step PotEng KinEng TotEng v_fx v_fy v_fz 
     304     -1152449            0     -1152449  0.019022465  0.019199609 -0.013510536 
     523     -1152449            0     -1152449 1.4127472e-06 6.2530275e-07 -1.6882672e-06 
Loop time of 2.61616 on 104 procs for 219 steps with 288751 atoms

99.9% CPU use with 104 MPI tasks x 1 OpenMP threads

Minimization stats:
  Stopping criterion = energy tolerance
  Energy initial, next-to-last, final = 
     -1152448.97137138   -1152448.9719804   -1152448.9719804
  Force two-norm initial, final = 0.11377939 2.4317120e-05
  Force max component initial, final = 0.053786922 6.8622787e-06
  Final line search alpha, max atom move = 1.0000000 6.8622787e-06
  Iterations, force evaluations = 219 438

MPI task timing breakdown:
Section |  min time  |  avg time  |  max time  |%varavg| %total
---------------------------------------------------------------
Pair    | 0.66155    | 1.8531     | 2.4224     |  36.8 | 70.83
Neigh   | 0          | 0          | 0          |   0.0 |  0.00
Comm    | 0.045778   | 0.42611    | 1.2436     |  52.8 | 16.29
Output  | 0          | 0          | 0          |   0.0 |  0.00
Modify  | 3.0966e-05 | 0.0036393  | 0.0077256  |   2.8 |  0.14
Other   |            | 0.3333     |            |       | 12.74

Nlocal:        2776.45 ave        3953 max           0 min
Histogram: 8 4 4 0 4 12 8 0 30 34
Nghost:        3879.07 ave        5424 max         232 min
Histogram: 8 0 8 0 16 0 8 8 16 40
Neighs:        79213.5 ave      115240 max           0 min
Histogram: 8 4 4 0 10 6 8 8 24 32

Total # of neighbors = 8238206
Ave neighs/atom = 28.530485
Neighbor list builds = 0
Dangerous builds = 0
Setting atom values ...
  1 settings made for x
  1 settings made for y
  1 settings made for z
Setting up cg style minimization ...
  Unit style    : metal
  Current step  : 523
Per MPI rank memory allocation (min/avg/max) = 5.441 | 5.816 | 6.074 Mbytes
Step PotEng KinEng TotEng v_fx v_fy v_fz 
     523     -1152449            0     -1152449  0.032020245  0.037981903 -0.015265525 
     697     -1152449            0     -1152449 1.6274192e-05 9.351115e-06 -1.3534268e-05 
Loop time of 2.04119 on 104 procs for 174 steps with 288751 atoms

99.9% CPU use with 104 MPI tasks x 1 OpenMP threads

Minimization stats:
  Stopping criterion = energy tolerance
  Energy initial, next-to-last, final = 
     -1152448.96843228   -1152448.9705291   -1152448.9705291
  Force two-norm initial, final = 0.20731687 0.00027085318
  Force max component initial, final = 0.096424147 7.3723855e-05
  Final line search alpha, max atom move = 1.0000000 7.3723855e-05
  Iterations, force evaluations = 174 348

MPI task timing breakdown:
Section |  min time  |  avg time  |  max time  |%varavg| %total
---------------------------------------------------------------
Pair    | 0.52494    | 1.4641     | 1.9099     |  32.6 | 71.73
Neigh   | 0          | 0          | 0          |   0.0 |  0.00
Comm    | 0.030646   | 0.33159    | 0.98572    |  47.5 | 16.25
Output  | 0          | 0          | 0          |   0.0 |  0.00
Modify  | 2.1685e-05 | 0.0028878  | 0.006139   |   2.5 |  0.14
Other   |            | 0.2426     |            |       | 11.88

Nlocal:        2776.45 ave        3953 max           0 min
Histogram: 8 4 4 0 4 12 8 0 30 34
Nghost:        3879.07 ave        5424 max         232 min
Histogram: 8 0 8 0 16 0 8 8 16 40
Neighs:        79213.5 ave      115241 max           0 min
Histogram: 8 4 4 0 10 6 8 8 24 32

Total # of neighbors = 8238203
Ave neighs/atom = 28.530474
Neighbor list builds = 0
Dangerous builds = 0
The dot product: -1.013220494896e-07
Setting atom values ...
  1 settings made for x
  1 settings made for y
  1 settings made for z
Setting up cg style minimization ...
  Unit style    : metal
  Current step  : 697
Per MPI rank memory allocation (min/avg/max) = 5.441 | 5.816 | 6.074 Mbytes
Step PotEng KinEng TotEng v_fx v_fy v_fz 
     697     -1152449            0     -1152449  0.013181992  0.045743413 0.0059095896 
     963     -1152449            0     -1152449 -4.2415577e-06 -4.8725878e-06 1.5766777e-06 
Loop time of 3.18152 on 104 procs for 266 steps with 288751 atoms

99.9% CPU use with 104 MPI tasks x 1 OpenMP threads

Minimization stats:
  Stopping criterion = energy tolerance
  Energy initial, next-to-last, final = 
     -1152448.96539915  -1152448.96890971  -1152448.96890971
  Force two-norm initial, final = 0.20790285 0.00012393675
  Force max component initial, final = 0.094140491 2.1958992e-05
  Final line search alpha, max atom move = 1.0000000 2.1958992e-05
  Iterations, force evaluations = 266 532

MPI task timing breakdown:
Section |  min time  |  avg time  |  max time  |%varavg| %total
---------------------------------------------------------------
Pair    | 0.80044    | 2.2495     | 2.9621     |  40.8 | 70.71
Neigh   | 0          | 0          | 0          |   0.0 |  0.00
Comm    | 0.056885   | 0.51888    | 1.528      |  58.5 | 16.31
Output  | 0          | 0          | 0          |   0.0 |  0.00
Modify  | 3.3936e-05 | 0.0044017  | 0.0093786  |   3.1 |  0.14
Other   |            | 0.4087     |            |       | 12.85

Nlocal:        2776.45 ave        3953 max           0 min
Histogram: 8 4 4 0 4 12 8 0 30 34
Nghost:        3879.07 ave        5424 max         232 min
Histogram: 8 0 8 0 16 0 8 8 16 40
Neighs:        79213.5 ave      115241 max           0 min
Histogram: 8 4 4 0 10 6 8 8 24 32

Total # of neighbors = 8238203
Ave neighs/atom = 28.530474
Neighbor list builds = 0
Dangerous builds = 0
The dot product: 8.57676466763192e-08
Setting atom values ...
  1 settings made for x
  1 settings made for y
  1 settings made for z
Setting up cg style minimization ...
  Unit style    : metal
  Current step  : 963
Per MPI rank memory allocation (min/avg/max) = 5.441 | 5.816 | 6.074 Mbytes
Step PotEng KinEng TotEng v_fx v_fy v_fz 
     963     -1152449            0     -1152449 -0.071800487  0.077725951 -0.0009250281 
    1000     -1152449            0     -1152449 0.0018631058 -0.0043716519 0.0001141811 
    1310   -1152449.2            0   -1152449.2 3.2645685e-06 -8.5507714e-06 2.3417945e-07 
Loop time of 4.06536 on 104 procs for 347 steps with 288751 atoms

99.9% CPU use with 104 MPI tasks x 1 OpenMP threads

Minimization stats:
  Stopping criterion = energy tolerance
  Energy initial, next-to-last, final = 
     -1152448.96461647  -1152449.19634941  -1152449.19634941
  Force two-norm initial, final = 0.21717541 5.5185954e-05
  Force max component initial, final = 0.078282325 1.0906428e-05
  Final line search alpha, max atom move = 1.0000000 1.0906428e-05
  Iterations, force evaluations = 347 694

MPI task timing breakdown:
Section |  min time  |  avg time  |  max time  |%varavg| %total
---------------------------------------------------------------
Pair    | 1.0628     | 2.9096     | 3.7961     |  45.7 | 71.57
Neigh   | 4.1369e-05 | 0.011717   | 0.017068   |   4.5 |  0.29
Comm    | 0.066468   | 0.66022    | 1.965      |  66.8 | 16.24
Output  | 0.00016433 | 0.00017036 | 0.00027222 |   0.0 |  0.00
Modify  | 4.2486e-05 | 0.0057338  | 0.012201   |   3.6 |  0.14
Other   |            | 0.4779     |            |       | 11.76

Nlocal:        2776.45 ave        3936 max           0 min
Histogram: 8 4 4 0 4 12 8 0 28 36
Nghost:        3878.97 ave        5425 max         232 min
Histogram: 8 0 8 0 16 0 8 8 16 40
Neighs:        79214.1 ave      114771 max           0 min
Histogram: 8 4 4 0 10 6 8 8 22 34

Total # of neighbors = 8238269
Ave neighs/atom = 28.530703
Neighbor list builds = 4
Dangerous builds = 0
The dot product: -8.12234911776425e-08
Setting atom values ...
  1 settings made for x
  1 settings made for y
  1 settings made for z
Setting up cg style minimization ...
  Unit style    : metal
  Current step  : 1310
Per MPI rank memory allocation (min/avg/max) = 5.441 | 5.816 | 6.074 Mbytes
Step PotEng KinEng TotEng v_fx v_fy v_fz 
    1310   -1152449.2            0   -1152449.2  0.012167112  0.040060877 0.0015169868 
    1475   -1152449.2            0   -1152449.2 -1.8533983e-07 -1.0223294e-05 3.4910672e-07 
Loop time of 1.93164 on 104 procs for 165 steps with 288751 atoms

99.9% CPU use with 104 MPI tasks x 1 OpenMP threads

Minimization stats:
  Stopping criterion = energy tolerance
  Energy initial, next-to-last, final = 
     -1152449.19610061  -1152449.19862683  -1152449.19862683
  Force two-norm initial, final = 0.19161718 0.00023574741
  Force max component initial, final = 0.086380647 4.7991701e-05
  Final line search alpha, max atom move = 1.0000000 4.7991701e-05
  Iterations, force evaluations = 165 330

MPI task timing breakdown:
Section |  min time  |  avg time  |  max time  |%varavg| %total
---------------------------------------------------------------
Pair    | 0.50115    | 1.3925     | 1.81       |  31.8 | 72.09
Neigh   | 0          | 0          | 0          |   0.0 |  0.00
Comm    | 0.030091   | 0.31454    | 0.93675    |  46.6 | 16.28
Output  | 0          | 0          | 0          |   0.0 |  0.00
Modify  | 2.0177e-05 | 0.0027407  | 0.0058572  |   2.5 |  0.14
Other   |            | 0.2218     |            |       | 11.48

Nlocal:        2776.45 ave        3930 max           0 min
Histogram: 8 4 4 0 4 12 8 0 26 38
Nghost:        3879.03 ave        5427 max         232 min
Histogram: 8 0 8 0 16 0 8 8 16 40
Neighs:        79214.7 ave      114578 max           0 min
Histogram: 8 4 4 0 8 8 8 8 20 36

Total # of neighbors = 8238333
Ave neighs/atom = 28.530925
Neighbor list builds = 0
Dangerous builds = 0
The dot product: 8.27678122801551e-09
Setting atom values ...
  1 settings made for x
  1 settings made for y
  1 settings made for z
Setting up cg style minimization ...
  Unit style    : metal
  Current step  : 1475
Per MPI rank memory allocation (min/avg/max) = 5.441 | 5.816 | 6.074 Mbytes
Step PotEng KinEng TotEng v_fx v_fy v_fz 
    1475   -1152449.2            0   -1152449.2  -0.02662157  0.042662672 -0.0032671181 
    1667   -1152449.2            0   -1152449.2 5.697964e-06 -1.8291762e-06 4.9231166e-07 
Loop time of 2.28358 on 104 procs for 192 steps with 288751 atoms

99.9% CPU use with 104 MPI tasks x 1 OpenMP threads

Minimization stats:
  Stopping criterion = energy tolerance
  Energy initial, next-to-last, final = 
     -1152449.19757809  -1152449.19987369  -1152449.19987369
  Force two-norm initial, final = 0.19917877 0.00014101754
  Force max component initial, final = 0.084442886 3.3194324e-05
  Final line search alpha, max atom move = 1.0000000 3.3194324e-05
  Iterations, force evaluations = 192 384

MPI task timing breakdown:
Section |  min time  |  avg time  |  max time  |%varavg| %total
---------------------------------------------------------------
Pair    | 0.57878    | 1.6133     | 2.1038     |  34.3 | 70.65
Neigh   | 0          | 0          | 0          |   0.0 |  0.00
Comm    | 0.038387   | 0.36694    | 1.0889     |  49.7 | 16.07
Output  | 0          | 0          | 0          |   0.0 |  0.00
Modify  | 2.407e-05  | 0.0031824  | 0.0067553  |   2.7 |  0.14
Other   |            | 0.3002     |            |       | 13.15

Nlocal:        2776.45 ave        3930 max           0 min
Histogram: 8 4 4 0 4 12 8 0 26 38
Nghost:        3878.95 ave        5427 max         232 min
Histogram: 8 0 8 0 16 0 8 8 16 40
Neighs:        79214.7 ave      114581 max           0 min
Histogram: 8 4 4 0 8 8 8 8 20 36

Total # of neighbors = 8238328
Ave neighs/atom = 28.530907
Neighbor list builds = 0
Dangerous builds = 0
The dot product: -2.96676862210352e-08
Setting atom values ...
  1 settings made for x
  1 settings made for y
  1 settings made for z
Setting up cg style minimization ...
  Unit style    : metal
  Current step  : 1667
Per MPI rank memory allocation (min/avg/max) = 5.441 | 5.816 | 6.074 Mbytes
Step PotEng KinEng TotEng v_fx v_fy v_fz 
    1667   -1152449.2            0   -1152449.2 -0.017935968  0.038934584 -0.0043857278 
    2000   -1152449.3            0   -1152449.3 -0.010785957 0.0029013678 -0.001321818 
    2255   -1152449.4            0   -1152449.4 -5.371864e-06 1.4849948e-05 -1.5180625e-06 
Loop time of 6.93844 on 104 procs for 588 steps with 288751 atoms

99.9% CPU use with 104 MPI tasks x 1 OpenMP threads

Minimization stats:
  Stopping criterion = energy tolerance
  Energy initial, next-to-last, final = 
     -1152449.19770255  -1152449.39840811  -1152449.39840811
  Force two-norm initial, final = 0.19619773 0.00012171626
  Force max component initial, final = 0.085904028 2.5391535e-05
  Final line search alpha, max atom move = 1.0000000 2.5391535e-05
  Iterations, force evaluations = 588 1176

MPI task timing breakdown:
Section |  min time  |  avg time  |  max time  |%varavg| %total
---------------------------------------------------------------
Pair    | 1.7988     | 4.9573     | 6.4823     |  59.6 | 71.45
Neigh   | 9.3605e-05 | 0.026367   | 0.038628   |   6.7 |  0.38
Comm    | 0.11579    | 1.1269     | 3.3199     |  86.9 | 16.24
Output  | 0.00030385 | 0.00030702 | 0.00047486 |   0.0 |  0.00
Modify  | 7.574e-05  | 0.0097356  | 0.021239   |   4.6 |  0.14
Other   |            | 0.8179     |            |       | 11.79

Nlocal:        2776.45 ave        3943 max           0 min
Histogram: 8 4 4 0 4 12 8 0 27 37
Nghost:        3878.64 ave        5426 max         232 min
Histogram: 8 0 8 0 16 0 8 8 16 40
Neighs:        79213.2 ave      114938 max           0 min
Histogram: 8 4 4 0 10 6 8 8 22 34

Total # of neighbors = 8238177
Ave neighs/atom = 28.530384
Neighbor list builds = 9
Dangerous builds = 0
The dot product: 1.13990773129377e-06
Setting atom values ...
  1 settings made for x
  1 settings made for y
  1 settings made for z
Setting up cg style minimization ...
  Unit style    : metal
  Current step  : 2255
Per MPI rank memory allocation (min/avg/max) = 5.441 | 5.816 | 6.074 Mbytes
Step PotEng KinEng TotEng v_fx v_fy v_fz 
    2255   -1152449.4            0   -1152449.4  0.087544213  -0.19588083   0.12934373 
    2477   -1152449.4            0   -1152449.4 1.8230446e-06 -1.1282495e-06 1.1575799e-06 
Loop time of 2.59118 on 104 procs for 222 steps with 288751 atoms

99.9% CPU use with 104 MPI tasks x 1 OpenMP threads

Minimization stats:
  Stopping criterion = energy tolerance
  Energy initial, next-to-last, final = 
     -1152449.40716465  -1152449.41714687  -1152449.41714687
  Force two-norm initial, final = 0.31666658 9.6304717e-05
  Force max component initial, final = 0.19588083 9.6290688e-06
  Final line search alpha, max atom move = 1.0000000 9.6290688e-06
  Iterations, force evaluations = 222 444

MPI task timing breakdown:
Section |  min time  |  avg time  |  max time  |%varavg| %total
---------------------------------------------------------------
Pair    | 0.67061    | 1.8617     | 2.4333     |  36.8 | 71.85
Neigh   | 1.0209e-05 | 0.0029501  | 0.0042604  |   2.2 |  0.11
Comm    | 0.040911   | 0.42049    | 1.2591     |  53.9 | 16.23
Output  | 0          | 0          | 0          |   0.0 |  0.00
Modify  | 2.6921e-05 | 0.0036738  | 0.0078344  |   2.9 |  0.14
Other   |            | 0.3024     |            |       | 11.67

Nlocal:        2776.45 ave        3945 max           0 min
Histogram: 8 4 4 0 4 12 8 0 26 38
Nghost:        3878.62 ave        5429 max         232 min
Histogram: 8 0 8 0 16 0 8 8 16 40
Neighs:        79213.4 ave      114997 max           0 min
Histogram: 8 4 4 0 10 6 8 8 24 32

Total # of neighbors = 8238194
Ave neighs/atom = 28.530443
Neighbor list builds = 1
Dangerous builds = 0
The dot product: 1.39821149758092e-07
Setting atom values ...
  1 settings made for x
  1 settings made for y
  1 settings made for z
Setting up cg style minimization ...
  Unit style    : metal
  Current step  : 2477
Per MPI rank memory allocation (min/avg/max) = 5.441 | 5.816 | 6.074 Mbytes
Step PotEng KinEng TotEng v_fx v_fy v_fz 
    2477   -1152449.4            0   -1152449.4 -0.072287046    0.1583103 -0.037697287 
    2667   -1152449.4            0   -1152449.4 5.6729428e-06 -3.7082907e-06 1.4061738e-06 
Loop time of 2.27486 on 104 procs for 190 steps with 288751 atoms

99.9% CPU use with 104 MPI tasks x 1 OpenMP threads

Minimization stats:
  Stopping criterion = energy tolerance
  Energy initial, next-to-last, final = 
     -1152449.42285672  -1152449.42833978  -1152449.42833978
  Force two-norm initial, final = 0.27040399 0.00015665453
  Force max component initial, final = 0.1583103 3.1474133e-05
  Final line search alpha, max atom move = 1.0000000 3.1474133e-05
  Iterations, force evaluations = 190 380

MPI task timing breakdown:
Section |  min time  |  avg time  |  max time  |%varavg| %total
---------------------------------------------------------------
Pair    | 0.57292    | 1.6145     | 2.1115     |  34.1 | 70.97
Neigh   | 0          | 0          | 0          |   0.0 |  0.00
Comm    | 0.040599   | 0.37111    | 1.092      |  49.5 | 16.31
Output  | 0          | 0          | 0          |   0.0 |  0.00
Modify  | 2.302e-05  | 0.0031563  | 0.0067494  |   2.6 |  0.14
Other   |            | 0.2861     |            |       | 12.58

Nlocal:        2776.45 ave        3944 max           0 min
Histogram: 8 4 4 0 4 12 8 0 28 36
Nghost:        3878.51 ave        5429 max         232 min
Histogram: 8 0 8 0 16 0 8 8 16 40
Neighs:        79213.5 ave      114983 max           0 min
Histogram: 8 4 4 0 10 6 8 8 24 32

Total # of neighbors = 8238200
Ave neighs/atom = 28.530464
Neighbor list builds = 0
Dangerous builds = 0
The dot product: -2.52588215376206e-07
Setting atom values ...
  1 settings made for x
  1 settings made for y
  1 settings made for z
Setting up cg style minimization ...
  Unit style    : metal
  Current step  : 2667
Per MPI rank memory allocation (min/avg/max) = 5.441 | 5.816 | 6.074 Mbytes
Step PotEng KinEng TotEng v_fx v_fy v_fz 
    2667   -1152449.4            0   -1152449.4  0.024062252 -0.028831878  0.015855916 
    2821   -1152449.4            0   -1152449.4 2.7835566e-07 2.4936018e-06 -8.2711068e-07 
Loop time of 1.80724 on 104 procs for 154 steps with 288751 atoms

99.9% CPU use with 104 MPI tasks x 1 OpenMP threads

Minimization stats:
  Stopping criterion = energy tolerance
  Energy initial, next-to-last, final = 
      -1152449.4324743  -1152449.43483002  -1152449.43483002
  Force two-norm initial, final = 0.2024125 0.00019377227
  Force max component initial, final = 0.1044268 4.7594043e-06
  Final line search alpha, max atom move = 1.0000000 4.7594043e-06
  Iterations, force evaluations = 154 308

MPI task timing breakdown:
Section |  min time  |  avg time  |  max time  |%varavg| %total
---------------------------------------------------------------
Pair    | 0.46295    | 1.295      | 1.6929     |  30.8 | 71.66
Neigh   | 0          | 0          | 0          |   0.0 |  0.00
Comm    | 0.027291   | 0.29385    | 0.88387    |  45.0 | 16.26
Output  | 0          | 0          | 0          |   0.0 |  0.00
Modify  | 1.8742e-05 | 0.0025576  | 0.0054332  |   2.4 |  0.14
Other   |            | 0.2158     |            |       | 11.94

Nlocal:        2776.45 ave        3945 max           0 min
Histogram: 8 4 4 0 4 12 8 0 28 36
Nghost:        3878.49 ave        5428 max         232 min
Histogram: 8 0 8 0 16 0 8 8 16 40
Neighs:        79213.5 ave      115010 max           0 min
Histogram: 8 4 4 0 10 6 8 8 24 32

Total # of neighbors = 8238199
Ave neighs/atom = 28.530461
Neighbor list builds = 0
Dangerous builds = 0
The dot product: -2.86236705867597e-08
Setting atom values ...
  1 settings made for x
  1 settings made for y
  1 settings made for z
Setting up cg style minimization ...
  Unit style    : metal
  Current step  : 2821
Per MPI rank memory allocation (min/avg/max) = 5.441 | 5.816 | 6.074 Mbytes
Step PotEng KinEng TotEng v_fx v_fy v_fz 
    2821   -1152449.4            0   -1152449.4 -0.018678605  0.035888635 -0.014413636 
    3000   -1152449.4            0   -1152449.4 1.0239188e-05 -2.6696189e-05 1.0028479e-05 
    3061   -1152449.4            0   -1152449.4 -6.49039e-07 1.6552898e-06 -6.2449903e-07 
Loop time of 2.82401 on 104 procs for 240 steps with 288751 atoms

99.9% CPU use with 104 MPI tasks x 1 OpenMP threads

Minimization stats:
  Stopping criterion = energy tolerance
  Energy initial, next-to-last, final = 
     -1152449.43703925  -1152449.43902585  -1152449.43902585
  Force two-norm initial, final = 0.2046613 1.2113140e-05
  Force max component initial, final = 0.10189201 1.8124848e-06
  Final line search alpha, max atom move = 1.0000000 1.8124848e-06
  Iterations, force evaluations = 240 480

MPI task timing breakdown:
Section |  min time  |  avg time  |  max time  |%varavg| %total
---------------------------------------------------------------
Pair    | 0.71682    | 2.0224     | 2.6535     |  38.5 | 71.61
Neigh   | 0          | 0          | 0          |   0.0 |  0.00
Comm    | 0.043169   | 0.45945    | 1.352      |  55.7 | 16.27
Output  | 0.00024498 | 0.0002474  | 0.00039272 |   0.0 |  0.01
Modify  | 2.9849e-05 | 0.0039814  | 0.0090128  |   3.0 |  0.14
Other   |            | 0.338      |            |       | 11.97

Nlocal:        2776.45 ave        3945 max           0 min
Histogram: 8 4 4 0 4 12 8 0 28 36
Nghost:        3878.53 ave        5428 max         232 min
Histogram: 8 0 8 0 16 0 8 8 16 40
Neighs:        79213.4 ave      115016 max           0 min
Histogram: 8 4 4 0 10 6 8 8 24 32

Total # of neighbors = 8238197
Ave neighs/atom = 28.530454
Neighbor list builds = 0
Dangerous builds = 0
The dot product: 8.1198586871057e-09
Setting atom values ...
  1 settings made for x
  1 settings made for y
  1 settings made for z
Setting up cg style minimization ...
  Unit style    : metal
  Current step  : 3061
Per MPI rank memory allocation (min/avg/max) = 5.441 | 5.816 | 6.074 Mbytes
Step PotEng KinEng TotEng v_fx v_fy v_fz 
    3061   -1152449.4            0   -1152449.4 -0.012946139  0.023817811 -0.010176758 
    3259   -1152449.4            0   -1152449.4 -5.4858478e-06 9.2408914e-06 -4.0405712e-06 
Loop time of 2.31485 on 104 procs for 198 steps with 288751 atoms

99.9% CPU use with 104 MPI tasks x 1 OpenMP threads

Minimization stats:
  Stopping criterion = energy tolerance
  Energy initial, next-to-last, final = 
      -1152449.4393178  -1152449.44126297  -1152449.44126297
  Force two-norm initial, final = 0.20176969 8.1033886e-05
  Force max component initial, final = 0.10045084 9.2408914e-06
  Final line search alpha, max atom move = 1.0000000 9.2408914e-06
  Iterations, force evaluations = 198 396

MPI task timing breakdown:
Section |  min time  |  avg time  |  max time  |%varavg| %total
---------------------------------------------------------------
Pair    | 0.59377    | 1.6588     | 2.1752     |  34.9 | 71.66
Neigh   | 0          | 0          | 0          |   0.0 |  0.00
Comm    | 0.035994   | 0.37443    | 1.1264     |  50.9 | 16.18
Output  | 0          | 0          | 0          |   0.0 |  0.00
Modify  | 2.3977e-05 | 0.0032801  | 0.0069868  |   2.7 |  0.14
Other   |            | 0.2783     |            |       | 12.02

Nlocal:        2776.45 ave        3946 max           0 min
Histogram: 8 4 4 0 4 12 8 0 28 36
Nghost:        3878.76 ave        5428 max         232 min
Histogram: 8 0 8 0 16 0 8 8 16 40
Neighs:        79213.4 ave      115032 max           0 min
Histogram: 8 4 4 0 10 6 8 8 24 32

Total # of neighbors = 8238197
Ave neighs/atom = 28.530454
Neighbor list builds = 0
Dangerous builds = 0
The dot product: 9.78274078368056e-09
Setting atom values ...
  1 settings made for x
  1 settings made for y
  1 settings made for z
Setting up cg style minimization ...
  Unit style    : metal
  Current step  : 3259
Per MPI rank memory allocation (min/avg/max) = 5.441 | 5.816 | 6.074 Mbytes
Step PotEng KinEng TotEng v_fx v_fy v_fz 
    3259   -1152449.4            0   -1152449.4  -0.01791085  0.027112211 -0.012327498 
    3469   -1152449.4            0   -1152449.4 -1.5439979e-06 3.8585614e-06 -1.5526004e-06 
Loop time of 2.44939 on 104 procs for 210 steps with 288751 atoms

99.9% CPU use with 104 MPI tasks x 1 OpenMP threads

Minimization stats:
  Stopping criterion = energy tolerance
  Energy initial, next-to-last, final = 
     -1152449.43954116  -1152449.44150426  -1152449.44150426
  Force two-norm initial, final = 0.20277128 4.5436089e-05
  Force max component initial, final = 0.098659148 9.9180719e-06
  Final line search alpha, max atom move = 1.0000000 9.9180719e-06
  Iterations, force evaluations = 210 420

MPI task timing breakdown:
Section |  min time  |  avg time  |  max time  |%varavg| %total
---------------------------------------------------------------
Pair    | 0.62588    | 1.7664     | 2.309      |  36.1 | 72.12
Neigh   | 0          | 0          | 0          |   0.0 |  0.00
Comm    | 0.039088   | 0.39766    | 1.19       |  52.7 | 16.24
Output  | 0          | 0          | 0          |   0.0 |  0.00
Modify  | 2.5884e-05 | 0.0034757  | 0.0074115  |   2.8 |  0.14
Other   |            | 0.2819     |            |       | 11.51

Nlocal:        2776.45 ave        3946 max           0 min
Histogram: 8 4 4 0 4 12 8 0 28 36
Nghost:        3878.74 ave        5428 max         232 min
Histogram: 8 0 8 0 16 0 8 8 16 40
Neighs:        79213.4 ave      115022 max           0 min
Histogram: 8 4 4 0 10 6 8 8 24 32

Total # of neighbors = 8238197
Ave neighs/atom = 28.530454
Neighbor list builds = 0
Dangerous builds = 0
The dot product: 8.18969176802766e-09
Setting atom values ...
  1 settings made for x
  1 settings made for y
  1 settings made for z
Setting up cg style minimization ...
  Unit style    : metal
  Current step  : 3469
Per MPI rank memory allocation (min/avg/max) = 5.441 | 5.816 | 6.074 Mbytes
Step PotEng KinEng TotEng v_fx v_fy v_fz 
    3469   -1152449.4            0   -1152449.4   -0.0182218  0.029449012 -0.013391529 
    3622   -1152449.4            0   -1152449.4 3.7936103e-05 -5.6007896e-05 2.614225e-05 
Loop time of 1.78484 on 104 procs for 153 steps with 288751 atoms

99.9% CPU use with 104 MPI tasks x 1 OpenMP threads

Minimization stats:
  Stopping criterion = energy tolerance
  Energy initial, next-to-last, final = 
     -1152449.43776404  -1152449.43972586  -1152449.43972586
  Force two-norm initial, final = 0.20300682 0.00025898922
  Force max component initial, final = 0.096804133 7.1375587e-05
  Final line search alpha, max atom move = 1.0000000 7.1375587e-05
  Iterations, force evaluations = 153 306

MPI task timing breakdown:
Section |  min time  |  avg time  |  max time  |%varavg| %total
---------------------------------------------------------------
Pair    | 0.45984    | 1.2831     | 1.6764     |  30.6 | 71.89
Neigh   | 0          | 0          | 0          |   0.0 |  0.00
Comm    | 0.028217   | 0.28825    | 0.86397    |  44.9 | 16.15
Output  | 0          | 0          | 0          |   0.0 |  0.00
Modify  | 1.8851e-05 | 0.0025357  | 0.0054155  |   2.4 |  0.14
Other   |            | 0.2109     |            |       | 11.82

Nlocal:        2776.45 ave        3946 max           0 min
Histogram: 8 4 4 0 4 12 8 0 28 36
Nghost:        3878.68 ave        5428 max         232 min
Histogram: 8 0 8 0 16 0 8 8 16 40
Neighs:        79213.5 ave      115026 max           0 min
Histogram: 8 4 4 0 10 6 8 8 24 32

Total # of neighbors = 8238199
Ave neighs/atom = 28.530461
Neighbor list builds = 0
Dangerous builds = 0
The dot product: -1.8026539555803e-07
Setting atom values ...
  1 settings made for x
  1 settings made for y
  1 settings made for z
Setting up cg style minimization ...
  Unit style    : metal
  Current step  : 3622
Per MPI rank memory allocation (min/avg/max) = 5.441 | 5.816 | 6.074 Mbytes
Step PotEng KinEng TotEng v_fx v_fy v_fz 
    3622   -1152449.4            0   -1152449.4 -0.017591338  0.030723352 -0.013993962 
    3852   -1152449.4            0   -1152449.4 2.2678543e-06 -2.9770908e-06 1.4740749e-06 
Loop time of 2.67984 on 104 procs for 230 steps with 288751 atoms

99.9% CPU use with 104 MPI tasks x 1 OpenMP threads

Minimization stats:
  Stopping criterion = energy tolerance
  Energy initial, next-to-last, final = 
     -1152449.43398251  -1152449.43593547  -1152449.43593547
  Force two-norm initial, final = 0.20278145 1.8712241e-05
  Force max component initial, final = 0.097554648 4.6765394e-06
  Final line search alpha, max atom move = 1.0000000 4.6765394e-06
  Iterations, force evaluations = 230 460

MPI task timing breakdown:
Section |  min time  |  avg time  |  max time  |%varavg| %total
---------------------------------------------------------------
Pair    | 0.6894     | 1.934      | 2.5284     |  37.6 | 72.17
Neigh   | 0          | 0          | 0          |   0.0 |  0.00
Comm    | 0.043396   | 0.43577    | 1.2989     |  55.2 | 16.26
Output  | 0          | 0          | 0          |   0.0 |  0.00
Modify  | 2.8482e-05 | 0.0038161  | 0.0081161  |   2.9 |  0.14
Other   |            | 0.3062     |            |       | 11.43

Nlocal:        2776.45 ave        3944 max           0 min
Histogram: 8 4 4 0 4 12 8 0 28 36
Nghost:        3878.66 ave        5427 max         232 min
Histogram: 8 0 8 0 16 0 8 8 16 40
Neighs:        79213.5 ave      114988 max           0 min
Histogram: 8 4 4 0 10 6 8 8 24 32

Total # of neighbors = 8238199
Ave neighs/atom = 28.530461
Neighbor list builds = 0
Dangerous builds = 0
The dot product: -1.07369654500781e-08
Setting atom values ...
  1 settings made for x
  1 settings made for y
  1 settings made for z
Setting up cg style minimization ...
  Unit style    : metal
  Current step  : 3852
Per MPI rank memory allocation (min/avg/max) = 5.441 | 5.816 | 6.074 Mbytes
Step PotEng KinEng TotEng v_fx v_fy v_fz 
    3852   -1152449.4            0   -1152449.4 -0.016724318  0.031308289 -0.014334053 
    4000   -1152449.4            0   -1152449.4 -8.6712672e-06 2.0601519e-05 -8.9336384e-06 
    4035   -1152449.4            0   -1152449.4 -9.6801303e-06 1.2775197e-05 -6.4589473e-06 
Loop time of 2.13253 on 104 procs for 183 steps with 288751 atoms

99.9% CPU use with 104 MPI tasks x 1 OpenMP threads

Minimization stats:
  Stopping criterion = energy tolerance
  Energy initial, next-to-last, final = 
     -1152449.42818994  -1152449.43013344  -1152449.43013344
  Force two-norm initial, final = 0.20238167 0.0001384495
  Force max component initial, final = 0.09992656 2.2013461e-05
  Final line search alpha, max atom move = 1.0000000 2.2013461e-05
  Iterations, force evaluations = 183 366

MPI task timing breakdown:
Section |  min time  |  avg time  |  max time  |%varavg| %total
---------------------------------------------------------------
Pair    | 0.5478     | 1.5324     | 2.0074     |  33.5 | 71.86
Neigh   | 0          | 0          | 0          |   0.0 |  0.00
Comm    | 0.033041   | 0.34511    | 1.0291     |  48.8 | 16.18
Output  | 0.00023537 | 0.00023941 | 0.00037831 |   0.0 |  0.01
Modify  | 2.2238e-05 | 0.0030326  | 0.0064644  |   2.6 |  0.14
Other   |            | 0.2517     |            |       | 11.80

Nlocal:        2776.45 ave        3944 max           0 min
Histogram: 8 4 4 0 4 12 8 0 28 36
Nghost:        3878.66 ave        5427 max         232 min
Histogram: 8 0 8 0 16 0 8 8 16 40
Neighs:        79213.5 ave      114991 max           0 min
Histogram: 8 4 4 0 10 6 8 8 24 32

Total # of neighbors = 8238200
Ave neighs/atom = 28.530464
Neighbor list builds = 0
Dangerous builds = 0
The dot product: 4.80298606739978e-08
Setting atom values ...
  1 settings made for x
  1 settings made for y
  1 settings made for z
Setting up cg style minimization ...
  Unit style    : metal
  Current step  : 4035
Per MPI rank memory allocation (min/avg/max) = 5.441 | 5.816 | 6.074 Mbytes
Step PotEng KinEng TotEng v_fx v_fy v_fz 
    4035   -1152449.4            0   -1152449.4 -0.015412108  0.031781014 -0.014537529 
    4239   -1152449.4            0   -1152449.4 -2.4132584e-06 4.1510679e-06 -1.985865e-06 
Loop time of 2.41949 on 104 procs for 204 steps with 288751 atoms

99.9% CPU use with 104 MPI tasks x 1 OpenMP threads

Minimization stats:
  Stopping criterion = energy tolerance
  Energy initial, next-to-last, final = 
     -1152449.42039262  -1152449.42232542  -1152449.42232542
  Force two-norm initial, final = 0.20189556 6.4742956e-05
  Force max component initial, final = 0.10234202 9.6676906e-06
  Final line search alpha, max atom move = 1.0000000 9.6676906e-06
  Iterations, force evaluations = 204 408

MPI task timing breakdown:
Section |  min time  |  avg time  |  max time  |%varavg| %total
---------------------------------------------------------------
Pair    | 0.61273    | 1.7261     | 2.2641     |  35.4 | 71.34
Neigh   | 0          | 0          | 0          |   0.0 |  0.00
Comm    | 0.041555   | 0.39603    | 1.1655     |  51.3 | 16.37
Output  | 0          | 0          | 0          |   0.0 |  0.00
Modify  | 2.5711e-05 | 0.0033812  | 0.0072649  |   2.7 |  0.14
Other   |            | 0.294      |            |       | 12.15

Nlocal:        2776.45 ave        3944 max           0 min
Histogram: 8 4 4 0 4 12 8 0 28 36
Nghost:        3878.74 ave        5428 max         232 min
Histogram: 8 0 8 0 16 0 8 8 16 40
Neighs:        79213.5 ave      114999 max           0 min
Histogram: 8 4 4 0 10 6 8 8 24 32

Total # of neighbors = 8238205
Ave neighs/atom = 28.530481
Neighbor list builds = 0
Dangerous builds = 0
The dot product: 1.48739615383113e-08
Setting atom values ...
  1 settings made for x
  1 settings made for y
  1 settings made for z
Setting up cg style minimization ...
  Unit style    : metal
  Current step  : 4239
Per MPI rank memory allocation (min/avg/max) = 5.441 | 5.816 | 6.074 Mbytes
Step PotEng KinEng TotEng v_fx v_fy v_fz 
    4239   -1152449.4            0   -1152449.4 -0.013592407  0.032150814 -0.014578625 
    4424   -1152449.4            0   -1152449.4 2.525023e-05 -3.9802977e-05 1.9911659e-05 
Loop time of 2.17422 on 104 procs for 185 steps with 288751 atoms

99.9% CPU use with 104 MPI tasks x 1 OpenMP threads

Minimization stats:
  Stopping criterion = energy tolerance
  Energy initial, next-to-last, final = 
     -1152449.41060077  -1152449.41252195  -1152449.41252195
  Force two-norm initial, final = 0.2013666 0.00013942041
  Force max component initial, final = 0.10471119 3.9802977e-05
  Final line search alpha, max atom move = 1.0000000 3.9802977e-05
  Iterations, force evaluations = 185 370

MPI task timing breakdown:
Section |  min time  |  avg time  |  max time  |%varavg| %total
---------------------------------------------------------------
Pair    | 0.55453    | 1.5535     | 2.0444     |  33.9 | 71.45
Neigh   | 0          | 0          | 0          |   0.0 |  0.00
Comm    | 0.032841   | 0.35302    | 1.0508     |  49.2 | 16.24
Output  | 0          | 0          | 0          |   0.0 |  0.00
Modify  | 2.2527e-05 | 0.0030626  | 0.0065371  |   2.6 |  0.14
Other   |            | 0.2646     |            |       | 12.17

Nlocal:        2776.45 ave        3944 max           0 min
Histogram: 8 4 4 0 4 12 8 0 28 36
Nghost:        3878.74 ave        5428 max         232 min
Histogram: 8 0 8 0 16 0 8 8 16 40
Neighs:        79213.6 ave      115001 max           0 min
Histogram: 8 4 4 0 10 6 8 8 24 32

Total # of neighbors = 8238210
Ave neighs/atom = 28.530499
Neighbor list builds = 0
Dangerous builds = 0
The dot product: -1.46939922530164e-07
Setting atom values ...
  1 settings made for x
  1 settings made for y
  1 settings made for z
Setting up cg style minimization ...
  Unit style    : metal
  Current step  : 4424
Per MPI rank memory allocation (min/avg/max) = 5.441 | 5.816 | 6.074 Mbytes
Step PotEng KinEng TotEng v_fx v_fy v_fz 
    4424   -1152449.4            0   -1152449.4 -0.011276817  0.032456973 -0.014467527 
    4595   -1152449.4            0   -1152449.4 3.2293296e-05 -5.1653198e-05 2.6247057e-05 
Loop time of 2.05273 on 104 procs for 171 steps with 288751 atoms

99.9% CPU use with 104 MPI tasks x 1 OpenMP threads

Minimization stats:
  Stopping criterion = energy tolerance
  Energy initial, next-to-last, final = 
     -1152449.39882958  -1152449.40073802  -1152449.40073802
  Force two-norm initial, final = 0.20083066 0.00018769698
  Force max component initial, final = 0.10707224 5.1889637e-05
  Final line search alpha, max atom move = 1.0000000 5.1889637e-05
  Iterations, force evaluations = 171 342

MPI task timing breakdown:
Section |  min time  |  avg time  |  max time  |%varavg| %total
---------------------------------------------------------------
Pair    | 0.51489    | 1.4531     | 1.9149     |  32.8 | 70.79
Neigh   | 0          | 0          | 0          |   0.0 |  0.00
Comm    | 0.036681   | 0.33516    | 0.99383    |  46.7 | 16.33
Output  | 0          | 0          | 0          |   0.0 |  0.00
Modify  | 2.0842e-05 | 0.0028438  | 0.0061083  |   2.5 |  0.14
Other   |            | 0.2616     |            |       | 12.74

Nlocal:        2776.45 ave        3944 max           0 min
Histogram: 8 4 4 0 4 12 8 0 28 36
Nghost:        3878.82 ave        5428 max         232 min
Histogram: 8 0 8 0 16 0 8 8 16 40
Neighs:        79213.6 ave      114997 max           0 min
Histogram: 8 4 4 0 10 6 8 8 24 32

Total # of neighbors = 8238214
Ave neighs/atom = 28.530512
Neighbor list builds = 0
Dangerous builds = 0
The dot product: -1.89096848871238e-07
Setting atom values ...
  1 settings made for x
  1 settings made for y
  1 settings made for z
Setting up cg style minimization ...
  Unit style    : metal
  Current step  : 4595
Per MPI rank memory allocation (min/avg/max) = 5.441 | 5.816 | 6.074 Mbytes
Step PotEng KinEng TotEng v_fx v_fy v_fz 
    4595   -1152449.4            0   -1152449.4 -0.0084466432  0.032752119 -0.014212942 
    4806   -1152449.4            0   -1152449.4 4.3310277e-06 -7.1845213e-06 3.6818917e-06 
Loop time of 2.48258 on 104 procs for 211 steps with 288751 atoms

99.9% CPU use with 104 MPI tasks x 1 OpenMP threads

Minimization stats:
  Stopping criterion = energy tolerance
  Energy initial, next-to-last, final = 
     -1152449.38509826  -1152449.38699496  -1152449.38699496
  Force two-norm initial, final = 0.2003588 4.2652901e-05
  Force max component initial, final = 0.10939933 9.5674696e-06
  Final line search alpha, max atom move = 1.0000000 9.5674696e-06
  Iterations, force evaluations = 211 422

MPI task timing breakdown:
Section |  min time  |  avg time  |  max time  |%varavg| %total
---------------------------------------------------------------
Pair    | 0.63435    | 1.7758     | 2.3225     |  36.1 | 71.53
Neigh   | 0          | 0          | 0          |   0.0 |  0.00
Comm    | 0.038671   | 0.40377    | 1.1993     |  52.7 | 16.26
Output  | 0          | 0          | 0          |   0.0 |  0.00
Modify  | 2.6403e-05 | 0.0035024  | 0.0074448  |   2.8 |  0.14
Other   |            | 0.2995     |            |       | 12.07

Nlocal:        2776.45 ave        3944 max           0 min
Histogram: 8 4 4 0 4 12 8 0 28 36
Nghost:        3878.78 ave        5428 max         232 min
Histogram: 8 0 8 0 16 0 8 8 16 40
Neighs:        79213.6 ave      114990 max           0 min
Histogram: 8 4 4 0 10 6 8 8 24 32

Total # of neighbors = 8238211
Ave neighs/atom = 28.530502
Neighbor list builds = 0
Dangerous builds = 0
The dot product: -2.5450755906767e-08
Setting atom values ...
  1 settings made for x
  1 settings made for y
  1 settings made for z
Setting up cg style minimization ...
  Unit style    : metal
  Current step  : 4806
Per MPI rank memory allocation (min/avg/max) = 5.441 | 5.816 | 6.074 Mbytes
Step PotEng KinEng TotEng v_fx v_fy v_fz 
    4806   -1152449.4            0   -1152449.4 -0.0050324023   0.03305677 -0.013803912 
    4967   -1152449.4            0   -1152449.4  3.44467e-05 -5.4818013e-05 2.8893926e-05 
Loop time of 1.89298 on 104 procs for 161 steps with 288751 atoms

99.9% CPU use with 104 MPI tasks x 1 OpenMP threads

Minimization stats:
  Stopping criterion = energy tolerance
  Energy initial, next-to-last, final = 
     -1152449.36943516  -1152449.37131892  -1152449.37131892
  Force two-norm initial, final = 0.20000074 0.00024901014
  Force max component initial, final = 0.1116205 5.9151741e-05
  Final line search alpha, max atom move = 1.0000000 5.9151741e-05
  Iterations, force evaluations = 161 322

MPI task timing breakdown:
Section |  min time  |  avg time  |  max time  |%varavg| %total
---------------------------------------------------------------
Pair    | 0.48097    | 1.3536     | 1.7803     |  31.5 | 71.50
Neigh   | 0          | 0          | 0          |   0.0 |  0.00
Comm    | 0.034384   | 0.30765    | 0.91312    |  45.5 | 16.25
Output  | 0          | 0          | 0          |   0.0 |  0.00
Modify  | 1.9673e-05 | 0.0026688  | 0.005679   |   2.4 |  0.14
Other   |            | 0.2291     |            |       | 12.10

Nlocal:        2776.45 ave        3944 max           0 min
Histogram: 8 4 4 0 4 12 8 0 28 36
Nghost:        3878.82 ave        5428 max         232 min
Histogram: 8 0 8 0 16 0 8 8 16 40
Neighs:        79213.6 ave      114984 max           0 min
Histogram: 8 4 4 0 10 6 8 8 24 32

Total # of neighbors = 8238211
Ave neighs/atom = 28.530502
Neighbor list builds = 0
Dangerous builds = 0
The dot product: -1.87630797952463e-07
Setting atom values ...
  1 settings made for x
  1 settings made for y
  1 settings made for z
Setting up cg style minimization ...
  Unit style    : metal
  Current step  : 4967
Per MPI rank memory allocation (min/avg/max) = 5.441 | 5.816 | 6.074 Mbytes
Step PotEng KinEng TotEng v_fx v_fy v_fz 
    4967   -1152449.4            0   -1152449.4 -0.002133619  0.033544989 -0.013568087 
    5000   -1152449.4            0   -1152449.4 -0.00029227121 0.00061132283 -0.00030590806 
    5134   -1152449.4            0   -1152449.4 3.2688737e-07 1.276994e-06 -4.2205905e-07 
Loop time of 1.94922 on 104 procs for 167 steps with 288751 atoms

99.9% CPU use with 104 MPI tasks x 1 OpenMP threads

Minimization stats:
  Stopping criterion = energy tolerance
  Energy initial, next-to-last, final = 
     -1152449.35187362  -1152449.35373918  -1152449.35373918
  Force two-norm initial, final = 0.19978128 0.00017973051
  Force max component initial, final = 0.11382821 6.9081135e-06
  Final line search alpha, max atom move = 1.0000000 6.9081135e-06
  Iterations, force evaluations = 167 334

MPI task timing breakdown:
Section |  min time  |  avg time  |  max time  |%varavg| %total
---------------------------------------------------------------
Pair    | 0.49969    | 1.4001     | 1.8348     |  32.1 | 71.83
Neigh   | 0          | 0          | 0          |   0.0 |  0.00
Comm    | 0.031363   | 0.31617    | 0.94152    |  46.7 | 16.22
Output  | 0.00021567 | 0.00021822 | 0.00030626 |   0.0 |  0.01
Modify  | 2.0251e-05 | 0.0027712  | 0.0059214  |   2.5 |  0.14
Other   |            | 0.2299     |            |       | 11.80

Nlocal:        2776.45 ave        3944 max           0 min
Histogram: 8 4 4 0 4 12 8 0 28 36
Nghost:        3878.82 ave        5428 max         232 min
Histogram: 8 0 8 0 16 0 8 8 16 40
Neighs:        79213.6 ave      114986 max           0 min
Histogram: 8 4 4 0 10 6 8 8 24 32

Total # of neighbors = 8238213
Ave neighs/atom = 28.530509
Neighbor list builds = 0
Dangerous builds = 0
The dot product: 3.94108231543364e-09
Setting atom values ...
  1 settings made for x
  1 settings made for y
  1 settings made for z
Setting up cg style minimization ...
  Unit style    : metal
  Current step  : 5134
Per MPI rank memory allocation (min/avg/max) = 5.441 | 5.816 | 6.074 Mbytes
Step PotEng KinEng TotEng v_fx v_fy v_fz 
    5134   -1152449.3            0   -1152449.3 0.0011744913  0.034761243 -0.013525753 
    5294   -1152449.3            0   -1152449.3 -2.2918797e-05 4.3039367e-05 -2.2404501e-05 
Loop time of 1.8751 on 104 procs for 160 steps with 288751 atoms

99.9% CPU use with 104 MPI tasks x 1 OpenMP threads

Minimization stats:
  Stopping criterion = energy tolerance
  Energy initial, next-to-last, final = 
     -1152449.33246789  -1152449.33430839  -1152449.33430839
  Force two-norm initial, final = 0.19986471 0.00022154832
  Force max component initial, final = 0.11596864 4.3039367e-05
  Final line search alpha, max atom move = 1.0000000 4.3039367e-05
  Iterations, force evaluations = 160 320

MPI task timing breakdown:
Section |  min time  |  avg time  |  max time  |%varavg| %total
---------------------------------------------------------------
Pair    | 0.48006    | 1.3504     | 1.7624     |  31.3 | 72.02
Neigh   | 0          | 0          | 0          |   0.0 |  0.00
Comm    | 0.030004   | 0.30531    | 0.90681    |  45.9 | 16.28
Output  | 0          | 0          | 0          |   0.0 |  0.00
Modify  | 2.1116e-05 | 0.0026541  | 0.0056621  |   2.4 |  0.14
Other   |            | 0.2168     |            |       | 11.56

Nlocal:        2776.45 ave        3944 max           0 min
Histogram: 8 4 4 0 4 12 8 0 28 36
Nghost:        3878.74 ave        5427 max         232 min
Histogram: 8 0 8 0 16 0 8 8 16 40
Neighs:        79213.6 ave      115025 max           0 min
Histogram: 8 4 4 0 10 6 8 8 24 32

Total # of neighbors = 8238215
Ave neighs/atom = 28.530516
Neighbor list builds = 0
Dangerous builds = 0
The dot product: 1.53142174794749e-07
Setting atom values ...
  1 settings made for x
  1 settings made for y
  1 settings made for z
Setting up cg style minimization ...
  Unit style    : metal
  Current step  : 5294
Per MPI rank memory allocation (min/avg/max) = 5.441 | 5.816 | 6.074 Mbytes
Step PotEng KinEng TotEng v_fx v_fy v_fz 
    5294   -1152449.3            0   -1152449.3 0.0066767033    0.0367593 -0.013336427 
    5467   -1152449.3            0   -1152449.3 2.9136189e-06 -3.9741494e-06 2.2845613e-06 
Loop time of 2.04867 on 104 procs for 173 steps with 288751 atoms

99.9% CPU use with 104 MPI tasks x 1 OpenMP threads

Minimization stats:
  Stopping criterion = energy tolerance
  Energy initial, next-to-last, final = 
     -1152449.31129878  -1152449.31313798  -1152449.31313798
  Force two-norm initial, final = 0.20062987 0.00014319826
  Force max component initial, final = 0.11816613 2.9522938e-05
  Final line search alpha, max atom move = 1.0000000 2.9522938e-05
  Iterations, force evaluations = 173 346

MPI task timing breakdown:
Section |  min time  |  avg time  |  max time  |%varavg| %total
---------------------------------------------------------------
Pair    | 0.52164    | 1.4527     | 1.9074     |  32.6 | 70.91
Neigh   | 0          | 0          | 0          |   0.0 |  0.00
Comm    | 0.031598   | 0.32984    | 0.97811    |  47.2 | 16.10
Output  | 0          | 0          | 0          |   0.0 |  0.00
Modify  | 2.1138e-05 | 0.0028692  | 0.006114   |   2.5 |  0.14
Other   |            | 0.2633     |            |       | 12.85

Nlocal:        2776.45 ave        3944 max           0 min
Histogram: 8 4 4 0 4 12 8 0 28 36
Nghost:        3878.74 ave        5427 max         232 min
Histogram: 8 0 8 0 16 0 8 8 16 40
Neighs:        79213.6 ave      115033 max           0 min
Histogram: 8 4 4 0 10 6 8 8 24 32

Total # of neighbors = 8238217
Ave neighs/atom = 28.530523
Neighbor list builds = 0
Dangerous builds = 0
The dot product: -7.47070215275218e-09
Setting atom values ...
  1 settings made for x
  1 settings made for y
  1 settings made for z
Setting up cg style minimization ...
  Unit style    : metal
  Current step  : 5467
Per MPI rank memory allocation (min/avg/max) = 5.441 | 5.816 | 6.074 Mbytes
Step PotEng KinEng TotEng v_fx v_fy v_fz 
    5467   -1152449.3            0   -1152449.3  0.027283746  0.042080824  -0.01146699 
    5679   -1152449.3            0   -1152449.3 -1.2143787e-09 -2.1416337e-06 8.9120931e-07 
Loop time of 2.49191 on 104 procs for 212 steps with 288751 atoms

99.9% CPU use with 104 MPI tasks x 1 OpenMP threads

Minimization stats:
  Stopping criterion = energy tolerance
  Energy initial, next-to-last, final = 
     -1152449.28858315  -1152449.29495071  -1152449.29495071
  Force two-norm initial, final = 0.20429048 0.00010528161
  Force max component initial, final = 0.12019078 4.0593216e-06
  Final line search alpha, max atom move = 1.0000000 4.0593216e-06
  Iterations, force evaluations = 212 424

MPI task timing breakdown:
Section |  min time  |  avg time  |  max time  |%varavg| %total
---------------------------------------------------------------
Pair    | 0.64058    | 1.7924     | 2.349      |  36.2 | 71.93
Neigh   | 1.0209e-05 | 0.0029446  | 0.0043198  |   2.2 |  0.12
Comm    | 0.038882   | 0.40768    | 1.2135     |  53.2 | 16.36
Output  | 0          | 0          | 0          |   0.0 |  0.00
Modify  | 2.6034e-05 | 0.003516   | 0.0075166  |   2.8 |  0.14
Other   |            | 0.2853     |            |       | 11.45

Nlocal:        2776.45 ave        3945 max           0 min
Histogram: 8 4 4 0 4 12 8 0 28 36
Nghost:        3878.74 ave        5427 max         232 min
Histogram: 8 0 8 0 16 0 8 8 16 40
Neighs:        79213.7 ave      115027 max           0 min
Histogram: 8 4 4 0 10 6 8 8 24 32

Total # of neighbors = 8238221
Ave neighs/atom = 28.530537
Neighbor list builds = 1
Dangerous builds = 0
The dot product: -6.67232215942886e-08
Setting atom values ...
  1 settings made for x
  1 settings made for y
  1 settings made for z
Setting up cg style minimization ...
  Unit style    : metal
  Current step  : 5679
Per MPI rank memory allocation (min/avg/max) = 5.441 | 5.816 | 6.074 Mbytes
Step PotEng KinEng TotEng v_fx v_fy v_fz 
    5679   -1152449.3            0   -1152449.3   0.21022731  0.080888875 -0.029415477 
    5956   -1152449.3            0   -1152449.3 -2.4203511e-06 1.0203387e-05 -4.9922891e-06 
Loop time of 3.24597 on 104 procs for 277 steps with 288751 atoms

99.9% CPU use with 104 MPI tasks x 1 OpenMP threads

Minimization stats:
  Stopping criterion = energy tolerance
  Energy initial, next-to-last, final = 
     -1152449.27313191  -1152449.33818133  -1152449.33818133
  Force two-norm initial, final = 0.29641101 3.0460455e-05
  Force max component initial, final = 0.21022731 1.0203387e-05
  Final line search alpha, max atom move = 1.0000000 1.0203387e-05
  Iterations, force evaluations = 277 554

MPI task timing breakdown:
Section |  min time  |  avg time  |  max time  |%varavg| %total
---------------------------------------------------------------
Pair    | 0.83685    | 2.3202     | 3.048      |  41.1 | 71.48
Neigh   | 2.0242e-05 | 0.005897   | 0.0086066  |   3.2 |  0.18
Comm    | 0.051855   | 0.52658    | 1.5717     |  59.8 | 16.22
Output  | 0          | 0          | 0          |   0.0 |  0.00
Modify  | 3.3471e-05 | 0.0045825  | 0.0097565  |   3.2 |  0.14
Other   |            | 0.3888     |            |       | 11.98

Nlocal:        2776.45 ave        3945 max           0 min
Histogram: 8 4 4 0 4 12 8 0 28 36
Nghost:        3878.74 ave        5427 max         232 min
Histogram: 8 0 8 0 16 0 8 8 16 40
Neighs:        79213.6 ave      115027 max           0 min
Histogram: 8 4 4 0 10 6 8 8 24 32

Total # of neighbors = 8238213
Ave neighs/atom = 28.530509
Neighbor list builds = 2
Dangerous builds = 0
The dot product: -1.07828844756487e-07
Setting atom values ...
  1 settings made for x
  1 settings made for y
  1 settings made for z
Setting up cg style minimization ...
  Unit style    : metal
  Current step  : 5956
Per MPI rank memory allocation (min/avg/max) = 5.441 | 5.816 | 6.074 Mbytes
Step PotEng KinEng TotEng v_fx v_fy v_fz 
    5956   -1152449.3            0   -1152449.3   0.12209852  0.019179141 -0.064836226 
    6000   -1152449.3            0   -1152449.3 0.00015378608 -6.8000741e-05 -2.8856541e-05 
    6120   -1152449.3            0   -1152449.3 -6.3148902e-06 1.0750481e-05 -3.3751156e-06 
Loop time of 1.94307 on 104 procs for 164 steps with 288751 atoms

99.9% CPU use with 104 MPI tasks x 1 OpenMP threads

Minimization stats:
  Stopping criterion = energy tolerance
  Energy initial, next-to-last, final = 
     -1152449.33255701  -1152449.33473083  -1152449.33473083
  Force two-norm initial, final = 0.20066379 0.00020483652
  Force max component initial, final = 0.12209852 3.2195510e-05
  Final line search alpha, max atom move = 1.0000000 3.2195510e-05
  Iterations, force evaluations = 164 328

MPI task timing breakdown:
Section |  min time  |  avg time  |  max time  |%varavg| %total
---------------------------------------------------------------
Pair    | 0.49041    | 1.3826     | 1.8318     |  31.9 | 71.16
Neigh   | 0          | 0          | 0          |   0.0 |  0.00
Comm    | 0.033628   | 0.31785    | 0.9322     |  45.9 | 16.36
Output  | 0.00014988 | 0.00016214 | 0.0002602  |   0.0 |  0.01
Modify  | 2.019e-05  | 0.0027184  | 0.0057998  |   2.5 |  0.14
Other   |            | 0.2397     |            |       | 12.34

Nlocal:        2776.45 ave        3944 max           0 min
Histogram: 8 4 4 0 4 12 8 0 28 36
Nghost:        3878.66 ave        5427 max         232 min
Histogram: 8 0 8 0 16 0 8 8 16 40
Neighs:        79213.3 ave      114982 max           0 min
Histogram: 8 4 4 0 10 6 8 8 24 32

Total # of neighbors = 8238187
Ave neighs/atom = 28.530419
Neighbor list builds = 0
Dangerous builds = 0
The dot product: -9.36740725923028e-08
Setting atom values ...
  1 settings made for x
  1 settings made for y
  1 settings made for z
Setting up cg style minimization ...
  Unit style    : metal
  Current step  : 6120
Per MPI rank memory allocation (min/avg/max) = 5.441 | 5.816 | 6.074 Mbytes
Step PotEng KinEng TotEng v_fx v_fy v_fz 
    6120   -1152449.3            0   -1152449.3  0.052984242  0.018534013 -0.036498249 
    6293   -1152449.3            0   -1152449.3 2.7113679e-05 -1.4525497e-05 -4.7027263e-06 
Loop time of 2.02117 on 104 procs for 173 steps with 288751 atoms

99.9% CPU use with 104 MPI tasks x 1 OpenMP threads

Minimization stats:
  Stopping criterion = energy tolerance
  Energy initial, next-to-last, final = 
     -1152449.32795237  -1152449.32912198  -1152449.32912198
  Force two-norm initial, final = 0.15568764 0.00016241408
  Force max component initial, final = 0.061079878 3.1956795e-05
  Final line search alpha, max atom move = 1.0000000 3.1956795e-05
  Iterations, force evaluations = 173 346

MPI task timing breakdown:
Section |  min time  |  avg time  |  max time  |%varavg| %total
---------------------------------------------------------------
Pair    | 0.51808    | 1.4535     | 1.9065     |  32.7 | 71.92
Neigh   | 0          | 0          | 0          |   0.0 |  0.00
Comm    | 0.031404   | 0.32804    | 0.97725    |  47.8 | 16.23
Output  | 0          | 0          | 0          |   0.0 |  0.00
Modify  | 2.0875e-05 | 0.0028687  | 0.0061057  |   2.5 |  0.14
Other   |            | 0.2367     |            |       | 11.71

Nlocal:        2776.45 ave        3944 max           0 min
Histogram: 8 4 4 0 4 12 8 0 28 36
Nghost:        3878.66 ave        5427 max         232 min
Histogram: 8 0 8 0 16 0 8 8 16 40
Neighs:        79213.3 ave      114982 max           0 min
Histogram: 8 4 4 0 10 6 8 8 24 32

Total # of neighbors = 8238187
Ave neighs/atom = 28.530419
Neighbor list builds = 0
Dangerous builds = 0
The dot product: 1.22700090150616e-07
Setting atom values ...
  1 settings made for x
  1 settings made for y
  1 settings made for z
Setting up cg style minimization ...
  Unit style    : metal
  Current step  : 6293
Per MPI rank memory allocation (min/avg/max) = 5.441 | 5.816 | 6.074 Mbytes
Step PotEng KinEng TotEng v_fx v_fy v_fz 
    6293   -1152449.3            0   -1152449.3  0.046921513   0.01811899 -0.033871143 
    6586   -1152449.3            0   -1152449.3 -1.8511777e-08 -3.5508691e-08 2.9970476e-08 
Loop time of 3.43407 on 104 procs for 293 steps with 288751 atoms

99.9% CPU use with 104 MPI tasks x 1 OpenMP threads

Minimization stats:
  Stopping criterion = energy tolerance
  Energy initial, next-to-last, final = 
     -1152449.32089972  -1152449.32201834  -1152449.32201834
  Force two-norm initial, final = 0.15161996 9.5755294e-07
  Force max component initial, final = 0.059163778 9.2116457e-08
  Final line search alpha, max atom move = 1.0000000 9.2116457e-08
  Iterations, force evaluations = 293 586

MPI task timing breakdown:
Section |  min time  |  avg time  |  max time  |%varavg| %total
---------------------------------------------------------------
Pair    | 0.87488    | 2.4658     | 3.2328     |  42.5 | 71.80
Neigh   | 0          | 0          | 0          |   0.0 |  0.00
Comm    | 0.057066   | 0.55922    | 1.651      |  61.4 | 16.28
Output  | 0          | 0          | 0          |   0.0 |  0.00
Modify  | 3.5341e-05 | 0.0048531  | 0.010332   |   3.3 |  0.14
Other   |            | 0.4042     |            |       | 11.77

Nlocal:        2776.45 ave        3944 max           0 min
Histogram: 8 4 4 0 4 12 8 0 28 36
Nghost:        3878.66 ave        5427 max         232 min
Histogram: 8 0 8 0 16 0 8 8 16 40
Neighs:        79213.3 ave      114991 max           0 min
Histogram: 8 4 4 0 10 6 8 8 24 32

Total # of neighbors = 8238188
Ave neighs/atom = 28.530422
Neighbor list builds = 0
Dangerous builds = 0
The dot product: -1.35491661631489e-10
Setting atom values ...
  1 settings made for x
  1 settings made for y
  1 settings made for z
Setting up cg style minimization ...
  Unit style    : metal
  Current step  : 6586
Per MPI rank memory allocation (min/avg/max) = 5.441 | 5.816 | 6.074 Mbytes
Step PotEng KinEng TotEng v_fx v_fy v_fz 
    6586   -1152449.3            0   -1152449.3   0.04534965  0.017872329 -0.033346698 
    6754   -1152449.3            0   -1152449.3 1.4084144e-05 1.0070389e-05 -1.3017152e-05 
Loop time of 1.97129 on 104 procs for 168 steps with 288751 atoms

99.9% CPU use with 104 MPI tasks x 1 OpenMP threads

Minimization stats:
  Stopping criterion = energy tolerance
  Energy initial, next-to-last, final = 
      -1152449.3123121  -1152449.31340993  -1152449.31340993
  Force two-norm initial, final = 0.14988644 0.00021208673
  Force max component initial, final = 0.057195969 5.2553615e-05
  Final line search alpha, max atom move = 1.0000000 5.2553615e-05
  Iterations, force evaluations = 168 336

MPI task timing breakdown:
Section |  min time  |  avg time  |  max time  |%varavg| %total
---------------------------------------------------------------
Pair    | 0.50498    | 1.4113     | 1.8495     |  32.2 | 71.59
Neigh   | 0          | 0          | 0          |   0.0 |  0.00
Comm    | 0.030625   | 0.32083    | 0.96164    |  46.7 | 16.28
Output  | 0          | 0          | 0          |   0.0 |  0.00
Modify  | 2.0262e-05 | 0.0027902  | 0.0059598  |   2.5 |  0.14
Other   |            | 0.2363     |            |       | 11.99

Nlocal:        2776.45 ave        3944 max           0 min
Histogram: 8 4 4 0 4 12 8 0 28 36
Nghost:        3878.70 ave        5427 max         232 min
Histogram: 8 0 8 0 16 0 8 8 16 40
Neighs:        79213.4 ave      114991 max           0 min
Histogram: 8 4 4 0 10 6 8 8 24 32

Total # of neighbors = 8238189
Ave neighs/atom = 28.530426
Neighbor list builds = 0
Dangerous builds = 0
The dot product: 7.19095324012255e-08
Setting atom values ...
  1 settings made for x
  1 settings made for y
  1 settings made for z
Setting up cg style minimization ...
  Unit style    : metal
  Current step  : 6754
Per MPI rank memory allocation (min/avg/max) = 5.441 | 5.816 | 6.074 Mbytes
Step PotEng KinEng TotEng v_fx v_fy v_fz 
    6754   -1152449.3            0   -1152449.3  0.043945469  0.017978019 -0.033065075 
    6975   -1152449.3            0   -1152449.3 5.0559393e-06 -3.1648154e-06 -7.0743618e-07 
Loop time of 2.60091 on 104 procs for 221 steps with 288751 atoms

99.9% CPU use with 104 MPI tasks x 1 OpenMP threads

Minimization stats:
  Stopping criterion = energy tolerance
  Energy initial, next-to-last, final = 
     -1152449.30219053  -1152449.30327428  -1152449.30327428
  Force two-norm initial, final = 0.14859248 2.5045654e-05
  Force max component initial, final = 0.055217797 5.0559393e-06
  Final line search alpha, max atom move = 1.0000000 5.0559393e-06
  Iterations, force evaluations = 221 442

MPI task timing breakdown:
Section |  min time  |  avg time  |  max time  |%varavg| %total
---------------------------------------------------------------
Pair    | 0.66415    | 1.8612     | 2.4406     |  36.9 | 71.56
Neigh   | 0          | 0          | 0          |   0.0 |  0.00
Comm    | 0.041576   | 0.42169    | 1.2419     |  53.5 | 16.21
Output  | 0          | 0          | 0          |   0.0 |  0.00
Modify  | 2.772e-05  | 0.0036593  | 0.0078171  |   2.8 |  0.14
Other   |            | 0.3144     |            |       | 12.09

Nlocal:        2776.45 ave        3944 max           0 min
Histogram: 8 4 4 0 4 12 8 0 28 36
Nghost:        3878.70 ave        5427 max         232 min
Histogram: 8 0 8 0 16 0 8 8 16 40
Neighs:        79213.4 ave      114990 max           0 min
Histogram: 8 4 4 0 10 6 8 8 24 32

Total # of neighbors = 8238189
Ave neighs/atom = 28.530426
Neighbor list builds = 0
Dangerous builds = 0
The dot product: 1.33572159817367e-08
Setting atom values ...
  1 settings made for x
  1 settings made for y
  1 settings made for z
Setting up cg style minimization ...
  Unit style    : metal
  Current step  : 6975
Per MPI rank memory allocation (min/avg/max) = 5.441 | 5.816 | 6.074 Mbytes
Step PotEng KinEng TotEng v_fx v_fy v_fz 
    6975   -1152449.3            0   -1152449.3  0.042314294  0.018410405 -0.032820207 
    7000   -1152449.3            0   -1152449.3 4.1725455e-05  5.27175e-05 -5.2920284e-05 
    7181   -1152449.3            0   -1152449.3 -5.7611155e-06 1.3015805e-05 -4.7635783e-06 
Loop time of 2.3947 on 104 procs for 206 steps with 288751 atoms

99.9% CPU use with 104 MPI tasks x 1 OpenMP threads

Minimization stats:
  Stopping criterion = energy tolerance
  Energy initial, next-to-last, final = 
     -1152449.29051534  -1152449.29158628  -1152449.29158628
  Force two-norm initial, final = 0.14748656 6.1340127e-05
  Force max component initial, final = 0.053270581 1.3015805e-05
  Final line search alpha, max atom move = 1.0000000 1.3015805e-05
  Iterations, force evaluations = 206 412

MPI task timing breakdown:
Section |  min time  |  avg time  |  max time  |%varavg| %total
---------------------------------------------------------------
Pair    | 0.616      | 1.7237     | 2.2581     |  35.5 | 71.98
Neigh   | 0          | 0          | 0          |   0.0 |  0.00
Comm    | 0.037432   | 0.38811    | 1.1566     |  51.8 | 16.21
Output  | 0.00016393 | 0.00017219 | 0.00025758 |   0.0 |  0.01
Modify  | 2.5357e-05 | 0.0034087  | 0.0072759  |   2.7 |  0.14
Other   |            | 0.2793     |            |       | 11.66

Nlocal:        2776.45 ave        3944 max           0 min
Histogram: 8 4 4 0 4 12 8 0 28 36
Nghost:        3878.78 ave        5428 max         232 min
Histogram: 8 0 8 0 16 0 8 8 16 40
Neighs:        79213.4 ave      114990 max           0 min
Histogram: 8 4 4 0 10 6 8 8 24 32

Total # of neighbors = 8238190
Ave neighs/atom = 28.530429
Neighbor list builds = 0
Dangerous builds = 0
The dot product: 2.72671210704539e-09
Setting atom values ...
  1 settings made for x
  1 settings made for y
  1 settings made for z
Setting up cg style minimization ...
  Unit style    : metal
  Current step  : 7181
Per MPI rank memory allocation (min/avg/max) = 5.441 | 5.816 | 6.074 Mbytes
Step PotEng KinEng TotEng v_fx v_fy v_fz 
    7181   -1152449.3            0   -1152449.3  0.040568064  0.019283333 -0.032744118 
    7382   -1152449.3            0   -1152449.3 -8.2176067e-06 1.8267497e-05 -6.6231638e-06 
Loop time of 2.37265 on 104 procs for 201 steps with 288751 atoms

99.9% CPU use with 104 MPI tasks x 1 OpenMP threads

Minimization stats:
  Stopping criterion = energy tolerance
  Energy initial, next-to-last, final = 
      -1152449.2772635  -1152449.27832347  -1152449.27832347
  Force two-norm initial, final = 0.1466323 8.6036707e-05
  Force max component initial, final = 0.05128748 2.7142116e-05
  Final line search alpha, max atom move = 1.0000000 2.7142116e-05
  Iterations, force evaluations = 201 402

MPI task timing breakdown:
Section |  min time  |  avg time  |  max time  |%varavg| %total
---------------------------------------------------------------
Pair    | 0.59973    | 1.6955     | 2.2369     |  35.3 | 71.46
Neigh   | 0          | 0          | 0          |   0.0 |  0.00
Comm    | 0.036186   | 0.38702    | 1.1369     |  51.0 | 16.31
Output  | 0          | 0          | 0          |   0.0 |  0.00
Modify  | 2.4681e-05 | 0.0033318  | 0.0071028  |   2.7 |  0.14
Other   |            | 0.2868     |            |       | 12.09

Nlocal:        2776.45 ave        3944 max           0 min
Histogram: 8 4 4 0 4 12 8 0 28 36
Nghost:        3878.80 ave        5428 max         232 min
Histogram: 8 0 8 0 16 0 8 8 16 40
Neighs:        79213.4 ave      114986 max           0 min
Histogram: 8 4 4 0 10 6 8 8 24 32

Total # of neighbors = 8238189
Ave neighs/atom = 28.530426
Neighbor list builds = 0
Dangerous builds = 0
The dot product: 6.48874038535857e-09
Setting atom values ...
  1 settings made for x
  1 settings made for y
  1 settings made for z
Setting up cg style minimization ...
  Unit style    : metal
  Current step  : 7382
Per MPI rank memory allocation (min/avg/max) = 5.441 | 5.816 | 6.074 Mbytes
Step PotEng KinEng TotEng v_fx v_fy v_fz 
    7382   -1152449.3            0   -1152449.3  0.038839367  0.020558012  -0.03288963 
    7571   -1152449.3            0   -1152449.3 -1.7600688e-05 -2.7108675e-06 1.0934698e-05 
Loop time of 2.22069 on 104 procs for 189 steps with 288751 atoms

99.9% CPU use with 104 MPI tasks x 1 OpenMP threads

Minimization stats:
  Stopping criterion = energy tolerance
  Energy initial, next-to-last, final = 
     -1152449.26241957  -1152449.26346911  -1152449.26346911
  Force two-norm initial, final = 0.14603021 0.00012049311
  Force max component initial, final = 0.049283081 1.7600688e-05
  Final line search alpha, max atom move = 1.0000000 1.7600688e-05
  Iterations, force evaluations = 189 378

MPI task timing breakdown:
Section |  min time  |  avg time  |  max time  |%varavg| %total
---------------------------------------------------------------
Pair    | 0.56724    | 1.587      | 2.0829     |  34.0 | 71.46
Neigh   | 0          | 0          | 0          |   0.0 |  0.00
Comm    | 0.034465   | 0.36054    | 1.0679     |  49.4 | 16.24
Output  | 0          | 0          | 0          |   0.0 |  0.00
Modify  | 2.2675e-05 | 0.003138   | 0.0066641  |   2.6 |  0.14
Other   |            | 0.27       |            |       | 12.16

Nlocal:        2776.45 ave        3945 max           0 min
Histogram: 8 4 4 0 4 12 8 0 28 36
Nghost:        3878.84 ave        5428 max         232 min
Histogram: 8 0 8 0 16 0 8 8 16 40
Neighs:        79213.4 ave      115016 max           0 min
Histogram: 8 4 4 0 10 6 8 8 24 32

Total # of neighbors = 8238189
Ave neighs/atom = 28.530426
Neighbor list builds = 0
Dangerous builds = 0
The dot product: -6.35188090058304e-08
Setting atom values ...
  1 settings made for x
  1 settings made for y
  1 settings made for z
Setting up cg style minimization ...
  Unit style    : metal
  Current step  : 7571
Per MPI rank memory allocation (min/avg/max) = 5.441 | 5.816 | 6.074 Mbytes
Step PotEng KinEng TotEng v_fx v_fy v_fz 
    7571   -1152449.2            0   -1152449.2  0.037309503  0.022174444 -0.033327463 
    7765   -1152449.2            0   -1152449.2 -2.6114916e-05 -8.8697058e-07 1.4483855e-05 
Loop time of 2.2996 on 104 procs for 194 steps with 288751 atoms

99.9% CPU use with 104 MPI tasks x 1 OpenMP threads

Minimization stats:
  Stopping criterion = energy tolerance
  Energy initial, next-to-last, final = 
     -1152449.24597365  -1152449.24701006  -1152449.24701006
  Force two-norm initial, final = 0.14567415 0.00011199067
  Force max component initial, final = 0.048856396 2.6114916e-05
  Final line search alpha, max atom move = 1.0000000 2.6114916e-05
  Iterations, force evaluations = 194 388

MPI task timing breakdown:
Section |  min time  |  avg time  |  max time  |%varavg| %total
---------------------------------------------------------------
Pair    | 0.58102    | 1.6438     | 2.1459     |  34.6 | 71.48
Neigh   | 0          | 0          | 0          |   0.0 |  0.00
Comm    | 0.034863   | 0.37531    | 1.1022     |  50.8 | 16.32
Output  | 0          | 0          | 0          |   0.0 |  0.00
Modify  | 2.4279e-05 | 0.0032222  | 0.0068785  |   2.7 |  0.14
Other   |            | 0.2773     |            |       | 12.06

Nlocal:        2776.45 ave        3945 max           0 min
Histogram: 8 4 4 0 4 12 8 0 28 36
Nghost:        3878.86 ave        5428 max         232 min
Histogram: 8 0 8 0 16 0 8 8 16 40
Neighs:        79213.3 ave      115018 max           0 min
Histogram: 8 4 4 0 10 6 8 8 24 32

Total # of neighbors = 8238188
Ave neighs/atom = 28.530422
Neighbor list builds = 0
Dangerous builds = 0
The dot product: -8.66101946133726e-08
Setting atom values ...
  1 settings made for x
  1 settings made for y
  1 settings made for z
Setting up cg style minimization ...
  Unit style    : metal
  Current step  : 7765
Per MPI rank memory allocation (min/avg/max) = 5.441 | 5.816 | 6.074 Mbytes
Step PotEng KinEng TotEng v_fx v_fy v_fz 
    7765   -1152449.2            0   -1152449.2  0.036231981  0.024366237 -0.034349479 
    7938   -1152449.2            0   -1152449.2 -2.9948827e-05 6.4196867e-05 -2.2868546e-05 
Loop time of 2.02995 on 104 procs for 173 steps with 288751 atoms

99.9% CPU use with 104 MPI tasks x 1 OpenMP threads

Minimization stats:
  Stopping criterion = energy tolerance
  Energy initial, next-to-last, final = 
     -1152449.22791945  -1152449.22894115  -1152449.22894115
  Force two-norm initial, final = 0.14572689 0.00022909002
  Force max component initial, final = 0.049148795 7.3339708e-05
  Final line search alpha, max atom move = 1.0000000 7.3339708e-05
  Iterations, force evaluations = 173 346

MPI task timing breakdown:
Section |  min time  |  avg time  |  max time  |%varavg| %total
---------------------------------------------------------------
Pair    | 0.51679    | 1.4532     | 1.9107     |  32.6 | 71.59
Neigh   | 0          | 0          | 0          |   0.0 |  0.00
Comm    | 0.031865   | 0.33074    | 0.98097    |  47.4 | 16.29
Output  | 0          | 0          | 0          |   0.0 |  0.00
Modify  | 2.0793e-05 | 0.0028644  | 0.0060921  |   2.5 |  0.14
Other   |            | 0.2431     |            |       | 11.98

Nlocal:        2776.45 ave        3945 max           0 min
Histogram: 8 4 4 0 4 12 8 0 28 36
Nghost:        3878.84 ave        5428 max         232 min
Histogram: 8 0 8 0 16 0 8 8 16 40
Neighs:        79213.4 ave      115014 max           0 min
Histogram: 8 4 4 0 10 6 8 8 24 32

Total # of neighbors = 8238189
Ave neighs/atom = 28.530426
Neighbor list builds = 0
Dangerous builds = 0
The dot product: 5.70460092575488e-08
Setting atom values ...
  1 settings made for x
  1 settings made for y
  1 settings made for z
Setting up cg style minimization ...
  Unit style    : metal
  Current step  : 7938
Per MPI rank memory allocation (min/avg/max) = 5.441 | 5.816 | 6.074 Mbytes
Step PotEng KinEng TotEng v_fx v_fy v_fz 
    7938   -1152449.2            0   -1152449.2  0.035903174  0.027394596 -0.036303517 
    8000   -1152449.2            0   -1152449.2 3.6960081e-05 -6.8600641e-06 -1.5928026e-05 
    8095   -1152449.2            0   -1152449.2 -3.688199e-05 6.5953326e-05 -2.025731e-05 
Loop time of 1.85295 on 104 procs for 157 steps with 288751 atoms

99.9% CPU use with 104 MPI tasks x 1 OpenMP threads

Minimization stats:
  Stopping criterion = energy tolerance
  Energy initial, next-to-last, final = 
     -1152449.20827031   -1152449.2092774   -1152449.2092774
  Force two-norm initial, final = 0.14643843 0.00029929518
  Force max component initial, final = 0.051214957 6.5953326e-05
  Final line search alpha, max atom move = 1.0000000 6.5953326e-05
  Iterations, force evaluations = 157 314

MPI task timing breakdown:
Section |  min time  |  avg time  |  max time  |%varavg| %total
---------------------------------------------------------------
Pair    | 0.46944    | 1.3257     | 1.7394     |  31.2 | 71.54
Neigh   | 0          | 0          | 0          |   0.0 |  0.00
Comm    | 0.030246   | 0.3028     | 0.89579    |  45.1 | 16.34
Output  | 0.00015018 | 0.00015897 | 0.00028751 |   0.0 |  0.01
Modify  | 1.9158e-05 | 0.0026082  | 0.005553   |   2.4 |  0.14
Other   |            | 0.2217     |            |       | 11.97

Nlocal:        2776.45 ave        3945 max           0 min
Histogram: 8 4 4 0 4 12 8 0 28 36
Nghost:        3878.82 ave        5428 max         232 min
Histogram: 8 0 8 0 16 0 8 8 16 40
Neighs:        79213.4 ave      115019 max           0 min
Histogram: 8 4 4 0 10 6 8 8 24 32

Total # of neighbors = 8238190
Ave neighs/atom = 28.530429
Neighbor list builds = 0
Dangerous builds = 0
The dot product: 6.0596959381781e-08
Setting atom values ...
  1 settings made for x
  1 settings made for y
  1 settings made for z
Setting up cg style minimization ...
  Unit style    : metal
  Current step  : 8095
Per MPI rank memory allocation (min/avg/max) = 5.441 | 5.816 | 6.074 Mbytes
Step PotEng KinEng TotEng v_fx v_fy v_fz 
    8095   -1152449.2            0   -1152449.2  0.036764084  0.031364942 -0.039541717 
    8276   -1152449.2            0   -1152449.2 -1.0930765e-05 3.5424095e-05 -1.5813193e-05 
Loop time of 2.11366 on 104 procs for 181 steps with 288751 atoms

99.9% CPU use with 104 MPI tasks x 1 OpenMP threads

Minimization stats:
  Stopping criterion = energy tolerance
  Energy initial, next-to-last, final = 
     -1152449.18707386  -1152449.18807124  -1152449.18807124
  Force two-norm initial, final = 0.1480891 0.0001635874
  Force max component initial, final = 0.054415402 3.5424095e-05
  Final line search alpha, max atom move = 1.0000000 3.5424095e-05
  Iterations, force evaluations = 181 362

MPI task timing breakdown:
Section |  min time  |  avg time  |  max time  |%varavg| %total
---------------------------------------------------------------
Pair    | 0.54288    | 1.5192     | 1.9932     |  33.4 | 71.88
Neigh   | 0          | 0          | 0          |   0.0 |  0.00
Comm    | 0.032748   | 0.3439     | 1.0238     |  48.6 | 16.27
Output  | 0          | 0          | 0          |   0.0 |  0.00
Modify  | 2.2016e-05 | 0.003001   | 0.0063729  |   2.6 |  0.14
Other   |            | 0.2475     |            |       | 11.71

Nlocal:        2776.45 ave        3945 max           0 min
Histogram: 8 4 4 0 4 12 8 0 26 38
Nghost:        3878.76 ave        5428 max         232 min
Histogram: 8 0 8 0 16 0 8 8 16 40
Neighs:        79213.4 ave      115020 max           0 min
Histogram: 8 4 4 0 10 6 8 8 24 32

Total # of neighbors = 8238194
Ave neighs/atom = 28.530443
Neighbor list builds = 0
Dangerous builds = 0
The dot product: 8.86454290728447e-08
Setting atom values ...
  1 settings made for x
  1 settings made for y
  1 settings made for z
Setting up cg style minimization ...
  Unit style    : metal
  Current step  : 8276
Per MPI rank memory allocation (min/avg/max) = 5.441 | 5.816 | 6.074 Mbytes
Step PotEng KinEng TotEng v_fx v_fy v_fz 
    8276   -1152449.2            0   -1152449.2  0.039717971  0.036796636 -0.044976374 
    8430   -1152449.2            0   -1152449.2 1.7512051e-05 -8.2181705e-05 4.1360484e-05 
Loop time of 1.81995 on 104 procs for 154 steps with 288751 atoms

99.9% CPU use with 104 MPI tasks x 1 OpenMP threads

Minimization stats:
  Stopping criterion = energy tolerance
  Energy initial, next-to-last, final = 
     -1152449.16444482  -1152449.16546916  -1152449.16546916
  Force two-norm initial, final = 0.151763 0.00028079989
  Force max component initial, final = 0.057629883 0.00010235919
  Final line search alpha, max atom move = 1.0000000 0.00010235919
  Iterations, force evaluations = 154 308

MPI task timing breakdown:
Section |  min time  |  avg time  |  max time  |%varavg| %total
---------------------------------------------------------------
Pair    | 0.46048    | 1.3007     | 1.7073     |  30.9 | 71.47
Neigh   | 0          | 0          | 0          |   0.0 |  0.00
Comm    | 0.028799   | 0.29547    | 0.86918    |  44.6 | 16.23
Output  | 0          | 0          | 0          |   0.0 |  0.00
Modify  | 1.8971e-05 | 0.0025572  | 0.0054795  |   2.4 |  0.14
Other   |            | 0.2212     |            |       | 12.15

Nlocal:        2776.45 ave        3945 max           0 min
Histogram: 8 4 4 0 4 12 8 0 26 38
Nghost:        3878.70 ave        5427 max         232 min
Histogram: 8 0 8 0 16 0 8 8 16 40
Neighs:        79213.4 ave      115015 max           0 min
Histogram: 8 4 4 0 10 6 8 8 24 32

Total # of neighbors = 8238193
Ave neighs/atom = 28.530440
Neighbor list builds = 0
Dangerous builds = 0
The dot product: -3.8963721160064e-07
Setting atom values ...
  1 settings made for x
  1 settings made for y
  1 settings made for z
Setting up cg style minimization ...
  Unit style    : metal
  Current step  : 8430
Per MPI rank memory allocation (min/avg/max) = 5.441 | 5.816 | 6.074 Mbytes
Step PotEng KinEng TotEng v_fx v_fy v_fz 
    8430   -1152449.1            0   -1152449.1  0.047108324  0.047487651 -0.056619366 
[...]
Nghost:        3879.12 ave        5425 max         232 min
Histogram: 8 0 8 0 16 0 8 8 16 40
Neighs:        79213.3 ave      115210 max           0 min
Histogram: 8 4 4 0 10 6 8 8 24 32

Total # of neighbors = 8238186
Ave neighs/atom = 28.530415
Neighbor list builds = 0
Dangerous builds = 0
The dot product: 9.03044786582359e-08
Setting atom values ...
  1 settings made for x
  1 settings made for y
  1 settings made for z
Setting up cg style minimization ...
  Unit style    : metal
  Current step  : 6466
Per MPI rank memory allocation (min/avg/max) = 5.441 | 5.816 | 6.074 Mbytes
Step PotEng KinEng TotEng v_fx v_fy v_fz 
    6466   -1152448.6            0   -1152448.6  0.021018295 -0.086362467 -0.0010475214 
    6614   -1152448.6            0   -1152448.6 1.0220114e-05 -1.4146546e-05 -8.5713758e-07 
Loop time of 1.72027 on 104 procs for 148 steps with 288751 atoms

99.9% CPU use with 104 MPI tasks x 1 OpenMP threads

Minimization stats:
  Stopping criterion = energy tolerance
  Energy initial, next-to-last, final = 
     -1152448.56907459  -1152448.57069818  -1152448.57069818
  Force two-norm initial, final = 0.20320897 0.00019586831
  Force max component initial, final = 0.086957543 1.8463033e-05
  Final line search alpha, max atom move = 1.0000000 1.8463033e-05
  Iterations, force evaluations = 148 296

MPI task timing breakdown:
Section |  min time  |  avg time  |  max time  |%varavg| %total
---------------------------------------------------------------
Pair    | 0.44613    | 1.2466     | 1.622      |  30.4 | 72.47
Neigh   | 0          | 0          | 0          |   0.0 |  0.00
Comm    | 0.025725   | 0.28344    | 0.84865    |  44.1 | 16.48
Output  | 0          | 0          | 0          |   0.0 |  0.00
Modify  | 1.8169e-05 | 0.0024483  | 0.0052401  |   2.3 |  0.14
Other   |            | 0.1877     |            |       | 10.91

Nlocal:        2776.45 ave        3954 max           0 min
Histogram: 8 4 4 0 4 12 8 0 30 34
Nghost:        3879.16 ave        5425 max         232 min
Histogram: 8 0 8 0 16 0 8 8 16 40
Neighs:        79213.4 ave      115210 max           0 min
Histogram: 8 4 4 0 10 6 8 8 24 32

Total # of neighbors = 8238191
Ave neighs/atom = 28.530433
Neighbor list builds = 0
Dangerous builds = 0
The dot product: 1.39442972355093e-07
Setting atom values ...
  1 settings made for x
  1 settings made for y
  1 settings made for z
Setting up cg style minimization ...
  Unit style    : metal
  Current step  : 6614
Per MPI rank memory allocation (min/avg/max) = 5.441 | 5.816 | 6.074 Mbytes
Step PotEng KinEng TotEng v_fx v_fy v_fz 
    6614   -1152448.5            0   -1152448.5 0.0099092154 -0.087838808 0.0012079612 
    6922   -1152448.6            0   -1152448.6 1.5400075e-06 -4.0771349e-06 -4.9498794e-08 
Loop time of 3.59323 on 104 procs for 308 steps with 288751 atoms

99.9% CPU use with 104 MPI tasks x 1 OpenMP threads

Minimization stats:
  Stopping criterion = energy tolerance
  Energy initial, next-to-last, final = 
     -1152448.53663171  -1152448.61594263  -1152448.61594263
  Force two-norm initial, final = 0.20201345 3.4409505e-05
  Force max component initial, final = 0.088762459 4.0771349e-06
  Final line search alpha, max atom move = 1.0000000 4.0771349e-06
  Iterations, force evaluations = 308 616

MPI task timing breakdown:
Section |  min time  |  avg time  |  max time  |%varavg| %total
---------------------------------------------------------------
Pair    | 0.93486    | 2.5847     | 3.3709     |  43.3 | 71.93
Neigh   | 2.0429e-05 | 0.0058737  | 0.0085635  |   3.2 |  0.16
Comm    | 0.054373   | 0.58574    | 1.7614     |  63.6 | 16.30
Output  | 0          | 0          | 0          |   0.0 |  0.00
Modify  | 3.7673e-05 | 0.00509    | 0.010874   |   3.4 |  0.14
Other   |            | 0.4118     |            |       | 11.46

Nlocal:        2776.45 ave        3954 max           0 min
Histogram: 8 4 4 0 4 12 8 0 30 34
Nghost:        3879.09 ave        5425 max         232 min
Histogram: 8 0 8 0 16 0 8 8 16 40
Neighs:        79213.4 ave      115217 max           0 min
Histogram: 8 4 4 0 10 6 8 8 24 32

Total # of neighbors = 8238193
Ave neighs/atom = 28.530440
Neighbor list builds = 2
Dangerous builds = 0
The dot product: 3.92850677104497e-07
Setting atom values ...
  1 settings made for x
  1 settings made for y
  1 settings made for z
Setting up cg style minimization ...
  Unit style    : metal
  Current step  : 6922
Per MPI rank memory allocation (min/avg/max) = 5.441 | 5.816 | 6.074 Mbytes
Step PotEng KinEng TotEng v_fx v_fy v_fz 
    6922   -1152448.6            0   -1152448.6 -0.086810254  -0.14116816  0.087875161 
    7000   -1152448.7            0   -1152448.7  -0.10114422  -0.02901007  0.059029422 
    7303     -1152449            0     -1152449 -1.0083884e-05 -3.9686863e-06 6.2296274e-06 
Loop time of 4.49319 on 104 procs for 381 steps with 288751 atoms

99.9% CPU use with 104 MPI tasks x 1 OpenMP threads

Minimization stats:
  Stopping criterion = energy tolerance
  Energy initial, next-to-last, final = 
     -1152448.60916282  -1152448.99081674  -1152448.99081674
  Force two-norm initial, final = 0.23262309 5.0353449e-05
  Force max component initial, final = 0.14116816 1.5803167e-05
  Final line search alpha, max atom move = 1.0000000 1.5803167e-05
  Iterations, force evaluations = 381 763

MPI task timing breakdown:
Section |  min time  |  avg time  |  max time  |%varavg| %total
---------------------------------------------------------------
Pair    | 1.1745     | 3.2193     | 4.1877     |  48.2 | 71.65
Neigh   | 5.1156e-05 | 0.014725   | 0.021399   |   5.0 |  0.33
Comm    | 0.066981   | 0.73947    | 2.2251     |  70.4 | 16.46
Output  | 0.00015577 | 0.00016772 | 0.0003411  |   0.0 |  0.00
Modify  | 4.6232e-05 | 0.0063197  | 0.013401   |   3.7 |  0.14
Other   |            | 0.5132     |            |       | 11.42

Nlocal:        2776.45 ave        3945 max           0 min
Histogram: 8 4 4 0 4 12 8 2 26 36
Nghost:        3879.12 ave        5425 max         232 min
Histogram: 8 0 8 0 16 0 8 8 16 40
Neighs:        79213.5 ave      114976 max           0 min
Histogram: 8 4 4 0 10 6 8 8 23 33

Total # of neighbors = 8238207
Ave neighs/atom = 28.530488
Neighbor list builds = 5
Dangerous builds = 0
The dot product: 4.04217466611397e-06
Setting atom values ...
  1 settings made for x
  1 settings made for y
  1 settings made for z
Setting up cg style minimization ...
  Unit style    : metal
  Current step  : 7303
Per MPI rank memory allocation (min/avg/max) = 5.441 | 5.816 | 6.074 Mbytes
Step PotEng KinEng TotEng v_fx v_fy v_fz 
    7303     -1152449            0     -1152449   -0.2127503    0.5710149   -0.8250066 
    7623   -1152449.2            0   -1152449.2 -6.5711491e-06 6.1010711e-07 4.1456759e-06 
Loop time of 3.74081 on 104 procs for 320 steps with 288751 atoms

99.9% CPU use with 104 MPI tasks x 1 OpenMP threads

Minimization stats:
  Stopping criterion = energy tolerance
  Energy initial, next-to-last, final = 
     -1152449.01444562  -1152449.18168501  -1152449.18168501
  Force two-norm initial, final = 1.0370775 2.8071416e-05
  Force max component initial, final = 0.8250066 6.5711491e-06
  Final line search alpha, max atom move = 1.0000000 6.5711491e-06
  Iterations, force evaluations = 320 640

MPI task timing breakdown:
Section |  min time  |  avg time  |  max time  |%varavg| %total
---------------------------------------------------------------
Pair    | 0.97575    | 2.6848     | 3.518      |  44.1 | 71.77
Neigh   | 2.0072e-05 | 0.0058777  | 0.0085725  |   3.2 |  0.16
Comm    | 0.053947   | 0.60794    | 1.8176     |  64.4 | 16.25
Output  | 0          | 0          | 0          |   0.0 |  0.00
Modify  | 3.8666e-05 | 0.0052818  | 0.01121    |   3.4 |  0.14
Other   |            | 0.4369     |            |       | 11.68

Nlocal:        2776.45 ave        3961 max           0 min
Histogram: 8 4 4 0 6 10 8 2 28 34
Nghost:        3879.04 ave        5423 max         232 min
Histogram: 8 0 8 0 16 0 8 8 16 40
Neighs:        79213.5 ave      115484 max           0 min
Histogram: 8 4 4 0 10 6 8 8 24 32

Total # of neighbors = 8238206
Ave neighs/atom = 28.530485
Neighbor list builds = 2
Dangerous builds = 0
The dot product: -7.7733537071798e-08
Setting atom values ...
  1 settings made for x
  1 settings made for y
  1 settings made for z
Setting up cg style minimization ...
  Unit style    : metal
  Current step  : 7623
Per MPI rank memory allocation (min/avg/max) = 5.441 | 5.816 | 6.074 Mbytes
Step PotEng KinEng TotEng v_fx v_fy v_fz 
    7623   -1152449.2            0   -1152449.2   0.10806606  -0.36670297   0.24969115 
    7864   -1152449.2            0   -1152449.2 1.2188355e-05 -3.9017325e-06 -5.0331972e-06 
Loop time of 2.82431 on 104 procs for 241 steps with 288751 atoms

99.9% CPU use with 104 MPI tasks x 1 OpenMP threads

Minimization stats:
  Stopping criterion = energy tolerance
  Energy initial, next-to-last, final = 
     -1152449.20559354  -1152449.23278619  -1152449.23278619
  Force two-norm initial, final = 0.48674231 7.9271581e-05
  Force max component initial, final = 0.36670297 1.4919166e-05
  Final line search alpha, max atom move = 1.0000000 1.4919166e-05
  Iterations, force evaluations = 241 482

MPI task timing breakdown:
Section |  min time  |  avg time  |  max time  |%varavg| %total
---------------------------------------------------------------
Pair    | 0.73304    | 2.033      | 2.6532     |  38.6 | 71.98
Neigh   | 1.0136e-05 | 0.0028946  | 0.004358   |   2.2 |  0.10
Comm    | 0.041943   | 0.46427    | 1.3927     |  56.1 | 16.44
Output  | 0          | 0          | 0          |   0.0 |  0.00
Modify  | 2.9298e-05 | 0.0039933  | 0.0084581  |   3.0 |  0.14
Other   |            | 0.3202     |            |       | 11.34

Nlocal:        2776.45 ave        3961 max           0 min
Histogram: 8 4 4 0 6 10 8 4 26 34
Nghost:        3879.14 ave        5425 max         232 min
Histogram: 8 0 8 0 16 0 8 8 16 40
Neighs:        79213.4 ave      115506 max           0 min
Histogram: 8 4 4 0 10 6 8 8 24 32

Total # of neighbors = 8238197
Ave neighs/atom = 28.530454
Neighbor list builds = 1
Dangerous builds = 0
The dot product: 5.75844766315889e-07
Setting atom values ...
  1 settings made for x
  1 settings made for y
  1 settings made for z
Setting up cg style minimization ...
  Unit style    : metal
  Current step  : 7864
Per MPI rank memory allocation (min/avg/max) = 5.441 | 5.816 | 6.074 Mbytes
Step PotEng KinEng TotEng v_fx v_fy v_fz 
    7864   -1152449.3            0   -1152449.3 -0.040990008  0.074304895 -0.054164275 
    8000   -1152449.3            0   -1152449.3 2.0139492e-05 0.00011496148 -0.00014221804 
    8112   -1152449.3            0   -1152449.3 5.8222133e-06 2.376859e-06 -6.7197502e-06 
Loop time of 2.89269 on 104 procs for 248 steps with 288751 atoms

99.9% CPU use with 104 MPI tasks x 1 OpenMP threads

Minimization stats:
  Stopping criterion = energy tolerance
  Energy initial, next-to-last, final = 
     -1152449.25416373  -1152449.25872371  -1152449.25872371
  Force two-norm initial, final = 0.18782118 2.4210943e-05
  Force max component initial, final = 0.088020919 6.8468933e-06
  Final line search alpha, max atom move = 1.0000000 6.8468933e-06
  Iterations, force evaluations = 248 496

MPI task timing breakdown:
Section |  min time  |  avg time  |  max time  |%varavg| %total
---------------------------------------------------------------
Pair    | 0.74982    | 2.0815     | 2.728      |  39.1 | 71.96
Neigh   | 0          | 0          | 0          |   0.0 |  0.00
Comm    | 0.043117   | 0.47029    | 1.4086     |  57.0 | 16.26
Output  | 0.00016742 | 0.00017166 | 0.00033995 |   0.0 |  0.01
Modify  | 3.0928e-05 | 0.004097   | 0.0087407  |   3.0 |  0.14
Other   |            | 0.3366     |            |       | 11.64

Nlocal:        2776.45 ave        3961 max           0 min
Histogram: 8 4 4 0 6 10 8 4 26 34
Nghost:        3879.18 ave        5425 max         232 min
Histogram: 8 0 8 0 16 0 8 8 16 40
Neighs:        79213.5 ave      115506 max           0 min
Histogram: 8 4 4 0 10 6 8 8 24 32

Total # of neighbors = 8238205
Ave neighs/atom = 28.530481
Neighbor list builds = 0
Dangerous builds = 0
The dot product: 1.18143923007259e-07
Setting atom values ...
  1 settings made for x
  1 settings made for y
  1 settings made for z
Setting up cg style minimization ...
  Unit style    : metal
  Current step  : 8112
Per MPI rank memory allocation (min/avg/max) = 5.441 | 5.816 | 6.074 Mbytes
Step PotEng KinEng TotEng v_fx v_fy v_fz 
    8112   -1152449.3            0   -1152449.3  0.026195298 -0.059669681  0.043241297 
    8303   -1152449.3            0   -1152449.3 1.1970424e-05 9.9933704e-06 -1.8747989e-05 
Loop time of 2.22768 on 104 procs for 191 steps with 288751 atoms

99.9% CPU use with 104 MPI tasks x 1 OpenMP threads

Minimization stats:
  Stopping criterion = energy tolerance
  Energy initial, next-to-last, final = 
     -1152449.27917637  -1152449.28078364  -1152449.28078364
  Force two-norm initial, final = 0.17908015 8.2785715e-05
  Force max component initial, final = 0.089193117 2.3656549e-05
  Final line search alpha, max atom move = 1.0000000 2.3656549e-05
  Iterations, force evaluations = 191 382

MPI task timing breakdown:
Section |  min time  |  avg time  |  max time  |%varavg| %total
---------------------------------------------------------------
Pair    | 0.5756     | 1.6087     | 2.095      |  34.5 | 72.22
Neigh   | 0          | 0          | 0          |   0.0 |  0.00
Comm    | 0.037876   | 0.36777    | 1.1238     |  50.2 | 16.51
Output  | 0          | 0          | 0          |   0.0 |  0.00
Modify  | 2.403e-05  | 0.0031687  | 0.0067041  |   2.6 |  0.14
Other   |            | 0.248      |            |       | 11.13

Nlocal:        2776.45 ave        3961 max           0 min
Histogram: 8 4 4 0 6 10 8 4 26 34
Nghost:        3879.14 ave        5425 max         232 min
Histogram: 8 0 8 0 16 0 8 8 16 40
Neighs:        79213.5 ave      115507 max           0 min
Histogram: 8 4 4 0 10 6 8 8 24 32

Total # of neighbors = 8238201
Ave neighs/atom = 28.530467
Neighbor list builds = 0
Dangerous builds = 0
The dot product: -1.07429598091303e-07
Setting atom values ...
  1 settings made for x
  1 settings made for y
  1 settings made for z
Setting up cg style minimization ...
  Unit style    : metal
  Current step  : 8303
Per MPI rank memory allocation (min/avg/max) = 5.441 | 5.816 | 6.074 Mbytes
Step PotEng KinEng TotEng v_fx v_fy v_fz 
    8303   -1152449.3            0   -1152449.3 0.0027844799 -0.019627888  0.018683942 
    8560   -1152449.3            0   -1152449.3 -6.0539672e-07 3.0014533e-07 1.0887369e-07 
Loop time of 3.01149 on 104 procs for 257 steps with 288751 atoms

99.9% CPU use with 104 MPI tasks x 1 OpenMP threads

Minimization stats:
  Stopping criterion = energy tolerance
  Energy initial, next-to-last, final = 
     -1152449.29978556   -1152449.3012286   -1152449.3012286
  Force two-norm initial, final = 0.16253754 4.9869995e-06
  Force max component initial, final = 0.089110096 6.0539672e-07
  Final line search alpha, max atom move = 1.0000000 6.0539672e-07
  Iterations, force evaluations = 257 514

MPI task timing breakdown:
Section |  min time  |  avg time  |  max time  |%varavg| %total
---------------------------------------------------------------
Pair    | 0.77808    | 2.1576     | 2.8238     |  39.7 | 71.64
Neigh   | 0          | 0          | 0          |   0.0 |  0.00
Comm    | 0.048458   | 0.48516    | 1.4501     |  58.1 | 16.11
Output  | 0          | 0          | 0          |   0.0 |  0.00
Modify  | 3.1605e-05 | 0.0042543  | 0.0089942  |   3.1 |  0.14
Other   |            | 0.3645     |            |       | 12.10

Nlocal:        2776.45 ave        3961 max           0 min
Histogram: 8 4 4 0 6 10 8 4 26 34
Nghost:        3879.14 ave        5425 max         232 min
Histogram: 8 0 8 0 16 0 8 8 16 40
Neighs:        79213.5 ave      115509 max           0 min
Histogram: 8 4 4 0 10 6 8 8 24 32

Total # of neighbors = 8238202
Ave neighs/atom = 28.530471
Neighbor list builds = 0
Dangerous builds = 0
The dot product: 2.26225982971836e-09
Setting atom values ...
  1 settings made for x
  1 settings made for y
  1 settings made for z
Setting up cg style minimization ...
  Unit style    : metal
  Current step  : 8560
Per MPI rank memory allocation (min/avg/max) = 5.441 | 5.816 | 6.074 Mbytes
Step PotEng KinEng TotEng v_fx v_fy v_fz 
    8560   -1152449.3            0   -1152449.3 0.0086379655 -0.031001259  0.026276374 
    8798   -1152449.3            0   -1152449.3 -2.6416245e-06 -5.6869855e-07 2.448275e-06 
Loop time of 2.77947 on 104 procs for 238 steps with 288751 atoms

99.9% CPU use with 104 MPI tasks x 1 OpenMP threads

Minimization stats:
  Stopping criterion = energy tolerance
  Energy initial, next-to-last, final = 
     -1152449.31889162  -1152449.32030164  -1152449.32030164
  Force two-norm initial, final = 0.16583125 1.1762565e-05
  Force max component initial, final = 0.089160858 3.2694981e-06
  Final line search alpha, max atom move = 1.0000000 3.2694981e-06
  Iterations, force evaluations = 238 476

MPI task timing breakdown:
Section |  min time  |  avg time  |  max time  |%varavg| %total
---------------------------------------------------------------
Pair    | 0.71795    | 2.0034     | 2.6053     |  38.5 | 72.08
Neigh   | 0          | 0          | 0          |   0.0 |  0.00
Comm    | 0.041956   | 0.45889    | 1.3673     |  55.4 | 16.51
Output  | 0          | 0          | 0          |   0.0 |  0.00
Modify  | 2.9811e-05 | 0.0039357  | 0.0083466  |   3.0 |  0.14
Other   |            | 0.3132     |            |       | 11.27

Nlocal:        2776.45 ave        3961 max           0 min
Histogram: 8 4 4 0 6 10 8 4 26 34
Nghost:        3879.11 ave        5424 max         232 min
Histogram: 8 0 8 0 16 0 8 8 16 40
Neighs:        79213.5 ave      115503 max           0 min
Histogram: 8 4 4 0 10 6 8 8 24 32

Total # of neighbors = 8238199
Ave neighs/atom = 28.530461
Neighbor list builds = 0
Dangerous builds = 0
The dot product: -4.90640694841209e-11
Setting up cg style minimization ...
  Unit style    : metal
  Current step  : 8798
Per MPI rank memory allocation (min/avg/max) = 5.441 | 5.816 | 6.074 Mbytes
Step PotEng KinEng TotEng v_fx v_fy v_fz 
    8798   -1152449.3            0   -1152449.3  -0.40221716  -0.59755549  -0.57277976 
    9000   -1152449.5            0   -1152449.5 6.7906347e-05 9.0267352e-06 -0.00035640205 
    9051   -1152449.5            0   -1152449.5 -1.5417488e-05 2.8892107e-07 4.2398152e-05 
Loop time of 2.99476 on 104 procs for 253 steps with 288751 atoms

99.9% CPU use with 104 MPI tasks x 1 OpenMP threads

Minimization stats:
  Stopping criterion = energy tolerance
  Energy initial, next-to-last, final = 
     -1152449.32030164  -1152449.45035285  -1152449.45035285
  Force two-norm initial, final = 0.92028683 0.0001421499
  Force max component initial, final = 0.59755549 4.2398152e-05
  Final line search alpha, max atom move = 1.0000000 4.2398152e-05
  Iterations, force evaluations = 253 506

MPI task timing breakdown:
Section |  min time  |  avg time  |  max time  |%varavg| %total
---------------------------------------------------------------
Pair    | 0.77474    | 2.1306     | 2.7866     |  39.3 | 71.14
Neigh   | 3.2139e-05 | 0.0087957  | 0.012856   |   3.9 |  0.29
Comm    | 0.049292   | 0.48807    | 1.456      |  57.0 | 16.30
Output  | 0.00023073 | 0.00024402 | 0.00048306 |   0.0 |  0.01
Modify  | 2.9503e-05 | 0.0027344  | 0.0069952  |   3.3 |  0.09
Other   |            | 0.3643     |            |       | 12.17

Nlocal:        2776.45 ave        3959 max           0 min
Histogram: 8 4 4 0 4 12 8 4 26 34
Nghost:        3879.09 ave        5424 max         232 min
Histogram: 8 0 8 0 16 0 8 8 16 40
Neighs:        79213.5 ave      115416 max           0 min
Histogram: 8 4 4 0 10 6 8 8 24 32

Total # of neighbors = 8238204
Ave neighs/atom = 28.530478
Neighbor list builds = 3
Dangerous builds = 1
