LAMMPS (29 Oct 2020)
OMP_NUM_THREADS environment is not set. Defaulting to 1 thread. (../comm.cpp:94)
  using 1 OpenMP thread(s) per MPI task
OMP_NUM_THREADS environment is not set. Defaulting to 1 thread. (../comm.cpp:94)
  using 1 OpenMP thread(s) per MPI task
Reading data file ...
  orthogonal box = (-122.39241 -121.13707 -37.090501) to (122.39241 121.13707 37.090501)
  13 by 4 by 2 MPI processor grid
  reading atoms ...
  288751 atoms
  read_data CPU = 0.465 seconds
199981 atoms in group inner
88770 atoms in group outer
1 atoms in group carbon
Neighbor list info ...
  update every 1 steps, delay 0 steps, check yes
  max neighbors/atom: 2000, page size: 100000
  master list distance cutoff = 5.6
  ghost atom cutoff = 5.6
  binsize = 2.8, bins = 88 87 27
  1 neighbor lists, perpetual/occasional/extra = 1 0 0
  (1) pair eam/alloy, perpetual
      attributes: half, newton on
      pair build: half/bin/atomonly/newton
      stencil: half/bin/3d/newton
      bin: standard
Setting up cg style minimization ...
  Unit style    : metal
  Current step  : 0
Per MPI rank memory allocation (min/avg/max) = 5.441 | 5.816 | 6.074 Mbytes
Step v_fx v_fy v_fz PotEng KinEng TotEng 
       0   -13.789028   -22.660205   -7.8797262   -1152441.8            0   -1152441.8 
     251 1.488214e-05 1.8139669e-05 2.3958733e-05     -1152449            0     -1152449 
Loop time of 3.03919 on 104 procs for 251 steps with 288751 atoms

99.8% CPU use with 104 MPI tasks x 1 OpenMP threads

Minimization stats:
  Stopping criterion = energy tolerance
  Energy initial, next-to-last, final = 
     -1152441.78120453  -1152448.97218773  -1152448.97218773
  Force two-norm initial, final = 45.337050 9.4402961e-05
  Force max component initial, final = 29.545624 2.3958733e-05
  Final line search alpha, max atom move = 1.0000000 2.3958733e-05
  Iterations, force evaluations = 251 498

MPI task timing breakdown:
Section |  min time  |  avg time  |  max time  |%varavg| %total
---------------------------------------------------------------
Pair    | 0.80421    | 2.1254     | 2.7624     |  38.5 | 69.93
Neigh   | 0.00010397 | 0.028344   | 0.042816   |   7.0 |  0.93
Comm    | 0.046698   | 0.50473    | 1.4701     |  55.5 | 16.61
Output  | 0          | 0          | 0          |   0.0 |  0.00
Modify  | 2.7253e-05 | 0.0027192  | 0.0070537  |   3.3 |  0.09
Other   |            | 0.378      |            |       | 12.44

Nlocal:        2776.45 ave        3950 max           0 min
Histogram: 8 4 4 0 4 12 8 0 28 36
Nghost:        3879.07 ave        5424 max         232 min
Histogram: 8 0 8 0 16 0 8 8 16 40
Neighs:        79213.6 ave      115105 max           0 min
Histogram: 8 4 4 0 10 6 8 8 24 32

Total # of neighbors = 8238216
Ave neighs/atom = 28.530519
Neighbor list builds = 9
Dangerous builds = 0
Setting atom values ...
  1 settings made for x
  1 settings made for y
  1 settings made for z
Setting up cg style minimization ...
  Unit style    : metal
  Current step  : 251
Per MPI rank memory allocation (min/avg/max) = 5.441 | 5.816 | 6.074 Mbytes
Step PotEng KinEng TotEng v_fx v_fy v_fz 
     251     -1152449            0     -1152449 -0.0044155294  0.012440484  0.028710104 
     481     -1152449            0     -1152449 5.7078985e-08 1.0632369e-07 4.8178189e-07 
Loop time of 2.7475 on 104 procs for 230 steps with 288751 atoms

99.9% CPU use with 104 MPI tasks x 1 OpenMP threads

Minimization stats:
  Stopping criterion = energy tolerance
  Energy initial, next-to-last, final = 
     -1152448.97139434  -1152448.97198519  -1152448.97198519
  Force two-norm initial, final = 0.10908996 1.8096157e-05
  Force max component initial, final = 0.041036365 8.3062929e-07
  Final line search alpha, max atom move = 1.0000000 8.3062929e-07
  Iterations, force evaluations = 230 460

MPI task timing breakdown:
Section |  min time  |  avg time  |  max time  |%varavg| %total
---------------------------------------------------------------
Pair    | 0.6981     | 1.9444     | 2.5445     |  37.7 | 70.77
Neigh   | 0          | 0          | 0          |   0.0 |  0.00
Comm    | 0.047126   | 0.45175    | 1.3435     |  54.8 | 16.44
Output  | 0          | 0          | 0          |   0.0 |  0.00
Modify  | 2.8223e-05 | 0.0038116  | 0.0081108  |   2.9 |  0.14
Other   |            | 0.3476     |            |       | 12.65

Nlocal:        2776.45 ave        3949 max           0 min
Histogram: 8 4 4 0 4 12 8 0 28 36
Nghost:        3879.22 ave        5423 max         232 min
Histogram: 8 0 8 0 16 0 8 8 16 40
Neighs:        79213.5 ave      115079 max           0 min
Histogram: 8 4 4 0 10 6 8 8 24 32

Total # of neighbors = 8238206
Ave neighs/atom = 28.530485
Neighbor list builds = 0
Dangerous builds = 0
Setting atom values ...
  1 settings made for x
  1 settings made for y
  1 settings made for z
Setting up cg style minimization ...
  Unit style    : metal
  Current step  : 481
Per MPI rank memory allocation (min/avg/max) = 5.441 | 5.816 | 6.074 Mbytes
Step PotEng KinEng TotEng v_fx v_fy v_fz 
     481     -1152449            0     -1152449 -0.0073244236    0.0257076  0.026087509 
     748     -1152449            0     -1152449 -8.6321838e-07 -1.1261924e-06 -2.4163365e-06 
Loop time of 3.12918 on 104 procs for 267 steps with 288751 atoms

99.9% CPU use with 104 MPI tasks x 1 OpenMP threads

Minimization stats:
  Stopping criterion = energy tolerance
  Energy initial, next-to-last, final = 
     -1152448.96938279  -1152448.97101889  -1152448.97101889
  Force two-norm initial, final = 0.16302641 1.2389519e-05
  Force max component initial, final = 0.081186388 2.4269344e-06
  Final line search alpha, max atom move = 1.0000000 2.4269344e-06
  Iterations, force evaluations = 267 534

MPI task timing breakdown:
Section |  min time  |  avg time  |  max time  |%varavg| %total
---------------------------------------------------------------
Pair    | 0.81259    | 2.2451     | 2.9161     |  40.4 | 71.75
Neigh   | 0          | 0          | 0          |   0.0 |  0.00
Comm    | 0.050732   | 0.51245    | 1.549      |  59.2 | 16.38
Output  | 0          | 0          | 0          |   0.0 |  0.00
Modify  | 3.0942e-05 | 0.0044259  | 0.0094598  |   3.1 |  0.14
Other   |            | 0.3672     |            |       | 11.73

Nlocal:        2776.45 ave        3949 max           0 min
Histogram: 8 4 4 0 4 12 8 0 28 36
Nghost:        3879.20 ave        5423 max         232 min
Histogram: 8 0 8 0 16 0 8 8 16 40
Neighs:        79213.5 ave      115078 max           0 min
Histogram: 8 4 4 0 10 6 8 8 24 32

Total # of neighbors = 8238203
Ave neighs/atom = 28.530474
Neighbor list builds = 0
Dangerous builds = 0
The dot product: -2.64911451475787e-08
Setting atom values ...
  1 settings made for x
  1 settings made for y
  1 settings made for z
Setting up cg style minimization ...
  Unit style    : metal
  Current step  : 748
Per MPI rank memory allocation (min/avg/max) = 5.441 | 5.816 | 6.074 Mbytes
Step PotEng KinEng TotEng v_fx v_fy v_fz 
     748     -1152449            0     -1152449   -0.0109532  0.011611679  0.002404336 
     960     -1152449            0     -1152449 7.4140624e-06 1.0962697e-05 1.2494302e-05 
Loop time of 2.50643 on 104 procs for 212 steps with 288751 atoms

99.9% CPU use with 104 MPI tasks x 1 OpenMP threads

Minimization stats:
  Stopping criterion = energy tolerance
  Energy initial, next-to-last, final = 
     -1152448.96769633  -1152448.97007214  -1152448.97007214
  Force two-norm initial, final = 0.15648882 9.9389636e-05
  Force max component initial, final = 0.088413607 1.2853215e-05
  Final line search alpha, max atom move = 1.0000000 1.2853215e-05
  Iterations, force evaluations = 212 424

MPI task timing breakdown:
Section |  min time  |  avg time  |  max time  |%varavg| %total
---------------------------------------------------------------
Pair    | 0.63913    | 1.7951     | 2.3203     |  36.2 | 71.62
Neigh   | 0          | 0          | 0          |   0.0 |  0.00
Comm    | 0.045141   | 0.40993    | 1.2405     |  53.0 | 16.36
Output  | 0          | 0          | 0          |   0.0 |  0.00
Modify  | 2.4758e-05 | 0.0035025  | 0.0074547  |   2.8 |  0.14
Other   |            | 0.2979     |            |       | 11.88

Nlocal:        2776.45 ave        3947 max           0 min
Histogram: 8 4 4 0 4 12 8 0 28 36
Nghost:        3879.20 ave        5423 max         232 min
Histogram: 8 0 8 0 16 0 8 8 16 40
Neighs:        79213.5 ave      115004 max           0 min
Histogram: 8 4 4 0 10 6 8 8 24 32

Total # of neighbors = 8238200
Ave neighs/atom = 28.530464
Neighbor list builds = 0
Dangerous builds = 0
The dot product: 2.90349090320725e-07
Setting atom values ...
  1 settings made for x
  1 settings made for y
  1 settings made for z
Setting up cg style minimization ...
  Unit style    : metal
  Current step  : 960
Per MPI rank memory allocation (min/avg/max) = 5.441 | 5.816 | 6.074 Mbytes
Step PotEng KinEng TotEng v_fx v_fy v_fz 
     960     -1152449            0     -1152449 -0.018336199 -0.015025602 -0.011034485 
    1000     -1152449            0     -1152449 0.00087245751 0.0013422323 0.00081545187 
    1171     -1152449            0     -1152449 1.109676e-05 2.0760833e-05 1.2079606e-05 
Loop time of 2.46463 on 104 procs for 211 steps with 288751 atoms

99.9% CPU use with 104 MPI tasks x 1 OpenMP threads

Minimization stats:
  Stopping criterion = energy tolerance
  Energy initial, next-to-last, final = 
      -1152448.9667289  -1152448.96890384  -1152448.96890384
  Force two-norm initial, final = 0.16877509 0.00012352952
  Force max component initial, final = 0.089069509 2.3163466e-05
  Final line search alpha, max atom move = 1.0000000 2.3163466e-05
  Iterations, force evaluations = 211 422

MPI task timing breakdown:
Section |  min time  |  avg time  |  max time  |%varavg| %total
---------------------------------------------------------------
Pair    | 0.63862    | 1.7703     | 2.2971     |  35.9 | 71.83
Neigh   | 0          | 0          | 0          |   0.0 |  0.00
Comm    | 0.040545   | 0.40253    | 1.2147     |  53.1 | 16.33
Output  | 0.00026651 | 0.00027509 | 0.00037422 |   0.0 |  0.01
Modify  | 2.5516e-05 | 0.0034892  | 0.0074525  |   2.8 |  0.14
Other   |            | 0.288      |            |       | 11.69

Nlocal:        2776.45 ave        3946 max           0 min
Histogram: 8 4 4 0 4 12 8 0 28 36
Nghost:        3879.18 ave        5423 max         232 min
Histogram: 8 0 8 0 16 0 8 8 16 40
Neighs:        79213.5 ave      114951 max           0 min
Histogram: 8 4 4 0 10 6 8 8 24 32

Total # of neighbors = 8238209
Ave neighs/atom = 28.530495
Neighbor list builds = 0
Dangerous builds = 0
The dot product: 2.39476935534829e-07
Setting atom values ...
  1 settings made for x
  1 settings made for y
  1 settings made for z
Setting up cg style minimization ...
  Unit style    : metal
  Current step  : 1171
Per MPI rank memory allocation (min/avg/max) = 5.441 | 5.816 | 6.074 Mbytes
Step PotEng KinEng TotEng v_fx v_fy v_fz 
    1171     -1152449            0     -1152449 -0.022716978 -0.027825595 -0.012664111 
    1514   -1152449.2            0   -1152449.2 2.0401775e-05 2.3774423e-05 1.0936731e-05 
Loop time of 4.04136 on 104 procs for 343 steps with 288751 atoms

99.9% CPU use with 104 MPI tasks x 1 OpenMP threads

Minimization stats:
  Stopping criterion = energy tolerance
  Energy initial, next-to-last, final = 
     -1152448.96483271  -1152449.19761958  -1152449.19761958
  Force two-norm initial, final = 0.17788062 0.00017707026
  Force max component initial, final = 0.087162696 5.2356748e-05
  Final line search alpha, max atom move = 1.0000000 5.2356748e-05
  Iterations, force evaluations = 343 686

MPI task timing breakdown:
Section |  min time  |  avg time  |  max time  |%varavg| %total
---------------------------------------------------------------
Pair    | 1.0604     | 2.8936     | 3.7687     |  45.4 | 71.60
Neigh   | 5.1345e-05 | 0.014616   | 0.021191   |   5.0 |  0.36
Comm    | 0.064705   | 0.65765    | 1.965      |  67.0 | 16.27
Output  | 0          | 0          | 0          |   0.0 |  0.00
Modify  | 3.9171e-05 | 0.0056579  | 0.012146   |   3.5 |  0.14
Other   |            | 0.4699     |            |       | 11.63

Nlocal:        2776.45 ave        3948 max           0 min
Histogram: 8 4 4 0 4 12 8 0 28 36
Nghost:        3879.34 ave        5423 max         232 min
Histogram: 8 0 8 0 16 0 8 8 16 40
Neighs:        79214.5 ave      115003 max           0 min
Histogram: 8 4 4 0 10 6 8 8 24 32

Total # of neighbors = 8238304
Ave neighs/atom = 28.530824
Neighbor list builds = 5
Dangerous builds = 0
The dot product: 1.15736985674219e-06
Setting atom values ...
  1 settings made for x
  1 settings made for y
  1 settings made for z
Setting up cg style minimization ...
  Unit style    : metal
  Current step  : 1514
Per MPI rank memory allocation (min/avg/max) = 5.441 | 5.816 | 6.074 Mbytes
Step PotEng KinEng TotEng v_fx v_fy v_fz 
    1514   -1152449.2            0   -1152449.2 -0.046682147 -0.060161677 0.00041586243 
    1710   -1152449.2            0   -1152449.2 1.0949949e-05 2.4147364e-05 4.5710447e-07 
Loop time of 2.29803 on 104 procs for 196 steps with 288751 atoms

99.9% CPU use with 104 MPI tasks x 1 OpenMP threads

Minimization stats:
  Stopping criterion = energy tolerance
  Energy initial, next-to-last, final = 
     -1152449.19677228  -1152449.19946424  -1152449.19946424
  Force two-norm initial, final = 0.20922318 0.00014936139
  Force max component initial, final = 0.081679296 2.8006137e-05
  Final line search alpha, max atom move = 1.0000000 2.8006137e-05
  Iterations, force evaluations = 196 392

MPI task timing breakdown:
Section |  min time  |  avg time  |  max time  |%varavg| %total
---------------------------------------------------------------
Pair    | 0.58979    | 1.6447     | 2.1395     |  34.8 | 71.57
Neigh   | 0          | 0          | 0          |   0.0 |  0.00
Comm    | 0.032617   | 0.37609    | 1.1279     |  50.6 | 16.37
Output  | 0          | 0          | 0          |   0.0 |  0.00
Modify  | 2.3075e-05 | 0.0032327  | 0.0069461  |   2.7 |  0.14
Other   |            | 0.2741     |            |       | 11.93

Nlocal:        2776.45 ave        3945 max           0 min
Histogram: 8 4 4 0 4 12 8 0 28 36
Nghost:        3879.12 ave        5422 max         232 min
Histogram: 8 0 8 0 16 0 8 8 16 40
Neighs:        79214.8 ave      114923 max           0 min
Histogram: 8 4 4 0 10 6 8 8 22 34

Total # of neighbors = 8238334
Ave neighs/atom = 28.530928
Neighbor list builds = 0
Dangerous builds = 0
The dot product: -3.09012035006578e-07
Setting atom values ...
  1 settings made for x
  1 settings made for y
  1 settings made for z
Setting up cg style minimization ...
  Unit style    : metal
  Current step  : 1710
Per MPI rank memory allocation (min/avg/max) = 5.441 | 5.816 | 6.074 Mbytes
Step PotEng KinEng TotEng v_fx v_fy v_fz 
    1710   -1152449.2            0   -1152449.2 -0.023291087 -0.030660723 -0.0037446106 
    2000   -1152449.2            0   -1152449.2 9.824955e-06 1.9927894e-05 2.4482985e-06 
    2016   -1152449.2            0   -1152449.2 -1.1340386e-05 -1.3226523e-05 -1.6118351e-06 
Loop time of 3.6046 on 104 procs for 306 steps with 288751 atoms

99.9% CPU use with 104 MPI tasks x 1 OpenMP threads

Minimization stats:
  Stopping criterion = energy tolerance
  Energy initial, next-to-last, final = 
     -1152449.19782664  -1152449.20018153  -1152449.20018153
  Force two-norm initial, final = 0.19497097 0.00012856079
  Force max component initial, final = 0.085857454 3.2363711e-05
  Final line search alpha, max atom move = 1.0000000 3.2363711e-05
  Iterations, force evaluations = 306 612

MPI task timing breakdown:
Section |  min time  |  avg time  |  max time  |%varavg| %total
---------------------------------------------------------------
Pair    | 0.91996    | 2.576      | 3.3583     |  43.4 | 71.46
Neigh   | 0          | 0          | 0          |   0.0 |  0.00
Comm    | 0.053284   | 0.58504    | 1.7543     |  63.5 | 16.23
Output  | 0.00035938 | 0.00036872 | 0.00053777 |   0.0 |  0.01
Modify  | 3.6639e-05 | 0.0050469  | 0.010812   |   3.3 |  0.14
Other   |            | 0.4382     |            |       | 12.16

Nlocal:        2776.45 ave        3945 max           0 min
Histogram: 8 4 4 0 4 12 8 0 28 36
Nghost:        3879.12 ave        5422 max         232 min
Histogram: 8 0 8 0 16 0 8 8 16 40
Neighs:        79214.6 ave      114928 max           0 min
Histogram: 8 4 4 0 10 6 8 8 22 34

Total # of neighbors = 8238323
Ave neighs/atom = 28.530890
Neighbor list builds = 0
Dangerous builds = 0
The dot product: -2.14876083492809e-08
Setting atom values ...
  1 settings made for x
  1 settings made for y
  1 settings made for z
Setting up cg style minimization ...
  Unit style    : metal
  Current step  : 2016
Per MPI rank memory allocation (min/avg/max) = 5.441 | 5.816 | 6.074 Mbytes
Step PotEng KinEng TotEng v_fx v_fy v_fz 
    2016   -1152449.2            0   -1152449.2 -0.022331089 -0.037127953 -0.0039861245 
    2436   -1152449.4            0   -1152449.4 -1.0590434e-06 1.2406291e-06 1.1088046e-07 
Loop time of 4.95062 on 104 procs for 420 steps with 288751 atoms

99.9% CPU use with 104 MPI tasks x 1 OpenMP threads

Minimization stats:
  Stopping criterion = energy tolerance
  Energy initial, next-to-last, final = 
     -1152449.19791366  -1152449.40578433  -1152449.40578433
  Force two-norm initial, final = 0.19759721 5.8745037e-05
  Force max component initial, final = 0.086067941 1.0974161e-05
  Final line search alpha, max atom move = 1.0000000 1.0974161e-05
  Iterations, force evaluations = 420 840

MPI task timing breakdown:
Section |  min time  |  avg time  |  max time  |%varavg| %total
---------------------------------------------------------------
Pair    | 1.3032     | 3.5313     | 4.5761     |  50.2 | 71.33
Neigh   | 9.2465e-05 | 0.026317   | 0.038172   |   6.7 |  0.53
Comm    | 0.081411   | 0.80835    | 2.4276     |  74.3 | 16.33
Output  | 0          | 0          | 0          |   0.0 |  0.00
Modify  | 4.9466e-05 | 0.0069131  | 0.014867   |   3.9 |  0.14
Other   |            | 0.5777     |            |       | 11.67

Nlocal:        2776.45 ave        3953 max           0 min
Histogram: 8 4 4 0 4 12 8 0 30 34
Nghost:        3879.07 ave        5423 max         232 min
Histogram: 8 0 8 0 16 0 8 8 16 40
Neighs:        79213.2 ave      115164 max           0 min
Histogram: 8 4 4 0 10 6 8 8 24 32

Total # of neighbors = 8238176
Ave neighs/atom = 28.530381
Neighbor list builds = 9
Dangerous builds = 0
The dot product: -3.94777773732722e-08
Setting atom values ...
  1 settings made for x
  1 settings made for y
  1 settings made for z
Setting up cg style minimization ...
  Unit style    : metal
  Current step  : 2436
Per MPI rank memory allocation (min/avg/max) = 5.441 | 5.816 | 6.074 Mbytes
Step PotEng KinEng TotEng v_fx v_fy v_fz 
    2436   -1152449.4            0   -1152449.4  0.097758165   0.16751044   0.11367513 
    2649   -1152449.4            0   -1152449.4 -6.9505122e-06 -9.2309411e-06 -6.6835799e-06 
Loop time of 2.49604 on 104 procs for 213 steps with 288751 atoms

99.9% CPU use with 104 MPI tasks x 1 OpenMP threads

Minimization stats:
  Stopping criterion = energy tolerance
  Energy initial, next-to-last, final = 
     -1152449.41352441  -1152449.42199694  -1152449.42199694
  Force two-norm initial, final = 0.29705762 0.00013472043
  Force max component initial, final = 0.16751044 1.0791889e-05
  Final line search alpha, max atom move = 1.0000000 1.0791889e-05
  Iterations, force evaluations = 213 426

MPI task timing breakdown:
Section |  min time  |  avg time  |  max time  |%varavg| %total
---------------------------------------------------------------
Pair    | 0.64129    | 1.7972     | 2.3433     |  36.2 | 72.00
Neigh   | 0          | 0          | 0          |   0.0 |  0.00
Comm    | 0.036086   | 0.40715    | 1.2311     |  53.3 | 16.31
Output  | 0          | 0          | 0          |   0.0 |  0.00
Modify  | 2.4251e-05 | 0.0035112  | 0.0075316  |   2.8 |  0.14
Other   |            | 0.2882     |            |       | 11.55

Nlocal:        2776.45 ave        3960 max           0 min
Histogram: 8 4 4 0 4 12 8 2 28 34
Nghost:        3879.17 ave        5424 max         232 min
Histogram: 8 0 8 0 16 0 8 8 16 40
Neighs:        79213.4 ave      115346 max           0 min
Histogram: 8 4 4 0 10 6 8 8 24 32

Total # of neighbors = 8238194
Ave neighs/atom = 28.530443
Neighbor list builds = 0
Dangerous builds = 0
The dot product: -7.54715503538335e-07
Setting atom values ...
  1 settings made for x
  1 settings made for y
  1 settings made for z
Setting up cg style minimization ...
  Unit style    : metal
  Current step  : 2649
Per MPI rank memory allocation (min/avg/max) = 5.441 | 5.816 | 6.074 Mbytes
Step PotEng KinEng TotEng v_fx v_fy v_fz 
    2649   -1152449.4            0   -1152449.4 -0.073008367  -0.11794551 -0.035858318 
    2891   -1152449.4            0   -1152449.4 3.0316471e-07 1.548241e-06 3.9237707e-07 
Loop time of 2.82628 on 104 procs for 242 steps with 288751 atoms

99.9% CPU use with 104 MPI tasks x 1 OpenMP threads

Minimization stats:
  Stopping criterion = energy tolerance
  Energy initial, next-to-last, final = 
     -1152449.42711313  -1152449.43102072  -1152449.43102072
  Force two-norm initial, final = 0.24812825 2.1515641e-05
  Force max component initial, final = 0.11794551 4.5228849e-06
  Final line search alpha, max atom move = 1.0000000 4.5228849e-06
  Iterations, force evaluations = 242 484

MPI task timing breakdown:
Section |  min time  |  avg time  |  max time  |%varavg| %total
---------------------------------------------------------------
Pair    | 0.72931    | 2.0348     | 2.6545     |  38.7 | 72.00
Neigh   | 0          | 0          | 0          |   0.0 |  0.00
Comm    | 0.040982   | 0.46311    | 1.4009     |  56.7 | 16.39
Output  | 0          | 0          | 0          |   0.0 |  0.00
Modify  | 2.8066e-05 | 0.0039918  | 0.0085468  |   3.0 |  0.14
Other   |            | 0.3244     |            |       | 11.48

Nlocal:        2776.45 ave        3960 max           0 min
Histogram: 8 4 4 0 4 12 8 3 27 34
Nghost:        3879.07 ave        5423 max         232 min
Histogram: 8 0 8 0 16 0 8 8 16 40
Neighs:        79213.5 ave      115351 max           0 min
Histogram: 8 4 4 0 10 6 8 8 24 32

Total # of neighbors = 8238200
Ave neighs/atom = 28.530464
Neighbor list builds = 0
Dangerous builds = 0
The dot product: -4.7933333855027e-08
Setting atom values ...
  1 settings made for x
  1 settings made for y
  1 settings made for z
Setting up cg style minimization ...
  Unit style    : metal
  Current step  : 2891
Per MPI rank memory allocation (min/avg/max) = 5.441 | 5.816 | 6.074 Mbytes
Step PotEng KinEng TotEng v_fx v_fy v_fz 
    2891   -1152449.4            0   -1152449.4 -0.0020260879  0.018447826 0.0063127282 
    3000   -1152449.4            0   -1152449.4 4.3297089e-05 3.9164922e-05 2.2097226e-05 
    3060   -1152449.4            0   -1152449.4 8.4328137e-06 1.0406378e-05 5.3102789e-06 
Loop time of 1.9948 on 104 procs for 169 steps with 288751 atoms

99.9% CPU use with 104 MPI tasks x 1 OpenMP threads

Minimization stats:
  Stopping criterion = energy tolerance
  Energy initial, next-to-last, final = 
     -1152449.43446963  -1152449.43657124  -1152449.43657124
  Force two-norm initial, final = 0.19982372 8.0691457e-05
  Force max component initial, final = 0.10351306 2.2672952e-05
  Final line search alpha, max atom move = 1.0000000 2.2672952e-05
  Iterations, force evaluations = 169 338

MPI task timing breakdown:
Section |  min time  |  avg time  |  max time  |%varavg| %total
---------------------------------------------------------------
Pair    | 0.51483    | 1.4277     | 1.8733     |  32.3 | 71.57
Neigh   | 0          | 0          | 0          |   0.0 |  0.00
Comm    | 0.029083   | 0.33055    | 0.98376    |  47.2 | 16.57
Output  | 0.00024922 | 0.000257   | 0.00039157 |   0.0 |  0.01
Modify  | 1.9733e-05 | 0.0027933  | 0.0060084  |   2.5 |  0.14
Other   |            | 0.2335     |            |       | 11.70

Nlocal:        2776.45 ave        3960 max           0 min
Histogram: 8 4 4 0 4 12 8 2 28 34
Nghost:        3879.07 ave        5423 max         232 min
Histogram: 8 0 8 0 16 0 8 8 16 40
Neighs:        79213.5 ave      115360 max           0 min
Histogram: 8 4 4 0 10 6 8 8 24 32

Total # of neighbors = 8238199
Ave neighs/atom = 28.530461
Neighbor list builds = 0
Dangerous builds = 0
The dot product: 1.22017365761782e-07
Setting atom values ...
  1 settings made for x
  1 settings made for y
  1 settings made for z
Setting up cg style minimization ...
  Unit style    : metal
  Current step  : 3060
Per MPI rank memory allocation (min/avg/max) = 5.441 | 5.816 | 6.074 Mbytes
Step PotEng KinEng TotEng v_fx v_fy v_fz 
    3060   -1152449.4            0   -1152449.4 -0.017666688 -0.030221225 -0.012747137 
    3238   -1152449.4            0   -1152449.4 -1.2407915e-05 -2.0304273e-05 -8.6568223e-06 
Loop time of 2.06642 on 104 procs for 178 steps with 288751 atoms

99.9% CPU use with 104 MPI tasks x 1 OpenMP threads

Minimization stats:
  Stopping criterion = energy tolerance
  Energy initial, next-to-last, final = 
     -1152449.43810022  -1152449.44006225  -1152449.44006225
  Force two-norm initial, final = 0.20335573 0.00014854296
  Force max component initial, final = 0.10139839 2.0304273e-05
  Final line search alpha, max atom move = 1.0000000 2.0304273e-05
  Iterations, force evaluations = 178 356

MPI task timing breakdown:
Section |  min time  |  avg time  |  max time  |%varavg| %total
---------------------------------------------------------------
Pair    | 0.53808    | 1.4928     | 1.9479     |  33.1 | 72.24
Neigh   | 0          | 0          | 0          |   0.0 |  0.00
Comm    | 0.030871   | 0.33774    | 1.0232     |  48.6 | 16.34
Output  | 0          | 0          | 0          |   0.0 |  0.00
Modify  | 2.0768e-05 | 0.0029314  | 0.0062782  |   2.6 |  0.14
Other   |            | 0.233      |            |       | 11.27

Nlocal:        2776.45 ave        3960 max           0 min
Histogram: 8 4 4 0 4 12 8 3 27 34
Nghost:        3879.07 ave        5423 max         232 min
Histogram: 8 0 8 0 16 0 8 8 16 40
Neighs:        79213.4 ave      115360 max           0 min
Histogram: 8 4 4 0 10 6 8 8 24 32

Total # of neighbors = 8238196
Ave neighs/atom = 28.530450
Neighbor list builds = 0
Dangerous builds = 0
The dot product: 7.41638750946026e-08
Setting atom values ...
  1 settings made for x
  1 settings made for y
  1 settings made for z
Setting up cg style minimization ...
  Unit style    : metal
  Current step  : 3238
Per MPI rank memory allocation (min/avg/max) = 5.441 | 5.816 | 6.074 Mbytes
Step PotEng KinEng TotEng v_fx v_fy v_fz 
    3238   -1152449.4            0   -1152449.4 -0.014334636  -0.02580371 -0.011118777 
    3395   -1152449.4            0   -1152449.4 1.5196387e-05 2.2437093e-05 1.0152136e-05 
Loop time of 1.85199 on 104 procs for 157 steps with 288751 atoms

99.9% CPU use with 104 MPI tasks x 1 OpenMP threads

Minimization stats:
  Stopping criterion = energy tolerance
  Energy initial, next-to-last, final = 
     -1152449.43963367  -1152449.44158619  -1152449.44158619
  Force two-norm initial, final = 0.20221102 0.0002036937
  Force max component initial, final = 0.099812895 3.2203057e-05
  Final line search alpha, max atom move = 1.0000000 3.2203057e-05
  Iterations, force evaluations = 157 314

MPI task timing breakdown:
Section |  min time  |  avg time  |  max time  |%varavg| %total
---------------------------------------------------------------
Pair    | 0.47293    | 1.3221     | 1.7315     |  31.1 | 71.39
Neigh   | 0          | 0          | 0          |   0.0 |  0.00
Comm    | 0.028285   | 0.29933    | 0.89571    |  45.4 | 16.16
Output  | 0          | 0          | 0          |   0.0 |  0.00
Modify  | 1.9264e-05 | 0.0025957  | 0.0055522  |   2.4 |  0.14
Other   |            | 0.2279     |            |       | 12.31

Nlocal:        2776.45 ave        3961 max           0 min
Histogram: 8 4 4 0 6 10 8 3 27 34
Nghost:        3879.07 ave        5423 max         232 min
Histogram: 8 0 8 0 16 0 8 8 16 40
Neighs:        79213.5 ave      115382 max           0 min
Histogram: 8 4 4 0 10 6 8 8 24 32

Total # of neighbors = 8238199
Ave neighs/atom = 28.530461
Neighbor list builds = 0
Dangerous builds = 0
The dot product: -3.79862900005026e-08
Setting atom values ...
  1 settings made for x
  1 settings made for y
  1 settings made for z
Setting up cg style minimization ...
  Unit style    : metal
  Current step  : 3395
Per MPI rank memory allocation (min/avg/max) = 5.441 | 5.816 | 6.074 Mbytes
Step PotEng KinEng TotEng v_fx v_fy v_fz 
    3395   -1152449.4            0   -1152449.4 -0.014910992 -0.029777473 -0.012715667 
    3562   -1152449.4            0   -1152449.4 5.618014e-06 1.1446643e-05 4.8675543e-06 
Loop time of 1.95176 on 104 procs for 167 steps with 288751 atoms

99.9% CPU use with 104 MPI tasks x 1 OpenMP threads

Minimization stats:
  Stopping criterion = energy tolerance
  Energy initial, next-to-last, final = 
     -1152449.43913574  -1152449.44110036  -1152449.44110036
  Force two-norm initial, final = 0.20287715 0.00015721756
  Force max component initial, final = 0.097989493 1.1729449e-05
  Final line search alpha, max atom move = 1.0000000 1.1729449e-05
  Iterations, force evaluations = 167 334

MPI task timing breakdown:
Section |  min time  |  avg time  |  max time  |%varavg| %total
---------------------------------------------------------------
Pair    | 0.50855    | 1.4036     | 1.827      |  32.0 | 71.91
Neigh   | 0          | 0          | 0          |   0.0 |  0.00
Comm    | 0.028592   | 0.31939    | 0.96356    |  47.0 | 16.36
Output  | 0          | 0          | 0          |   0.0 |  0.00
Modify  | 1.9278e-05 | 0.0027579  | 0.005936   |   2.5 |  0.14
Other   |            | 0.2261     |            |       | 11.58

Nlocal:        2776.45 ave        3960 max           0 min
Histogram: 8 4 4 0 4 12 8 3 27 34
Nghost:        3879.09 ave        5424 max         232 min
Histogram: 8 0 8 0 16 0 8 8 16 40
Neighs:        79213.4 ave      115348 max           0 min
Histogram: 8 4 4 0 10 6 8 8 24 32

Total # of neighbors = 8238198
Ave neighs/atom = 28.530457
Neighbor list builds = 0
Dangerous builds = 0
The dot product: -2.86185750185311e-08
Setting atom values ...
  1 settings made for x
  1 settings made for y
  1 settings made for z
Setting up cg style minimization ...
  Unit style    : metal
  Current step  : 3562
Per MPI rank memory allocation (min/avg/max) = 5.441 | 5.816 | 6.074 Mbytes
Step PotEng KinEng TotEng v_fx v_fy v_fz 
    3562   -1152449.4            0   -1152449.4 -0.017122166 -0.030667803  -0.01368338 
    3735   -1152449.4            0   -1152449.4 2.0062491e-06 2.2702858e-06 1.1477837e-06 
Loop time of 2.01776 on 104 procs for 173 steps with 288751 atoms

99.9% CPU use with 104 MPI tasks x 1 OpenMP threads

Minimization stats:
  Stopping criterion = energy tolerance
  Energy initial, next-to-last, final = 
     -1152449.43663776  -1152449.43859723  -1152449.43859723
  Force two-norm initial, final = 0.20299083 0.00013911528
  Force max component initial, final = 0.096105324 1.3892916e-05
  Final line search alpha, max atom move = 1.0000000 1.3892916e-05
  Iterations, force evaluations = 173 346

MPI task timing breakdown:
Section |  min time  |  avg time  |  max time  |%varavg| %total
---------------------------------------------------------------
Pair    | 0.52388    | 1.4563     | 1.8983     |  32.6 | 72.18
Neigh   | 0          | 0          | 0          |   0.0 |  0.00
Comm    | 0.030648   | 0.3263     | 0.98721    |  48.1 | 16.17
Output  | 0          | 0          | 0          |   0.0 |  0.00
Modify  | 2.012e-05  | 0.0028554  | 0.0061122  |   2.5 |  0.14
Other   |            | 0.2323     |            |       | 11.51

Nlocal:        2776.45 ave        3960 max           0 min
Histogram: 8 4 4 0 4 12 8 4 26 34
Nghost:        3879.09 ave        5424 max         232 min
Histogram: 8 0 8 0 16 0 8 8 16 40
Neighs:        79213.5 ave      115329 max           0 min
Histogram: 8 4 4 0 10 6 8 8 24 32

Total # of neighbors = 8238200
Ave neighs/atom = 28.530464
Neighbor list builds = 0
Dangerous builds = 0
The dot product: -8.45427888212653e-09
Setting atom values ...
  1 settings made for x
  1 settings made for y
  1 settings made for z
Setting up cg style minimization ...
  Unit style    : metal
  Current step  : 3735
Per MPI rank memory allocation (min/avg/max) = 5.441 | 5.816 | 6.074 Mbytes
Step PotEng KinEng TotEng v_fx v_fy v_fz 
    3735   -1152449.4            0   -1152449.4 -0.018163535 -0.030520822 -0.014148017 
    3881   -1152449.4            0   -1152449.4 1.6437046e-05 3.9429463e-05 1.6959657e-05 
Loop time of 1.70901 on 104 procs for 146 steps with 288751 atoms

99.9% CPU use with 104 MPI tasks x 1 OpenMP threads

Minimization stats:
  Stopping criterion = energy tolerance
  Energy initial, next-to-last, final = 
     -1152449.43213273  -1152449.43408193  -1152449.43408193
  Force two-norm initial, final = 0.20266959 0.00029793244
  Force max component initial, final = 0.098389752 6.5648914e-05
  Final line search alpha, max atom move = 1.0000000 6.5648914e-05
  Iterations, force evaluations = 146 292

MPI task timing breakdown:
Section |  min time  |  avg time  |  max time  |%varavg| %total
---------------------------------------------------------------
Pair    | 0.44052    | 1.225      | 1.6042     |  30.0 | 71.68
Neigh   | 0          | 0          | 0          |   0.0 |  0.00
Comm    | 0.026092   | 0.27941    | 0.8443     |  43.7 | 16.35
Output  | 0          | 0          | 0          |   0.0 |  0.00
Modify  | 1.7055e-05 | 0.002411   | 0.005168   |   2.3 |  0.14
Other   |            | 0.2022     |            |       | 11.83

Nlocal:        2776.45 ave        3960 max           0 min
Histogram: 8 4 4 0 4 12 8 4 26 34
Nghost:        3879.16 ave        5426 max         232 min
Histogram: 8 0 8 0 16 0 8 8 16 40
Neighs:        79213.4 ave      115353 max           0 min
Histogram: 8 4 4 0 10 6 8 8 24 32

Total # of neighbors = 8238198
Ave neighs/atom = 28.530457
Neighbor list builds = 0
Dangerous builds = 0
The dot product: -1.2587514544977e-07
Setting atom values ...
  1 settings made for x
  1 settings made for y
  1 settings made for z
Setting up cg style minimization ...
  Unit style    : metal
  Current step  : 3881
Per MPI rank memory allocation (min/avg/max) = 5.441 | 5.816 | 6.074 Mbytes
Step PotEng KinEng TotEng v_fx v_fy v_fz 
    3881   -1152449.4            0   -1152449.4 -0.019101601 -0.029836563 -0.014410673 
    4000   -1152449.4            0   -1152449.4 6.6638182e-05 9.6787038e-05 4.7647818e-05 
    4065   -1152449.4            0   -1152449.4 -9.0279359e-07 4.9012421e-07 2.2419778e-09 
Loop time of 2.14765 on 104 procs for 184 steps with 288751 atoms

99.9% CPU use with 104 MPI tasks x 1 OpenMP threads

Minimization stats:
  Stopping criterion = energy tolerance
  Energy initial, next-to-last, final = 
     -1152449.42561696  -1152449.42755678  -1152449.42755678
  Force two-norm initial, final = 0.20220105 0.00011498248
  Force max component initial, final = 0.10076317 5.3568256e-06
  Final line search alpha, max atom move = 1.0000000 5.3568256e-06
  Iterations, force evaluations = 184 368

MPI task timing breakdown:
Section |  min time  |  avg time  |  max time  |%varavg| %total
---------------------------------------------------------------
Pair    | 0.55576    | 1.5524     | 2.0249     |  33.7 | 72.28
Neigh   | 0          | 0          | 0          |   0.0 |  0.00
Comm    | 0.031116   | 0.35007    | 1.0583     |  49.7 | 16.30
Output  | 0.00024474 | 0.00024731 | 0.00038106 |   0.0 |  0.01
Modify  | 2.1233e-05 | 0.0030351  | 0.0065243  |   2.6 |  0.14
Other   |            | 0.2419     |            |       | 11.26

Nlocal:        2776.45 ave        3959 max           0 min
Histogram: 8 4 4 0 4 12 8 4 26 34
Nghost:        3879.16 ave        5425 max         232 min
Histogram: 8 0 8 0 16 0 8 8 16 40
Neighs:        79213.5 ave      115324 max           0 min
Histogram: 8 4 4 0 10 6 8 8 24 32

Total # of neighbors = 8238200
Ave neighs/atom = 28.530464
Neighbor list builds = 0
Dangerous builds = 0
The dot product: 3.42917344171962e-10
Setting atom values ...
  1 settings made for x
  1 settings made for y
  1 settings made for z
Setting up cg style minimization ...
  Unit style    : metal
  Current step  : 4065
Per MPI rank memory allocation (min/avg/max) = 5.441 | 5.816 | 6.074 Mbytes
Step PotEng KinEng TotEng v_fx v_fy v_fz 
    4065   -1152449.4            0   -1152449.4 -0.020226622 -0.028764902 -0.014556794 
    4214   -1152449.4            0   -1152449.4 3.7155198e-05 6.9351145e-05 3.2798903e-05 
Loop time of 1.73632 on 104 procs for 149 steps with 288751 atoms

99.9% CPU use with 104 MPI tasks x 1 OpenMP threads

Minimization stats:
  Stopping criterion = energy tolerance
  Energy initial, next-to-last, final = 
     -1152449.41710005  -1152449.41902862  -1152449.41902862
  Force two-norm initial, final = 0.20170085 0.00029535488
  Force max component initial, final = 0.10319223 8.1695504e-05
  Final line search alpha, max atom move = 1.0000000 8.1695504e-05
  Iterations, force evaluations = 149 298

MPI task timing breakdown:
Section |  min time  |  avg time  |  max time  |%varavg| %total
---------------------------------------------------------------
Pair    | 0.44872    | 1.2521     | 1.6343     |  30.4 | 72.11
Neigh   | 0          | 0          | 0          |   0.0 |  0.00
Comm    | 0.024776   | 0.28416    | 0.85964    |  44.6 | 16.37
Output  | 0          | 0          | 0          |   0.0 |  0.00
Modify  | 1.712e-05  | 0.0024539  | 0.005284   |   2.3 |  0.14
Other   |            | 0.1976     |            |       | 11.38

Nlocal:        2776.45 ave        3959 max           0 min
Histogram: 8 4 4 0 4 12 8 4 26 34
Nghost:        3879.18 ave        5424 max         232 min
Histogram: 8 0 8 0 16 0 8 8 16 40
Neighs:        79213.5 ave      115335 max           0 min
Histogram: 8 4 4 0 10 6 8 8 24 32

Total # of neighbors = 8238208
Ave neighs/atom = 28.530492
Neighbor list builds = 0
Dangerous builds = 0
The dot product: -2.4567511024454e-07
Setting atom values ...
  1 settings made for x
  1 settings made for y
  1 settings made for z
Setting up cg style minimization ...
  Unit style    : metal
  Current step  : 4214
Per MPI rank memory allocation (min/avg/max) = 5.441 | 5.816 | 6.074 Mbytes
Step PotEng KinEng TotEng v_fx v_fy v_fz 
    4214   -1152449.4            0   -1152449.4 -0.021509622 -0.027193546 -0.014536662 
    4443   -1152449.4            0   -1152449.4 9.0924435e-07 1.7126204e-06 8.2513168e-07 
Loop time of 2.67625 on 104 procs for 229 steps with 288751 atoms

99.9% CPU use with 104 MPI tasks x 1 OpenMP threads

Minimization stats:
  Stopping criterion = energy tolerance
  Energy initial, next-to-last, final = 
     -1152449.40659339  -1152449.40851014  -1152449.40851014
  Force two-norm initial, final = 0.2011477 2.0416377e-05
  Force max component initial, final = 0.10561675 4.3000301e-06
  Final line search alpha, max atom move = 1.0000000 4.3000301e-06
  Iterations, force evaluations = 229 458

MPI task timing breakdown:
Section |  min time  |  avg time  |  max time  |%varavg| %total
---------------------------------------------------------------
Pair    | 0.68864    | 1.9304     | 2.5263     |  37.6 | 72.13
Neigh   | 0          | 0          | 0          |   0.0 |  0.00
Comm    | 0.038711   | 0.43757    | 1.3171     |  55.4 | 16.35
Output  | 0          | 0          | 0          |   0.0 |  0.00
Modify  | 2.6468e-05 | 0.00377    | 0.0081206  |   2.9 |  0.14
Other   |            | 0.3045     |            |       | 11.38

Nlocal:        2776.45 ave        3959 max           0 min
Histogram: 8 4 4 0 4 12 8 4 26 34
Nghost:        3879.14 ave        5424 max         232 min
Histogram: 8 0 8 0 16 0 8 8 16 40
Neighs:        79213.6 ave      115335 max           0 min
Histogram: 8 4 4 0 10 6 8 8 24 32

Total # of neighbors = 8238211
Ave neighs/atom = 28.530502
Neighbor list builds = 0
Dangerous builds = 0
The dot product: -5.98810494075176e-09
Setting atom values ...
  1 settings made for x
  1 settings made for y
  1 settings made for z
Setting up cg style minimization ...
  Unit style    : metal
  Current step  : 4443
Per MPI rank memory allocation (min/avg/max) = 5.441 | 5.816 | 6.074 Mbytes
Step PotEng KinEng TotEng v_fx v_fy v_fz 
    4443   -1152449.4            0   -1152449.4 -0.023047725 -0.025234276 -0.014397662 
    4808   -1152449.4            0   -1152449.4 1.2892072e-08 2.5552386e-08 1.2407686e-08 
Loop time of 4.27516 on 104 procs for 365 steps with 288751 atoms

99.9% CPU use with 104 MPI tasks x 1 OpenMP threads

Minimization stats:
  Stopping criterion = energy tolerance
  Energy initial, next-to-last, final = 
     -1152449.39411381  -1152449.39601782  -1152449.39601782
  Force two-norm initial, final = 0.20066547 1.3030627e-07
  Force max component initial, final = 0.10790307 2.6663817e-08
  Final line search alpha, max atom move = 1.0000000 2.6663817e-08
  Iterations, force evaluations = 365 730

MPI task timing breakdown:
Section |  min time  |  avg time  |  max time  |%varavg| %total
---------------------------------------------------------------
Pair    | 1.0993     | 3.0718     | 4.006      |  47.6 | 71.85
Neigh   | 0          | 0          | 0          |   0.0 |  0.00
Comm    | 0.063424   | 0.70373    | 2.1397     |  69.7 | 16.46
Output  | 0          | 0          | 0          |   0.0 |  0.00
Modify  | 4.1651e-05 | 0.0060168  | 0.01291    |   3.7 |  0.14
Other   |            | 0.4936     |            |       | 11.55

Nlocal:        2776.45 ave        3958 max           0 min
Histogram: 8 4 4 0 4 12 8 4 26 34
Nghost:        3879.18 ave        5424 max         232 min
Histogram: 8 0 8 0 16 0 8 8 16 40
Neighs:        79213.6 ave      115307 max           0 min
Histogram: 8 4 4 0 10 6 8 8 24 32

Total # of neighbors = 8238211
Ave neighs/atom = 28.530502
Neighbor list builds = 0
Dangerous builds = 0
The dot product: -8.74704928216552e-11
Setting up cg style minimization ...
  Unit style    : metal
  Current step  : 4808
Per MPI rank memory allocation (min/avg/max) = 5.441 | 5.816 | 6.074 Mbytes
Step PotEng KinEng TotEng v_fx v_fy v_fz 
    4808   -1152449.4            0   -1152449.4   0.12851892   0.23537074  -0.61825856 
    5000   -1152449.4            0   -1152449.4 6.6819053e-06 4.0181129e-05 -0.00021626467 
    5039   -1152449.4            0   -1152449.4 -8.0591365e-06 -8.5332171e-06 4.7792953e-05 
Loop time of 2.72349 on 104 procs for 231 steps with 288751 atoms

99.9% CPU use with 104 MPI tasks x 1 OpenMP threads

Minimization stats:
  Stopping criterion = energy tolerance
  Energy initial, next-to-last, final = 
     -1152449.39601782   -1152449.4416545   -1152449.4416545
  Force two-norm initial, final = 0.67391405 0.00016245643
  Force max component initial, final = 0.61825856 4.7792953e-05
  Final line search alpha, max atom move = 1.0000000 4.7792953e-05
  Iterations, force evaluations = 231 462

MPI task timing breakdown:
Section |  min time  |  avg time  |  max time  |%varavg| %total
---------------------------------------------------------------
Pair    | 0.6978     | 1.9457     | 2.5421     |  37.7 | 71.44
Neigh   | 1.0252e-05 | 0.0029059  | 0.004245   |   2.2 |  0.11
Comm    | 0.041658   | 0.4414     | 1.3065     |  54.7 | 16.21
Output  | 0.00025984 | 0.00026909 | 0.00043077 |   0.0 |  0.01
Modify  | 2.4898e-05 | 0.0024828  | 0.0063793  |   3.1 |  0.09
Other   |            | 0.3308     |            |       | 12.15

Nlocal:        2776.45 ave        3958 max           0 min
Histogram: 8 4 4 0 4 12 8 4 26 34
Nghost:        3879.17 ave        5424 max         232 min
Histogram: 8 0 8 0 16 0 8 8 16 40
Neighs:        79213.6 ave      115321 max           0 min
Histogram: 8 4 4 0 10 6 8 8 24 32

Total # of neighbors = 8238214
Ave neighs/atom = 28.530512
Neighbor list builds = 1
Dangerous builds = 0
OMP_NUM_THREADS environment is not set. Defaulting to 1 thread. (../comm.cpp:94)
  using 1 OpenMP thread(s) per MPI task
Reading data file ...
  orthogonal box = (-122.39241 -121.13707 -37.090501) to (122.39241 121.13707 37.090501)
  13 by 4 by 2 MPI processor grid
  reading atoms ...
  288751 atoms
  read_data CPU = 0.349 seconds
199981 atoms in group inner
88770 atoms in group outer
1 atoms in group carbon
Neighbor list info ...
  update every 1 steps, delay 0 steps, check yes
  max neighbors/atom: 2000, page size: 100000
  master list distance cutoff = 5.6
  ghost atom cutoff = 5.6
  binsize = 2.8, bins = 88 87 27
  1 neighbor lists, perpetual/occasional/extra = 1 0 0
  (1) pair eam/alloy, perpetual
      attributes: half, newton on
      pair build: half/bin/atomonly/newton
      stencil: half/bin/3d/newton
      bin: standard
Setting up cg style minimization ...
  Unit style    : metal
  Current step  : 0
Per MPI rank memory allocation (min/avg/max) = 5.441 | 5.816 | 6.074 Mbytes
Step v_fx v_fy v_fz PotEng KinEng TotEng 
       0   -13.789028   -22.660205   -7.8797262   -1152441.8            0   -1152441.8 
     251 1.488214e-05 1.8139669e-05 2.3958733e-05     -1152449            0     -1152449 
Loop time of 2.96603 on 104 procs for 251 steps with 288751 atoms

99.9% CPU use with 104 MPI tasks x 1 OpenMP threads

Minimization stats:
  Stopping criterion = energy tolerance
  Energy initial, next-to-last, final = 
     -1152441.78120453  -1152448.97218773  -1152448.97218773
  Force two-norm initial, final = 45.337050 9.4402961e-05
  Force max component initial, final = 29.545624 2.3958733e-05
  Final line search alpha, max atom move = 1.0000000 2.3958733e-05
  Iterations, force evaluations = 251 498

MPI task timing breakdown:
Section |  min time  |  avg time  |  max time  |%varavg| %total
---------------------------------------------------------------
Pair    | 0.78779    | 2.1044     | 2.7284     |  38.4 | 70.95
Neigh   | 9.207e-05  | 0.0264     | 0.038528   |   6.7 |  0.89
Comm    | 0.05281    | 0.47972    | 1.4138     |  56.6 | 16.17
Output  | 0          | 0          | 0          |   0.0 |  0.00
Modify  | 2.8842e-05 | 0.0026824  | 0.0068545  |   3.2 |  0.09
Other   |            | 0.3529     |            |       | 11.90

Nlocal:        2776.45 ave        3950 max           0 min
Histogram: 8 4 4 0 4 12 8 0 28 36
Nghost:        3879.07 ave        5424 max         232 min
Histogram: 8 0 8 0 16 0 8 8 16 40
Neighs:        79213.6 ave      115105 max           0 min
Histogram: 8 4 4 0 10 6 8 8 24 32

Total # of neighbors = 8238216
Ave neighs/atom = 28.530519
Neighbor list builds = 9
Dangerous builds = 0
Setting atom values ...
  1 settings made for x
  1 settings made for y
  1 settings made for z
Setting up cg style minimization ...
  Unit style    : metal
  Current step  : 251
Per MPI rank memory allocation (min/avg/max) = 5.441 | 5.816 | 6.074 Mbytes
Step PotEng KinEng TotEng v_fx v_fy v_fz 
     251     -1152449            0     -1152449  0.014385208  0.015079315  -0.01443394 
     374     -1152449            0     -1152449 -2.1578445e-05 -2.3072084e-05 -2.9256152e-05 
Loop time of 1.42329 on 104 procs for 123 steps with 288751 atoms

99.9% CPU use with 104 MPI tasks x 1 OpenMP threads

Minimization stats:
  Stopping criterion = energy tolerance
  Energy initial, next-to-last, final = 
     -1152448.96997033  -1152448.97135173  -1152448.97135173
  Force two-norm initial, final = 0.16145726 0.00016675205
  Force max component initial, final = 0.095532423 2.9256152e-05
  Final line search alpha, max atom move = 1.0000000 2.9256152e-05
  Iterations, force evaluations = 123 246

MPI task timing breakdown:
Section |  min time  |  avg time  |  max time  |%varavg| %total
---------------------------------------------------------------
Pair    | 0.36979    | 1.0341     | 1.3409     |  27.5 | 72.66
Neigh   | 0          | 0          | 0          |   0.0 |  0.00
Comm    | 0.021848   | 0.23208    | 0.70366    |  40.8 | 16.31
Output  | 0          | 0          | 0          |   0.0 |  0.00
Modify  | 1.6199e-05 | 0.002035   | 0.0043652  |   2.1 |  0.14
Other   |            | 0.1551     |            |       | 10.89

Nlocal:        2776.45 ave        3949 max           0 min
Histogram: 8 4 4 0 4 12 8 0 28 36
Nghost:        3879.22 ave        5423 max         232 min
Histogram: 8 0 8 0 16 0 8 8 16 40
Neighs:        79213.5 ave      115079 max           0 min
Histogram: 8 4 4 0 10 6 8 8 24 32

Total # of neighbors = 8238206
Ave neighs/atom = 28.530485
Neighbor list builds = 0
Dangerous builds = 0
Setting atom values ...
  1 settings made for x
  1 settings made for y
  1 settings made for z
Setting up cg style minimization ...
  Unit style    : metal
  Current step  : 374
Per MPI rank memory allocation (min/avg/max) = 5.441 | 5.816 | 6.074 Mbytes
Step PotEng KinEng TotEng v_fx v_fy v_fz 
     374     -1152449            0     -1152449  0.012659625  0.012908302 -0.013687314 
     497     -1152449            0     -1152449 -2.6494953e-05 -2.9210469e-05 -3.9231886e-05 
Loop time of 1.44127 on 104 procs for 123 steps with 288751 atoms

99.9% CPU use with 104 MPI tasks x 1 OpenMP threads

Minimization stats:
  Stopping criterion = energy tolerance
  Energy initial, next-to-last, final = 
     -1152448.96790767  -1152448.96909999  -1152448.96909999
  Force two-norm initial, final = 0.14897045 0.00020615978
  Force max component initial, final = 0.090896718 3.9231886e-05
  Final line search alpha, max atom move = 1.0000000 3.9231886e-05
  Iterations, force evaluations = 123 246

MPI task timing breakdown:
Section |  min time  |  avg time  |  max time  |%varavg| %total
---------------------------------------------------------------
Pair    | 0.38014    | 1.0388     | 1.3495     |  27.3 | 72.08
Neigh   | 0          | 0          | 0          |   0.0 |  0.00
Comm    | 0.026995   | 0.23528    | 0.7017     |  40.4 | 16.32
Output  | 0          | 0          | 0          |   0.0 |  0.00
Modify  | 1.5664e-05 | 0.0020319  | 0.0043164  |   2.1 |  0.14
Other   |            | 0.1651     |            |       | 11.46

Nlocal:        2776.45 ave        3949 max           0 min
Histogram: 8 4 4 0 4 12 8 0 28 36
Nghost:        3879.20 ave        5423 max         232 min
Histogram: 8 0 8 0 16 0 8 8 16 40
Neighs:        79213.5 ave      115078 max           0 min
Histogram: 8 4 4 0 10 6 8 8 24 32

Total # of neighbors = 8238203
Ave neighs/atom = 28.530474
Neighbor list builds = 0
Dangerous builds = 0
The dot product: -6.07345755949781e-08
Setting atom values ...
  1 settings made for x
  1 settings made for y
  1 settings made for z
Setting up cg style minimization ...
  Unit style    : metal
  Current step  : 497
Per MPI rank memory allocation (min/avg/max) = 5.441 | 5.816 | 6.074 Mbytes
Step PotEng KinEng TotEng v_fx v_fy v_fz 
     497     -1152449            0     -1152449 0.0093975149 0.0084560092 -0.0091133351 
     661     -1152449            0     -1152449 2.4362591e-05 2.9027708e-05 3.8332035e-05 
Loop time of 1.90137 on 104 procs for 164 steps with 288751 atoms

99.9% CPU use with 104 MPI tasks x 1 OpenMP threads

Minimization stats:
  Stopping criterion = energy tolerance
  Energy initial, next-to-last, final = 
     -1152448.96421233   -1152448.9654998   -1152448.9654998
  Force two-norm initial, final = 0.14889305 0.00014350877
  Force max component initial, final = 0.093492106 3.8332035e-05
  Final line search alpha, max atom move = 1.0000000 3.8332035e-05
  Iterations, force evaluations = 164 328

MPI task timing breakdown:
Section |  min time  |  avg time  |  max time  |%varavg| %total
---------------------------------------------------------------
Pair    | 0.49462    | 1.3775     | 1.7899     |  31.8 | 72.45
Neigh   | 0          | 0          | 0          |   0.0 |  0.00
Comm    | 0.029239   | 0.31064    | 0.93586    |  46.8 | 16.34
Output  | 0          | 0          | 0          |   0.0 |  0.00
Modify  | 2.1172e-05 | 0.0027053  | 0.0057702  |   2.4 |  0.14
Other   |            | 0.2105     |            |       | 11.07

Nlocal:        2776.45 ave        3946 max           0 min
Histogram: 8 4 4 0 4 12 8 0 28 36
Nghost:        3879.20 ave        5423 max         232 min
Histogram: 8 0 8 0 16 0 8 8 16 40
Neighs:        79213.5 ave      114970 max           0 min
Histogram: 8 4 4 0 10 6 8 8 24 32

Total # of neighbors = 8238200
Ave neighs/atom = 28.530464
Neighbor list builds = 0
Dangerous builds = 0
The dot product: 2.4098652417757e-07
Setting atom values ...
  1 settings made for x
  1 settings made for y
  1 settings made for z
Setting up cg style minimization ...
  Unit style    : metal
  Current step  : 661
Per MPI rank memory allocation (min/avg/max) = 5.441 | 5.816 | 6.074 Mbytes
Step PotEng KinEng TotEng v_fx v_fy v_fz 
     661     -1152449            0     -1152449 -0.0057947568 -0.0010937606  0.012003523 
    1000   -1152449.2            0   -1152449.2 -0.0030139565 -0.0059474666 -0.0098322494 
    1302   -1152449.4            0   -1152449.4 5.6143751e-06 1.8495491e-05 4.0482145e-05 
Loop time of 7.59282 on 104 procs for 641 steps with 288751 atoms

99.9% CPU use with 104 MPI tasks x 1 OpenMP threads

Minimization stats:
  Stopping criterion = energy tolerance
  Energy initial, next-to-last, final = 
     -1152448.95925156  -1152449.44072841  -1152449.44072841
  Force two-norm initial, final = 0.15186252 0.00011696437
  Force max component initial, final = 0.093817544 4.0482145e-05
  Final line search alpha, max atom move = 1.0000000 4.0482145e-05
  Iterations, force evaluations = 641 1282

MPI task timing breakdown:
Section |  min time  |  avg time  |  max time  |%varavg| %total
---------------------------------------------------------------
Pair    | 1.9899     | 5.4018     | 7.0646     |  62.1 | 71.14
Neigh   | 0.00016177 | 0.043955   | 0.06401    |   8.7 |  0.58
Comm    | 0.12237    | 1.2381     | 3.6435     |  91.1 | 16.31
Output  | 0.00023254 | 0.00024133 | 0.000424   |   0.0 |  0.00
Modify  | 8.3121e-05 | 0.010575   | 0.022764   |   4.9 |  0.14
Other   |            | 0.8982     |            |       | 11.83

Nlocal:        2776.45 ave        3954 max           0 min
Histogram: 8 4 4 0 4 12 8 0 30 34
Nghost:        3879.07 ave        5424 max         232 min
Histogram: 8 0 8 0 16 0 8 8 16 40
Neighs:        79213.3 ave      115191 max           0 min
Histogram: 8 4 4 0 10 6 8 8 24 32

Total # of neighbors = 8238182
Ave neighs/atom = 28.530402
Neighbor list builds = 15
Dangerous builds = 0
The dot product: 9.17554146988325e-06
Setting atom values ...
  1 settings made for x
  1 settings made for y
  1 settings made for z
Setting up cg style minimization ...
  Unit style    : metal
  Current step  : 1302
Per MPI rank memory allocation (min/avg/max) = 5.441 | 5.816 | 6.074 Mbytes
Step PotEng KinEng TotEng v_fx v_fy v_fz 
    1302   -1152449.4            0   -1152449.4   0.03773112 -0.084960926 -0.015910423 
    1500   -1152449.4            0   -1152449.4 -9.5382441e-06 -1.5985489e-05 -6.9324242e-06 
Loop time of 2.30325 on 104 procs for 198 steps with 288751 atoms

99.9% CPU use with 104 MPI tasks x 1 OpenMP threads

Minimization stats:
  Stopping criterion = energy tolerance
  Energy initial, next-to-last, final = 
     -1152449.43826474  -1152449.44110254  -1152449.44110254
  Force two-norm initial, final = 0.22076102 0.00013575475
  Force max component initial, final = 0.098307648 1.7987154e-05
  Final line search alpha, max atom move = 1.0000000 1.7987154e-05
  Iterations, force evaluations = 198 396

MPI task timing breakdown:
Section |  min time  |  avg time  |  max time  |%varavg| %total
---------------------------------------------------------------
Pair    | 0.59771    | 1.6633     | 2.1655     |  34.9 | 72.21
Neigh   | 0          | 0          | 0          |   0.0 |  0.00
Comm    | 0.036482   | 0.37433    | 1.1255     |  51.6 | 16.25
Output  | 0          | 0          | 0          |   0.0 |  0.00
Modify  | 2.4552e-05 | 0.0032703  | 0.0070265  |   2.7 |  0.14
Other   |            | 0.2624     |            |       | 11.39

Nlocal:        2776.45 ave        3961 max           0 min
Histogram: 8 4 4 0 6 10 8 4 26 34
Nghost:        3879.09 ave        5424 max         232 min
Histogram: 8 0 8 0 16 0 8 8 16 40
Neighs:        79213.4 ave      115392 max           0 min
Histogram: 8 4 4 0 10 6 8 8 24 32

Total # of neighbors = 8238198
Ave neighs/atom = 28.530457
Neighbor list builds = 0
Dangerous builds = 0
The dot product: 9.02777679449611e-08
Setting atom values ...
  1 settings made for x
  1 settings made for y
  1 settings made for z
Setting up cg style minimization ...
  Unit style    : metal
  Current step  : 1500
Per MPI rank memory allocation (min/avg/max) = 5.441 | 5.816 | 6.074 Mbytes
Step PotEng KinEng TotEng v_fx v_fy v_fz 
    1500   -1152449.4            0   -1152449.4 -0.013884367 -0.033382616 -0.014003548 
    1648   -1152449.4            0   -1152449.4 -2.4225961e-05 -3.7237131e-05 -1.7247578e-05 
Loop time of 1.74986 on 104 procs for 148 steps with 288751 atoms

99.9% CPU use with 104 MPI tasks x 1 OpenMP threads

Minimization stats:
  Stopping criterion = energy tolerance
  Energy initial, next-to-last, final = 
     -1152449.43664584  -1152449.43860902  -1152449.43860902
  Force two-norm initial, final = 0.20319665 0.00028416693
  Force max component initial, final = 0.096142293 5.0868534e-05
  Final line search alpha, max atom move = 1.0000000 5.0868534e-05
  Iterations, force evaluations = 148 296

MPI task timing breakdown:
Section |  min time  |  avg time  |  max time  |%varavg| %total
---------------------------------------------------------------
Pair    | 0.44374    | 1.2458     | 1.6325     |  30.3 | 71.20
Neigh   | 0          | 0          | 0          |   0.0 |  0.00
Comm    | 0.027268   | 0.28446    | 0.838      |  44.1 | 16.26
Output  | 0          | 0          | 0          |   0.0 |  0.00
Modify  | 1.8417e-05 | 0.0024477  | 0.0052677  |   2.3 |  0.14
Other   |            | 0.2171     |            |       | 12.41

Nlocal:        2776.45 ave        3960 max           0 min
Histogram: 8 4 4 0 4 12 8 4 26 34
Nghost:        3879.09 ave        5424 max         232 min
Histogram: 8 0 8 0 16 0 8 8 16 40
Neighs:        79213.5 ave      115329 max           0 min
Histogram: 8 4 4 0 10 6 8 8 24 32

Total # of neighbors = 8238200
Ave neighs/atom = 28.530464
Neighbor list builds = 0
Dangerous builds = 0
The dot product: 1.24902221186548e-07
Setting atom values ...
  1 settings made for x
  1 settings made for y
  1 settings made for z
Setting up cg style minimization ...
  Unit style    : metal
  Current step  : 1648
Per MPI rank memory allocation (min/avg/max) = 5.441 | 5.816 | 6.074 Mbytes
Step PotEng KinEng TotEng v_fx v_fy v_fz 
    1648   -1152449.4            0   -1152449.4 -0.017735465 -0.030848749 -0.014185928 
    1884   -1152449.4            0   -1152449.4 -1.3119278e-06 -2.7427721e-06 -1.2114485e-06 
Loop time of 2.75826 on 104 procs for 236 steps with 288751 atoms

99.9% CPU use with 104 MPI tasks x 1 OpenMP threads

Minimization stats:
  Stopping criterion = energy tolerance
  Energy initial, next-to-last, final = 
     -1152449.43215111  -1152449.43410089  -1152449.43410089
  Force two-norm initial, final = 0.20269406 1.4985151e-05
  Force max component initial, final = 0.098346394 2.9466054e-06
  Final line search alpha, max atom move = 1.0000000 2.9466054e-06
  Iterations, force evaluations = 236 472

MPI task timing breakdown:
Section |  min time  |  avg time  |  max time  |%varavg| %total
---------------------------------------------------------------
Pair    | 0.71078    | 1.9827     | 2.5881     |  38.2 | 71.88
Neigh   | 0          | 0          | 0          |   0.0 |  0.00
Comm    | 0.043497   | 0.44877    | 1.3389     |  55.8 | 16.27
Output  | 0          | 0          | 0          |   0.0 |  0.00
Modify  | 2.9901e-05 | 0.0038985  | 0.0083983  |   2.9 |  0.14
Other   |            | 0.3229     |            |       | 11.71

Nlocal:        2776.45 ave        3960 max           0 min
Histogram: 8 4 4 0 4 12 8 4 26 34
Nghost:        3879.16 ave        5426 max         232 min
Histogram: 8 0 8 0 16 0 8 8 16 40
Neighs:        79213.4 ave      115339 max           0 min
Histogram: 8 4 4 0 10 6 8 8 24 32

Total # of neighbors = 8238198
Ave neighs/atom = 28.530457
Neighbor list builds = 0
Dangerous builds = 0
The dot product: 8.92515532777117e-09
Setting atom values ...
  1 settings made for x
  1 settings made for y
  1 settings made for z
Setting up cg style minimization ...
  Unit style    : metal
  Current step  : 1884
Per MPI rank memory allocation (min/avg/max) = 5.441 | 5.816 | 6.074 Mbytes
Step PotEng KinEng TotEng v_fx v_fy v_fz 
    1884   -1152449.4            0   -1152449.4 -0.019011846  -0.02990201   -0.0144145 
    2000   -1152449.4            0   -1152449.4 -3.558574e-05 -3.2236574e-05 -1.8449287e-05 
    2051   -1152449.4            0   -1152449.4 7.3569067e-06 1.4059483e-05 6.4724268e-06 
Loop time of 1.95041 on 104 procs for 167 steps with 288751 atoms

99.9% CPU use with 104 MPI tasks x 1 OpenMP threads

Minimization stats:
  Stopping criterion = energy tolerance
  Energy initial, next-to-last, final = 
     -1152449.42564294  -1152449.42758241  -1152449.42758241
  Force two-norm initial, final = 0.20220954 0.00019709946
  Force max component initial, final = 0.10078661 2.7762252e-05
  Final line search alpha, max atom move = 1.0000000 2.7762252e-05
  Iterations, force evaluations = 167 334

MPI task timing breakdown:
Section |  min time  |  avg time  |  max time  |%varavg| %total
---------------------------------------------------------------
Pair    | 0.50471    | 1.4085     | 1.837      |  32.2 | 72.22
Neigh   | 0          | 0          | 0          |   0.0 |  0.00
Comm    | 0.030909   | 0.31925    | 0.9512     |  47.5 | 16.37
Output  | 0.00015313 | 0.0001587  | 0.00030491 |   0.0 |  0.01
Modify  | 2.1572e-05 | 0.0027598  | 0.0059419  |   2.5 |  0.14
Other   |            | 0.2197     |            |       | 11.27

Nlocal:        2776.45 ave        3959 max           0 min
Histogram: 8 4 4 0 4 12 8 4 26 34
Nghost:        3879.16 ave        5425 max         232 min
Histogram: 8 0 8 0 16 0 8 8 16 40
Neighs:        79213.5 ave      115324 max           0 min
Histogram: 8 4 4 0 10 6 8 8 24 32

Total # of neighbors = 8238200
Ave neighs/atom = 28.530464
Neighbor list builds = 0
Dangerous builds = 0
The dot product: -4.86505763542147e-08
Setting atom values ...
  1 settings made for x
  1 settings made for y
  1 settings made for z
Setting up cg style minimization ...
  Unit style    : metal
  Current step  : 2051
Per MPI rank memory allocation (min/avg/max) = 5.441 | 5.816 | 6.074 Mbytes
Step PotEng KinEng TotEng v_fx v_fy v_fz 
    2051   -1152449.4            0   -1152449.4  -0.02020007 -0.028785552 -0.014558914 
    2225   -1152449.4            0   -1152449.4 -1.6123012e-05 -3.375829e-05 -1.5576855e-05 
Loop time of 2.03395 on 104 procs for 174 steps with 288751 atoms

99.9% CPU use with 104 MPI tasks x 1 OpenMP threads

Minimization stats:
  Stopping criterion = energy tolerance
  Energy initial, next-to-last, final = 
     -1152449.41713238   -1152449.4190612   -1152449.4190612
  Force two-norm initial, final = 0.20169782 0.00015256486
  Force max component initial, final = 0.10320875 3.4257081e-05
  Final line search alpha, max atom move = 1.0000000 3.4257081e-05
  Iterations, force evaluations = 174 348

MPI task timing breakdown:
Section |  min time  |  avg time  |  max time  |%varavg| %total
---------------------------------------------------------------
Pair    | 0.52901    | 1.4627     | 1.9061     |  32.6 | 71.91
Neigh   | 0          | 0          | 0          |   0.0 |  0.00
Comm    | 0.029631   | 0.33181    | 1.0006     |  48.1 | 16.31
Output  | 0          | 0          | 0          |   0.0 |  0.00
Modify  | 2.195e-05  | 0.0028783  | 0.0062098  |   2.5 |  0.14
Other   |            | 0.2366     |            |       | 11.63

Nlocal:        2776.45 ave        3959 max           0 min
Histogram: 8 4 4 0 4 12 8 4 26 34
Nghost:        3879.18 ave        5424 max         232 min
Histogram: 8 0 8 0 16 0 8 8 16 40
Neighs:        79213.5 ave      115335 max           0 min
Histogram: 8 4 4 0 10 6 8 8 24 32

Total # of neighbors = 8238208
Ave neighs/atom = 28.530492
Neighbor list builds = 0
Dangerous builds = 0
The dot product: 1.15149577563515e-07
Setting atom values ...
  1 settings made for x
  1 settings made for y
  1 settings made for z
Setting up cg style minimization ...
  Unit style    : metal
  Current step  : 2225
Per MPI rank memory allocation (min/avg/max) = 5.441 | 5.816 | 6.074 Mbytes
Step PotEng KinEng TotEng v_fx v_fy v_fz 
    2225   -1152449.4            0   -1152449.4   -0.0215395 -0.027284184  -0.01457417 
    2404   -1152449.4            0   -1152449.4 6.0550139e-06 9.2176634e-06 4.6758461e-06 
Loop time of 2.1067 on 104 procs for 179 steps with 288751 atoms

99.9% CPU use with 104 MPI tasks x 1 OpenMP threads

Minimization stats:
  Stopping criterion = energy tolerance
  Energy initial, next-to-last, final = 
      -1152449.4066326  -1152449.40854936  -1152449.40854936
  Force two-norm initial, final = 0.20119119 0.00015254385
  Force max component initial, final = 0.10553968 3.6680559e-05
  Final line search alpha, max atom move = 1.0000000 3.6680559e-05
  Iterations, force evaluations = 179 358

MPI task timing breakdown:
Section |  min time  |  avg time  |  max time  |%varavg| %total
---------------------------------------------------------------
Pair    | 0.54114    | 1.5092     | 1.9602     |  33.2 | 71.64
Neigh   | 0          | 0          | 0          |   0.0 |  0.00
Comm    | 0.035054   | 0.34383    | 1.0204     |  49.1 | 16.32
Output  | 0          | 0          | 0          |   0.0 |  0.00
Modify  | 2.2442e-05 | 0.0029541  | 0.0063616  |   2.6 |  0.14
Other   |            | 0.2507     |            |       | 11.90

Nlocal:        2776.45 ave        3959 max           0 min
Histogram: 8 4 4 0 4 12 8 4 26 34
Nghost:        3879.14 ave        5424 max         232 min
Histogram: 8 0 8 0 16 0 8 8 16 40
Neighs:        79213.6 ave      115335 max           0 min
Histogram: 8 4 4 0 10 6 8 8 24 32

Total # of neighbors = 8238211
Ave neighs/atom = 28.530502
Neighbor list builds = 0
Dangerous builds = 0
The dot product: -3.46379332187529e-08
Setting atom values ...
  1 settings made for x
  1 settings made for y
  1 settings made for z
Setting up cg style minimization ...
  Unit style    : metal
  Current step  : 2404
Per MPI rank memory allocation (min/avg/max) = 5.441 | 5.816 | 6.074 Mbytes
Step PotEng KinEng TotEng v_fx v_fy v_fz 
    2404   -1152449.4            0   -1152449.4 -0.023046306 -0.025257508 -0.014405669 
    2561   -1152449.4            0   -1152449.4 6.0790578e-06 4.9575541e-06 3.1508863e-06 
Loop time of 1.83187 on 104 procs for 157 steps with 288751 atoms

99.9% CPU use with 104 MPI tasks x 1 OpenMP threads

Minimization stats:
  Stopping criterion = energy tolerance
  Energy initial, next-to-last, final = 
     -1152449.39415965  -1152449.39606366  -1152449.39606366
  Force two-norm initial, final = 0.20066877 0.00024045444
  Force max component initial, final = 0.1079212 1.5400751e-05
  Final line search alpha, max atom move = 1.0000000 1.5400751e-05
  Iterations, force evaluations = 157 314

MPI task timing breakdown:
Section |  min time  |  avg time  |  max time  |%varavg| %total
---------------------------------------------------------------
Pair    | 0.47356    | 1.3192     | 1.7235     |  31.0 | 72.01
Neigh   | 0          | 0          | 0          |   0.0 |  0.00
Comm    | 0.02733    | 0.29864    | 0.89617    |  45.6 | 16.30
Output  | 0          | 0          | 0          |   0.0 |  0.00
Modify  | 2.0368e-05 | 0.0025917  | 0.0056008  |   2.4 |  0.14
Other   |            | 0.2114     |            |       | 11.54

Nlocal:        2776.45 ave        3958 max           0 min
Histogram: 8 4 4 0 4 12 8 4 26 34
Nghost:        3879.18 ave        5424 max         232 min
Histogram: 8 0 8 0 16 0 8 8 16 40
Neighs:        79213.6 ave      115307 max           0 min
Histogram: 8 4 4 0 10 6 8 8 24 32

Total # of neighbors = 8238211
Ave neighs/atom = 28.530502
Neighbor list builds = 0
Dangerous builds = 0
The dot product: -2.42482874422114e-08
Setting atom values ...
  1 settings made for x
  1 settings made for y
  1 settings made for z
Setting up cg style minimization ...
  Unit style    : metal
  Current step  : 2561
Per MPI rank memory allocation (min/avg/max) = 5.441 | 5.816 | 6.074 Mbytes
Step PotEng KinEng TotEng v_fx v_fy v_fz 
    2561   -1152449.4            0   -1152449.4 -0.024826708 -0.022803589 -0.014108382 
    2721   -1152449.4            0   -1152449.4 -3.4931386e-05 -6.6426488e-05 -3.3135996e-05 
Loop time of 1.87513 on 104 procs for 160 steps with 288751 atoms

99.9% CPU use with 104 MPI tasks x 1 OpenMP threads

Minimization stats:
  Stopping criterion = energy tolerance
  Energy initial, next-to-last, final = 
     -1152449.37973552  -1152449.38162796  -1152449.38162796
  Force two-norm initial, final = 0.20023346 0.00022782656
  Force max component initial, final = 0.11018843 6.6426488e-05
  Final line search alpha, max atom move = 1.0000000 6.6426488e-05
  Iterations, force evaluations = 160 320

MPI task timing breakdown:
Section |  min time  |  avg time  |  max time  |%varavg| %total
---------------------------------------------------------------
Pair    | 0.48302    | 1.3454     | 1.7678     |  31.5 | 71.75
Neigh   | 0          | 0          | 0          |   0.0 |  0.00
Comm    | 0.030428   | 0.30725    | 0.90622    |  45.6 | 16.39
Output  | 0          | 0          | 0          |   0.0 |  0.00
Modify  | 2.0281e-05 | 0.0026495  | 0.0056694  |   2.4 |  0.14
Other   |            | 0.2198     |            |       | 11.72

Nlocal:        2776.45 ave        3958 max           0 min
Histogram: 8 4 4 0 4 12 8 4 26 34
Nghost:        3879.17 ave        5424 max         232 min
Histogram: 8 0 8 0 16 0 8 8 16 40
Neighs:        79213.6 ave      115321 max           0 min
Histogram: 8 4 4 0 10 6 8 8 24 32

Total # of neighbors = 8238211
Ave neighs/atom = 28.530502
Neighbor list builds = 0
Dangerous builds = 0
The dot product: 2.24053761809986e-07
Setting atom values ...
  1 settings made for x
  1 settings made for y
  1 settings made for z
Setting up cg style minimization ...
  Unit style    : metal
  Current step  : 2721
Per MPI rank memory allocation (min/avg/max) = 5.441 | 5.816 | 6.074 Mbytes
Step PotEng KinEng TotEng v_fx v_fy v_fz 
    2721   -1152449.4            0   -1152449.4 -0.026846849 -0.019996156  -0.01370225 
    2887   -1152449.4            0   -1152449.4 7.0649811e-07 6.0026589e-07 3.8963515e-07 
Loop time of 1.92664 on 104 procs for 166 steps with 288751 atoms

99.9% CPU use with 104 MPI tasks x 1 OpenMP threads

Minimization stats:
  Stopping criterion = energy tolerance
  Energy initial, next-to-last, final = 
     -1152449.36339037  -1152449.36526898  -1152449.36526898
  Force two-norm initial, final = 0.19993699 0.00018781515
  Force max component initial, final = 0.11239227 5.8911642e-06
  Final line search alpha, max atom move = 1.0000000 5.8911642e-06
  Iterations, force evaluations = 166 332

MPI task timing breakdown:
Section |  min time  |  avg time  |  max time  |%varavg| %total
---------------------------------------------------------------
Pair    | 0.50134    | 1.394      | 1.8157     |  32.0 | 72.36
Neigh   | 0          | 0          | 0          |   0.0 |  0.00
Comm    | 0.031223   | 0.31376    | 0.94277    |  47.4 | 16.29
Output  | 0          | 0          | 0          |   0.0 |  0.00
Modify  | 2.0612e-05 | 0.0027439  | 0.0059031  |   2.5 |  0.14
Other   |            | 0.2161     |            |       | 11.22

Nlocal:        2776.45 ave        3957 max           0 min
Histogram: 8 4 4 0 4 12 8 4 26 34
Nghost:        3879.16 ave        5424 max         232 min
Histogram: 8 0 8 0 16 0 8 8 16 40
Neighs:        79213.6 ave      115290 max           0 min
Histogram: 8 4 4 0 10 6 8 8 24 32

Total # of neighbors = 8238210
Ave neighs/atom = 28.530499
Neighbor list builds = 0
Dangerous builds = 0
The dot product: -2.85436239039886e-09
Setting atom values ...
  1 settings made for x
  1 settings made for y
  1 settings made for z
Setting up cg style minimization ...
  Unit style    : metal
  Current step  : 2887
Per MPI rank memory allocation (min/avg/max) = 5.441 | 5.816 | 6.074 Mbytes
Step PotEng KinEng TotEng v_fx v_fy v_fz 
    2887   -1152449.3            0   -1152449.3 -0.028814006 -0.017947009 -0.013569885 
    3000   -1152449.3            0   -1152449.3 0.00014858249 0.0002578999 0.00013557921 
    3052   -1152449.3            0   -1152449.3 5.2958888e-06 1.0525351e-05 5.3613221e-06 
Loop time of 1.93969 on 104 procs for 165 steps with 288751 atoms

99.9% CPU use with 104 MPI tasks x 1 OpenMP threads

Minimization stats:
  Stopping criterion = energy tolerance
  Energy initial, next-to-last, final = 
     -1152449.34516403  -1152449.34702071  -1152449.34702071
  Force two-norm initial, final = 0.1997701 0.00019725875
  Force max component initial, final = 0.11455229 1.7700462e-05
  Final line search alpha, max atom move = 1.0000000 1.7700462e-05
  Iterations, force evaluations = 165 330

MPI task timing breakdown:
Section |  min time  |  avg time  |  max time  |%varavg| %total
---------------------------------------------------------------
Pair    | 0.49627    | 1.3898     | 1.8231     |  32.0 | 71.65
Neigh   | 0          | 0          | 0          |   0.0 |  0.00
Comm    | 0.03099    | 0.31693    | 0.94191    |  46.6 | 16.34
Output  | 0.00016698 | 0.00016939 | 0.00029852 |   0.0 |  0.01
Modify  | 2.0931e-05 | 0.0027249  | 0.0058652  |   2.5 |  0.14
Other   |            | 0.2301     |            |       | 11.86

Nlocal:        2776.45 ave        3957 max           0 min
Histogram: 8 4 4 0 4 12 8 4 26 34
Nghost:        3879.16 ave        5424 max         232 min
Histogram: 8 0 8 0 16 0 8 8 16 40
Neighs:        79213.6 ave      115299 max           0 min
Histogram: 8 4 4 0 10 6 8 8 24 32

Total # of neighbors = 8238214
Ave neighs/atom = 28.530512
Neighbor list builds = 0
Dangerous builds = 0
The dot product: -3.38990353253341e-08
Setting atom values ...
  1 settings made for x
  1 settings made for y
  1 settings made for z
Setting up cg style minimization ...
  Unit style    : metal
  Current step  : 3052
Per MPI rank memory allocation (min/avg/max) = 5.441 | 5.816 | 6.074 Mbytes
Step PotEng KinEng TotEng v_fx v_fy v_fz 
    3052   -1152449.3            0   -1152449.3 -0.031972659 -0.015273756 -0.013474449 
    3253   -1152449.3            0   -1152449.3 1.1534794e-05 1.7206743e-05 9.5504017e-06 
Loop time of 2.33929 on 104 procs for 201 steps with 288751 atoms

99.9% CPU use with 104 MPI tasks x 1 OpenMP threads

Minimization stats:
  Stopping criterion = energy tolerance
  Energy initial, next-to-last, final = 
     -1152449.32511751  -1152449.32695119  -1152449.32695119
  Force two-norm initial, final = 0.20002486 6.9808795e-05
  Force max component initial, final = 0.11675831 1.7206743e-05
  Final line search alpha, max atom move = 1.0000000 1.7206743e-05
  Iterations, force evaluations = 201 402

MPI task timing breakdown:
Section |  min time  |  avg time  |  max time  |%varavg| %total
---------------------------------------------------------------
Pair    | 0.60516    | 1.6872     | 2.196      |  35.2 | 72.12
Neigh   | 0          | 0          | 0          |   0.0 |  0.00
Comm    | 0.038802   | 0.38214    | 1.1382     |  51.7 | 16.34
Output  | 0          | 0          | 0          |   0.0 |  0.00
Modify  | 2.4957e-05 | 0.0033248  | 0.0071617  |   2.7 |  0.14
Other   |            | 0.2666     |            |       | 11.40

Nlocal:        2776.45 ave        3956 max           0 min
Histogram: 8 4 4 0 4 12 8 0 30 34
Nghost:        3879.12 ave        5424 max         232 min
Histogram: 8 0 8 0 16 0 8 8 16 40
Neighs:        79213.6 ave      115263 max           0 min
Histogram: 8 4 4 0 10 6 8 8 24 32

Total # of neighbors = 8238215
Ave neighs/atom = 28.530516
Neighbor list builds = 0
Dangerous builds = 0
The dot product: -6.67727517384466e-08
Setting atom values ...
  1 settings made for x
  1 settings made for y
  1 settings made for z
Setting up cg style minimization ...
  Unit style    : metal
  Current step  : 3253
Per MPI rank memory allocation (min/avg/max) = 5.441 | 5.816 | 6.074 Mbytes
Step PotEng KinEng TotEng v_fx v_fy v_fz 
    3253   -1152449.3            0   -1152449.3 -0.037819855 -0.010031634   -0.0130556 
    3460   -1152449.3            0   -1152449.3 1.963432e-06 6.5501926e-07 7.3198702e-07 
Loop time of 2.43622 on 104 procs for 207 steps with 288751 atoms

99.9% CPU use with 104 MPI tasks x 1 OpenMP threads

Minimization stats:
  Stopping criterion = energy tolerance
  Energy initial, next-to-last, final = 
     -1152449.30335192  -1152449.30663272  -1152449.30663272
  Force two-norm initial, final = 0.20118482 0.00013073835
  Force max component initial, final = 0.11894983 2.1989427e-05
  Final line search alpha, max atom move = 1.0000000 2.1989427e-05
  Iterations, force evaluations = 207 414

MPI task timing breakdown:
Section |  min time  |  avg time  |  max time  |%varavg| %total
---------------------------------------------------------------
Pair    | 0.6251     | 1.7459     | 2.2775     |  35.9 | 71.67
Neigh   | 0          | 0          | 0          |   0.0 |  0.00
Comm    | 0.0373     | 0.39977    | 1.1859     |  52.6 | 16.41
Output  | 0          | 0          | 0          |   0.0 |  0.00
Modify  | 2.6954e-05 | 0.0034236  | 0.0073424  |   2.8 |  0.14
Other   |            | 0.2871     |            |       | 11.78

Nlocal:        2776.45 ave        3954 max           0 min
Histogram: 8 4 4 0 4 12 8 0 30 34
Nghost:        3879.06 ave        5424 max         232 min
Histogram: 8 0 8 0 16 0 8 8 16 40
Neighs:        79213.6 ave      115190 max           0 min
Histogram: 8 4 4 0 10 6 8 8 24 32

Total # of neighbors = 8238218
Ave neighs/atom = 28.530526
Neighbor list builds = 0
Dangerous builds = 0
The dot product: -8.8319213934716e-08
Setting atom values ...
  1 settings made for x
  1 settings made for y
  1 settings made for z
Setting up cg style minimization ...
  Unit style    : metal
  Current step  : 3460
Per MPI rank memory allocation (min/avg/max) = 5.441 | 5.816 | 6.074 Mbytes
Step PotEng KinEng TotEng v_fx v_fy v_fz 
    3460   -1152449.3            0   -1152449.3  -0.16213163   0.12380761 -0.022863317 
    3690   -1152449.3            0   -1152449.3 2.1237598e-06 4.2260325e-06 2.0278358e-06 
Loop time of 2.68879 on 104 procs for 230 steps with 288751 atoms

99.9% CPU use with 104 MPI tasks x 1 OpenMP threads

Minimization stats:
  Stopping criterion = energy tolerance
  Energy initial, next-to-last, final = 
     -1152449.28513054   -1152449.3395943   -1152449.3395943
  Force two-norm initial, final = 0.2814316 0.00023388299
  Force max component initial, final = 0.16213163 7.7306119e-06
  Final line search alpha, max atom move = 1.0000000 7.7306119e-06
  Iterations, force evaluations = 230 459

MPI task timing breakdown:
Section |  min time  |  avg time  |  max time  |%varavg| %total
---------------------------------------------------------------
Pair    | 0.69919    | 1.929      | 2.509      |  37.4 | 71.74
Neigh   | 2.0828e-05 | 0.0058681  | 0.0085283  |   3.2 |  0.22
Comm    | 0.041602   | 0.43569    | 1.3039     |  55.0 | 16.20
Output  | 0          | 0          | 0          |   0.0 |  0.00
Modify  | 2.9103e-05 | 0.0037935  | 0.0081201  |   2.9 |  0.14
Other   |            | 0.3145     |            |       | 11.70

Nlocal:        2776.45 ave        3956 max           0 min
Histogram: 8 4 4 0 4 12 8 0 30 34
Nghost:        3879.15 ave        5424 max         232 min
Histogram: 8 0 8 0 16 0 8 8 16 40
Neighs:        79213.5 ave      115256 max           0 min
Histogram: 8 4 4 0 10 6 8 8 24 32

Total # of neighbors = 8238209
[...]

Nlocal:        2776.45 ave        3961 max           0 min
Histogram: 8 4 4 0 6 10 8 4 26 34
Nghost:        3879.09 ave        5425 max         232 min
Histogram: 8 0 8 0 16 0 8 8 16 40
Neighs:        79213.4 ave      115383 max           0 min
Histogram: 8 4 4 0 10 6 8 8 24 32

Total # of neighbors = 8238194
Ave neighs/atom = 28.530443
Neighbor list builds = 0
Dangerous builds = 0
The dot product: 1.66833954122234e-09
Setting atom values ...
  1 settings made for x
  1 settings made for y
  1 settings made for z
Setting up cg style minimization ...
  Unit style    : metal
  Current step  : 13601
Per MPI rank memory allocation (min/avg/max) = 5.441 | 5.816 | 6.074 Mbytes
Step PotEng KinEng TotEng v_fx v_fy v_fz 
   13601   -1152449.4            0   -1152449.4 -0.020431878 -0.012030411 -0.034025864 
   13807   -1152449.4            0   -1152449.4 1.4558695e-06 -4.8250183e-06 1.7071845e-06 
Loop time of 2.4094 on 104 procs for 206 steps with 288751 atoms

99.9% CPU use with 104 MPI tasks x 1 OpenMP threads

Minimization stats:
  Stopping criterion = energy tolerance
  Energy initial, next-to-last, final = 
     -1152449.42405225  -1152449.42539752  -1152449.42539752
  Force two-norm initial, final = 0.16866192 5.1885945e-05
  Force max component initial, final = 0.07271471 1.0166512e-05
  Final line search alpha, max atom move = 1.0000000 1.0166512e-05
  Iterations, force evaluations = 206 412

MPI task timing breakdown:
Section |  min time  |  avg time  |  max time  |%varavg| %total
---------------------------------------------------------------
Pair    | 0.61973    | 1.7335     | 2.2698     |  35.7 | 71.95
Neigh   | 0          | 0          | 0          |   0.0 |  0.00
Comm    | 0.036694   | 0.39607    | 1.1658     |  51.8 | 16.44
Output  | 0          | 0          | 0          |   0.0 |  0.00
Modify  | 2.4484e-05 | 0.0033983  | 0.0073372  |   2.7 |  0.14
Other   |            | 0.2765     |            |       | 11.47

Nlocal:        2776.45 ave        3961 max           0 min
Histogram: 8 4 4 0 6 10 8 4 26 34
Nghost:        3879.09 ave        5424 max         232 min
Histogram: 8 0 8 0 16 0 8 8 16 40
Neighs:        79213.4 ave      115385 max           0 min
Histogram: 8 4 4 0 10 6 8 8 24 32

Total # of neighbors = 8238193
Ave neighs/atom = 28.530440
Neighbor list builds = 0
Dangerous builds = 0
The dot product: -9.03501644658034e-09
Setting atom values ...
  1 settings made for x
  1 settings made for y
  1 settings made for z
Setting up cg style minimization ...
  Unit style    : metal
  Current step  : 13807
Per MPI rank memory allocation (min/avg/max) = 5.441 | 5.816 | 6.074 Mbytes
Step PotEng KinEng TotEng v_fx v_fy v_fz 
   13807   -1152449.4            0   -1152449.4  -0.01950201 -0.013362632 -0.032804216 
   14000   -1152449.4            0   -1152449.4 5.9739285e-06 -1.7898821e-06 9.310741e-06 
   14037   -1152449.4            0   -1152449.4 1.5507428e-06 2.7482696e-06 2.8199465e-06 
Loop time of 2.72794 on 104 procs for 230 steps with 288751 atoms

99.9% CPU use with 104 MPI tasks x 1 OpenMP threads

Minimization stats:
  Stopping criterion = energy tolerance
  Energy initial, next-to-last, final = 
      -1152449.4166886  -1152449.41800368  -1152449.41800368
  Force two-norm initial, final = 0.16706062 1.6946892e-05
  Force max component initial, final = 0.0733848 2.8199465e-06
  Final line search alpha, max atom move = 1.0000000 2.8199465e-06
  Iterations, force evaluations = 230 460

MPI task timing breakdown:
Section |  min time  |  avg time  |  max time  |%varavg| %total
---------------------------------------------------------------
Pair    | 0.6907     | 1.9317     | 2.5412     |  37.7 | 70.81
Neigh   | 0          | 0          | 0          |   0.0 |  0.00
Comm    | 0.042195   | 0.44228    | 1.3003     |  54.5 | 16.21
Output  | 0.00027654 | 0.00028573 | 0.00044079 |   0.0 |  0.01
Modify  | 2.7462e-05 | 0.0037929  | 0.0081935  |   2.9 |  0.14
Other   |            | 0.3499     |            |       | 12.83

Nlocal:        2776.45 ave        3961 max           0 min
Histogram: 8 4 4 0 6 10 8 4 26 34
Nghost:        3879.16 ave        5424 max         232 min
Histogram: 8 0 8 0 16 0 8 8 16 40
Neighs:        79213.4 ave      115376 max           0 min
Histogram: 8 4 4 0 10 6 8 8 24 32

Total # of neighbors = 8238193
Ave neighs/atom = 28.530440
Neighbor list builds = 0
Dangerous builds = 0
The dot product: -4.64143568503619e-09
Setting atom values ...
  1 settings made for x
  1 settings made for y
  1 settings made for z
Setting up cg style minimization ...
  Unit style    : metal
  Current step  : 14037
Per MPI rank memory allocation (min/avg/max) = 5.441 | 5.816 | 6.074 Mbytes
Step PotEng KinEng TotEng v_fx v_fy v_fz 
   14037   -1152449.4            0   -1152449.4 -0.018514445 -0.014793725 -0.031486283 
   14247   -1152449.4            0   -1152449.4 -8.1550673e-08 4.9372088e-06 4.8603024e-07 
Loop time of 2.45562 on 104 procs for 210 steps with 288751 atoms

99.9% CPU use with 104 MPI tasks x 1 OpenMP threads

Minimization stats:
  Stopping criterion = energy tolerance
  Energy initial, next-to-last, final = 
     -1152449.40795921   -1152449.4092478   -1152449.4092478
  Force two-norm initial, final = 0.16571511 4.1639240e-05
  Force max component initial, final = 0.074073956 4.9372088e-06
  Final line search alpha, max atom move = 1.0000000 4.9372088e-06
  Iterations, force evaluations = 210 420

MPI task timing breakdown:
Section |  min time  |  avg time  |  max time  |%varavg| %total
---------------------------------------------------------------
Pair    | 0.6312     | 1.7668     | 2.3156     |  36.0 | 71.95
Neigh   | 0          | 0          | 0          |   0.0 |  0.00
Comm    | 0.037118   | 0.40244    | 1.1889     |  52.8 | 16.39
Output  | 0          | 0          | 0          |   0.0 |  0.00
Modify  | 2.4974e-05 | 0.0034646  | 0.0074389  |   2.8 |  0.14
Other   |            | 0.2829     |            |       | 11.52

Nlocal:        2776.45 ave        3961 max           0 min
Histogram: 8 4 4 0 6 10 8 4 26 34
Nghost:        3879.14 ave        5425 max         232 min
Histogram: 8 0 8 0 16 0 8 8 16 40
Neighs:        79213.4 ave      115386 max           0 min
Histogram: 8 4 4 0 10 6 8 8 24 32

Total # of neighbors = 8238196
Ave neighs/atom = 28.530450
Neighbor list builds = 0
Dangerous builds = 0
The dot product: 1.36997807411336e-09
Setting atom values ...
  1 settings made for x
  1 settings made for y
  1 settings made for z
Setting up cg style minimization ...
  Unit style    : metal
  Current step  : 14247
Per MPI rank memory allocation (min/avg/max) = 5.441 | 5.816 | 6.074 Mbytes
Step PotEng KinEng TotEng v_fx v_fy v_fz 
   14247   -1152449.4            0   -1152449.4 -0.017601126 -0.016059574 -0.030253143 
   14441   -1152449.4            0   -1152449.4 -6.4955016e-06 -8.8636858e-06 -1.153059e-05 
Loop time of 2.28157 on 104 procs for 194 steps with 288751 atoms

99.9% CPU use with 104 MPI tasks x 1 OpenMP threads

Minimization stats:
  Stopping criterion = energy tolerance
  Energy initial, next-to-last, final = 
     -1152449.39783222  -1152449.39909975  -1152449.39909975
  Force two-norm initial, final = 0.16467439 8.6477342e-05
  Force max component initial, final = 0.074731829 2.3480167e-05
  Final line search alpha, max atom move = 1.0000000 2.3480167e-05
  Iterations, force evaluations = 194 388

MPI task timing breakdown:
Section |  min time  |  avg time  |  max time  |%varavg| %total
---------------------------------------------------------------
Pair    | 0.58225    | 1.6286     | 2.1391     |  34.6 | 71.38
Neigh   | 0          | 0          | 0          |   0.0 |  0.00
Comm    | 0.033744   | 0.36979    | 1.1023     |  50.3 | 16.21
Output  | 0          | 0          | 0          |   0.0 |  0.00
Modify  | 2.429e-05  | 0.0032001  | 0.0068651  |   2.7 |  0.14
Other   |            | 0.28       |            |       | 12.27

Nlocal:        2776.45 ave        3961 max           0 min
Histogram: 8 4 4 0 6 10 8 4 26 34
Nghost:        3879.12 ave        5424 max         232 min
Histogram: 8 0 8 0 16 0 8 8 16 40
Neighs:        79213.4 ave      115396 max           0 min
Histogram: 8 4 4 0 10 6 8 8 24 32

Total # of neighbors = 8238195
Ave neighs/atom = 28.530447
Neighbor list builds = 0
Dangerous builds = 0
The dot product: 2.06439637950639e-08
Setting atom values ...
  1 settings made for x
  1 settings made for y
  1 settings made for z
Setting up cg style minimization ...
  Unit style    : metal
  Current step  : 14441
Per MPI rank memory allocation (min/avg/max) = 5.441 | 5.816 | 6.074 Mbytes
Step PotEng KinEng TotEng v_fx v_fy v_fz 
   14441   -1152449.4            0   -1152449.4 -0.016782896 -0.017137185 -0.029139054 
   14617   -1152449.4            0   -1152449.4 2.2528651e-05 -5.7217607e-06 3.5536041e-05 
Loop time of 2.07472 on 104 procs for 176 steps with 288751 atoms

99.9% CPU use with 104 MPI tasks x 1 OpenMP threads

Minimization stats:
  Stopping criterion = energy tolerance
  Energy initial, next-to-last, final = 
     -1152449.38628536  -1152449.38753742  -1152449.38753742
  Force two-norm initial, final = 0.1639268 0.00014557914
  Force max component initial, final = 0.075362277 3.5536041e-05
  Final line search alpha, max atom move = 1.0000000 3.5536041e-05
  Iterations, force evaluations = 176 352

MPI task timing breakdown:
Section |  min time  |  avg time  |  max time  |%varavg| %total
---------------------------------------------------------------
Pair    | 0.52933    | 1.4812     | 1.9429     |  33.0 | 71.39
Neigh   | 0          | 0          | 0          |   0.0 |  0.00
Comm    | 0.030477   | 0.33951    | 0.99771    |  48.1 | 16.36
Output  | 0          | 0          | 0          |   0.0 |  0.00
Modify  | 2.0779e-05 | 0.0029081  | 0.0062952  |   2.6 |  0.14
Other   |            | 0.2511     |            |       | 12.10

Nlocal:        2776.45 ave        3961 max           0 min
Histogram: 8 4 4 0 6 10 8 4 26 34
Nghost:        3879.12 ave        5425 max         232 min
Histogram: 8 0 8 0 16 0 8 8 16 40
Neighs:        79213.4 ave      115399 max           0 min
Histogram: 8 4 4 0 10 6 8 8 24 32

Total # of neighbors = 8238194
Ave neighs/atom = 28.530443
Neighbor list builds = 0
Dangerous builds = 0
The dot product: -6.59069505081339e-08
Setting atom values ...
  1 settings made for x
  1 settings made for y
  1 settings made for z
Setting up cg style minimization ...
  Unit style    : metal
  Current step  : 14617
Per MPI rank memory allocation (min/avg/max) = 5.441 | 5.816 | 6.074 Mbytes
Step PotEng KinEng TotEng v_fx v_fy v_fz 
   14617   -1152449.4            0   -1152449.4 -0.016023474  -0.01798801 -0.028083347 
   14791   -1152449.4            0   -1152449.4 -2.3313655e-05 -1.5500001e-05 -3.9528899e-05 
Loop time of 2.03246 on 104 procs for 174 steps with 288751 atoms

99.9% CPU use with 104 MPI tasks x 1 OpenMP threads

Minimization stats:
  Stopping criterion = energy tolerance
  Energy initial, next-to-last, final = 
     -1152449.37330275  -1152449.37454385  -1152449.37454385
  Force two-norm initial, final = 0.16335774 0.00016071873
  Force max component initial, final = 0.075969533 3.9528899e-05
  Final line search alpha, max atom move = 1.0000000 3.9528899e-05
  Iterations, force evaluations = 174 348

MPI task timing breakdown:
Section |  min time  |  avg time  |  max time  |%varavg| %total
---------------------------------------------------------------
Pair    | 0.52191    | 1.462      | 1.916      |  32.7 | 71.93
Neigh   | 0          | 0          | 0          |   0.0 |  0.00
Comm    | 0.030495   | 0.33039    | 0.97983    |  47.9 | 16.26
Output  | 0          | 0          | 0          |   0.0 |  0.00
Modify  | 2.1178e-05 | 0.0028692  | 0.0061572  |   2.5 |  0.14
Other   |            | 0.2372     |            |       | 11.67

Nlocal:        2776.45 ave        3961 max           0 min
Histogram: 8 4 4 0 6 10 8 4 26 34
Nghost:        3879.12 ave        5424 max         232 min
Histogram: 8 0 8 0 16 0 8 8 16 40
Neighs:        79213.4 ave      115399 max           0 min
Histogram: 8 4 4 0 10 6 8 8 24 32

Total # of neighbors = 8238192
Ave neighs/atom = 28.530436
Neighbor list builds = 0
Dangerous builds = 0
The dot product: 6.70588767872393e-08
Setting atom values ...
  1 settings made for x
  1 settings made for y
  1 settings made for z
Setting up cg style minimization ...
  Unit style    : metal
  Current step  : 14791
Per MPI rank memory allocation (min/avg/max) = 5.441 | 5.816 | 6.074 Mbytes
Step PotEng KinEng TotEng v_fx v_fy v_fz 
   14791   -1152449.4            0   -1152449.4 -0.015411473 -0.018659617 -0.027235577 
   14967   -1152449.4            0   -1152449.4 8.4539158e-06 3.4499088e-06 1.4091244e-05 
Loop time of 2.07235 on 104 procs for 176 steps with 288751 atoms

99.9% CPU use with 104 MPI tasks x 1 OpenMP threads

Minimization stats:
  Stopping criterion = energy tolerance
  Energy initial, next-to-last, final = 
       -1152449.358871  -1152449.36010707  -1152449.36010707
  Force two-norm initial, final = 0.16306391 0.00014275119
  Force max component initial, final = 0.076523773 1.4091244e-05
  Final line search alpha, max atom move = 1.0000000 1.4091244e-05
  Iterations, force evaluations = 176 352

MPI task timing breakdown:
Section |  min time  |  avg time  |  max time  |%varavg| %total
---------------------------------------------------------------
Pair    | 0.52801    | 1.4826     | 1.95       |  33.1 | 71.54
Neigh   | 0          | 0          | 0          |   0.0 |  0.00
Comm    | 0.030083   | 0.33967    | 1.0013     |  48.3 | 16.39
Output  | 0          | 0          | 0          |   0.0 |  0.00
Modify  | 2.0794e-05 | 0.0029064  | 0.0063193  |   2.5 |  0.14
Other   |            | 0.2471     |            |       | 11.93

Nlocal:        2776.45 ave        3961 max           0 min
Histogram: 8 4 4 0 6 10 8 4 26 34
Nghost:        3879.12 ave        5424 max         232 min
Histogram: 8 0 8 0 16 0 8 8 16 40
Neighs:        79213.4 ave      115392 max           0 min
Histogram: 8 4 4 0 10 6 8 8 24 32

Total # of neighbors = 8238191
Ave neighs/atom = 28.530433
Neighbor list builds = 0
Dangerous builds = 0
The dot product: -2.20834016495044e-08
Setting atom values ...
  1 settings made for x
  1 settings made for y
  1 settings made for z
Setting up cg style minimization ...
  Unit style    : metal
  Current step  : 14967
Per MPI rank memory allocation (min/avg/max) = 5.441 | 5.816 | 6.074 Mbytes
Step PotEng KinEng TotEng v_fx v_fy v_fz 
   14967   -1152449.3            0   -1152449.3 -0.014778612 -0.019144451 -0.026324208 
   15000   -1152449.3            0   -1152449.3 -0.00033836229 -0.00011011004 -0.00056152242 
   15194   -1152449.3            0   -1152449.3 1.4057622e-06 -1.975187e-06 2.0276767e-06 
Loop time of 2.66316 on 104 procs for 227 steps with 288751 atoms

99.9% CPU use with 104 MPI tasks x 1 OpenMP threads

Minimization stats:
  Stopping criterion = energy tolerance
  Energy initial, next-to-last, final = 
     -1152449.34298395  -1152449.34421866  -1152449.34421866
  Force two-norm initial, final = 0.16283185 2.1720146e-05
  Force max component initial, final = 0.077077081 2.2771050e-06
  Final line search alpha, max atom move = 1.0000000 2.2771050e-06
  Iterations, force evaluations = 227 454

MPI task timing breakdown:
Section |  min time  |  avg time  |  max time  |%varavg| %total
---------------------------------------------------------------
Pair    | 0.68137    | 1.9063     | 2.5044     |  37.4 | 71.58
Neigh   | 0          | 0          | 0          |   0.0 |  0.00
Comm    | 0.041836   | 0.43257    | 1.2812     |  54.7 | 16.24
Output  | 0.00015393 | 0.00016341 | 0.00025706 |   0.0 |  0.01
Modify  | 2.7432e-05 | 0.003746   | 0.0080451  |   2.9 |  0.14
Other   |            | 0.3204     |            |       | 12.03

Nlocal:        2776.45 ave        3961 max           0 min
Histogram: 8 4 4 0 6 10 8 4 26 34
Nghost:        3879.16 ave        5424 max         232 min
Histogram: 8 0 8 0 16 0 8 8 16 40
Neighs:        79213.4 ave      115392 max           0 min
Histogram: 8 4 4 0 10 6 8 8 24 32

Total # of neighbors = 8238191
Ave neighs/atom = 28.530433
Neighbor list builds = 0
Dangerous builds = 0
The dot product: -2.41714563735334e-09
Setting atom values ...
  1 settings made for x
  1 settings made for y
  1 settings made for z
Setting up cg style minimization ...
  Unit style    : metal
  Current step  : 15194
Per MPI rank memory allocation (min/avg/max) = 5.441 | 5.816 | 6.074 Mbytes
Step PotEng KinEng TotEng v_fx v_fy v_fz 
   15194   -1152449.3            0   -1152449.3 -0.014201905 -0.019508712 -0.025479665 
   15504   -1152449.3            0   -1152449.3 -5.9265126e-09 6.1110949e-08 -1.9175246e-09 
Loop time of 3.61964 on 104 procs for 310 steps with 288751 atoms

99.9% CPU use with 104 MPI tasks x 1 OpenMP threads

Minimization stats:
  Stopping criterion = energy tolerance
  Energy initial, next-to-last, final = 
     -1152449.32563567  -1152449.32687437  -1152449.32687437
  Force two-norm initial, final = 0.16280588 7.0871932e-07
  Force max component initial, final = 0.077576003 6.1110949e-08
  Final line search alpha, max atom move = 1.0000000 6.1110949e-08
  Iterations, force evaluations = 310 620

MPI task timing breakdown:
Section |  min time  |  avg time  |  max time  |%varavg| %total
---------------------------------------------------------------
Pair    | 0.93295    | 2.6046     | 3.4135     |  43.7 | 71.96
Neigh   | 0          | 0          | 0          |   0.0 |  0.00
Comm    | 0.054567   | 0.59487    | 1.7527     |  63.6 | 16.43
Output  | 0          | 0          | 0          |   0.0 |  0.00
Modify  | 3.703e-05  | 0.005115   | 0.01103    |   3.4 |  0.14
Other   |            | 0.415      |            |       | 11.47

Nlocal:        2776.45 ave        3961 max           0 min
Histogram: 8 4 4 0 6 10 8 4 26 34
Nghost:        3879.16 ave        5424 max         232 min
Histogram: 8 0 8 0 16 0 8 8 16 40
Neighs:        79213.4 ave      115392 max           0 min
Histogram: 8 4 4 0 10 6 8 8 24 32

Total # of neighbors = 8238192
Ave neighs/atom = 28.530436
Neighbor list builds = 0
Dangerous builds = 0
The dot product: -2.66081662055278e-12
Setting up cg style minimization ...
  Unit style    : metal
  Current step  : 15504
Per MPI rank memory allocation (min/avg/max) = 5.441 | 5.816 | 6.074 Mbytes
Step PotEng KinEng TotEng v_fx v_fy v_fz 
   15504   -1152449.3            0   -1152449.3   0.76742796  0.059571838  -0.47336211 
   15786   -1152449.4            0   -1152449.4 1.5977331e-06 -3.1386642e-06 -3.7860626e-06 
Loop time of 3.3328 on 104 procs for 282 steps with 288751 atoms

99.9% CPU use with 104 MPI tasks x 1 OpenMP threads

Minimization stats:
  Stopping criterion = energy tolerance
  Energy initial, next-to-last, final = 
     -1152449.32687437  -1152449.44109324  -1152449.44109324
  Force two-norm initial, final = 0.90364051 2.2481287e-05
  Force max component initial, final = 0.76742796 4.4067532e-06
  Final line search alpha, max atom move = 1.0000000 4.4067532e-06
  Iterations, force evaluations = 282 564

MPI task timing breakdown:
Section |  min time  |  avg time  |  max time  |%varavg| %total
---------------------------------------------------------------
Pair    | 0.85089    | 2.3676     | 3.1057     |  41.6 | 71.04
Neigh   | 1.0074e-05 | 0.0029411  | 0.0042975  |   2.2 |  0.09
Comm    | 0.050742   | 0.5395     | 1.6047     |  60.9 | 16.19
Output  | 0          | 0          | 0          |   0.0 |  0.00
Modify  | 3.0127e-05 | 0.0030291  | 0.0078261  |   3.4 |  0.09
Other   |            | 0.4197     |            |       | 12.59

Nlocal:        2776.45 ave        3961 max           0 min
Histogram: 8 4 4 0 6 10 8 4 26 34
Nghost:        3879.11 ave        5424 max         232 min
Histogram: 8 0 8 0 16 0 8 8 16 40
Neighs:        79213.4 ave      115392 max           0 min
Histogram: 8 4 4 0 10 6 8 8 24 32

Total # of neighbors = 8238192
Ave neighs/atom = 28.530436
Neighbor list builds = 1
Dangerous builds = 0
