LAMMPS (29 Oct 2020)
OMP_NUM_THREADS environment is not set. Defaulting to 1 thread. (../comm.cpp:94)
  using 1 OpenMP thread(s) per MPI task
OMP_NUM_THREADS environment is not set. Defaulting to 1 thread. (../comm.cpp:94)
  using 1 OpenMP thread(s) per MPI task
Reading data file ...
  orthogonal box = (-122.39241 -121.13707 -37.090501) to (122.39241 121.13707 37.090501)
  13 by 4 by 2 MPI processor grid
  reading atoms ...
  288751 atoms
  read_data CPU = 0.380 seconds
199981 atoms in group inner
88770 atoms in group outer
1 atoms in group carbon
Neighbor list info ...
  update every 1 steps, delay 0 steps, check yes
  max neighbors/atom: 2000, page size: 100000
  master list distance cutoff = 5.6
  ghost atom cutoff = 5.6
  binsize = 2.8, bins = 88 87 27
  1 neighbor lists, perpetual/occasional/extra = 1 0 0
  (1) pair eam/alloy, perpetual
      attributes: half, newton on
      pair build: half/bin/atomonly/newton
      stencil: half/bin/3d/newton
      bin: standard
Setting up cg style minimization ...
  Unit style    : metal
  Current step  : 0
Per MPI rank memory allocation (min/avg/max) = 5.441 | 5.816 | 6.074 Mbytes
Step v_fx v_fy v_fz PotEng KinEng TotEng 
       0   -1.4877285   -1.1060716   -2.5033134   -1152447.8            0   -1152447.8 
     158 7.1877279e-06 1.0472536e-05 3.6695263e-05   -1152449.5            0   -1152449.5 
Loop time of 1.92427 on 104 procs for 158 steps with 288751 atoms

99.8% CPU use with 104 MPI tasks x 1 OpenMP threads

Minimization stats:
  Stopping criterion = energy tolerance
  Energy initial, next-to-last, final = 
     -1152447.78702555   -1152449.4503527   -1152449.4503527
  Force two-norm initial, final = 10.135687 0.0001582131
  Force max component initial, final = 4.5376345 4.0220312e-05
  Final line search alpha, max atom move = 1.0000000 4.0220312e-05
  Iterations, force evaluations = 158 315

MPI task timing breakdown:
Section |  min time  |  avg time  |  max time  |%varavg| %total
---------------------------------------------------------------
Pair    | 0.49337    | 1.3366     | 1.7588     |  30.8 | 69.46
Neigh   | 3.3345e-05 | 0.0087434  | 0.012672   |   3.9 |  0.45
Comm    | 0.040264   | 0.31266    | 0.89533    |  43.8 | 16.25
Output  | 0          | 0          | 0          |   0.0 |  0.00
Modify  | 1.743e-05  | 0.0017047  | 0.0043825  |   2.6 |  0.09
Other   |            | 0.2645     |            |       | 13.75

Nlocal:        2776.45 ave        3960 max           0 min
Histogram: 8 4 4 0 4 12 8 2 28 34
Nghost:        3879.01 ave        5424 max         232 min
Histogram: 8 0 8 0 16 0 8 8 16 40
Neighs:        79213.5 ave      115442 max           0 min
Histogram: 8 4 4 0 10 6 8 8 24 32

Total # of neighbors = 8238207
Ave neighs/atom = 28.530488
Neighbor list builds = 3
Dangerous builds = 1
Setting atom values ...
  1 settings made for x
  1 settings made for y
  1 settings made for z
Setting up cg style minimization ...
  Unit style    : metal
  Current step  : 158
Per MPI rank memory allocation (min/avg/max) = 5.441 | 5.816 | 6.074 Mbytes
Step PotEng KinEng TotEng v_fx v_fy v_fz 
     158   -1152449.4            0   -1152449.4 -0.0077648732 0.0064574466 0.0012567335 
     296   -1152449.5            0   -1152449.5 -5.7384059e-07 3.5142591e-07 -3.0875143e-07 
Loop time of 1.66071 on 104 procs for 138 steps with 288751 atoms

99.8% CPU use with 104 MPI tasks x 1 OpenMP threads

Minimization stats:
  Stopping criterion = energy tolerance
  Energy initial, next-to-last, final = 
     -1152449.44945344  -1152449.45006285  -1152449.45006285
  Force two-norm initial, final = 0.1154145 0.00012310178
  Force max component initial, final = 0.051707769 3.6993618e-06
  Final line search alpha, max atom move = 1.0000000 3.6993618e-06
  Iterations, force evaluations = 138 276

MPI task timing breakdown:
Section |  min time  |  avg time  |  max time  |%varavg| %total
---------------------------------------------------------------
Pair    | 0.41903    | 1.1772     | 1.5283     |  29.1 | 70.88
Neigh   | 0          | 0          | 0          |   0.0 |  0.00
Comm    | 0.024284   | 0.27201    | 0.80172    |  41.9 | 16.38
Output  | 0          | 0          | 0          |   0.0 |  0.00
Modify  | 1.6753e-05 | 0.0022869  | 0.0048721  |   2.2 |  0.14
Other   |            | 0.2092     |            |       | 12.60

Nlocal:        2776.45 ave        3961 max           0 min
Histogram: 8 4 4 0 6 10 8 2 28 34
Nghost:        3879.01 ave        5424 max         232 min
Histogram: 8 0 8 0 16 0 8 8 16 40
Neighs:        79213.4 ave      115455 max           0 min
Histogram: 8 4 4 0 10 6 8 8 24 32

Total # of neighbors = 8238198
Ave neighs/atom = 28.530457
Neighbor list builds = 0
Dangerous builds = 0
Setting atom values ...
  1 settings made for x
  1 settings made for y
  1 settings made for z
Setting up cg style minimization ...
  Unit style    : metal
  Current step  : 296
Per MPI rank memory allocation (min/avg/max) = 5.441 | 5.816 | 6.074 Mbytes
Step PotEng KinEng TotEng v_fx v_fy v_fz 
     296   -1152449.4            0   -1152449.4 -0.018707446  0.018075276 0.0026667374 
     456   -1152449.4            0   -1152449.4 9.8715719e-08 -3.9194638e-06 -1.5010114e-05 
Loop time of 1.92134 on 104 procs for 160 steps with 288751 atoms

99.8% CPU use with 104 MPI tasks x 1 OpenMP threads

Minimization stats:
  Stopping criterion = energy tolerance
  Energy initial, next-to-last, final = 
     -1152449.44670614  -1152449.44838209  -1152449.44838209
  Force two-norm initial, final = 0.19212155 0.0001635496
  Force max component initial, final = 0.080078113 1.5010114e-05
  Final line search alpha, max atom move = 1.0000000 1.5010114e-05
  Iterations, force evaluations = 160 320

MPI task timing breakdown:
Section |  min time  |  avg time  |  max time  |%varavg| %total
---------------------------------------------------------------
Pair    | 0.48738    | 1.35       | 1.7679     |  31.4 | 70.26
Neigh   | 0          | 0          | 0          |   0.0 |  0.00
Comm    | 0.037008   | 0.30962    | 0.90523    |  45.0 | 16.11
Output  | 0          | 0          | 0          |   0.0 |  0.00
Modify  | 2.0198e-05 | 0.0026473  | 0.005648   |   2.4 |  0.14
Other   |            | 0.2591     |            |       | 13.49

Nlocal:        2776.45 ave        3961 max           0 min
Histogram: 8 4 4 0 6 10 8 2 28 34
Nghost:        3879.01 ave        5426 max         232 min
Histogram: 8 0 8 0 16 0 8 8 16 40
Neighs:        79213.5 ave      115455 max           0 min
Histogram: 8 4 4 0 10 6 8 8 24 32

Total # of neighbors = 8238199
Ave neighs/atom = 28.530461
Neighbor list builds = 0
Dangerous builds = 0
The dot product: 1.56612925895176e-08
Setting atom values ...
  1 settings made for x
  1 settings made for y
  1 settings made for z
Setting up cg style minimization ...
  Unit style    : metal
  Current step  : 456
Per MPI rank memory allocation (min/avg/max) = 5.441 | 5.816 | 6.074 Mbytes
Step PotEng KinEng TotEng v_fx v_fy v_fz 
     456   -1152449.4            0   -1152449.4 -0.023602805  0.026762835 0.0026636744 
     612   -1152449.4            0   -1152449.4 1.1808545e-06 5.0773254e-07 8.8719952e-06 
Loop time of 1.84515 on 104 procs for 156 steps with 288751 atoms

99.9% CPU use with 104 MPI tasks x 1 OpenMP threads

Minimization stats:
  Stopping criterion = energy tolerance
  Energy initial, next-to-last, final = 
     -1152449.44354969   -1152449.4452268   -1152449.4452268
  Force two-norm initial, final = 0.19231292 7.0434464e-05
  Force max component initial, final = 0.076200709 8.8719952e-06
  Final line search alpha, max atom move = 1.0000000 8.8719952e-06
  Iterations, force evaluations = 156 312

MPI task timing breakdown:
Section |  min time  |  avg time  |  max time  |%varavg| %total
---------------------------------------------------------------
Pair    | 0.47219    | 1.3211     | 1.7114     |  31.1 | 71.60
Neigh   | 0          | 0          | 0          |   0.0 |  0.00
Comm    | 0.028521   | 0.29994    | 0.90971    |  45.3 | 16.26
Output  | 0          | 0          | 0          |   0.0 |  0.00
Modify  | 1.8774e-05 | 0.0025842  | 0.00553    |   2.4 |  0.14
Other   |            | 0.2216     |            |       | 12.01

Nlocal:        2776.45 ave        3960 max           0 min
Histogram: 8 4 4 0 4 12 8 2 28 34
Nghost:        3879.01 ave        5425 max         232 min
Histogram: 8 0 8 0 16 0 8 8 16 40
Neighs:        79213.5 ave      115424 max           0 min
Histogram: 8 4 4 0 10 6 8 8 24 32

Total # of neighbors = 8238201
Ave neighs/atom = 28.530467
Neighbor list builds = 0
Dangerous builds = 0
The dot product: -1.91832259552068e-08
Setting atom values ...
  1 settings made for x
  1 settings made for y
  1 settings made for z
Setting up cg style minimization ...
  Unit style    : metal
  Current step  : 612
Per MPI rank memory allocation (min/avg/max) = 5.441 | 5.816 | 6.074 Mbytes
Step PotEng KinEng TotEng v_fx v_fy v_fz 
     612   -1152449.4            0   -1152449.4 -0.025603318  0.033909974 0.0039138882 
     770   -1152449.4            0   -1152449.4 3.3468977e-07 9.8203244e-07 8.7300065e-06 
Loop time of 1.85526 on 104 procs for 158 steps with 288751 atoms

99.9% CPU use with 104 MPI tasks x 1 OpenMP threads

Minimization stats:
  Stopping criterion = energy tolerance
  Energy initial, next-to-last, final = 
     -1152449.43890926  -1152449.44057825  -1152449.44057825
  Force two-norm initial, final = 0.19189412 2.4237835e-05
  Force max component initial, final = 0.07340191 8.7300065e-06
  Final line search alpha, max atom move = 1.0000000 8.7300065e-06
  Iterations, force evaluations = 158 316

MPI task timing breakdown:
Section |  min time  |  avg time  |  max time  |%varavg| %total
---------------------------------------------------------------
Pair    | 0.47885    | 1.328      | 1.7285     |  31.1 | 71.58
Neigh   | 0          | 0          | 0          |   0.0 |  0.00
Comm    | 0.034473   | 0.29964    | 0.89152    |  45.3 | 16.15
Output  | 0          | 0          | 0          |   0.0 |  0.00
Modify  | 1.9516e-05 | 0.0026162  | 0.0055782  |   2.4 |  0.14
Other   |            | 0.225      |            |       | 12.13

Nlocal:        2776.45 ave        3960 max           0 min
Histogram: 8 4 4 0 4 12 8 2 28 34
Nghost:        3879.01 ave        5425 max         232 min
Histogram: 8 0 8 0 16 0 8 8 16 40
Neighs:        79213.5 ave      115424 max           0 min
Histogram: 8 4 4 0 10 6 8 8 24 32

Total # of neighbors = 8238201
Ave neighs/atom = 28.530467
Neighbor list builds = 0
Dangerous builds = 0
The dot product: -1.51934989676532e-08
Setting atom values ...
  1 settings made for x
  1 settings made for y
  1 settings made for z
Setting up cg style minimization ...
  Unit style    : metal
  Current step  : 770
Per MPI rank memory allocation (min/avg/max) = 5.441 | 5.816 | 6.074 Mbytes
Step PotEng KinEng TotEng v_fx v_fy v_fz 
     770   -1152449.4            0   -1152449.4 -0.025933225  0.039457898  0.006116932 
     921   -1152449.4            0   -1152449.4 3.1993985e-07 -8.1314029e-07 -2.6541244e-06 
Loop time of 1.78176 on 104 procs for 151 steps with 288751 atoms

99.9% CPU use with 104 MPI tasks x 1 OpenMP threads

Minimization stats:
  Stopping criterion = energy tolerance
  Energy initial, next-to-last, final = 
     -1152449.43275219  -1152449.43440589  -1152449.43440589
  Force two-norm initial, final = 0.1909962 2.8613420e-05
  Force max component initial, final = 0.073760674 2.6541244e-06
  Final line search alpha, max atom move = 1.0000000 2.6541244e-06
  Iterations, force evaluations = 151 302

MPI task timing breakdown:
Section |  min time  |  avg time  |  max time  |%varavg| %total
---------------------------------------------------------------
Pair    | 0.45553    | 1.277      | 1.6602     |  30.6 | 71.67
Neigh   | 0          | 0          | 0          |   0.0 |  0.00
Comm    | 0.026931   | 0.28864    | 0.86487    |  44.5 | 16.20
Output  | 0          | 0          | 0          |   0.0 |  0.00
Modify  | 1.8027e-05 | 0.0024949  | 0.0053391  |   2.4 |  0.14
Other   |            | 0.2136     |            |       | 11.99

Nlocal:        2776.45 ave        3960 max           0 min
Histogram: 8 4 4 0 4 12 8 2 28 34
Nghost:        3879.01 ave        5426 max         232 min
Histogram: 8 0 8 0 16 0 8 8 16 40
Neighs:        79213.5 ave      115424 max           0 min
Histogram: 8 4 4 0 10 6 8 8 24 32

Total # of neighbors = 8238200
Ave neighs/atom = 28.530464
Neighbor list builds = 0
Dangerous builds = 0
The dot product: 6.46889200515603e-10
Setting atom values ...
  1 settings made for x
  1 settings made for y
  1 settings made for z
Setting up cg style minimization ...
  Unit style    : metal
  Current step  : 921
Per MPI rank memory allocation (min/avg/max) = 5.441 | 5.816 | 6.074 Mbytes
Step PotEng KinEng TotEng v_fx v_fy v_fz 
     921   -1152449.4            0   -1152449.4 -0.025536373  0.043952159 0.0090524064 
    1000   -1152449.4            0   -1152449.4 1.3057643e-05 -2.8734433e-05 -6.8558606e-05 
    1040   -1152449.4            0   -1152449.4 -6.2017718e-07 -4.7439176e-06 -5.9126602e-05 
Loop time of 1.411 on 104 procs for 119 steps with 288751 atoms

99.9% CPU use with 104 MPI tasks x 1 OpenMP threads

Minimization stats:
  Stopping criterion = energy tolerance
  Energy initial, next-to-last, final = 
     -1152449.42504369  -1152449.42667916  -1152449.42667916
  Force two-norm initial, final = 0.1898731 0.00016792381
  Force max component initial, final = 0.073423473 5.9126602e-05
  Final line search alpha, max atom move = 1.0000000 5.9126602e-05
  Iterations, force evaluations = 119 238

MPI task timing breakdown:
Section |  min time  |  avg time  |  max time  |%varavg| %total
---------------------------------------------------------------
Pair    | 0.35967    | 0.99972    | 1.3184     |  27.0 | 70.85
Neigh   | 0          | 0          | 0          |   0.0 |  0.00
Comm    | 0.022596   | 0.22768    | 0.67102    |  39.1 | 16.14
Output  | 0.00035201 | 0.00035573 | 0.00046541 |   0.0 |  0.03
Modify  | 1.4868e-05 | 0.0019693  | 0.004206   |   2.1 |  0.14
Other   |            | 0.1813     |            |       | 12.85

Nlocal:        2776.45 ave        3959 max           0 min
Histogram: 8 4 4 0 4 12 8 2 28 34
Nghost:        3879.01 ave        5426 max         232 min
Histogram: 8 0 8 0 16 0 8 8 16 40
Neighs:        79213.5 ave      115390 max           0 min
Histogram: 8 4 4 0 10 6 8 8 24 32

Total # of neighbors = 8238202
Ave neighs/atom = 28.530471
Neighbor list builds = 0
Dangerous builds = 0
The dot product: 7.29563937442869e-08
Setting atom values ...
  1 settings made for x
  1 settings made for y
  1 settings made for z
Setting up cg style minimization ...
  Unit style    : metal
  Current step  : 1040
Per MPI rank memory allocation (min/avg/max) = 5.441 | 5.816 | 6.074 Mbytes
Step PotEng KinEng TotEng v_fx v_fy v_fz 
    1040   -1152449.4            0   -1152449.4  -0.02490584  0.047953236   0.01251058 
    1191   -1152449.4            0   -1152449.4 -2.1394477e-07 -2.961532e-08 -5.6504877e-06 
Loop time of 1.75353 on 104 procs for 151 steps with 288751 atoms

99.9% CPU use with 104 MPI tasks x 1 OpenMP threads

Minimization stats:
  Stopping criterion = energy tolerance
  Energy initial, next-to-last, final = 
     -1152449.41575821  -1152449.41737502  -1152449.41737502
  Force two-norm initial, final = 0.18870617 5.0240951e-05
  Force max component initial, final = 0.072491557 5.6504877e-06
  Final line search alpha, max atom move = 1.0000000 5.6504877e-06
  Iterations, force evaluations = 151 302

MPI task timing breakdown:
Section |  min time  |  avg time  |  max time  |%varavg| %total
---------------------------------------------------------------
Pair    | 0.45429    | 1.2714     | 1.6501     |  30.4 | 72.50
Neigh   | 0          | 0          | 0          |   0.0 |  0.00
Comm    | 0.028201   | 0.28377    | 0.85464    |  44.9 | 16.18
Output  | 0          | 0          | 0          |   0.0 |  0.00
Modify  | 1.8039e-05 | 0.0024945  | 0.0053735  |   2.4 |  0.14
Other   |            | 0.1959     |            |       | 11.17

Nlocal:        2776.45 ave        3959 max           0 min
Histogram: 8 4 4 0 4 12 8 2 28 34
Nghost:        3879.01 ave        5427 max         232 min
Histogram: 8 0 8 0 16 0 8 8 16 40
Neighs:        79213.5 ave      115390 max           0 min
Histogram: 8 4 4 0 10 6 8 8 24 32

Total # of neighbors = 8238201
Ave neighs/atom = 28.530467
Neighbor list builds = 0
Dangerous builds = 0
The dot product: 6.92089038714379e-09
Setting atom values ...
  1 settings made for x
  1 settings made for y
  1 settings made for z
Setting up cg style minimization ...
  Unit style    : metal
  Current step  : 1191
Per MPI rank memory allocation (min/avg/max) = 5.441 | 5.816 | 6.074 Mbytes
Step PotEng KinEng TotEng v_fx v_fy v_fz 
    1191   -1152449.4            0   -1152449.4 -0.024299141  0.052064567  0.016630015 
    1350   -1152449.4            0   -1152449.4 6.4547545e-07 -2.0838476e-06 -1.1509694e-05 
Loop time of 1.8716 on 104 procs for 159 steps with 288751 atoms

99.9% CPU use with 104 MPI tasks x 1 OpenMP threads

Minimization stats:
  Stopping criterion = energy tolerance
  Energy initial, next-to-last, final = 
     -1152449.40488155  -1152449.40648233  -1152449.40648233
  Force two-norm initial, final = 0.18773721 4.0601536e-05
  Force max component initial, final = 0.071100623 1.1509694e-05
  Final line search alpha, max atom move = 1.0000000 1.1509694e-05
  Iterations, force evaluations = 159 318

MPI task timing breakdown:
Section |  min time  |  avg time  |  max time  |%varavg| %total
---------------------------------------------------------------
Pair    | 0.47877    | 1.3358     | 1.7564     |  31.3 | 71.37
Neigh   | 0          | 0          | 0          |   0.0 |  0.00
Comm    | 0.030522   | 0.30185    | 0.89479    |  45.6 | 16.13
Output  | 0          | 0          | 0          |   0.0 |  0.00
Modify  | 1.9056e-05 | 0.0026261  | 0.0056067  |   2.4 |  0.14
Other   |            | 0.2313     |            |       | 12.36

Nlocal:        2776.45 ave        3958 max           0 min
Histogram: 8 4 4 0 4 12 8 2 28 34
Nghost:        3879.01 ave        5425 max         232 min
Histogram: 8 0 8 0 16 0 8 8 16 40
Neighs:        79213.5 ave      115348 max           0 min
Histogram: 8 4 4 0 10 6 8 8 24 32

Total # of neighbors = 8238200
Ave neighs/atom = 28.530464
Neighbor list builds = 0
Dangerous builds = 0
The dot product: -6.62272027063603e-09
Setting atom values ...
  1 settings made for x
  1 settings made for y
  1 settings made for z
Setting up cg style minimization ...
  Unit style    : metal
  Current step  : 1350
Per MPI rank memory allocation (min/avg/max) = 5.441 | 5.816 | 6.074 Mbytes
Step PotEng KinEng TotEng v_fx v_fy v_fz 
    1350   -1152449.4            0   -1152449.4 -0.023817911  0.056916549  0.021483999 
    1484   -1152449.4            0   -1152449.4 3.0242591e-07 4.8959577e-07 2.0068518e-05 
Loop time of 1.58127 on 104 procs for 134 steps with 288751 atoms

99.9% CPU use with 104 MPI tasks x 1 OpenMP threads

Minimization stats:
  Stopping criterion = energy tolerance
  Energy initial, next-to-last, final = 
     -1152449.39241389  -1152449.39400791  -1152449.39400791
  Force two-norm initial, final = 0.18715219 8.5616699e-05
  Force max component initial, final = 0.069081183 2.0068518e-05
  Final line search alpha, max atom move = 1.0000000 2.0068518e-05
  Iterations, force evaluations = 134 268

MPI task timing breakdown:
Section |  min time  |  avg time  |  max time  |%varavg| %total
---------------------------------------------------------------
Pair    | 0.40762    | 1.1354     | 1.4669     |  28.7 | 71.80
Neigh   | 0          | 0          | 0          |   0.0 |  0.00
Comm    | 0.027392   | 0.25837    | 0.77514    |  41.9 | 16.34
Output  | 0          | 0          | 0          |   0.0 |  0.00
Modify  | 1.6998e-05 | 0.0022247  | 0.0047663  |   2.2 |  0.14
Other   |            | 0.1853     |            |       | 11.72

Nlocal:        2776.45 ave        3958 max           0 min
Histogram: 8 4 4 0 4 12 8 2 28 34
Nghost:        3879.01 ave        5424 max         232 min
Histogram: 8 0 8 0 16 0 8 8 16 40
Neighs:        79213.4 ave      115348 max           0 min
Histogram: 8 4 4 0 10 6 8 8 24 32

Total # of neighbors = 8238198
Ave neighs/atom = 28.530457
Neighbor list builds = 0
Dangerous builds = 0
The dot product: 6.41597794268961e-09
Setting atom values ...
  1 settings made for x
  1 settings made for y
  1 settings made for z
Setting up cg style minimization ...
  Unit style    : metal
  Current step  : 1484
Per MPI rank memory allocation (min/avg/max) = 5.441 | 5.816 | 6.074 Mbytes
Step PotEng KinEng TotEng v_fx v_fy v_fz 
    1484   -1152449.4            0   -1152449.4 -0.023448854  0.063316388  0.027499746 
    1644   -1152449.4            0   -1152449.4 6.6219804e-07 -1.4447963e-06 4.1954322e-06 
Loop time of 1.88499 on 104 procs for 160 steps with 288751 atoms

99.9% CPU use with 104 MPI tasks x 1 OpenMP threads

Minimization stats:
  Stopping criterion = energy tolerance
  Energy initial, next-to-last, final = 
     -1152449.37838093  -1152449.37999024  -1152449.37999024
  Force two-norm initial, final = 0.18738365 2.4665776e-05
  Force max component initial, final = 0.066317686 4.1954322e-06
  Final line search alpha, max atom move = 1.0000000 4.1954322e-06
  Iterations, force evaluations = 160 320

MPI task timing breakdown:
Section |  min time  |  avg time  |  max time  |%varavg| %total
---------------------------------------------------------------
Pair    | 0.48249    | 1.3498     | 1.7633     |  31.5 | 71.61
Neigh   | 0          | 0          | 0          |   0.0 |  0.00
Comm    | 0.029049   | 0.30473    | 0.90477    |  45.8 | 16.17
Output  | 0          | 0          | 0          |   0.0 |  0.00
Modify  | 1.9019e-05 | 0.0026456  | 0.0056828  |   2.4 |  0.14
Other   |            | 0.2278     |            |       | 12.09

Nlocal:        2776.45 ave        3958 max           0 min
Histogram: 8 4 4 0 4 12 8 2 28 34
Nghost:        3879.05 ave        5424 max         232 min
Histogram: 8 0 8 0 16 0 8 8 16 40
Neighs:        79213.4 ave      115348 max           0 min
Histogram: 8 4 4 0 10 6 8 8 24 32

Total # of neighbors = 8238198
Ave neighs/atom = 28.530457
Neighbor list builds = 0
Dangerous builds = 0
The dot product: -7.09231860400118e-09
Setting atom values ...
  1 settings made for x
  1 settings made for y
  1 settings made for z
Setting up cg style minimization ...
  Unit style    : metal
  Current step  : 1644
Per MPI rank memory allocation (min/avg/max) = 5.441 | 5.816 | 6.074 Mbytes
Step PotEng KinEng TotEng v_fx v_fy v_fz 
    1644   -1152449.4            0   -1152449.4 -0.023602741  0.074674638  0.038030101 
    1768   -1152449.4            0   -1152449.4 2.269821e-06 -3.9268201e-06 2.8395201e-05 
Loop time of 1.45987 on 104 procs for 124 steps with 288751 atoms

99.9% CPU use with 104 MPI tasks x 1 OpenMP threads

Minimization stats:
  Stopping criterion = energy tolerance
  Energy initial, next-to-last, final = 
     -1152449.36286924  -1152449.36461538  -1152449.36461538
  Force two-norm initial, final = 0.19052664 0.00014657002
  Force max component initial, final = 0.074674638 2.8395201e-05
  Final line search alpha, max atom move = 1.0000000 2.8395201e-05
  Iterations, force evaluations = 124 248

MPI task timing breakdown:
Section |  min time  |  avg time  |  max time  |%varavg| %total
---------------------------------------------------------------
Pair    | 0.37357    | 1.0492     | 1.3695     |  27.6 | 71.87
Neigh   | 0          | 0          | 0          |   0.0 |  0.00
Comm    | 0.026531   | 0.23863    | 0.70845    |  40.3 | 16.35
Output  | 0          | 0          | 0          |   0.0 |  0.00
Modify  | 1.5339e-05 | 0.0020505  | 0.0043913  |   2.1 |  0.14
Other   |            | 0.17       |            |       | 11.64

Nlocal:        2776.45 ave        3957 max           0 min
Histogram: 8 4 4 0 4 12 8 2 28 34
Nghost:        3879.05 ave        5426 max         232 min
Histogram: 8 0 8 0 16 0 8 8 16 40
Neighs:        79213.4 ave      115326 max           0 min
Histogram: 8 4 4 0 10 6 8 8 24 32

Total # of neighbors = 8238197
Ave neighs/atom = 28.530454
Neighbor list builds = 0
Dangerous builds = 0
The dot product: 9.77342451626299e-08
Setting atom values ...
  1 settings made for x
  1 settings made for y
  1 settings made for z
Setting up cg style minimization ...
  Unit style    : metal
  Current step  : 1768
Per MPI rank memory allocation (min/avg/max) = 5.441 | 5.816 | 6.074 Mbytes
Step PotEng KinEng TotEng v_fx v_fy v_fz 
    1768   -1152449.3            0   -1152449.3 -0.023552775   0.10247837  0.062657001 
    1907   -1152449.4            0   -1152449.4 -1.0511157e-05 2.6770216e-05 -5.6552581e-05 
Loop time of 1.61314 on 104 procs for 139 steps with 288751 atoms

99.9% CPU use with 104 MPI tasks x 1 OpenMP threads

Minimization stats:
  Stopping criterion = energy tolerance
  Energy initial, next-to-last, final = 
     -1152449.34635943  -1152449.35088797  -1152449.35088797
  Force two-norm initial, final = 0.20594689 0.00022931639
  Force max component initial, final = 0.10247837 5.6552581e-05
  Final line search alpha, max atom move = 1.0000000 5.6552581e-05
  Iterations, force evaluations = 139 278

MPI task timing breakdown:
Section |  min time  |  avg time  |  max time  |%varavg| %total
---------------------------------------------------------------
Pair    | 0.42078    | 1.1653     | 1.5159     |  29.1 | 72.24
Neigh   | 0          | 0          | 0          |   0.0 |  0.00
Comm    | 0.026673   | 0.26072    | 0.78142    |  42.8 | 16.16
Output  | 0          | 0          | 0          |   0.0 |  0.00
Modify  | 1.6928e-05 | 0.0022948  | 0.004887   |   2.3 |  0.14
Other   |            | 0.1848     |            |       | 11.46

Nlocal:        2776.45 ave        3958 max           0 min
Histogram: 8 4 4 0 4 12 8 2 28 34
Nghost:        3879.05 ave        5429 max         232 min
Histogram: 8 0 8 0 16 0 8 8 16 40
Neighs:        79213.4 ave      115348 max           0 min
Histogram: 8 4 4 0 10 6 8 8 24 32

Total # of neighbors = 8238192
Ave neighs/atom = 28.530436
Neighbor list builds = 0
Dangerous builds = 0
The dot product: -6.77685175755578e-07
Setting atom values ...
  1 settings made for x
  1 settings made for y
  1 settings made for z
Setting up cg style minimization ...
  Unit style    : metal
  Current step  : 1907
Per MPI rank memory allocation (min/avg/max) = 5.441 | 5.816 | 6.074 Mbytes
Step PotEng KinEng TotEng v_fx v_fy v_fz 
    1907   -1152449.3            0   -1152449.3  0.023726947   0.21798835   0.13877996 
    2000   -1152449.3            0   -1152449.3 4.8192914e-05 -0.00022830009 0.00018486175 
    2155   -1152449.3            0   -1152449.3 -1.1982059e-06 -2.9716385e-06 -5.8464336e-06 
Loop time of 2.89907 on 104 procs for 248 steps with 288751 atoms

99.9% CPU use with 104 MPI tasks x 1 OpenMP threads

Minimization stats:
  Stopping criterion = energy tolerance
  Energy initial, next-to-last, final = 
     -1152449.33554851  -1152449.34591904  -1152449.34591904
  Force two-norm initial, final = 0.29928521 3.7055089e-05
  Force max component initial, final = 0.21798835 1.0737354e-05
  Final line search alpha, max atom move = 1.0000000 1.0737354e-05
  Iterations, force evaluations = 248 496

MPI task timing breakdown:
Section |  min time  |  avg time  |  max time  |%varavg| %total
---------------------------------------------------------------
Pair    | 0.74758    | 2.0875     | 2.721      |  39.0 | 72.01
Neigh   | 1.0202e-05 | 0.0029353  | 0.0042795  |   2.2 |  0.10
Comm    | 0.045519   | 0.47042    | 1.415      |  57.2 | 16.23
Output  | 0.00023109 | 0.00023862 | 0.00035543 |   0.0 |  0.01
Modify  | 3.0291e-05 | 0.004092   | 0.0087357  |   3.0 |  0.14
Other   |            | 0.3339     |            |       | 11.52

Nlocal:        2776.45 ave        3959 max           0 min
Histogram: 8 4 4 0 4 12 8 2 28 34
Nghost:        3879.05 ave        5427 max         232 min
Histogram: 8 0 8 0 16 0 8 8 16 40
Neighs:        79213.4 ave      115392 max           0 min
Histogram: 8 4 4 0 10 6 8 8 24 32

Total # of neighbors = 8238196
Ave neighs/atom = 28.530450
Neighbor list builds = 1
Dangerous builds = 0
The dot product: -4.15261621425288e-07
Setting atom values ...
  1 settings made for x
  1 settings made for y
  1 settings made for z
Setting up cg style minimization ...
  Unit style    : metal
  Current step  : 2155
Per MPI rank memory allocation (min/avg/max) = 5.441 | 5.816 | 6.074 Mbytes
Step PotEng KinEng TotEng v_fx v_fy v_fz 
    2155   -1152449.3            0   -1152449.3  0.070497077   0.17555524   0.08012984 
    2394   -1152449.3            0   -1152449.3 2.6065379e-05 2.7474813e-05 5.3236249e-05 
Loop time of 2.83846 on 104 procs for 239 steps with 288751 atoms

99.9% CPU use with 104 MPI tasks x 1 OpenMP threads

Minimization stats:
  Stopping criterion = energy tolerance
  Energy initial, next-to-last, final = 
     -1152449.33328108  -1152449.34468427  -1152449.34468427
  Force two-norm initial, final = 0.24756998 0.00025508151
  Force max component initial, final = 0.17555524 5.3236249e-05
  Final line search alpha, max atom move = 1.0000000 5.3236249e-05
  Iterations, force evaluations = 239 478

MPI task timing breakdown:
Section |  min time  |  avg time  |  max time  |%varavg| %total
---------------------------------------------------------------
Pair    | 0.72785    | 2.0087     | 2.6467     |  38.1 | 70.77
Neigh   | 1.0295e-05 | 0.0029294  | 0.0042659  |   2.2 |  0.10
Comm    | 0.049523   | 0.45676    | 1.36       |  55.6 | 16.09
Output  | 0          | 0          | 0          |   0.0 |  0.00
Modify  | 2.8983e-05 | 0.0039421  | 0.008412   |   3.0 |  0.14
Other   |            | 0.3661     |            |       | 12.90

Nlocal:        2776.45 ave        3961 max           0 min
Histogram: 8 4 4 0 6 10 8 2 28 34
Nghost:        3879.03 ave        5424 max         232 min
Histogram: 8 0 8 0 16 0 8 8 16 40
Neighs:        79213.4 ave      115465 max           0 min
Histogram: 8 4 4 0 10 6 8 8 24 32

Total # of neighbors = 8238189
Ave neighs/atom = 28.530426
Neighbor list builds = 1
Dangerous builds = 0
The dot product: 6.06616484509779e-06
Setting atom values ...
  1 settings made for x
  1 settings made for y
  1 settings made for z
Setting up cg style minimization ...
  Unit style    : metal
  Current step  : 2394
Per MPI rank memory allocation (min/avg/max) = 5.441 | 5.816 | 6.074 Mbytes
Step PotEng KinEng TotEng v_fx v_fy v_fz 
    2394   -1152449.3            0   -1152449.3  -0.04994748 -0.029996518 -0.047921353 
    2574   -1152449.3            0   -1152449.3 -1.7912185e-05 -1.9111115e-06 -2.4155005e-05 
Loop time of 2.10705 on 104 procs for 180 steps with 288751 atoms

99.9% CPU use with 104 MPI tasks x 1 OpenMP threads

Minimization stats:
  Stopping criterion = energy tolerance
  Energy initial, next-to-last, final = 
     -1152449.34688104  -1152449.34818996  -1152449.34818996
  Force two-norm initial, final = 0.14636235 9.8354463e-05
  Force max component initial, final = 0.04994748 2.4155005e-05
  Final line search alpha, max atom move = 1.0000000 2.4155005e-05
  Iterations, force evaluations = 180 360

MPI task timing breakdown:
Section |  min time  |  avg time  |  max time  |%varavg| %total
---------------------------------------------------------------
Pair    | 0.54689    | 1.5184     | 1.9667     |  33.1 | 72.06
Neigh   | 0          | 0          | 0          |   0.0 |  0.00
Comm    | 0.037913   | 0.34069    | 1.0303     |  49.0 | 16.17
Output  | 0          | 0          | 0          |   0.0 |  0.00
Modify  | 2.2195e-05 | 0.0029746  | 0.0063468  |   2.6 |  0.14
Other   |            | 0.245      |            |       | 11.63

Nlocal:        2776.45 ave        3961 max           0 min
Histogram: 8 4 4 0 6 10 8 2 28 34
Nghost:        3879.07 ave        5424 max         232 min
Histogram: 8 0 8 0 16 0 8 8 16 40
Neighs:        79213.4 ave      115457 max           0 min
Histogram: 8 4 4 0 10 6 8 8 24 32

Total # of neighbors = 8238192
Ave neighs/atom = 28.530436
Neighbor list builds = 0
Dangerous builds = 0
The dot product: 2.6164301770368e-07
Setting atom values ...
  1 settings made for x
  1 settings made for y
  1 settings made for z
Setting up cg style minimization ...
  Unit style    : metal
  Current step  : 2574
Per MPI rank memory allocation (min/avg/max) = 5.441 | 5.816 | 6.074 Mbytes
Step PotEng KinEng TotEng v_fx v_fy v_fz 
    2574   -1152449.3            0   -1152449.3 -0.0066873985 0.0096205362 -0.017545917 
    2749   -1152449.4            0   -1152449.4 3.9196483e-06 3.3073236e-06 3.4075181e-06 
Loop time of 2.08549 on 104 procs for 175 steps with 288751 atoms

99.9% CPU use with 104 MPI tasks x 1 OpenMP threads

Minimization stats:
  Stopping criterion = energy tolerance
  Energy initial, next-to-last, final = 
     -1152449.34955095  -1152449.35045775  -1152449.35045775
  Force two-norm initial, final = 0.12495449 0.00014728301
  Force max component initial, final = 0.047694233 1.4208804e-05
  Final line search alpha, max atom move = 1.0000000 1.4208804e-05
  Iterations, force evaluations = 175 350

MPI task timing breakdown:
Section |  min time  |  avg time  |  max time  |%varavg| %total
---------------------------------------------------------------
Pair    | 0.52718    | 1.47       | 1.9419     |  32.8 | 70.49
Neigh   | 0          | 0          | 0          |   0.0 |  0.00
Comm    | 0.032659   | 0.33657    | 0.98551    |  47.0 | 16.14
Output  | 0          | 0          | 0          |   0.0 |  0.00
Modify  | 2.0816e-05 | 0.0028936  | 0.0061659  |   2.5 |  0.14
Other   |            | 0.276      |            |       | 13.24

Nlocal:        2776.45 ave        3961 max           0 min
Histogram: 8 4 4 0 6 10 8 2 28 34
Nghost:        3879.07 ave        5425 max         232 min
Histogram: 8 0 8 0 16 0 8 8 16 40
Neighs:        79213.4 ave      115447 max           0 min
Histogram: 8 4 4 0 10 6 8 8 24 32

Total # of neighbors = 8238193
Ave neighs/atom = 28.530440
Neighbor list builds = 0
Dangerous builds = 0
The dot product: 4.43992486207752e-09
Setting atom values ...
  1 settings made for x
  1 settings made for y
  1 settings made for z
Setting up cg style minimization ...
  Unit style    : metal
  Current step  : 2749
Per MPI rank memory allocation (min/avg/max) = 5.441 | 5.816 | 6.074 Mbytes
Step PotEng KinEng TotEng v_fx v_fy v_fz 
    2749   -1152449.4            0   -1152449.4 -0.010231367 0.0063167744 -0.020387832 
    2924   -1152449.4            0   -1152449.4 1.355565e-05 1.2376413e-05 1.0972355e-05 
Loop time of 2.04061 on 104 procs for 175 steps with 288751 atoms

99.9% CPU use with 104 MPI tasks x 1 OpenMP threads

Minimization stats:
  Stopping criterion = energy tolerance
  Energy initial, next-to-last, final = 
      -1152449.3506091  -1152449.35151125  -1152449.35151125
  Force two-norm initial, final = 0.12559258 0.00016317151
  Force max component initial, final = 0.047092357 2.5928360e-05
  Final line search alpha, max atom move = 1.0000000 2.5928360e-05
  Iterations, force evaluations = 175 350

MPI task timing breakdown:
Section |  min time  |  avg time  |  max time  |%varavg| %total
---------------------------------------------------------------
Pair    | 0.52717    | 1.4778     | 1.9172     |  32.9 | 72.42
Neigh   | 0          | 0          | 0          |   0.0 |  0.00
Comm    | 0.031318   | 0.33242    | 1.0054     |  48.4 | 16.29
Output  | 0          | 0          | 0          |   0.0 |  0.00
Modify  | 2.1543e-05 | 0.0028902  | 0.0061843  |   2.5 |  0.14
Other   |            | 0.2275     |            |       | 11.15

Nlocal:        2776.45 ave        3961 max           0 min
Histogram: 8 4 4 0 6 10 8 2 28 34
Nghost:        3879.09 ave        5424 max         232 min
Histogram: 8 0 8 0 16 0 8 8 16 40
Neighs:        79213.4 ave      115465 max           0 min
Histogram: 8 4 4 0 10 6 8 8 24 32

Total # of neighbors = 8238189
Ave neighs/atom = 28.530426
Neighbor list builds = 0
Dangerous builds = 0
The dot product: -4.24372813869499e-09
Setting atom values ...
  1 settings made for x
  1 settings made for y
  1 settings made for z
Setting up cg style minimization ...
  Unit style    : metal
  Current step  : 2924
Per MPI rank memory allocation (min/avg/max) = 5.441 | 5.816 | 6.074 Mbytes
Step PotEng KinEng TotEng v_fx v_fy v_fz 
    2924   -1152449.4            0   -1152449.4 -0.0094654531 0.0065767019 -0.019492287 
    3000   -1152449.4            0   -1152449.4 -0.00012601437 -3.5461935e-05 -0.00016399935 
    3087   -1152449.4            0   -1152449.4 4.3600516e-06 -4.1833688e-05 3.9103755e-05 
Loop time of 1.9008 on 104 procs for 163 steps with 288751 atoms

99.9% CPU use with 104 MPI tasks x 1 OpenMP threads

Minimization stats:
  Stopping criterion = energy tolerance
  Energy initial, next-to-last, final = 
     -1152449.35035463   -1152449.3512499   -1152449.3512499
  Force two-norm initial, final = 0.12514459 0.00024038499
  Force max component initial, final = 0.046465868 4.1833688e-05
  Final line search alpha, max atom move = 1.0000000 4.1833688e-05
  Iterations, force evaluations = 163 326

MPI task timing breakdown:
Section |  min time  |  avg time  |  max time  |%varavg| %total
---------------------------------------------------------------
Pair    | 0.49207    | 1.3699     | 1.7903     |  31.7 | 72.07
Neigh   | 0          | 0          | 0          |   0.0 |  0.00
Comm    | 0.029991   | 0.30753    | 0.92009    |  46.5 | 16.18
Output  | 0.00021112 | 0.00021636 | 0.00032569 |   0.0 |  0.01
Modify  | 1.9664e-05 | 0.0026921  | 0.0057601  |   2.4 |  0.14
Other   |            | 0.2204     |            |       | 11.60

Nlocal:        2776.45 ave        3961 max           0 min
Histogram: 8 4 4 0 6 10 8 2 28 34
Nghost:        3879.01 ave        5424 max         232 min
Histogram: 8 0 8 0 16 0 8 8 16 40
Neighs:        79213.4 ave      115465 max           0 min
Histogram: 8 4 4 0 10 6 8 8 24 32

Total # of neighbors = 8238191
Ave neighs/atom = 28.530433
Neighbor list builds = 0
Dangerous builds = 0
The dot product: -3.24763957137431e-08
Setting atom values ...
  1 settings made for x
  1 settings made for y
  1 settings made for z
Setting up cg style minimization ...
  Unit style    : metal
  Current step  : 3087
Per MPI rank memory allocation (min/avg/max) = 5.441 | 5.816 | 6.074 Mbytes
Step PotEng KinEng TotEng v_fx v_fy v_fz 
    3087   -1152449.3            0   -1152449.3 -0.0085590166 0.0064121096 -0.018044905 
    3301   -1152449.3            0   -1152449.3 -1.1917786e-05 -2.7947942e-06 -1.5983871e-05 
Loop time of 2.49082 on 104 procs for 214 steps with 288751 atoms

99.9% CPU use with 104 MPI tasks x 1 OpenMP threads

Minimization stats:
  Stopping criterion = energy tolerance
  Energy initial, next-to-last, final = 
     -1152449.34875662  -1152449.34964002  -1152449.34964002
  Force two-norm initial, final = 0.124238 4.9284194e-05
  Force max component initial, final = 0.045801583 1.5983871e-05
  Final line search alpha, max atom move = 1.0000000 1.5983871e-05
  Iterations, force evaluations = 214 428

MPI task timing breakdown:
Section |  min time  |  avg time  |  max time  |%varavg| %total
---------------------------------------------------------------
Pair    | 0.64596    | 1.8062     | 2.3466     |  36.3 | 72.51
Neigh   | 0          | 0          | 0          |   0.0 |  0.00
Comm    | 0.03754    | 0.4075     | 1.2337     |  53.3 | 16.36
Output  | 0          | 0          | 0          |   0.0 |  0.00
Modify  | 2.5525e-05 | 0.0035299  | 0.0075701  |   2.8 |  0.14
Other   |            | 0.2736     |            |       | 10.98

Nlocal:        2776.45 ave        3960 max           0 min
Histogram: 8 4 4 0 4 12 8 2 28 34
Nghost:        3879.01 ave        5424 max         232 min
Histogram: 8 0 8 0 16 0 8 8 16 40
Neighs:        79213.4 ave      115434 max           0 min
Histogram: 8 4 4 0 10 6 8 8 24 32

Total # of neighbors = 8238191
Ave neighs/atom = 28.530433
Neighbor list builds = 0
Dangerous builds = 0
The dot product: 6.22165669097669e-09
Setting atom values ...
  1 settings made for x
  1 settings made for y
  1 settings made for z
Setting up cg style minimization ...
  Unit style    : metal
  Current step  : 3301
Per MPI rank memory allocation (min/avg/max) = 5.441 | 5.816 | 6.074 Mbytes
Step PotEng KinEng TotEng v_fx v_fy v_fz 
    3301   -1152449.3            0   -1152449.3 -0.0076183197 0.0060892851 -0.016403858 
    3468   -1152449.3            0   -1152449.3 4.2406992e-05 -5.7730735e-06 6.9290205e-05 
Loop time of 1.9681 on 104 procs for 167 steps with 288751 atoms

99.9% CPU use with 104 MPI tasks x 1 OpenMP threads

Minimization stats:
  Stopping criterion = energy tolerance
  Energy initial, next-to-last, final = 
     -1152449.34580405  -1152449.34667342  -1152449.34667342
  Force two-norm initial, final = 0.12326393 0.00023575894
  Force max component initial, final = 0.04514677 6.9290205e-05
  Final line search alpha, max atom move = 1.0000000 6.9290205e-05
  Iterations, force evaluations = 167 334

MPI task timing breakdown:
Section |  min time  |  avg time  |  max time  |%varavg| %total
---------------------------------------------------------------
Pair    | 0.50432    | 1.4082     | 1.847      |  32.2 | 71.55
Neigh   | 0          | 0          | 0          |   0.0 |  0.00
Comm    | 0.029385   | 0.31922    | 0.94929    |  46.9 | 16.22
Output  | 0          | 0          | 0          |   0.0 |  0.00
Modify  | 2.0248e-05 | 0.0027609  | 0.0059015  |   2.5 |  0.14
Other   |            | 0.2379     |            |       | 12.09

Nlocal:        2776.45 ave        3960 max           0 min
Histogram: 8 4 4 0 4 12 8 2 28 34
Nghost:        3879.01 ave        5424 max         232 min
Histogram: 8 0 8 0 16 0 8 8 16 40
Neighs:        79213.4 ave      115434 max           0 min
Histogram: 8 4 4 0 10 6 8 8 24 32

Total # of neighbors = 8238190
Ave neighs/atom = 28.530429
Neighbor list builds = 0
Dangerous builds = 0
The dot product: -3.1540510739194e-08
Setting atom values ...
  1 settings made for x
  1 settings made for y
  1 settings made for z
Setting up cg style minimization ...
  Unit style    : metal
  Current step  : 3468
Per MPI rank memory allocation (min/avg/max) = 5.441 | 5.816 | 6.074 Mbytes
Step PotEng KinEng TotEng v_fx v_fy v_fz 
    3468   -1152449.3            0   -1152449.3 -0.0067413821 0.0054452736 -0.014597026 
    3661   -1152449.3            0   -1152449.3 -1.2835152e-05 -5.4162904e-06 -1.5385063e-05 
Loop time of 2.24811 on 104 procs for 193 steps with 288751 atoms

99.9% CPU use with 104 MPI tasks x 1 OpenMP threads

Minimization stats:
  Stopping criterion = energy tolerance
  Energy initial, next-to-last, final = 
      -1152449.3414883  -1152449.34234483  -1152449.34234483
  Force two-norm initial, final = 0.1224113 9.0177544e-05
  Force max component initial, final = 0.044398691 1.5385063e-05
  Final line search alpha, max atom move = 1.0000000 1.5385063e-05
  Iterations, force evaluations = 193 386

MPI task timing breakdown:
Section |  min time  |  avg time  |  max time  |%varavg| %total
---------------------------------------------------------------
Pair    | 0.5822     | 1.6228     | 2.1127     |  34.4 | 72.19
Neigh   | 0          | 0          | 0          |   0.0 |  0.00
Comm    | 0.035511   | 0.36408    | 1.0882     |  50.4 | 16.20
Output  | 0          | 0          | 0          |   0.0 |  0.00
Modify  | 2.3297e-05 | 0.0031811  | 0.0068002  |   2.7 |  0.14
Other   |            | 0.258      |            |       | 11.48

Nlocal:        2776.45 ave        3960 max           0 min
Histogram: 8 4 4 0 4 12 8 2 28 34
Nghost:        3879.01 ave        5424 max         232 min
Histogram: 8 0 8 0 16 0 8 8 16 40
Neighs:        79213.4 ave      115434 max           0 min
Histogram: 8 4 4 0 10 6 8 8 24 32

Total # of neighbors = 8238191
Ave neighs/atom = 28.530433
Neighbor list builds = 0
Dangerous builds = 0
The dot product: 3.79168177058067e-09
Setting atom values ...
  1 settings made for x
  1 settings made for y
  1 settings made for z
Setting up cg style minimization ...
  Unit style    : metal
  Current step  : 3661
Per MPI rank memory allocation (min/avg/max) = 5.441 | 5.816 | 6.074 Mbytes
Step PotEng KinEng TotEng v_fx v_fy v_fz 
    3661   -1152449.3            0   -1152449.3 -0.006183667 0.0044973029 -0.013023749 
    3847   -1152449.3            0   -1152449.3 2.4604253e-05 2.6142602e-05 1.7098168e-05 
Loop time of 2.20043 on 104 procs for 186 steps with 288751 atoms

99.9% CPU use with 104 MPI tasks x 1 OpenMP threads

Minimization stats:
  Stopping criterion = energy tolerance
  Energy initial, next-to-last, final = 
     -1152449.33579477  -1152449.33664371  -1152449.33664371
  Force two-norm initial, final = 0.12196545 0.0001079719
  Force max component initial, final = 0.04417085 2.6142602e-05
  Final line search alpha, max atom move = 1.0000000 2.6142602e-05
  Iterations, force evaluations = 186 372

MPI task timing breakdown:
Section |  min time  |  avg time  |  max time  |%varavg| %total
---------------------------------------------------------------
Pair    | 0.55986    | 1.5608     | 2.0609     |  33.8 | 70.93
Neigh   | 0          | 0          | 0          |   0.0 |  0.00
Comm    | 0.034103   | 0.35563    | 1.0476     |  48.9 | 16.16
Output  | 0          | 0          | 0          |   0.0 |  0.00
Modify  | 2.235e-05  | 0.003071   | 0.0065606  |   2.6 |  0.14
Other   |            | 0.281      |            |       | 12.77

Nlocal:        2776.45 ave        3960 max           0 min
Histogram: 8 4 4 0 4 12 8 2 28 34
Nghost:        3879.05 ave        5424 max         232 min
Histogram: 8 0 8 0 16 0 8 8 16 40
Neighs:        79213.4 ave      115434 max           0 min
Histogram: 8 4 4 0 10 6 8 8 24 32

Total # of neighbors = 8238192
Ave neighs/atom = 28.530436
Neighbor list builds = 0
Dangerous builds = 0
The dot product: -2.79985930830286e-10
Setting atom values ...
  1 settings made for x
  1 settings made for y
  1 settings made for z
Setting up cg style minimization ...
  Unit style    : metal
  Current step  : 3847
Per MPI rank memory allocation (min/avg/max) = 5.441 | 5.816 | 6.074 Mbytes
Step PotEng KinEng TotEng v_fx v_fy v_fz 
    3847   -1152449.3            0   -1152449.3 -0.0057891008 0.0032758512 -0.011474795 
    4000   -1152449.3            0   -1152449.3 6.3641321e-07 -5.942513e-06 5.6740649e-06 
    4019   -1152449.3            0   -1152449.3 -4.445386e-05 -2.966116e-06 -6.5885386e-05 
Loop time of 2.00702 on 104 procs for 172 steps with 288751 atoms

99.9% CPU use with 104 MPI tasks x 1 OpenMP threads

Minimization stats:
  Stopping criterion = energy tolerance
  Energy initial, next-to-last, final = 
     -1152449.32870479  -1152449.32955105  -1152449.32955105
  Force two-norm initial, final = 0.121856 0.00019515934
  Force max component initial, final = 0.044036684 6.5885386e-05
  Final line search alpha, max atom move = 1.0000000 6.5885386e-05
  Iterations, force evaluations = 172 344

MPI task timing breakdown:
Section |  min time  |  avg time  |  max time  |%varavg| %total
---------------------------------------------------------------
Pair    | 0.51757    | 1.4506     | 1.8897     |  32.6 | 72.28
Neigh   | 0          | 0          | 0          |   0.0 |  0.00
Comm    | 0.03092    | 0.32562    | 0.97588    |  47.9 | 16.22
Output  | 0.00023964 | 0.00024887 | 0.00038691 |   0.0 |  0.01
Modify  | 2.0551e-05 | 0.0028467  | 0.0066353  |   2.5 |  0.14
Other   |            | 0.2277     |            |       | 11.34

Nlocal:        2776.45 ave        3960 max           0 min
Histogram: 8 4 4 0 4 12 8 2 28 34
Nghost:        3879.05 ave        5424 max         232 min
Histogram: 8 0 8 0 16 0 8 8 16 40
Neighs:        79213.4 ave      115434 max           0 min
Histogram: 8 4 4 0 10 6 8 8 24 32

Total # of neighbors = 8238190
Ave neighs/atom = 28.530429
Neighbor list builds = 0
Dangerous builds = 0
The dot product: 2.02314245100823e-08
Setting atom values ...
  1 settings made for x
  1 settings made for y
  1 settings made for z
Setting up cg style minimization ...
  Unit style    : metal
  Current step  : 4019
Per MPI rank memory allocation (min/avg/max) = 5.441 | 5.816 | 6.074 Mbytes
Step PotEng KinEng TotEng v_fx v_fy v_fz 
    4019   -1152449.3            0   -1152449.3 -0.0057853068 0.0017085687 -0.010243913 
    4185   -1152449.3            0   -1152449.3 9.4562745e-06 2.0435951e-05 -1.651118e-06 
Loop time of 1.98744 on 104 procs for 166 steps with 288751 atoms

99.9% CPU use with 104 MPI tasks x 1 OpenMP threads

Minimization stats:
  Stopping criterion = energy tolerance
  Energy initial, next-to-last, final = 
      -1152449.3201887  -1152449.32103866  -1152449.32103866
  Force two-norm initial, final = 0.12214986 0.0002367049
  Force max component initial, final = 0.043837654 4.1881526e-05
  Final line search alpha, max atom move = 1.0000000 4.1881526e-05
  Iterations, force evaluations = 166 332

MPI task timing breakdown:
Section |  min time  |  avg time  |  max time  |%varavg| %total
---------------------------------------------------------------
Pair    | 0.50286    | 1.3966     | 1.8397     |  32.0 | 70.27
Neigh   | 0          | 0          | 0          |   0.0 |  0.00
Comm    | 0.036453   | 0.32029    | 0.94393    |  46.0 | 16.12
Output  | 0          | 0          | 0          |   0.0 |  0.00
Modify  | 2.0472e-05 | 0.0027454  | 0.0058458  |   2.5 |  0.14
Other   |            | 0.2678     |            |       | 13.48

Nlocal:        2776.45 ave        3960 max           0 min
Histogram: 8 4 4 0 4 12 8 2 28 34
Nghost:        3879.01 ave        5424 max         232 min
Histogram: 8 0 8 0 16 0 8 8 16 40
Neighs:        79213.3 ave      115434 max           0 min
Histogram: 8 4 4 0 10 6 8 8 24 32

Total # of neighbors = 8238188
Ave neighs/atom = 28.530422
Neighbor list builds = 0
Dangerous builds = 0
The dot product: 1.96917030617808e-10
Setting atom values ...
  1 settings made for x
  1 settings made for y
  1 settings made for z
Setting up cg style minimization ...
  Unit style    : metal
  Current step  : 4185
Per MPI rank memory allocation (min/avg/max) = 5.441 | 5.816 | 6.074 Mbytes
Step PotEng KinEng TotEng v_fx v_fy v_fz 
    4185   -1152449.3            0   -1152449.3 -0.0059350021 -7.3066515e-05 -0.0090745631 
    4348   -1152449.3            0   -1152449.3 2.7310129e-06 -3.5833491e-06 7.0434272e-06 
Loop time of 1.93623 on 104 procs for 163 steps with 288751 atoms

99.9% CPU use with 104 MPI tasks x 1 OpenMP threads

Minimization stats:
  Stopping criterion = energy tolerance
  Energy initial, next-to-last, final = 
     -1152449.31021566  -1152449.31107231  -1152449.31107231
  Force two-norm initial, final = 0.12266269 0.0002598841
  Force max component initial, final = 0.043669845 6.3124868e-05
  Final line search alpha, max atom move = 1.0000000 6.3124868e-05
  Iterations, force evaluations = 163 326

MPI task timing breakdown:
Section |  min time  |  avg time  |  max time  |%varavg| %total
---------------------------------------------------------------
Pair    | 0.50641    | 1.3858     | 1.7875     |  31.3 | 71.57
Neigh   | 0          | 0          | 0          |   0.0 |  0.00
Comm    | 0.029519   | 0.31353    | 0.95107    |  46.6 | 16.19
Output  | 0          | 0          | 0          |   0.0 |  0.00
Modify  | 1.9653e-05 | 0.0026991  | 0.0057862  |   2.5 |  0.14
Other   |            | 0.2342     |            |       | 12.10

Nlocal:        2776.45 ave        3960 max           0 min
Histogram: 8 4 4 0 4 12 8 2 28 34
Nghost:        3879.01 ave        5424 max         232 min
Histogram: 8 0 8 0 16 0 8 8 16 40
Neighs:        79213.4 ave      115435 max           0 min
Histogram: 8 4 4 0 10 6 8 8 24 32

Total # of neighbors = 8238189
Ave neighs/atom = 28.530426
Neighbor list builds = 0
Dangerous builds = 0
The dot product: -1.81632903076336e-09
Setting atom values ...
  1 settings made for x
  1 settings made for y
  1 settings made for z
Setting up cg style minimization ...
  Unit style    : metal
  Current step  : 4348
Per MPI rank memory allocation (min/avg/max) = 5.441 | 5.816 | 6.074 Mbytes
Step PotEng KinEng TotEng v_fx v_fy v_fz 
    4348   -1152449.3            0   -1152449.3 -0.0064544327 -0.0021029849 -0.0082762943 
    4512   -1152449.3            0   -1152449.3 6.0899865e-06 6.0735496e-05 -3.8796269e-05 
Loop time of 1.92874 on 104 procs for 164 steps with 288751 atoms

99.9% CPU use with 104 MPI tasks x 1 OpenMP threads

Minimization stats:
  Stopping criterion = energy tolerance
  Energy initial, next-to-last, final = 
      -1152449.2987569   -1152449.2996198   -1152449.2996198
  Force two-norm initial, final = 0.12332229 0.00024809627
  Force max component initial, final = 0.043582851 6.0735496e-05
  Final line search alpha, max atom move = 1.0000000 6.0735496e-05
  Iterations, force evaluations = 164 328

MPI task timing breakdown:
Section |  min time  |  avg time  |  max time  |%varavg| %total
---------------------------------------------------------------
Pair    | 0.49387    | 1.3792     | 1.8055     |  31.8 | 71.51
Neigh   | 0          | 0          | 0          |   0.0 |  0.00
Comm    | 0.036918   | 0.31238    | 0.92588    |  46.2 | 16.20
Output  | 0          | 0          | 0          |   0.0 |  0.00
Modify  | 2.0407e-05 | 0.0027104  | 0.0057885  |   2.4 |  0.14
Other   |            | 0.2345     |            |       | 12.16

Nlocal:        2776.45 ave        3960 max           0 min
Histogram: 8 4 4 0 4 12 8 2 28 34
Nghost:        3879.07 ave        5424 max         232 min
Histogram: 8 0 8 0 16 0 8 8 16 40
Neighs:        79213.4 ave      115439 max           0 min
Histogram: 8 4 4 0 10 6 8 8 24 32

Total # of neighbors = 8238189
Ave neighs/atom = 28.530426
Neighbor list builds = 0
Dangerous builds = 0
The dot product: -5.00909945623739e-09
Setting atom values ...
  1 settings made for x
  1 settings made for y
  1 settings made for z
Setting up cg style minimization ...
  Unit style    : metal
  Current step  : 4512
Per MPI rank memory allocation (min/avg/max) = 5.441 | 5.816 | 6.074 Mbytes
Step PotEng KinEng TotEng v_fx v_fy v_fz 
    4512   -1152449.3            0   -1152449.3 -0.0073789559 -0.0041666102 -0.0080802163 
    4709   -1152449.3            0   -1152449.3 3.0743192e-06 1.0086025e-05 -3.2566505e-06 
Loop time of 2.29732 on 104 procs for 197 steps with 288751 atoms

99.9% CPU use with 104 MPI tasks x 1 OpenMP threads

Minimization stats:
  Stopping criterion = energy tolerance
  Energy initial, next-to-last, final = 
     -1152449.28579179  -1152449.28665709  -1152449.28665709
  Force two-norm initial, final = 0.12398335 8.3855164e-05
  Force max component initial, final = 0.043311162 1.8124997e-05
  Final line search alpha, max atom move = 1.0000000 1.8124997e-05
  Iterations, force evaluations = 197 394

MPI task timing breakdown:
Section |  min time  |  avg time  |  max time  |%varavg| %total
---------------------------------------------------------------
Pair    | 0.59346    | 1.6636     | 2.1563     |  34.9 | 72.41
Neigh   | 0          | 0          | 0          |   0.0 |  0.00
Comm    | 0.03501    | 0.37552    | 1.1325     |  51.1 | 16.35
Output  | 0          | 0          | 0          |   0.0 |  0.00
Modify  | 2.3538e-05 | 0.0032514  | 0.0069446  |   2.7 |  0.14
Other   |            | 0.255      |            |       | 11.10

Nlocal:        2776.45 ave        3960 max           0 min
Histogram: 8 4 4 0 4 12 8 2 28 34
Nghost:        3879.12 ave        5424 max         232 min
Histogram: 8 0 8 0 16 0 8 8 16 40
Neighs:        79213.3 ave      115439 max           0 min
Histogram: 8 4 4 0 10 6 8 8 24 32

Total # of neighbors = 8238187
Ave neighs/atom = 28.530419
Neighbor list builds = 0
Dangerous builds = 0
The dot product: -3.62182674299754e-09
Setting atom values ...
  1 settings made for x
  1 settings made for y
  1 settings made for z
Setting up cg style minimization ...
  Unit style    : metal
  Current step  : 4709
Per MPI rank memory allocation (min/avg/max) = 5.441 | 5.816 | 6.074 Mbytes
Step PotEng KinEng TotEng v_fx v_fy v_fz 
    4709   -1152449.3            0   -1152449.3 -0.0088430154 -0.0063076984 -0.0086674176 
    4884   -1152449.3            0   -1152449.3 2.4649014e-05 1.3170591e-05 2.7656705e-05 
Loop time of 2.05391 on 104 procs for 175 steps with 288751 atoms

99.9% CPU use with 104 MPI tasks x 1 OpenMP threads

Minimization stats:
  Stopping criterion = energy tolerance
  Energy initial, next-to-last, final = 
     -1152449.27131684  -1152449.27217741  -1152449.27217741
  Force two-norm initial, final = 0.12455043 0.00016092109
  Force max component initial, final = 0.043151252 2.7656705e-05
  Final line search alpha, max atom move = 1.0000000 2.7656705e-05
  Iterations, force evaluations = 175 350

MPI task timing breakdown:
Section |  min time  |  avg time  |  max time  |%varavg| %total
---------------------------------------------------------------
Pair    | 0.52906    | 1.4726     | 1.9363     |  32.9 | 71.70
Neigh   | 0          | 0          | 0          |   0.0 |  0.00
Comm    | 0.031111   | 0.33292    | 0.9902     |  48.0 | 16.21
Output  | 0          | 0          | 0          |   0.0 |  0.00
Modify  | 2.116e-05  | 0.002891   | 0.0062066  |   2.5 |  0.14
Other   |            | 0.2455     |            |       | 11.95

Nlocal:        2776.45 ave        3960 max           0 min
Histogram: 8 4 4 0 4 12 8 2 28 34
Nghost:        3879.11 ave        5424 max         232 min
Histogram: 8 0 8 0 16 0 8 8 16 40
Neighs:        79213.3 ave      115439 max           0 min
Histogram: 8 4 4 0 10 6 8 8 24 32

Total # of neighbors = 8238186
Ave neighs/atom = 28.530415
Neighbor list builds = 0
Dangerous builds = 0
The dot product: -3.09502830291612e-08
Setting atom values ...
  1 settings made for x
  1 settings made for y
  1 settings made for z
Setting up cg style minimization ...
  Unit style    : metal
  Current step  : 4884
Per MPI rank memory allocation (min/avg/max) = 5.441 | 5.816 | 6.074 Mbytes
Step PotEng KinEng TotEng v_fx v_fy v_fz 
    4884   -1152449.3            0   -1152449.3 -0.010996784 -0.0081322101 -0.010597881 
    5000   -1152449.3            0   -1152449.3 -4.6455991e-05 -4.976367e-05 -3.2562066e-05 
    5063   -1152449.3            0   -1152449.3 3.006594e-05 2.1832523e-05 2.929341e-05 
Loop time of 2.09944 on 104 procs for 179 steps with 288751 atoms

99.9% CPU use with 104 MPI tasks x 1 OpenMP threads

Minimization stats:
  Stopping criterion = energy tolerance
  Energy initial, next-to-last, final = 
     -1152449.25535712  -1152449.25620486  -1152449.25620486
  Force two-norm initial, final = 0.12510883 0.0001407896
  Force max component initial, final = 0.044199485 3.8177632e-05
  Final line search alpha, max atom move = 1.0000000 3.8177632e-05
  Iterations, force evaluations = 179 358

MPI task timing breakdown:
Section |  min time  |  avg time  |  max time  |%varavg| %total
---------------------------------------------------------------
Pair    | 0.53842    | 1.5118     | 1.9689     |  33.3 | 72.01
Neigh   | 0          | 0          | 0          |   0.0 |  0.00
Comm    | 0.032462   | 0.34114    | 1.0155     |  48.3 | 16.25
Output  | 0.00037594 | 0.00037943 | 0.00050371 |   0.0 |  0.02
Modify  | 2.1579e-05 | 0.0029532  | 0.0063382  |   2.6 |  0.14
Other   |            | 0.2432     |            |       | 11.58

Nlocal:        2776.45 ave        3960 max           0 min
Histogram: 8 4 4 0 4 12 8 2 28 34
Nghost:        3879.11 ave        5424 max         232 min
Histogram: 8 0 8 0 16 0 8 8 16 40
Neighs:        79213.3 ave      115442 max           0 min
Histogram: 8 4 4 0 10 6 8 8 24 32

Total # of neighbors = 8238187
Ave neighs/atom = 28.530419
Neighbor list builds = 0
Dangerous builds = 0
The dot product: -5.7944381961339e-08
Setting atom values ...
  1 settings made for x
  1 settings made for y
  1 settings made for z
Setting up cg style minimization ...
  Unit style    : metal
  Current step  : 5063
Per MPI rank memory allocation (min/avg/max) = 5.441 | 5.816 | 6.074 Mbytes
Step PotEng KinEng TotEng v_fx v_fy v_fz 
    5063   -1152449.2            0   -1152449.2 -0.014248315 -0.0096036882 -0.014561415 
    5217   -1152449.2            0   -1152449.2 -5.9175681e-05 -1.347673e-05 -8.1402985e-05 
Loop time of 1.81649 on 104 procs for 154 steps with 288751 atoms

99.9% CPU use with 104 MPI tasks x 1 OpenMP threads

Minimization stats:
  Stopping criterion = energy tolerance
  Energy initial, next-to-last, final = 
     -1152449.23799489  -1152449.23883088  -1152449.23883088
  Force two-norm initial, final = 0.12631031 0.00027347028
  Force max component initial, final = 0.047457187 8.1402985e-05
  Final line search alpha, max atom move = 1.0000000 8.1402985e-05
  Iterations, force evaluations = 154 308

MPI task timing breakdown:
Section |  min time  |  avg time  |  max time  |%varavg| %total
---------------------------------------------------------------
Pair    | 0.46232    | 1.295      | 1.7104     |  30.9 | 71.29
Neigh   | 0          | 0          | 0          |   0.0 |  0.00
Comm    | 0.028804   | 0.29404    | 0.87212    |  44.9 | 16.19
Output  | 0          | 0          | 0          |   0.0 |  0.00
Modify  | 1.8708e-05 | 0.0025453  | 0.0054679  |   2.4 |  0.14
Other   |            | 0.2249     |            |       | 12.38

Nlocal:        2776.45 ave        3960 max           0 min
Histogram: 8 4 4 0 4 12 8 2 28 34
Nghost:        3879.09 ave        5424 max         232 min
Histogram: 8 0 8 0 16 0 8 8 16 40
Neighs:        79213.3 ave      115442 max           0 min
Histogram: 8 4 4 0 10 6 8 8 24 32

Total # of neighbors = 8238185
Ave neighs/atom = 28.530412
Neighbor list builds = 0
Dangerous builds = 0
The dot product: 2.11621755312568e-07
Setting atom values ...
  1 settings made for x
  1 settings made for y
  1 settings made for z
Setting up cg style minimization ...
  Unit style    : metal
  Current step  : 5217
Per MPI rank memory allocation (min/avg/max) = 5.441 | 5.816 | 6.074 Mbytes
Step PotEng KinEng TotEng v_fx v_fy v_fz 
    5217   -1152449.2            0   -1152449.2 -0.019382718 -0.010412327 -0.022119911 
    5519   -1152449.3            0   -1152449.3 2.1919319e-06 9.2019543e-07 2.7059138e-06 
Loop time of 3.50433 on 104 procs for 302 steps with 288751 atoms

99.9% CPU use with 104 MPI tasks x 1 OpenMP threads

Minimization stats:
  Stopping criterion = energy tolerance
  Energy initial, next-to-last, final = 
     -1152449.21945762  -1152449.25004413  -1152449.25004413
  Force two-norm initial, final = 0.13035424 1.2100118e-05
  Force max component initial, final = 0.050703433 2.7059138e-06
  Final line search alpha, max atom move = 1.0000000 2.7059138e-06
  Iterations, force evaluations = 302 602

MPI task timing breakdown:
Section |  min time  |  avg time  |  max time  |%varavg| %total
---------------------------------------------------------------
Pair    | 0.91146    | 2.5327     | 3.2901     |  42.8 | 72.27
Neigh   | 2.0478e-05 | 0.005849   | 0.0085112  |   3.2 |  0.17
Comm    | 0.05485    | 0.5656     | 1.6962     |  63.3 | 16.14
Output  | 0          | 0          | 0          |   0.0 |  0.00
Modify  | 3.6171e-05 | 0.0049684  | 0.010678   |   3.3 |  0.14
Other   |            | 0.3952     |            |       | 11.28

Nlocal:        2776.45 ave        3960 max           0 min
Histogram: 8 4 4 0 4 12 8 2 28 34
Nghost:        3879.11 ave        5424 max         232 min
Histogram: 8 0 8 0 16 0 8 8 16 40
Neighs:        79213.1 ave      115433 max           0 min
Histogram: 8 4 4 0 10 6 8 8 24 32

Total # of neighbors = 8238167
Ave neighs/atom = 28.530350
Neighbor list builds = 2
Dangerous builds = 0
The dot product: -2.61382127183546e-07
Setting atom values ...
  1 settings made for x
  1 settings made for y
  1 settings made for z
Setting up cg style minimization ...
  Unit style    : metal
  Current step  : 5519
Per MPI rank memory allocation (min/avg/max) = 5.441 | 5.816 | 6.074 Mbytes
Step PotEng KinEng TotEng v_fx v_fy v_fz 
    5519   -1152449.2            0   -1152449.2 -0.027979146 -0.033887169 -0.023808986 
    5727   -1152449.2            0   -1152449.2 2.6607686e-05 -4.0440083e-06 6.2120102e-05 
Loop time of 2.51388 on 104 procs for 208 steps with 288751 atoms

99.8% CPU use with 104 MPI tasks x 1 OpenMP threads

Minimization stats:
  Stopping criterion = energy tolerance
  Energy initial, next-to-last, final = 
     -1152449.24564042  -1152449.24930724  -1152449.24930724
  Force two-norm initial, final = 0.15067582 0.00023944498
  Force max component initial, final = 0.055805919 6.2120102e-05
  Final line search alpha, max atom move = 1.0000000 6.2120102e-05
  Iterations, force evaluations = 208 416

MPI task timing breakdown:
Section |  min time  |  avg time  |  max time  |%varavg| %total
---------------------------------------------------------------
Pair    | 0.63551    | 1.7522     | 2.3069     |  35.6 | 69.70
Neigh   | 0          | 0          | 0          |   0.0 |  0.00
Comm    | 0.049747   | 0.40431    | 1.1756     |  50.9 | 16.08
Output  | 0          | 0          | 0          |   0.0 |  0.00
Modify  | 2.5097e-05 | 0.0034411  | 0.0073406  |   2.8 |  0.14
Other   |            | 0.3539     |            |       | 14.08

Nlocal:        2776.45 ave        3960 max           0 min
Histogram: 8 4 4 0 4 12 8 2 28 34
Nghost:        3879.05 ave        5424 max         232 min
Histogram: 8 0 8 0 16 0 8 8 16 40
Neighs:        79213.3 ave      115434 max           0 min
Histogram: 8 4 4 0 10 6 8 8 24 32

Total # of neighbors = 8238183
Ave neighs/atom = 28.530405
Neighbor list builds = 0
Dangerous builds = 0
The dot product: -2.02155627894193e-06
Setting atom values ...
  1 settings made for x
  1 settings made for y
  1 settings made for z
Setting up cg style minimization ...
  Unit style    : metal
  Current step  : 5727
Per MPI rank memory allocation (min/avg/max) = 5.441 | 5.816 | 6.074 Mbytes
Step PotEng KinEng TotEng v_fx v_fy v_fz 
    5727   -1152449.3            0   -1152449.3 -0.014957454 -0.038240185 0.0010791431 
    5935   -1152449.3            0   -1152449.3 3.0111533e-06 6.0142028e-07 6.9347584e-06 
Loop time of 2.42462 on 104 procs for 208 steps with 288751 atoms

99.9% CPU use with 104 MPI tasks x 1 OpenMP threads

Minimization stats:
  Stopping criterion = energy tolerance
  Energy initial, next-to-last, final = 
     -1152449.25028345  -1152449.25218997  -1152449.25218997
  Force two-norm initial, final = 0.1535929 5.6929671e-05
  Force max component initial, final = 0.055088835 1.0314962e-05
  Final line search alpha, max atom move = 1.0000000 1.0314962e-05
  Iterations, force evaluations = 208 416

MPI task timing breakdown:
Section |  min time  |  avg time  |  max time  |%varavg| %total
---------------------------------------------------------------
Pair    | 0.62751    | 1.7586     | 2.287      |  35.8 | 72.53
Neigh   | 0          | 0          | 0          |   0.0 |  0.00
Comm    | 0.0358     | 0.39522    | 1.1897     |  52.7 | 16.30
Output  | 0          | 0          | 0          |   0.0 |  0.00
Modify  | 2.51e-05   | 0.0034338  | 0.0073397  |   2.8 |  0.14
Other   |            | 0.2674     |            |       | 11.03

Nlocal:        2776.45 ave        3960 max           0 min
Histogram: 8 4 4 0 4 12 8 2 28 34
Nghost:        3879.12 ave        5424 max         232 min
Histogram: 8 0 8 0 16 0 8 8 16 40
Neighs:        79213.3 ave      115424 max           0 min
Histogram: 8 4 4 0 10 6 8 8 24 32

Total # of neighbors = 8238186
Ave neighs/atom = 28.530415
Neighbor list builds = 0
Dangerous builds = 0
The dot product: -7.0007108550943e-08
Setting atom values ...
  1 settings made for x
  1 settings made for y
  1 settings made for z
Setting up cg style minimization ...
  Unit style    : metal
  Current step  : 5935
Per MPI rank memory allocation (min/avg/max) = 5.441 | 5.816 | 6.074 Mbytes
Step PotEng KinEng TotEng v_fx v_fy v_fz 
    5935   -1152449.3            0   -1152449.3 -0.014273538 -0.049352869  0.012779312 
    6000   -1152449.3            0   -1152449.3 -3.8822824e-05 -7.0089675e-06 -9.4003255e-05 
    6036   -1152449.3            0   -1152449.3 -8.1017575e-06 7.4485927e-06 -2.8635902e-05 
Loop time of 1.18126 on 104 procs for 101 steps with 288751 atoms

99.9% CPU use with 104 MPI tasks x 1 OpenMP threads

Minimization stats:
  Stopping criterion = energy tolerance
  Energy initial, next-to-last, final = 
     -1152449.25427177   -1152449.2554718   -1152449.2554718
  Force two-norm initial, final = 0.15226225 0.00014142058
  Force max component initial, final = 0.055465843 2.8635902e-05
  Final line search alpha, max atom move = 1.0000000 2.8635902e-05
  Iterations, force evaluations = 101 202

MPI task timing breakdown:
Section |  min time  |  avg time  |  max time  |%varavg| %total
---------------------------------------------------------------
Pair    | 0.30428    | 0.84881    | 1.1094     |  24.9 | 71.86
Neigh   | 0          | 0          | 0          |   0.0 |  0.00
Comm    | 0.019632   | 0.19024    | 0.57237    |  36.6 | 16.10
Output  | 0.00014674 | 0.00015641 | 0.00025587 |   0.0 |  0.01
Modify  | 1.2632e-05 | 0.0016724  | 0.0035711  |   1.9 |  0.14
Other   |            | 0.1404     |            |       | 11.88

Nlocal:        2776.45 ave        3960 max           0 min
Histogram: 8 4 4 0 4 12 8 2 28 34
Nghost:        3879.12 ave        5424 max         232 min
Histogram: 8 0 8 0 16 0 8 8 16 40
Neighs:        79213.3 ave      115424 max           0 min
Histogram: 8 4 4 0 10 6 8 8 24 32

Total # of neighbors = 8238182
Ave neighs/atom = 28.530402
Neighbor list builds = 0
Dangerous builds = 0
The dot product: 3.18620404782746e-08
Setting atom values ...
  1 settings made for x
  1 settings made for y
  1 settings made for z
Setting up cg style minimization ...
  Unit style    : metal
  Current step  : 6036
Per MPI rank memory allocation (min/avg/max) = 5.441 | 5.816 | 6.074 Mbytes
Step PotEng KinEng TotEng v_fx v_fy v_fz 
    6036   -1152449.3            0   -1152449.3 -0.013646486  -0.05746134  0.020550305 
    6308   -1152449.3            0   -1152449.3 -1.3515807e-06 -1.0787272e-06 -2.5111778e-06 
Loop time of 3.16646 on 104 procs for 272 steps with 288751 atoms

99.9% CPU use with 104 MPI tasks x 1 OpenMP threads

Minimization stats:
  Stopping criterion = energy tolerance
  Energy initial, next-to-last, final = 
     -1152449.25693188  -1152449.29755639  -1152449.29755639
  Force two-norm initial, final = 0.15747034 2.9285134e-05
  Force max component initial, final = 0.05746134 6.1654584e-06
  Final line search alpha, max atom move = 1.0000000 6.1654584e-06
  Iterations, force evaluations = 272 543

MPI task timing breakdown:
Section |  min time  |  avg time  |  max time  |%varavg| %total
---------------------------------------------------------------
Pair    | 0.82099    | 2.2953     | 2.9734     |  40.8 | 72.49
Neigh   | 1.0398e-05 | 0.0029353  | 0.0042725  |   2.2 |  0.09
Comm    | 0.048163   | 0.51483    | 1.5689     |  60.6 | 16.26
Output  | 0          | 0          | 0          |   0.0 |  0.00
Modify  | 3.2494e-05 | 0.0044834  | 0.0096251  |   3.2 |  0.14
Other   |            | 0.3489     |            |       | 11.02

Nlocal:        2776.45 ave        3960 max           0 min
Histogram: 8 4 4 0 4 12 8 2 28 34
Nghost:        3879.12 ave        5424 max         232 min
Histogram: 8 0 8 0 16 0 8 8 16 40
Neighs:        79213.4 ave      115424 max           0 min
Histogram: 8 4 4 0 10 6 8 8 24 32

Total # of neighbors = 8238197
Ave neighs/atom = 28.530454
Neighbor list builds = 1
Dangerous builds = 0
The dot product: 2.66023172708234e-07
Setting atom values ...
  1 settings made for x
  1 settings made for y
  1 settings made for z
Setting up cg style minimization ...
  Unit style    : metal
  Current step  : 6308
Per MPI rank memory allocation (min/avg/max) = 5.441 | 5.816 | 6.074 Mbytes
Step PotEng KinEng TotEng v_fx v_fy v_fz 
    6308   -1152449.3            0   -1152449.3  0.028769652  0.058996953  0.058754791 
    6505   -1152449.3            0   -1152449.3 -1.2642529e-05 -2.782787e-06 -3.8930343e-05 
Loop time of 2.31241 on 104 procs for 197 steps with 288751 atoms

99.9% CPU use with 104 MPI tasks x 1 OpenMP threads

Minimization stats:
  Stopping criterion = energy tolerance
  Energy initial, next-to-last, final = 
     -1152449.30887225  -1152449.31115401  -1152449.31115401
  Force two-norm initial, final = 0.16258341 0.00014708743
  Force max component initial, final = 0.058996953 3.8930343e-05
  Final line search alpha, max atom move = 1.0000000 3.8930343e-05
  Iterations, force evaluations = 197 394

MPI task timing breakdown:
Section |  min time  |  avg time  |  max time  |%varavg| %total
---------------------------------------------------------------
Pair    | 0.60635    | 1.6586     | 2.1699     |  34.5 | 71.73
Neigh   | 0          | 0          | 0          |   0.0 |  0.00
Comm    | 0.040256   | 0.3747     | 1.12       |  50.8 | 16.20
Output  | 0          | 0          | 0          |   0.0 |  0.00
Modify  | 2.3925e-05 | 0.003256   | 0.0069528  |   2.7 |  0.14
Other   |            | 0.2758     |            |       | 11.93

Nlocal:        2776.45 ave        3960 max           0 min
Histogram: 8 4 4 0 4 12 8 6 24 34
Nghost:        3879.05 ave        5424 max         232 min
Histogram: 8 0 8 0 16 0 8 8 16 40
Neighs:        79213.4 ave      115431 max           0 min
Histogram: 8 4 4 0 10 6 8 8 24 32

Total # of neighbors = 8238197
Ave neighs/atom = 28.530454
Neighbor list builds = 0
Dangerous builds = 0
The dot product: -3.8299922884807e-07
Setting atom values ...
  1 settings made for x
  1 settings made for y
  1 settings made for z
Setting up cg style minimization ...
  Unit style    : metal
  Current step  : 6505
Per MPI rank memory allocation (min/avg/max) = 5.441 | 5.816 | 6.074 Mbytes
Step PotEng KinEng TotEng v_fx v_fy v_fz 
    6505   -1152449.3            0   -1152449.3 -0.0060666894 -0.071123391  0.027014493 
    6677   -1152449.3            0   -1152449.3 6.6342873e-06 -2.3444352e-05 3.5589456e-05 
Loop time of 2.00924 on 104 procs for 172 steps with 288751 atoms

99.9% CPU use with 104 MPI tasks x 1 OpenMP threads

Minimization stats:
  Stopping criterion = energy tolerance
  Energy initial, next-to-last, final = 
     -1152449.32050107   -1152449.3217454   -1152449.3217454
  Force two-norm initial, final = 0.16161525 0.00017010567
  Force max component initial, final = 0.071123391 3.5589456e-05
  Final line search alpha, max atom move = 1.0000000 3.5589456e-05
  Iterations, force evaluations = 172 344

MPI task timing breakdown:
Section |  min time  |  avg time  |  max time  |%varavg| %total
---------------------------------------------------------------
Pair    | 0.51955    | 1.45       | 1.8831     |  32.5 | 72.17
Neigh   | 0          | 0          | 0          |   0.0 |  0.00
Comm    | 0.030328   | 0.32624    | 0.98089    |  47.5 | 16.24
Output  | 0          | 0          | 0          |   0.0 |  0.00
Modify  | 2.0707e-05 | 0.0028431  | 0.0061154  |   2.5 |  0.14
Other   |            | 0.2301     |            |       | 11.45

Nlocal:        2776.45 ave        3960 max           0 min
Histogram: 8 4 4 0 4 12 8 4 26 34
Nghost:        3879.05 ave        5427 max         232 min
Histogram: 8 0 8 0 16 0 8 8 16 40
Neighs:        79213.4 ave      115422 max           0 min
Histogram: 8 4 4 0 10 6 8 8 24 32

Total # of neighbors = 8238195
Ave neighs/atom = 28.530447
Neighbor list builds = 0
Dangerous builds = 0
The dot product: 1.90095319975432e-07
Setting atom values ...
  1 settings made for x
  1 settings made for y
  1 settings made for z
Setting up cg style minimization ...
  Unit style    : metal
  Current step  : 6677
Per MPI rank memory allocation (min/avg/max) = 5.441 | 5.816 | 6.074 Mbytes
Step PotEng KinEng TotEng v_fx v_fy v_fz 
    6677   -1152449.3            0   -1152449.3 -0.00049608019 -0.053828706  0.031423045 
    6857   -1152449.3            0   -1152449.3 7.4618401e-06 1.4005935e-05 1.4420586e-05 
Loop time of 2.12504 on 104 procs for 180 steps with 288751 atoms

99.9% CPU use with 104 MPI tasks x 1 OpenMP threads

Minimization stats:
  Stopping criterion = energy tolerance
  Energy initial, next-to-last, final = 
     -1152449.32952221  -1152449.33070679  -1152449.33070679
  Force two-norm initial, final = 0.15654439 0.00012501767
  Force max component initial, final = 0.054021646 2.7020713e-05
  Final line search alpha, max atom move = 1.0000000 2.7020713e-05
  Iterations, force evaluations = 180 360

MPI task timing breakdown:
Section |  min time  |  avg time  |  max time  |%varavg| %total
---------------------------------------------------------------
Pair    | 0.54609    | 1.5141     | 1.9952     |  33.3 | 71.25
Neigh   | 0          | 0          | 0          |   0.0 |  0.00
Comm    | 0.035656   | 0.34283    | 1.0184     |  48.5 | 16.13
Output  | 0          | 0          | 0          |   0.0 |  0.00
Modify  | 2.2103e-05 | 0.0029723  | 0.0063653  |   2.6 |  0.14
Other   |            | 0.2651     |            |       | 12.48

Nlocal:        2776.45 ave        3960 max           0 min
Histogram: 8 4 4 0 4 12 8 4 26 34
Nghost:        3879.11 ave        5429 max         232 min
Histogram: 8 0 8 0 16 0 8 8 16 40
Neighs:        79213.4 ave      115422 max           0 min
Histogram: 8 4 4 0 10 6 8 8 24 32

Total # of neighbors = 8238197
Ave neighs/atom = 28.530454
Neighbor list builds = 0
Dangerous builds = 0
The dot product: -1.09765227871157e-08
Setting atom values ...
  1 settings made for x
  1 settings made for y
  1 settings made for z
Setting up cg style minimization ...
  Unit style    : metal
  Current step  : 6857
Per MPI rank memory allocation (min/avg/max) = 5.441 | 5.816 | 6.074 Mbytes
Step PotEng KinEng TotEng v_fx v_fy v_fz 
    6857   -1152449.3            0   -1152449.3 -0.0012596221 -0.058228295  0.030918417 
    7000   -1152449.3            0   -1152449.3 -1.6763391e-05 1.2163813e-05 -5.8550014e-05 
    7043   -1152449.3            0   -1152449.3 5.5803996e-06 1.0180953e-05 1.0993008e-05 
Loop time of 2.17502 on 104 procs for 186 steps with 288751 atoms

99.9% CPU use with 104 MPI tasks x 1 OpenMP threads

Minimization stats:
  Stopping criterion = energy tolerance
  Energy initial, next-to-last, final = 
     -1152449.33685057   -1152449.3380667   -1152449.3380667
  Force two-norm initial, final = 0.15886881 9.3976239e-05
  Force max component initial, final = 0.058228295 1.3917042e-05
  Final line search alpha, max atom move = 1.0000000 1.3917042e-05
  Iterations, force evaluations = 186 372

MPI task timing breakdown:
Section |  min time  |  avg time  |  max time  |%varavg| %total
---------------------------------------------------------------
Pair    | 0.55916    | 1.57       | 2.05       |  33.9 | 72.18
Neigh   | 0          | 0          | 0          |   0.0 |  0.00
Comm    | 0.033345   | 0.35367    | 1.0521     |  49.5 | 16.26
Output  | 0.00015706 | 0.00016473 | 0.00031555 |   0.0 |  0.01
Modify  | 2.2556e-05 | 0.0030722  | 0.0065936  |   2.6 |  0.14
Other   |            | 0.2481     |            |       | 11.41

Nlocal:        2776.45 ave        3960 max           0 min
Histogram: 8 4 4 0 4 12 8 4 26 34
Nghost:        3879.12 ave        5429 max         232 min
Histogram: 8 0 8 0 16 0 8 8 16 40
Neighs:        79213.4 ave      115422 max           0 min
Histogram: 8 4 4 0 10 6 8 8 24 32

Total # of neighbors = 8238197
Ave neighs/atom = 28.530454
Neighbor list builds = 0
Dangerous builds = 0
The dot product: -1.57442126268357e-08
Setting atom values ...
  1 settings made for x
  1 settings made for y
  1 settings made for z
Setting up cg style minimization ...
  Unit style    : metal
  Current step  : 7043
Per MPI rank memory allocation (min/avg/max) = 5.441 | 5.816 | 6.074 Mbytes
Step PotEng KinEng TotEng v_fx v_fy v_fz 
    7043   -1152449.3            0   -1152449.3 -0.0012955006 -0.058777006  0.030129348 
    7232   -1152449.3            0   -1152449.3 -4.6793167e-06 6.0381282e-06  -1.7717e-05 
[...]

Nlocal:        2776.45 ave        3960 max           0 min
Histogram: 8 4 4 0 4 12 8 2 28 34
Nghost:        3879.01 ave        5424 max         232 min
Histogram: 8 0 8 0 16 0 8 8 16 40
Neighs:        79213.5 ave      115434 max           0 min
Histogram: 8 4 4 0 10 6 8 8 24 32

Total # of neighbors = 8238202
Ave neighs/atom = 28.530471
Neighbor list builds = 0
Dangerous builds = 0
The dot product: 3.49173167841672e-08
Setting atom values ...
  1 settings made for x
  1 settings made for y
  1 settings made for z
Setting up cg style minimization ...
  Unit style    : metal
  Current step  : 2325
Per MPI rank memory allocation (min/avg/max) = 5.441 | 5.816 | 6.074 Mbytes
Step PotEng KinEng TotEng v_fx v_fy v_fz 
    2325   -1152449.3            0   -1152449.3 0.0045571421 0.0056048102 0.0036749575 
    2441   -1152449.4            0   -1152449.4 -6.7362746e-06 -5.15816e-06 -8.8373619e-06 
Loop time of 1.3441 on 104 procs for 116 steps with 288751 atoms

99.9% CPU use with 104 MPI tasks x 1 OpenMP threads

Minimization stats:
  Stopping criterion = energy tolerance
  Energy initial, next-to-last, final = 
     -1152449.34944758  -1152449.35066134  -1152449.35066134
  Force two-norm initial, final = 0.13671881 7.4789242e-05
  Force max component initial, final = 0.067895627 8.8373619e-06
  Final line search alpha, max atom move = 1.0000000 8.8373619e-06
  Iterations, force evaluations = 116 232

MPI task timing breakdown:
Section |  min time  |  avg time  |  max time  |%varavg| %total
---------------------------------------------------------------
Pair    | 0.34526    | 0.97641    | 1.2656     |  26.9 | 72.64
Neigh   | 0          | 0          | 0          |   0.0 |  0.00
Comm    | 0.020356   | 0.22151    | 0.6667     |  39.0 | 16.48
Output  | 0          | 0          | 0          |   0.0 |  0.00
Modify  | 1.4577e-05 | 0.0019181  | 0.0041045  |   2.1 |  0.14
Other   |            | 0.1443     |            |       | 10.73

Nlocal:        2776.45 ave        3960 max           0 min
Histogram: 8 4 4 0 4 12 8 2 28 34
Nghost:        3879.01 ave        5424 max         232 min
Histogram: 8 0 8 0 16 0 8 8 16 40
Neighs:        79213.5 ave      115434 max           0 min
Histogram: 8 4 4 0 10 6 8 8 24 32

Total # of neighbors = 8238201
Ave neighs/atom = 28.530467
Neighbor list builds = 0
Dangerous builds = 0
The dot product: -5.127447986278e-08
Setting atom values ...
  1 settings made for x
  1 settings made for y
  1 settings made for z
Setting up cg style minimization ...
  Unit style    : metal
  Current step  : 2441
Per MPI rank memory allocation (min/avg/max) = 5.441 | 5.816 | 6.074 Mbytes
Step PotEng KinEng TotEng v_fx v_fy v_fz 
    2441   -1152449.3            0   -1152449.3 0.0073498814 0.0022966657  0.012641401 
    2676   -1152449.3            0   -1152449.3 1.0323791e-05 9.2711974e-06 1.1389966e-05 
Loop time of 2.73169 on 104 procs for 235 steps with 288751 atoms

99.9% CPU use with 104 MPI tasks x 1 OpenMP threads

Minimization stats:
  Stopping criterion = energy tolerance
  Energy initial, next-to-last, final = 
      -1152449.3400459  -1152449.34214473  -1152449.34214473
  Force two-norm initial, final = 0.14103814 5.4660746e-05
  Force max component initial, final = 0.066014458 1.5071204e-05
  Final line search alpha, max atom move = 1.0000000 1.5071204e-05
  Iterations, force evaluations = 235 470

MPI task timing breakdown:
Section |  min time  |  avg time  |  max time  |%varavg| %total
---------------------------------------------------------------
Pair    | 0.69999    | 1.9712     | 2.5586     |  38.1 | 72.16
Neigh   | 0          | 0          | 0          |   0.0 |  0.00
Comm    | 0.046805   | 0.44591    | 1.3289     |  55.3 | 16.32
Output  | 0          | 0          | 0          |   0.0 |  0.00
Modify  | 2.8523e-05 | 0.0038717  | 0.0082611  |   2.9 |  0.14
Other   |            | 0.3107     |            |       | 11.38

Nlocal:        2776.45 ave        3960 max           0 min
Histogram: 8 4 4 0 4 12 8 2 28 34
Nghost:        3879.01 ave        5424 max         232 min
Histogram: 8 0 8 0 16 0 8 8 16 40
Neighs:        79213.5 ave      115434 max           0 min
Histogram: 8 4 4 0 10 6 8 8 24 32

Total # of neighbors = 8238202
Ave neighs/atom = 28.530471
Neighbor list builds = 0
Dangerous builds = 0
The dot product: 1.96209991120042e-07
Setting atom values ...
  1 settings made for x
  1 settings made for y
  1 settings made for z
Setting up cg style minimization ...
  Unit style    : metal
  Current step  : 2676
Per MPI rank memory allocation (min/avg/max) = 5.441 | 5.816 | 6.074 Mbytes
Step PotEng KinEng TotEng v_fx v_fy v_fz 
    2676   -1152449.3            0   -1152449.3  0.012906463 -0.0011317018   0.02411546 
    2912   -1152449.3            0   -1152449.3 -1.9217849e-05 -1.5434994e-05 -2.0115352e-05 
Loop time of 2.74181 on 104 procs for 236 steps with 288751 atoms

99.9% CPU use with 104 MPI tasks x 1 OpenMP threads

Minimization stats:
  Stopping criterion = energy tolerance
  Energy initial, next-to-last, final = 
     -1152449.33582138  -1152449.34623613  -1152449.34623613
  Force two-norm initial, final = 0.15606879 0.00012335759
  Force max component initial, final = 0.058913966 2.6103543e-05
  Final line search alpha, max atom move = 1.0000000 2.6103543e-05
  Iterations, force evaluations = 236 472

MPI task timing breakdown:
Section |  min time  |  avg time  |  max time  |%varavg| %total
---------------------------------------------------------------
Pair    | 0.70707    | 1.9827     | 2.5683     |  38.0 | 72.31
Neigh   | 1.0194e-05 | 0.0029455  | 0.0042887  |   2.2 |  0.11
Comm    | 0.048822   | 0.44522    | 1.3432     |  55.8 | 16.24
Output  | 0          | 0          | 0          |   0.0 |  0.00
Modify  | 2.8592e-05 | 0.0038992  | 0.008391   |   2.9 |  0.14
Other   |            | 0.3071     |            |       | 11.20

Nlocal:        2776.45 ave        3960 max           0 min
Histogram: 8 4 4 0 4 12 8 2 28 34
Nghost:        3879.05 ave        5424 max         232 min
Histogram: 8 0 8 0 16 0 8 8 16 40
Neighs:        79213.4 ave      115434 max           0 min
Histogram: 8 4 4 0 10 6 8 8 24 32

Total # of neighbors = 8238193
Ave neighs/atom = 28.530440
Neighbor list builds = 1
Dangerous builds = 0
The dot product: -5.1909140611135e-07
Setting atom values ...
  1 settings made for x
  1 settings made for y
  1 settings made for z
Setting up cg style minimization ...
  Unit style    : metal
  Current step  : 2912
Per MPI rank memory allocation (min/avg/max) = 5.441 | 5.816 | 6.074 Mbytes
Step PotEng KinEng TotEng v_fx v_fy v_fz 
    2912   -1152449.3            0   -1152449.3 -0.015299568  0.010019251 -0.030369849 
    3000   -1152449.3            0   -1152449.3 4.4738801e-05 -3.8571042e-06 6.9542151e-05 
    3045   -1152449.3            0   -1152449.3 2.5714646e-06 -1.5152495e-05 1.5303283e-05 
Loop time of 1.56304 on 104 procs for 133 steps with 288751 atoms

99.9% CPU use with 104 MPI tasks x 1 OpenMP threads

Minimization stats:
  Stopping criterion = energy tolerance
  Energy initial, next-to-last, final = 
     -1152449.34821489  -1152449.34915926  -1152449.34915926
  Force two-norm initial, final = 0.12869171 0.00013362652
  Force max component initial, final = 0.048211854 1.5474305e-05
  Final line search alpha, max atom move = 1.0000000 1.5474305e-05
  Iterations, force evaluations = 133 266

MPI task timing breakdown:
Section |  min time  |  avg time  |  max time  |%varavg| %total
---------------------------------------------------------------
Pair    | 0.40293    | 1.1181     | 1.4483     |  28.5 | 71.53
Neigh   | 0          | 0          | 0          |   0.0 |  0.00
Comm    | 0.037581   | 0.25584    | 0.76087    |  41.4 | 16.37
Output  | 0.00015069 | 0.0001563  | 0.00032678 |   0.0 |  0.01
Modify  | 1.6579e-05 | 0.0021953  | 0.004673   |   2.2 |  0.14
Other   |            | 0.1868     |            |       | 11.95

Nlocal:        2776.45 ave        3961 max           0 min
Histogram: 8 4 4 0 6 10 8 2 28 34
Nghost:        3879.07 ave        5425 max         232 min
Histogram: 8 0 8 0 16 0 8 8 16 40
Neighs:        79213.4 ave      115447 max           0 min
Histogram: 8 4 4 0 10 6 8 8 24 32

Total # of neighbors = 8238191
Ave neighs/atom = 28.530433
Neighbor list builds = 0
Dangerous builds = 0
The dot product: -5.03605034222772e-08
Setting atom values ...
  1 settings made for x
  1 settings made for y
  1 settings made for z
Setting up cg style minimization ...
  Unit style    : metal
  Current step  : 3045
Per MPI rank memory allocation (min/avg/max) = 5.441 | 5.816 | 6.074 Mbytes
Step PotEng KinEng TotEng v_fx v_fy v_fz 
    3045   -1152449.4            0   -1152449.4 -0.0097429538 0.0060288321 -0.019413914 
    3232   -1152449.4            0   -1152449.4 3.1877734e-06 9.5110235e-06 -2.5171988e-06 
Loop time of 2.16945 on 104 procs for 187 steps with 288751 atoms

99.9% CPU use with 104 MPI tasks x 1 OpenMP threads

Minimization stats:
  Stopping criterion = energy tolerance
  Energy initial, next-to-last, final = 
     -1152449.35009232  -1152449.35099617  -1152449.35099617
  Force two-norm initial, final = 0.12527884 9.8450304e-05
  Force max component initial, final = 0.04742066 2.1622798e-05
  Final line search alpha, max atom move = 1.0000000 2.1622798e-05
  Iterations, force evaluations = 187 374

MPI task timing breakdown:
Section |  min time  |  avg time  |  max time  |%varavg| %total
---------------------------------------------------------------
Pair    | 0.55748    | 1.5686     | 2.0442     |  34.0 | 72.31
Neigh   | 0          | 0          | 0          |   0.0 |  0.00
Comm    | 0.032356   | 0.35563    | 1.0579     |  49.5 | 16.39
Output  | 0          | 0          | 0          |   0.0 |  0.00
Modify  | 2.244e-05  | 0.0030896  | 0.0066179  |   2.6 |  0.14
Other   |            | 0.2421     |            |       | 11.16

Nlocal:        2776.45 ave        3961 max           0 min
Histogram: 8 4 4 0 6 10 8 2 28 34
Nghost:        3879.07 ave        5425 max         232 min
Histogram: 8 0 8 0 16 0 8 8 16 40
Neighs:        79213.4 ave      115447 max           0 min
Histogram: 8 4 4 0 10 6 8 8 24 32

Total # of neighbors = 8238192
Ave neighs/atom = 28.530436
Neighbor list builds = 0
Dangerous builds = 0
The dot product: 1.76702356717103e-09
Setting atom values ...
  1 settings made for x
  1 settings made for y
  1 settings made for z
Setting up cg style minimization ...
  Unit style    : metal
  Current step  : 3232
Per MPI rank memory allocation (min/avg/max) = 5.441 | 5.816 | 6.074 Mbytes
Step PotEng KinEng TotEng v_fx v_fy v_fz 
    3232   -1152449.4            0   -1152449.4 -0.0099315122 0.0065530273 -0.020139857 
    3430   -1152449.4            0   -1152449.4 -2.3459368e-05 -9.9775147e-06 -2.786528e-05 
Loop time of 2.29788 on 104 procs for 198 steps with 288751 atoms

99.9% CPU use with 104 MPI tasks x 1 OpenMP threads

Minimization stats:
  Stopping criterion = energy tolerance
  Energy initial, next-to-last, final = 
     -1152449.35067019  -1152449.35157059  -1152449.35157059
  Force two-norm initial, final = 0.12551191 8.6727802e-05
  Force max component initial, final = 0.046880401 2.7865280e-05
  Final line search alpha, max atom move = 1.0000000 2.7865280e-05
  Iterations, force evaluations = 198 396

MPI task timing breakdown:
Section |  min time  |  avg time  |  max time  |%varavg| %total
---------------------------------------------------------------
Pair    | 0.58903    | 1.6584     | 2.1592     |  34.9 | 72.17
Neigh   | 0          | 0          | 0          |   0.0 |  0.00
Comm    | 0.036041   | 0.3746     | 1.1136     |  50.6 | 16.30
Output  | 0          | 0          | 0          |   0.0 |  0.00
Modify  | 2.3974e-05 | 0.0032603  | 0.0069787  |   2.7 |  0.14
Other   |            | 0.2617     |            |       | 11.39

Nlocal:        2776.45 ave        3961 max           0 min
Histogram: 8 4 4 0 6 10 8 2 28 34
Nghost:        3879.09 ave        5424 max         232 min
Histogram: 8 0 8 0 16 0 8 8 16 40
Neighs:        79213.4 ave      115465 max           0 min
Histogram: 8 4 4 0 10 6 8 8 24 32

Total # of neighbors = 8238190
Ave neighs/atom = 28.530429
Neighbor list builds = 0
Dangerous builds = 0
The dot product: 1.27151630726762e-08
Setting atom values ...
  1 settings made for x
  1 settings made for y
  1 settings made for z
Setting up cg style minimization ...
  Unit style    : metal
  Current step  : 3430
Per MPI rank memory allocation (min/avg/max) = 5.441 | 5.816 | 6.074 Mbytes
Step PotEng KinEng TotEng v_fx v_fy v_fz 
    3430   -1152449.3            0   -1152449.3 -0.0091877697 0.0065378332  -0.01906156 
    3708   -1152449.4            0   -1152449.4 4.3141412e-08 -3.8103899e-07 3.6191835e-07 
Loop time of 3.24351 on 104 procs for 278 steps with 288751 atoms

99.9% CPU use with 104 MPI tasks x 1 OpenMP threads

Minimization stats:
  Stopping criterion = energy tolerance
  Energy initial, next-to-last, final = 
      -1152449.3499212  -1152449.35081255  -1152449.35081255
  Force two-norm initial, final = 0.12487511 1.9040635e-06
  Force max component initial, final = 0.046242464 4.3112255e-07
  Final line search alpha, max atom move = 1.0000000 4.3112255e-07
  Iterations, force evaluations = 278 556

MPI task timing breakdown:
Section |  min time  |  avg time  |  max time  |%varavg| %total
---------------------------------------------------------------
Pair    | 0.83       | 2.3352     | 3.0444     |  41.6 | 72.00
Neigh   | 0          | 0          | 0          |   0.0 |  0.00
Comm    | 0.049716   | 0.53276    | 1.569      |  59.7 | 16.43
Output  | 0          | 0          | 0          |   0.0 |  0.00
Modify  | 3.3811e-05 | 0.0045808  | 0.0097762  |   3.2 |  0.14
Other   |            | 0.3709     |            |       | 11.44

Nlocal:        2776.45 ave        3961 max           0 min
Histogram: 8 4 4 0 6 10 8 2 28 34
Nghost:        3879.01 ave        5424 max         232 min
Histogram: 8 0 8 0 16 0 8 8 16 40
Neighs:        79213.4 ave      115465 max           0 min
Histogram: 8 4 4 0 10 6 8 8 24 32

Total # of neighbors = 8238192
Ave neighs/atom = 28.530436
Neighbor list builds = 0
Dangerous builds = 0
The dot product: -2.93168646827382e-10
Setting atom values ...
  1 settings made for x
  1 settings made for y
  1 settings made for z
Setting up cg style minimization ...
  Unit style    : metal
  Current step  : 3708
Per MPI rank memory allocation (min/avg/max) = 5.441 | 5.816 | 6.074 Mbytes
Step PotEng KinEng TotEng v_fx v_fy v_fz 
    3708   -1152449.3            0   -1152449.3 -0.0082071825 0.0063536601 -0.017479709 
    3904   -1152449.3            0   -1152449.3 2.2343702e-05 8.1615727e-06 2.770474e-05 
Loop time of 2.28022 on 104 procs for 196 steps with 288751 atoms

99.9% CPU use with 104 MPI tasks x 1 OpenMP threads

Minimization stats:
  Stopping criterion = energy tolerance
  Energy initial, next-to-last, final = 
     -1152449.34782322  -1152449.34870151  -1152449.34870151
  Force two-norm initial, final = 0.12388207 9.1061458e-05
  Force max component initial, final = 0.045581908 2.7704740e-05
  Final line search alpha, max atom move = 1.0000000 2.7704740e-05
  Iterations, force evaluations = 196 392

MPI task timing breakdown:
Section |  min time  |  avg time  |  max time  |%varavg| %total
---------------------------------------------------------------
Pair    | 0.58371    | 1.6427     | 2.1391     |  34.7 | 72.04
Neigh   | 0          | 0          | 0          |   0.0 |  0.00
Comm    | 0.039421   | 0.37134    | 1.1048     |  50.6 | 16.29
Output  | 0          | 0          | 0          |   0.0 |  0.00
Modify  | 2.3953e-05 | 0.0032323  | 0.0069181  |   2.7 |  0.14
Other   |            | 0.263      |            |       | 11.53

Nlocal:        2776.45 ave        3960 max           0 min
Histogram: 8 4 4 0 4 12 8 2 28 34
Nghost:        3879.01 ave        5424 max         232 min
Histogram: 8 0 8 0 16 0 8 8 16 40
Neighs:        79213.4 ave      115434 max           0 min
Histogram: 8 4 4 0 10 6 8 8 24 32

Total # of neighbors = 8238191
Ave neighs/atom = 28.530433
Neighbor list builds = 0
Dangerous builds = 0
The dot product: -9.93986027489339e-09
Setting atom values ...
  1 settings made for x
  1 settings made for y
  1 settings made for z
Setting up cg style minimization ...
  Unit style    : metal
  Current step  : 3904
Per MPI rank memory allocation (min/avg/max) = 5.441 | 5.816 | 6.074 Mbytes
Step PotEng KinEng TotEng v_fx v_fy v_fz 
    3904   -1152449.3            0   -1152449.3 -0.0072601707  0.005897696 -0.015722035 
    4000   -1152449.3            0   -1152449.3 1.5325504e-05 6.2524788e-05 -2.5606041e-05 
    4158   -1152449.3            0   -1152449.3 9.9791775e-07 1.1257583e-06 6.4251086e-07 
Loop time of 2.9464 on 104 procs for 254 steps with 288751 atoms

99.9% CPU use with 104 MPI tasks x 1 OpenMP threads

Minimization stats:
  Stopping criterion = energy tolerance
  Energy initial, next-to-last, final = 
     -1152449.34436809  -1152449.34523221  -1152449.34523221
  Force two-norm initial, final = 0.12291065 6.7194454e-06
  Force max component initial, final = 0.044875678 1.1553894e-06
  Final line search alpha, max atom move = 1.0000000 1.1553894e-06
  Iterations, force evaluations = 254 508

MPI task timing breakdown:
Section |  min time  |  avg time  |  max time  |%varavg| %total
---------------------------------------------------------------
Pair    | 0.75719    | 2.135      | 2.7749     |  39.7 | 72.46
Neigh   | 0          | 0          | 0          |   0.0 |  0.00
Comm    | 0.045705   | 0.48551    | 1.4568     |  57.5 | 16.48
Output  | 0.00017558 | 0.00018312 | 0.00034531 |   0.0 |  0.01
Modify  | 3.0888e-05 | 0.0041836  | 0.0089136  |   3.0 |  0.14
Other   |            | 0.3215     |            |       | 10.91

Nlocal:        2776.45 ave        3960 max           0 min
Histogram: 8 4 4 0 4 12 8 2 28 34
Nghost:        3879.01 ave        5424 max         232 min
Histogram: 8 0 8 0 16 0 8 8 16 40
Neighs:        79213.4 ave      115434 max           0 min
Histogram: 8 4 4 0 10 6 8 8 24 32

Total # of neighbors = 8238190
Ave neighs/atom = 28.530429
Neighbor list builds = 0
Dangerous builds = 0
The dot product: 9.8569394528258e-11
Setting up cg style minimization ...
  Unit style    : metal
  Current step  : 4158
Per MPI rank memory allocation (min/avg/max) = 5.441 | 5.816 | 6.074 Mbytes
Step PotEng KinEng TotEng v_fx v_fy v_fz 
    4158   -1152449.3            0   -1152449.3   0.15957207  -0.08186578  -0.10439674 
    4363   -1152449.4            0   -1152449.4 3.5014041e-05 2.6363026e-05 4.803946e-05 
Loop time of 2.37526 on 104 procs for 205 steps with 288751 atoms

99.9% CPU use with 104 MPI tasks x 1 OpenMP threads

Minimization stats:
  Stopping criterion = energy tolerance
  Energy initial, next-to-last, final = 
     -1152449.34523221   -1152449.3515733   -1152449.3515733
  Force two-norm initial, final = 0.20751851 0.0002191497
  Force max component initial, final = 0.15957207 4.8039460e-05
  Final line search alpha, max atom move = 1.0000000 4.8039460e-05
  Iterations, force evaluations = 205 410

MPI task timing breakdown:
Section |  min time  |  avg time  |  max time  |%varavg| %total
---------------------------------------------------------------
Pair    | 0.6109     | 1.7201     | 2.233      |  35.5 | 72.42
Neigh   | 0          | 0          | 0          |   0.0 |  0.00
Comm    | 0.045649   | 0.38911    | 1.173      |  51.9 | 16.38
Output  | 0          | 0          | 0          |   0.0 |  0.00
Modify  | 2.346e-05  | 0.0022045  | 0.0056334  |   2.9 |  0.09
Other   |            | 0.2638     |            |       | 11.11

Nlocal:        2776.45 ave        3960 max           0 min
Histogram: 8 4 4 0 4 12 8 2 28 34
Nghost:        3879.01 ave        5424 max         232 min
Histogram: 8 0 8 0 16 0 8 8 16 40
Neighs:        79213.4 ave      115434 max           0 min
Histogram: 8 4 4 0 10 6 8 8 24 32

Total # of neighbors = 8238190
Ave neighs/atom = 28.530429
Neighbor list builds = 0
Dangerous builds = 0
