LAMMPS (29 Oct 2020)
OMP_NUM_THREADS environment is not set. Defaulting to 1 thread. (../comm.cpp:94)
  using 1 OpenMP thread(s) per MPI task
OMP_NUM_THREADS environment is not set. Defaulting to 1 thread. (../comm.cpp:94)
  using 1 OpenMP thread(s) per MPI task
Reading data file ...
  orthogonal box = (-122.39241 -121.13707 -37.090501) to (122.39241 121.13707 37.090501)
  13 by 8 by 2 MPI processor grid
  reading atoms ...
  288751 atoms
  read_data CPU = 0.375 seconds
199981 atoms in group inner
88770 atoms in group outer
1 atoms in group carbon
Neighbor list info ...
  update every 1 steps, delay 0 steps, check yes
  max neighbors/atom: 2000, page size: 100000
  master list distance cutoff = 5.6
  ghost atom cutoff = 5.6
  binsize = 2.8, bins = 88 87 27
  1 neighbor lists, perpetual/occasional/extra = 1 0 0
  (1) pair eam/alloy, perpetual
      attributes: half, newton on
      pair build: half/bin/atomonly/newton
      stencil: half/bin/3d/newton
      bin: standard
Setting up cg style minimization ...
  Unit style    : metal
  Current step  : 0
Per MPI rank memory allocation (min/avg/max) = 5.425 | 5.522 | 5.555 Mbytes
Step v_fx v_fy v_fz PotEng KinEng TotEng 
       0   -25.409511    15.059185      49.9568   -1152433.5            0   -1152433.5 
     180 -2.4691874e-06 4.2360404e-06 -1.0129823e-05   -1152449.5            0   -1152449.5 
Loop time of 1.22071 on 208 procs for 180 steps with 288751 atoms

99.8% CPU use with 208 MPI tasks x 1 OpenMP threads

Minimization stats:
  Stopping criterion = energy tolerance
  Energy initial, next-to-last, final = 
      -1152433.4707421  -1152449.45035266  -1152449.45035266
  Force two-norm initial, final = 87.079027 5.6297381e-05
  Force max component initial, final = 57.190163 1.0129823e-05
  Final line search alpha, max atom move = 1.0000000 1.0129823e-05
  Iterations, force evaluations = 180 351

MPI task timing breakdown:
Section |  min time  |  avg time  |  max time  |%varavg| %total
---------------------------------------------------------------
Pair    | 5.026e-05  | 0.78573    | 1.0509     |  29.3 | 64.37
Neigh   | 2.2381e-05 | 0.0077158  | 0.011564   |   4.1 |  0.63
Comm    | 0.00088044 | 0.1593     | 0.65815    |  36.4 | 13.05
Output  | 0          | 0          | 0          |   0.0 |  0.00
Modify  | 1.5919e-05 | 0.0009404  | 0.0026209  |   0.0 |  0.08
Other   |            | 0.267      |            |       | 21.87

Nlocal:        1388.23 ave        2038 max           0 min
Histogram: 28 4 0 16 8 0 8 12 96 36
Nghost:        2437.43 ave        3379 max           0 min
Histogram: 24 0 8 8 16 4 12 4 30 102
Neighs:        39606.8 ave       59719 max           0 min
Histogram: 28 4 4 14 6 2 10 8 102 30

Total # of neighbors = 8238206
Ave neighs/atom = 28.530485
Neighbor list builds = 5
Dangerous builds = 0
Setting atom values ...
  1 settings made for x
  1 settings made for y
  1 settings made for z
Setting up cg style minimization ...
  Unit style    : metal
  Current step  : 180
Per MPI rank memory allocation (min/avg/max) = 5.425 | 5.522 | 5.555 Mbytes
Step PotEng KinEng TotEng v_fx v_fy v_fz 
     180   -1152449.4            0   -1152449.4  0.015521234 0.0058659989 -0.019407066 
     350   -1152449.5            0   -1152449.5 6.9210416e-06 -1.5485766e-05 -2.4138717e-05 
Loop time of 1.13727 on 208 procs for 170 steps with 288751 atoms

99.9% CPU use with 208 MPI tasks x 1 OpenMP threads

Minimization stats:
  Stopping criterion = energy tolerance
  Energy initial, next-to-last, final = 
     -1152449.44949184  -1152449.45006465  -1152449.45006465
  Force two-norm initial, final = 0.11250033 0.00012510057
  Force max component initial, final = 0.050072753 2.7186833e-05
  Final line search alpha, max atom move = 1.0000000 2.7186833e-05
  Iterations, force evaluations = 170 340

MPI task timing breakdown:
Section |  min time  |  avg time  |  max time  |%varavg| %total
---------------------------------------------------------------
Pair    | 4.8526e-05 | 0.76383    | 1.0263     |  29.4 | 67.16
Neigh   | 0          | 0          | 0          |   0.0 |  0.00
Comm    | 5.2482e-05 | 0.15461    | 0.6529     |  36.3 | 13.59
Output  | 0          | 0          | 0          |   0.0 |  0.00
Modify  | 1.5239e-05 | 0.0014041  | 0.0031845  |   2.2 |  0.12
Other   |            | 0.2174     |            |       | 19.12

Nlocal:        1388.23 ave        2040 max           0 min
Histogram: 28 4 0 16 8 0 8 12 96 36
Nghost:        2437.43 ave        3379 max           0 min
Histogram: 24 0 8 8 16 4 12 4 30 102
Neighs:        39606.7 ave       59781 max           0 min
Histogram: 28 4 4 14 6 2 10 8 104 28

Total # of neighbors = 8238197
Ave neighs/atom = 28.530454
Neighbor list builds = 0
Dangerous builds = 0
Setting atom values ...
  1 settings made for x
  1 settings made for y
  1 settings made for z
Setting up cg style minimization ...
  Unit style    : metal
  Current step  : 350
Per MPI rank memory allocation (min/avg/max) = 5.425 | 5.522 | 5.555 Mbytes
Step PotEng KinEng TotEng v_fx v_fy v_fz 
     350   -1152449.4            0   -1152449.4  0.027307902 0.0091036203 -0.042706782 
     524   -1152449.4            0   -1152449.4 2.0600196e-05 -1.1796783e-05 -5.4489246e-05 
Loop time of 1.14146 on 208 procs for 174 steps with 288751 atoms

99.9% CPU use with 208 MPI tasks x 1 OpenMP threads

Minimization stats:
  Stopping criterion = energy tolerance
  Energy initial, next-to-last, final = 
     -1152449.44631829  -1152449.44814992  -1152449.44814992
  Force two-norm initial, final = 0.2034803 0.00016340929
  Force max component initial, final = 0.090326909 5.4489246e-05
  Final line search alpha, max atom move = 1.0000000 5.4489246e-05
  Iterations, force evaluations = 174 348

MPI task timing breakdown:
Section |  min time  |  avg time  |  max time  |%varavg| %total
---------------------------------------------------------------
Pair    | 4.6647e-05 | 0.77478    | 1.0404     |  29.5 | 67.88
Neigh   | 0          | 0          | 0          |   0.0 |  0.00
Comm    | 5.2968e-05 | 0.15321    | 0.65034    |  36.7 | 13.42
Output  | 0          | 0          | 0          |   0.0 |  0.00
Modify  | 1.5532e-05 | 0.0014348  | 0.0032504  |   2.2 |  0.13
Other   |            | 0.212      |            |       | 18.58

Nlocal:        1388.23 ave        2040 max           0 min
Histogram: 28 4 0 16 8 0 8 12 96 36
Nghost:        2437.43 ave        3379 max           0 min
Histogram: 24 0 8 8 16 4 12 4 30 102
Neighs:        39606.7 ave       59781 max           0 min
Histogram: 28 4 4 14 6 2 10 8 104 28

Total # of neighbors = 8238197
Ave neighs/atom = 28.530454
Neighbor list builds = 0
Dangerous builds = 0
The dot product: 6.24019845565755e-06
Setting atom values ...
  1 settings made for x
  1 settings made for y
  1 settings made for z
Setting up cg style minimization ...
  Unit style    : metal
  Current step  : 524
Per MPI rank memory allocation (min/avg/max) = 5.425 | 5.522 | 5.555 Mbytes
Step PotEng KinEng TotEng v_fx v_fy v_fz 
     524   -1152449.4            0   -1152449.4  0.027342963  0.011837724 -0.052227414 
     656   -1152449.4            0   -1152449.4 4.3250022e-06 1.3510285e-06 -9.1652083e-06 
Loop time of 0.877677 on 208 procs for 132 steps with 288751 atoms

99.9% CPU use with 208 MPI tasks x 1 OpenMP threads

Minimization stats:
  Stopping criterion = energy tolerance
  Energy initial, next-to-last, final = 
     -1152449.44288429  -1152449.44468973  -1152449.44468973
  Force two-norm initial, final = 0.20383067 0.00010358231
  Force max component initial, final = 0.089326448 1.7456862e-05
  Final line search alpha, max atom move = 1.0000000 1.7456862e-05
  Iterations, force evaluations = 132 264

MPI task timing breakdown:
Section |  min time  |  avg time  |  max time  |%varavg| %total
---------------------------------------------------------------
Pair    | 3.6945e-05 | 0.59323    | 0.79602    |  25.9 | 67.59
Neigh   | 0          | 0          | 0          |   0.0 |  0.00
Comm    | 4.4992e-05 | 0.11902    | 0.50225    |  32.2 | 13.56
Output  | 0          | 0          | 0          |   0.0 |  0.00
Modify  | 1.2748e-05 | 0.0010911  | 0.0024754  |   1.9 |  0.12
Other   |            | 0.1643     |            |       | 18.72

Nlocal:        1388.23 ave        2040 max           0 min
Histogram: 28 4 0 16 8 0 8 12 96 36
Nghost:        2437.43 ave        3379 max           0 min
Histogram: 24 0 8 8 16 4 12 4 30 102
Neighs:        39606.7 ave       59782 max           0 min
Histogram: 28 4 4 14 6 2 10 8 104 28

Total # of neighbors = 8238196
Ave neighs/atom = 28.530450
Neighbor list builds = 0
Dangerous builds = 0
The dot product: 1.03597262763269e-06
Setting atom values ...
  1 settings made for x
  1 settings made for y
  1 settings made for z
Setting up cg style minimization ...
  Unit style    : metal
  Current step  : 656
Per MPI rank memory allocation (min/avg/max) = 5.425 | 5.522 | 5.555 Mbytes
Step PotEng KinEng TotEng v_fx v_fy v_fz 
     656   -1152449.4            0   -1152449.4  0.026372447  0.020411246 -0.054828988 
     783   -1152449.4            0   -1152449.4 -5.156421e-06 3.7222737e-06 3.185977e-05 
Loop time of 0.830429 on 208 procs for 127 steps with 288751 atoms

99.9% CPU use with 208 MPI tasks x 1 OpenMP threads

Minimization stats:
  Stopping criterion = energy tolerance
  Energy initial, next-to-last, final = 
     -1152449.43812937  -1152449.43991223  -1152449.43991223
  Force two-norm initial, final = 0.20174054 0.00010506432
  Force max component initial, final = 0.085675695 3.1859770e-05
  Final line search alpha, max atom move = 1.0000000 3.1859770e-05
  Iterations, force evaluations = 127 254

MPI task timing breakdown:
Section |  min time  |  avg time  |  max time  |%varavg| %total
---------------------------------------------------------------
Pair    | 3.5075e-05 | 0.56539    | 0.75916    |  25.2 | 68.08
Neigh   | 0          | 0          | 0          |   0.0 |  0.00
Comm    | 3.9543e-05 | 0.11138    | 0.47139    |  31.4 | 13.41
Output  | 0          | 0          | 0          |   0.0 |  0.00
Modify  | 1.1003e-05 | 0.0010486  | 0.0023812  |   1.9 |  0.13
Other   |            | 0.1526     |            |       | 18.38

Nlocal:        1388.23 ave        2040 max           0 min
Histogram: 28 4 0 16 8 0 8 12 96 36
Nghost:        2437.43 ave        3379 max           0 min
Histogram: 24 0 8 8 16 4 12 4 30 102
Neighs:        39606.7 ave       59783 max           0 min
Histogram: 28 4 4 14 6 2 10 8 106 26

Total # of neighbors = 8238201
Ave neighs/atom = 28.530467
Neighbor list builds = 0
Dangerous builds = 0
The dot product: -2.94547377694424e-06
Setting atom values ...
  1 settings made for x
  1 settings made for y
  1 settings made for z
Setting up cg style minimization ...
  Unit style    : metal
  Current step  : 783
Per MPI rank memory allocation (min/avg/max) = 5.425 | 5.522 | 5.555 Mbytes
Step PotEng KinEng TotEng v_fx v_fy v_fz 
     783   -1152449.4            0   -1152449.4  0.023554986  0.027366456 -0.051116924 
     973   -1152449.4            0   -1152449.4 -2.0200498e-07 -3.3097543e-06 -1.4934575e-05 
Loop time of 1.23941 on 208 procs for 190 steps with 288751 atoms

99.9% CPU use with 208 MPI tasks x 1 OpenMP threads

Minimization stats:
  Stopping criterion = energy tolerance
  Energy initial, next-to-last, final = 
     -1152449.43206431  -1152449.43380019  -1152449.43380019
  Force two-norm initial, final = 0.19752688 6.6399463e-05
  Force max component initial, final = 0.080767572 1.4934575e-05
  Final line search alpha, max atom move = 1.0000000 1.4934575e-05
  Iterations, force evaluations = 190 380

MPI task timing breakdown:
Section |  min time  |  avg time  |  max time  |%varavg| %total
---------------------------------------------------------------
Pair    | 5.2536e-05 | 0.84879    | 1.1407     |  31.0 | 68.48
Neigh   | 0          | 0          | 0          |   0.0 |  0.00
Comm    | 5.926e-05  | 0.16897    | 0.72333    |  38.6 | 13.63
Output  | 0          | 0          | 0          |   0.0 |  0.00
Modify  | 1.747e-05  | 0.0015627  | 0.0035462  |   2.3 |  0.13
Other   |            | 0.2201     |            |       | 17.76

Nlocal:        1388.23 ave        2040 max           0 min
Histogram: 28 4 0 16 8 0 8 12 96 36
Nghost:        2437.43 ave        3379 max           0 min
Histogram: 24 0 8 8 16 4 12 4 30 102
Neighs:        39606.7 ave       59783 max           0 min
Histogram: 28 4 4 14 6 2 10 8 106 26

Total # of neighbors = 8238198
Ave neighs/atom = 28.530457
Neighbor list builds = 0
Dangerous builds = 0
The dot product: 9.89697554170995e-07
Setting atom values ...
  1 settings made for x
  1 settings made for y
  1 settings made for z
Setting up cg style minimization ...
  Unit style    : metal
  Current step  : 973
Per MPI rank memory allocation (min/avg/max) = 5.425 | 5.522 | 5.555 Mbytes
Step PotEng KinEng TotEng v_fx v_fy v_fz 
     973   -1152449.4            0   -1152449.4  0.019992298  0.030475595 -0.044599789 
    1000   -1152449.4            0   -1152449.4 -2.4719654e-05 -1.7780181e-05 0.00034224535 
    1186   -1152449.4            0   -1152449.4 3.3475486e-07 5.5149959e-07 -1.5228931e-07 
Loop time of 1.41315 on 208 procs for 213 steps with 288751 atoms

99.9% CPU use with 208 MPI tasks x 1 OpenMP threads

Minimization stats:
  Stopping criterion = energy tolerance
  Energy initial, next-to-last, final = 
      -1152449.4246301  -1152449.42631019  -1152449.42631019
  Force two-norm initial, final = 0.19282471 4.3460766e-05
  Force max component initial, final = 0.075896184 8.5139166e-06
  Final line search alpha, max atom move = 1.0000000 8.5139166e-06
  Iterations, force evaluations = 213 426

MPI task timing breakdown:
Section |  min time  |  avg time  |  max time  |%varavg| %total
---------------------------------------------------------------
Pair    | 5.7482e-05 | 0.94897    | 1.2753     |  32.7 | 67.15
Neigh   | 0          | 0          | 0          |   0.0 |  0.00
Comm    | 6.577e-05  | 0.18941    | 0.78933    |  40.3 | 13.40
Output  | 0.00015054 | 0.00015248 | 0.00021465 |   0.0 |  0.01
Modify  | 1.8594e-05 | 0.0017593  | 0.0039842  |   2.4 |  0.12
Other   |            | 0.2729     |            |       | 19.31

Nlocal:        1388.23 ave        2041 max           0 min
Histogram: 28 4 0 16 8 0 8 12 96 36
Nghost:        2437.43 ave        3379 max           0 min
Histogram: 24 0 8 8 16 4 12 4 30 102
Neighs:        39606.7 ave       59815 max           0 min
Histogram: 28 4 4 14 6 2 10 8 106 26

Total # of neighbors = 8238199
Ave neighs/atom = 28.530461
Neighbor list builds = 0
Dangerous builds = 0
The dot product: 2.02075910383105e-08
Setting atom values ...
  1 settings made for x
  1 settings made for y
  1 settings made for z
Setting up cg style minimization ...
  Unit style    : metal
  Current step  : 1186
Per MPI rank memory allocation (min/avg/max) = 5.425 | 5.522 | 5.555 Mbytes
Step PotEng KinEng TotEng v_fx v_fy v_fz 
    1186   -1152449.4            0   -1152449.4  0.016455465   0.03017373  -0.03751245 
    1384   -1152449.4            0   -1152449.4 1.8961029e-06 4.3528232e-06 -2.9172149e-05 
Loop time of 1.30629 on 208 procs for 198 steps with 288751 atoms

99.9% CPU use with 208 MPI tasks x 1 OpenMP threads

Minimization stats:
  Stopping criterion = energy tolerance
  Energy initial, next-to-last, final = 
     -1152449.41577578  -1152449.41740383  -1152449.41740383
  Force two-norm initial, final = 0.18845965 7.5345107e-05
  Force max component initial, final = 0.071684843 2.9172149e-05
  Final line search alpha, max atom move = 1.0000000 2.9172149e-05
  Iterations, force evaluations = 198 396

MPI task timing breakdown:
Section |  min time  |  avg time  |  max time  |%varavg| %total
---------------------------------------------------------------
Pair    | 5.4729e-05 | 0.88728    | 1.1883     |  31.6 | 67.92
Neigh   | 0          | 0          | 0          |   0.0 |  0.00
Comm    | 6.1098e-05 | 0.17731    | 0.75153    |  39.3 | 13.57
Output  | 0          | 0          | 0          |   0.0 |  0.00
Modify  | 1.8065e-05 | 0.0016307  | 0.0037091  |   2.3 |  0.12
Other   |            | 0.2401     |            |       | 18.38

Nlocal:        1388.23 ave        2041 max           0 min
Histogram: 28 4 0 16 8 0 8 12 97 35
Nghost:        2437.43 ave        3379 max           0 min
Histogram: 24 0 8 8 16 4 12 4 30 102
Neighs:        39606.7 ave       59804 max           0 min
Histogram: 28 4 4 14 6 2 10 8 106 26

Total # of neighbors = 8238200
Ave neighs/atom = 28.530464
Neighbor list builds = 0
Dangerous builds = 0
The dot product: 1.2232560774487e-06
Setting atom values ...
  1 settings made for x
  1 settings made for y
  1 settings made for z
Setting up cg style minimization ...
  Unit style    : metal
  Current step  : 1384
Per MPI rank memory allocation (min/avg/max) = 5.425 | 5.522 | 5.555 Mbytes
Step PotEng KinEng TotEng v_fx v_fy v_fz 
    1384   -1152449.4            0   -1152449.4  0.012864363  0.026893488 -0.031393637 
    1575   -1152449.4            0   -1152449.4 -1.1097125e-06 -4.0512695e-06  1.72969e-05 
Loop time of 1.27947 on 208 procs for 191 steps with 288751 atoms

99.9% CPU use with 208 MPI tasks x 1 OpenMP threads

Minimization stats:
  Stopping criterion = energy tolerance
  Energy initial, next-to-last, final = 
     -1152449.40546712  -1152449.40706239  -1152449.40706239
  Force two-norm initial, final = 0.18476867 7.9586349e-05
  Force max component initial, final = 0.068347518 1.7296900e-05
  Final line search alpha, max atom move = 1.0000000 1.7296900e-05
  Iterations, force evaluations = 191 382

MPI task timing breakdown:
Section |  min time  |  avg time  |  max time  |%varavg| %total
---------------------------------------------------------------
Pair    | 5.3349e-05 | 0.85184    | 1.1407     |  30.9 | 66.58
Neigh   | 0          | 0          | 0          |   0.0 |  0.00
Comm    | 5.8211e-05 | 0.17055    | 0.71091    |  38.2 | 13.33
Output  | 0          | 0          | 0          |   0.0 |  0.00
Modify  | 1.6863e-05 | 0.0015697  | 0.0035785  |   2.3 |  0.12
Other   |            | 0.2555     |            |       | 19.97

Nlocal:        1388.23 ave        2041 max           0 min
Histogram: 28 4 0 16 8 0 8 12 97 35
Nghost:        2437.43 ave        3379 max           0 min
Histogram: 24 0 8 8 16 4 12 4 30 102
Neighs:        39606.8 ave       59807 max           0 min
Histogram: 28 4 4 14 6 2 10 8 106 26

Total # of neighbors = 8238204
Ave neighs/atom = 28.530478
Neighbor list builds = 0
Dangerous builds = 0
The dot product: -5.55497616749125e-07
Setting atom values ...
  1 settings made for x
  1 settings made for y
  1 settings made for z
Setting up cg style minimization ...
  Unit style    : metal
  Current step  : 1575
Per MPI rank memory allocation (min/avg/max) = 5.425 | 5.522 | 5.555 Mbytes
Step PotEng KinEng TotEng v_fx v_fy v_fz 
    1575   -1152449.4            0   -1152449.4 0.0085226004  0.020357093 -0.026986451 
    1768   -1152449.4            0   -1152449.4 -6.3276337e-07 -4.7859712e-06 1.9700449e-05 
Loop time of 1.27595 on 208 procs for 193 steps with 288751 atoms

99.9% CPU use with 208 MPI tasks x 1 OpenMP threads

Minimization stats:
  Stopping criterion = energy tolerance
  Energy initial, next-to-last, final = 
     -1152449.39371021  -1152449.39530748  -1152449.39530748
  Force two-norm initial, final = 0.18184101 7.8003530e-05
  Force max component initial, final = 0.070917084 1.9700449e-05
  Final line search alpha, max atom move = 1.0000000 1.9700449e-05
  Iterations, force evaluations = 193 386

MPI task timing breakdown:
Section |  min time  |  avg time  |  max time  |%varavg| %total
---------------------------------------------------------------
Pair    | 5.2293e-05 | 0.86739    | 1.1694     |  31.4 | 67.98
Neigh   | 0          | 0          | 0          |   0.0 |  0.00
Comm    | 6.0605e-05 | 0.17418    | 0.73225    |  38.9 | 13.65
Output  | 0          | 0          | 0          |   0.0 |  0.00
Modify  | 1.7755e-05 | 0.0015873  | 0.0036165  |   2.3 |  0.12
Other   |            | 0.2328     |            |       | 18.24

Nlocal:        1388.23 ave        2041 max           0 min
Histogram: 28 4 0 16 8 0 8 12 97 35
Nghost:        2437.43 ave        3379 max           0 min
Histogram: 24 0 8 8 16 4 12 4 30 102
Neighs:        39606.7 ave       59806 max           0 min
Histogram: 28 4 4 14 6 2 10 8 106 26

Total # of neighbors = 8238203
Ave neighs/atom = 28.530474
Neighbor list builds = 0
Dangerous builds = 0
The dot product: -4.95009965527325e-07
Setting atom values ...
  1 settings made for x
  1 settings made for y
  1 settings made for z
Setting up cg style minimization ...
  Unit style    : metal
  Current step  : 1768
Per MPI rank memory allocation (min/avg/max) = 5.425 | 5.522 | 5.555 Mbytes
Step PotEng KinEng TotEng v_fx v_fy v_fz 
    1768   -1152449.4            0   -1152449.4 0.0033679341  0.011770647 -0.024767116 
    1978   -1152449.4            0   -1152449.4 -2.6541309e-07 3.524181e-06 -1.6771926e-05 
Loop time of 1.38802 on 208 procs for 210 steps with 288751 atoms

99.9% CPU use with 208 MPI tasks x 1 OpenMP threads

Minimization stats:
  Stopping criterion = energy tolerance
  Energy initial, next-to-last, final = 
     -1152449.38054796  -1152449.38219856  -1152449.38219856
  Force two-norm initial, final = 0.18001493 5.6448375e-05
  Force max component initial, final = 0.074614354 1.6771926e-05
  Final line search alpha, max atom move = 1.0000000 1.6771926e-05
  Iterations, force evaluations = 210 420

MPI task timing breakdown:
Section |  min time  |  avg time  |  max time  |%varavg| %total
---------------------------------------------------------------
Pair    | 5.9139e-05 | 0.93564    | 1.2532     |  32.5 | 67.41
Neigh   | 0          | 0          | 0          |   0.0 |  0.00
Comm    | 6.4505e-05 | 0.18638    | 0.77913    |  40.2 | 13.43
Output  | 0          | 0          | 0          |   0.0 |  0.00
Modify  | 1.8229e-05 | 0.0017281  | 0.0039441  |   2.4 |  0.12
Other   |            | 0.2643     |            |       | 19.04

Nlocal:        1388.23 ave        2037 max           0 min
Histogram: 28 4 0 16 8 0 8 12 97 35
Nghost:        2437.43 ave        3379 max           0 min
Histogram: 24 0 8 8 16 4 12 4 30 102
Neighs:        39606.7 ave       59679 max           0 min
Histogram: 28 4 4 14 6 2 10 8 102 30

Total # of neighbors = 8238203
Ave neighs/atom = 28.530474
Neighbor list builds = 0
Dangerous builds = 0
The dot product: 4.11614894940793e-07
Setting atom values ...
  1 settings made for x
  1 settings made for y
  1 settings made for z
Setting up cg style minimization ...
  Unit style    : metal
  Current step  : 1978
Per MPI rank memory allocation (min/avg/max) = 5.425 | 5.522 | 5.555 Mbytes
Step PotEng KinEng TotEng v_fx v_fy v_fz 
    1978   -1152449.4            0   -1152449.4 -0.003657445 0.0013309233 -0.025833415 
    2000   -1152449.4            0   -1152449.4 -5.5655027e-06 -0.00011363927 0.00036833725 
    2159   -1152449.4            0   -1152449.4 3.6797489e-07 4.7532591e-06 -1.4625209e-05 
Loop time of 1.1785 on 208 procs for 181 steps with 288751 atoms

99.9% CPU use with 208 MPI tasks x 1 OpenMP threads

Minimization stats:
  Stopping criterion = energy tolerance
  Energy initial, next-to-last, final = 
     -1152449.36608142  -1152449.36799916  -1152449.36799916
  Force two-norm initial, final = 0.17954296 0.00015997381
  Force max component initial, final = 0.078997552 2.5322844e-05
  Final line search alpha, max atom move = 1.0000000 2.5322844e-05
  Iterations, force evaluations = 181 362

MPI task timing breakdown:
Section |  min time  |  avg time  |  max time  |%varavg| %total
---------------------------------------------------------------
Pair    | 5.0367e-05 | 0.80946    | 1.0841     |  30.3 | 68.69
Neigh   | 0          | 0          | 0          |   0.0 |  0.00
Comm    | 5.6393e-05 | 0.16107    | 0.68289    |  37.8 | 13.67
Output  | 9.0308e-05 | 9.6065e-05 | 0.00016227 |   0.0 |  0.01
Modify  | 1.6531e-05 | 0.0014897  | 0.0034403  |   2.2 |  0.13
Other   |            | 0.2064     |            |       | 17.51

Nlocal:        1388.23 ave        2036 max           0 min
Histogram: 28 4 0 16 8 0 8 12 97 35
Nghost:        2437.42 ave        3379 max           0 min
Histogram: 24 0 8 8 16 4 12 4 30 102
Neighs:        39606.7 ave       59645 max           0 min
Histogram: 28 4 4 14 6 2 10 8 102 30

Total # of neighbors = 8238202
Ave neighs/atom = 28.530471
Neighbor list builds = 0
Dangerous builds = 0
The dot product: 4.66059639442111e-07
Setting atom values ...
  1 settings made for x
  1 settings made for y
  1 settings made for z
Setting up cg style minimization ...
  Unit style    : metal
  Current step  : 2159
Per MPI rank memory allocation (min/avg/max) = 5.425 | 5.522 | 5.555 Mbytes
Step PotEng KinEng TotEng v_fx v_fy v_fz 
    2159   -1152449.4            0   -1152449.4 -0.017406817 -0.013031254  -0.03671999 
    2352   -1152449.4            0   -1152449.4 4.1451864e-06 -8.4190037e-06 4.2070398e-05 
Loop time of 1.30044 on 208 procs for 193 steps with 288751 atoms

99.9% CPU use with 208 MPI tasks x 1 OpenMP threads

Minimization stats:
  Stopping criterion = energy tolerance
  Energy initial, next-to-last, final = 
     -1152449.35079434  -1152449.35297979  -1152449.35297979
  Force two-norm initial, final = 0.18210251 0.00013158149
  Force max component initial, final = 0.08511188 4.2070398e-05
  Final line search alpha, max atom move = 1.0000000 4.2070398e-05
  Iterations, force evaluations = 193 386

MPI task timing breakdown:
Section |  min time  |  avg time  |  max time  |%varavg| %total
---------------------------------------------------------------
Pair    | 5.5557e-05 | 0.86217    | 1.1536     |  31.1 | 66.30
Neigh   | 0          | 0          | 0          |   0.0 |  0.00
Comm    | 6.0839e-05 | 0.17387    | 0.71525    |  38.0 | 13.37
Output  | 0          | 0          | 0          |   0.0 |  0.00
Modify  | 1.7298e-05 | 0.001593   | 0.0035985  |   2.3 |  0.12
Other   |            | 0.2628     |            |       | 20.21

Nlocal:        1388.23 ave        2035 max           0 min
Histogram: 28 4 0 16 8 0 8 12 98 34
Nghost:        2437.41 ave        3379 max           0 min
Histogram: 24 0 8 8 16 4 12 4 30 102
Neighs:        39606.7 ave       59622 max           0 min
Histogram: 28 4 4 14 6 2 10 8 102 30

Total # of neighbors = 8238203
Ave neighs/atom = 28.530474
Neighbor list builds = 0
Dangerous builds = 0
The dot product: -2.01028489802907e-06
Setting atom values ...
  1 settings made for x
  1 settings made for y
  1 settings made for z
Setting up cg style minimization ...
  Unit style    : metal
  Current step  : 2352
Per MPI rank memory allocation (min/avg/max) = 5.425 | 5.522 | 5.555 Mbytes
Step PotEng KinEng TotEng v_fx v_fy v_fz 
    2352   -1152449.3            0   -1152449.3 -0.029491435 -0.021492991 -0.041503673 
    2550   -1152449.3            0   -1152449.3 -6.7958248e-06 8.0859809e-06 -4.1387765e-05 
Loop time of 1.29882 on 208 procs for 198 steps with 288751 atoms

99.9% CPU use with 208 MPI tasks x 1 OpenMP threads

Minimization stats:
  Stopping criterion = energy tolerance
  Energy initial, next-to-last, final = 
     -1152449.33479738   -1152449.3371582   -1152449.3371582
  Force two-norm initial, final = 0.18488895 0.00013710439
  Force max component initial, final = 0.092371838 4.1387765e-05
  Final line search alpha, max atom move = 1.0000000 4.1387765e-05
  Iterations, force evaluations = 198 396

MPI task timing breakdown:
Section |  min time  |  avg time  |  max time  |%varavg| %total
---------------------------------------------------------------
Pair    | 5.4975e-05 | 0.88485    | 1.1879     |  31.6 | 68.13
Neigh   | 0          | 0          | 0          |   0.0 |  0.00
Comm    | 6.077e-05  | 0.17615    | 0.74288    |  39.2 | 13.56
Output  | 0          | 0          | 0          |   0.0 |  0.00
Modify  | 1.8408e-05 | 0.0016331  | 0.003754   |   2.3 |  0.13
Other   |            | 0.2362     |            |       | 18.19

Nlocal:        1388.23 ave        2034 max           0 min
Histogram: 28 4 0 16 8 0 8 12 98 34
Nghost:        2437.43 ave        3379 max           0 min
Histogram: 24 0 8 8 16 4 12 4 30 102
Neighs:        39606.8 ave       59587 max           0 min
Histogram: 28 4 4 14 6 0 12 8 102 30

Total # of neighbors = 8238205
Ave neighs/atom = 28.530481
Neighbor list builds = 0
Dangerous builds = 0
The dot product: 1.94832238564558e-06
Setting atom values ...
  1 settings made for x
  1 settings made for y
  1 settings made for z
Setting up cg style minimization ...
  Unit style    : metal
  Current step  : 2550
Per MPI rank memory allocation (min/avg/max) = 5.425 | 5.522 | 5.555 Mbytes
Step PotEng KinEng TotEng v_fx v_fy v_fz 
    2550   -1152449.3            0   -1152449.3 -0.033885926 -0.022438503 -0.036527408 
    2737   -1152449.3            0   -1152449.3 3.1396284e-06 -1.2213682e-05 3.439163e-05 
Loop time of 1.21266 on 208 procs for 187 steps with 288751 atoms

99.9% CPU use with 208 MPI tasks x 1 OpenMP threads

Minimization stats:
  Stopping criterion = energy tolerance
  Energy initial, next-to-last, final = 
     -1152449.31792795  -1152449.32013922  -1152449.32013922
  Force two-norm initial, final = 0.18422347 0.00018690445
  Force max component initial, final = 0.099186401 4.7298249e-05
  Final line search alpha, max atom move = 1.0000000 4.7298249e-05
  Iterations, force evaluations = 187 374

MPI task timing breakdown:
Section |  min time  |  avg time  |  max time  |%varavg| %total
---------------------------------------------------------------
Pair    | 5.0762e-05 | 0.83172    | 1.1134     |  30.6 | 68.59
Neigh   | 0          | 0          | 0          |   0.0 |  0.00
Comm    | 5.9142e-05 | 0.16312    | 0.69795    |  38.2 | 13.45
Output  | 0          | 0          | 0          |   0.0 |  0.00
Modify  | 1.8699e-05 | 0.0015394  | 0.0035145  |   2.3 |  0.13
Other   |            | 0.2163     |            |       | 17.84

Nlocal:        1388.23 ave        2033 max           0 min
Histogram: 28 4 0 16 8 0 8 12 90 42
Nghost:        2437.47 ave        3379 max           0 min
Histogram: 24 0 8 8 16 4 12 4 30 102
Neighs:        39606.8 ave       59546 max           0 min
Histogram: 28 4 4 14 6 0 12 8 102 30

Total # of neighbors = 8238204
Ave neighs/atom = 28.530478
Neighbor list builds = 0
Dangerous builds = 0
The dot product: -1.05117340581558e-06
Setting atom values ...
  1 settings made for x
  1 settings made for y
  1 settings made for z
Setting up cg style minimization ...
  Unit style    : metal
  Current step  : 2737
Per MPI rank memory allocation (min/avg/max) = 5.425 | 5.522 | 5.555 Mbytes
Step PotEng KinEng TotEng v_fx v_fy v_fz 
    2737   -1152449.3            0   -1152449.3  -0.03164204 -0.019578643  -0.02731361 
    2919   -1152449.3            0   -1152449.3 -2.6729731e-06 7.9116926e-07 -7.220482e-06 
Loop time of 1.18185 on 208 procs for 182 steps with 288751 atoms

99.9% CPU use with 208 MPI tasks x 1 OpenMP threads

Minimization stats:
  Stopping criterion = energy tolerance
  Energy initial, next-to-last, final = 
     -1152449.29972721  -1152449.30179374  -1152449.30179374
  Force two-norm initial, final = 0.18143732 0.00019262801
  Force max component initial, final = 0.10485428 2.8785305e-05
  Final line search alpha, max atom move = 1.0000000 2.8785305e-05
  Iterations, force evaluations = 182 364

MPI task timing breakdown:
Section |  min time  |  avg time  |  max time  |%varavg| %total
---------------------------------------------------------------
Pair    | 5.0515e-05 | 0.81226    | 1.0856     |  30.3 | 68.73
Neigh   | 0          | 0          | 0          |   0.0 |  0.00
Comm    | 5.5492e-05 | 0.16037    | 0.68189    |  37.8 | 13.57
Output  | 0          | 0          | 0          |   0.0 |  0.00
Modify  | 1.6805e-05 | 0.0014969  | 0.003402   |   2.2 |  0.13
Other   |            | 0.2077     |            |       | 17.58

Nlocal:        1388.23 ave        2032 max           0 min
Histogram: 28 4 0 16 8 0 8 12 90 42
Nghost:        2437.47 ave        3379 max           0 min
Histogram: 24 0 8 8 16 4 12 4 30 102
Neighs:        39606.8 ave       59492 max           0 min
Histogram: 28 4 4 14 6 0 12 8 102 30

Total # of neighbors = 8238208
Ave neighs/atom = 28.530492
Neighbor list builds = 0
Dangerous builds = 0
The dot product: 2.8846922930773e-07
Setting atom values ...
  1 settings made for x
  1 settings made for y
  1 settings made for z
Setting up cg style minimization ...
  Unit style    : metal
  Current step  : 2919
Per MPI rank memory allocation (min/avg/max) = 5.425 | 5.522 | 5.555 Mbytes
Step PotEng KinEng TotEng v_fx v_fy v_fz 
    2919   -1152449.3            0   -1152449.3 -0.027463987 -0.015666347 -0.020660105 
    3000   -1152449.3            0   -1152449.3 -1.1417624e-05 5.2822368e-05 -0.0001212016 
    3134   -1152449.3            0   -1152449.3 2.2018498e-06 -4.7122113e-06 1.2983448e-05 
Loop time of 1.40635 on 208 procs for 215 steps with 288751 atoms

99.9% CPU use with 208 MPI tasks x 1 OpenMP threads

Minimization stats:
  Stopping criterion = energy tolerance
  Energy initial, next-to-last, final = 
      -1152449.2801794  -1152449.28218205  -1152449.28218205
  Force two-norm initial, final = 0.17884735 7.8182175e-05
  Force max component initial, final = 0.10922996 1.8220464e-05
  Final line search alpha, max atom move = 1.0000000 1.8220464e-05
  Iterations, force evaluations = 215 430

MPI task timing breakdown:
Section |  min time  |  avg time  |  max time  |%varavg| %total
---------------------------------------------------------------
Pair    | 5.9759e-05 | 0.95648    | 1.2874     |  32.8 | 68.01
Neigh   | 0          | 0          | 0          |   0.0 |  0.00
Comm    | 6.5018e-05 | 0.18957    | 0.79496    |  40.5 | 13.48
Output  | 9.6386e-05 | 9.8904e-05 | 0.00017898 |   0.0 |  0.01
Modify  | 1.8286e-05 | 0.0017722  | 0.0040388  |   2.4 |  0.13
Other   |            | 0.2584     |            |       | 18.38

Nlocal:        1388.23 ave        2029 max           0 min
Histogram: 28 4 0 16 8 0 8 12 90 42
Nghost:        2437.50 ave        3379 max           0 min
Histogram: 24 0 8 8 16 4 12 4 30 102
Neighs:        39606.8 ave       59409 max           0 min
Histogram: 28 4 4 14 6 0 12 8 102 30

Total # of neighbors = 8238213
Ave neighs/atom = 28.530509
Neighbor list builds = 0
Dangerous builds = 0
The dot product: -3.44099326486889e-07
Setting atom values ...
  1 settings made for x
  1 settings made for y
  1 settings made for z
Setting up cg style minimization ...
  Unit style    : metal
  Current step  : 3134
Per MPI rank memory allocation (min/avg/max) = 5.425 | 5.522 | 5.555 Mbytes
Step PotEng KinEng TotEng v_fx v_fy v_fz 
    3134   -1152449.3            0   -1152449.3 -0.023510315 -0.011443353 -0.017778212 
    3334   -1152449.3            0   -1152449.3 -2.5934078e-06 -2.7760767e-06 7.644667e-07 
Loop time of 1.30124 on 208 procs for 200 steps with 288751 atoms

99.9% CPU use with 208 MPI tasks x 1 OpenMP threads

Minimization stats:
  Stopping criterion = energy tolerance
  Energy initial, next-to-last, final = 
     -1152449.25943584  -1152449.26135447  -1152449.26135447
  Force two-norm initial, final = 0.17675652 0.00011371449
  Force max component initial, final = 0.11274665 1.9615344e-05
  Final line search alpha, max atom move = 1.0000000 1.9615344e-05
  Iterations, force evaluations = 200 400

MPI task timing breakdown:
Section |  min time  |  avg time  |  max time  |%varavg| %total
---------------------------------------------------------------
Pair    | 5.5667e-05 | 0.89542    | 1.1971     |  31.8 | 68.81
Neigh   | 0          | 0          | 0          |   0.0 |  0.00
Comm    | 6.1518e-05 | 0.17795    | 0.75696    |  39.7 | 13.68
Output  | 0          | 0          | 0          |   0.0 |  0.00
Modify  | 1.8479e-05 | 0.0016453  | 0.0037414  |   2.3 |  0.13
Other   |            | 0.2262     |            |       | 17.39

Nlocal:        1388.23 ave        2023 max           0 min
Histogram: 28 4 0 16 8 0 8 12 90 42
Nghost:        2437.50 ave        3379 max           0 min
Histogram: 24 0 8 8 16 4 12 4 30 102
Neighs:        39606.8 ave       59224 max           0 min
Histogram: 28 4 4 14 6 0 12 8 99 33

Total # of neighbors = 8238216
Ave neighs/atom = 28.530519
Neighbor list builds = 0
Dangerous builds = 0
The dot product: 6.43890081186216e-08
Setting atom values ...
  1 settings made for x
  1 settings made for y
  1 settings made for z
Setting up cg style minimization ...
  Unit style    : metal
  Current step  : 3334
Per MPI rank memory allocation (min/avg/max) = 5.425 | 5.522 | 5.555 Mbytes
Step PotEng KinEng TotEng v_fx v_fy v_fz 
    3334   -1152449.2            0   -1152449.2 -0.020009314 -0.0079111711 -0.016025565 
    3529   -1152449.2            0   -1152449.2 -2.2596647e-07 -4.040568e-06 6.5918126e-06 
Loop time of 1.29935 on 208 procs for 195 steps with 288751 atoms

99.9% CPU use with 208 MPI tasks x 1 OpenMP threads

Minimization stats:
  Stopping criterion = energy tolerance
  Energy initial, next-to-last, final = 
      -1152449.2374459  -1152449.23933184  -1152449.23933184
  Force two-norm initial, final = 0.17514743 0.00012016337
  Force max component initial, final = 0.11586272 2.2804038e-05
  Final line search alpha, max atom move = 1.0000000 2.2804038e-05
  Iterations, force evaluations = 195 390

MPI task timing breakdown:
Section |  min time  |  avg time  |  max time  |%varavg| %total
---------------------------------------------------------------
Pair    | 5.5314e-05 | 0.86751    | 1.1583     |  31.3 | 66.76
Neigh   | 0          | 0          | 0          |   0.0 |  0.00
Comm    | 6.0701e-05 | 0.17321    | 0.72439    |  38.7 | 13.33
Output  | 0          | 0          | 0          |   0.0 |  0.00
Modify  | 1.6809e-05 | 0.0016053  | 0.0036539  |   2.3 |  0.12
Other   |            | 0.257      |            |       | 19.78

Nlocal:        1388.23 ave        2019 max           0 min
Histogram: 28 4 0 16 8 0 8 12 90 42
Nghost:        2437.49 ave        3379 max           0 min
Histogram: 24 0 8 8 16 4 12 4 30 102
Neighs:        39606.8 ave       59075 max           0 min
Histogram: 28 4 4 14 6 0 12 8 95 37

Total # of neighbors = 8238212
Ave neighs/atom = 28.530506
Neighbor list builds = 0
Dangerous builds = 0
The dot product: -1.33829099414285e-07
Setting atom values ...
  1 settings made for x
  1 settings made for y
  1 settings made for z
Setting up cg style minimization ...
  Unit style    : metal
  Current step  : 3529
Per MPI rank memory allocation (min/avg/max) = 5.425 | 5.522 | 5.555 Mbytes
Step PotEng KinEng TotEng v_fx v_fy v_fz 
    3529   -1152449.2            0   -1152449.2 -0.018853249 -0.0050735542 -0.017172771 
    3732   -1152449.2            0   -1152449.2 -5.7187832e-06 1.5027097e-05 -3.2201207e-05 
Loop time of 1.32698 on 208 procs for 203 steps with 288751 atoms

99.9% CPU use with 208 MPI tasks x 1 OpenMP threads

Minimization stats:
  Stopping criterion = energy tolerance
  Energy initial, next-to-last, final = 
     -1152449.21431817  -1152449.21635797  -1152449.21635797
  Force two-norm initial, final = 0.17422098 0.0001072462
  Force max component initial, final = 0.11870467 3.2201207e-05
  Final line search alpha, max atom move = 1.0000000 3.2201207e-05
  Iterations, force evaluations = 203 406

MPI task timing breakdown:
Section |  min time  |  avg time  |  max time  |%varavg| %total
---------------------------------------------------------------
Pair    | 5.6359e-05 | 0.90951    | 1.2185     |  32.1 | 68.54
Neigh   | 0          | 0          | 0          |   0.0 |  0.00
Comm    | 6.2325e-05 | 0.18118    | 0.76591    |  40.1 | 13.65
Output  | 0          | 0          | 0          |   0.0 |  0.00
Modify  | 1.8334e-05 | 0.0016732  | 0.0038461  |   2.4 |  0.13
Other   |            | 0.2346     |            |       | 17.68

Nlocal:        1388.23 ave        2018 max           0 min
Histogram: 28 4 0 16 8 0 8 12 90 42
Nghost:        2437.50 ave        3379 max           0 min
Histogram: 24 0 8 8 16 4 12 4 30 102
Neighs:        39606.8 ave       59051 max           0 min
Histogram: 28 4 4 14 6 0 12 8 93 39

Total # of neighbors = 8238211
Ave neighs/atom = 28.530502
Neighbor list builds = 0
Dangerous builds = 0
The dot product: 1.02262310809244e-06
Setting atom values ...
  1 settings made for x
  1 settings made for y
  1 settings made for z
Setting up cg style minimization ...
  Unit style    : metal
  Current step  : 3732
Per MPI rank memory allocation (min/avg/max) = 5.425 | 5.522 | 5.555 Mbytes
Step PotEng KinEng TotEng v_fx v_fy v_fz 
    3732   -1152449.2            0   -1152449.2  -0.02309707 -0.0023687294 -0.024491549 
    3922   -1152449.2            0   -1152449.2 -7.1580293e-07 -1.5068436e-07 -6.4077641e-07 
Loop time of 1.22794 on 208 procs for 190 steps with 288751 atoms

99.9% CPU use with 208 MPI tasks x 1 OpenMP threads

Minimization stats:
  Stopping criterion = energy tolerance
  Energy initial, next-to-last, final = 
     -1152449.19054704  -1152449.19278388  -1152449.19278388
  Force two-norm initial, final = 0.17445866 0.00011828619
  Force max component initial, final = 0.12125954 1.0473930e-05
  Final line search alpha, max atom move = 1.0000000 1.0473930e-05
  Iterations, force evaluations = 190 380

MPI task timing breakdown:
Section |  min time  |  avg time  |  max time  |%varavg| %total
---------------------------------------------------------------
Pair    | 5.3494e-05 | 0.84625    | 1.1275     |  30.9 | 68.92
Neigh   | 0          | 0          | 0          |   0.0 |  0.00
Comm    | 5.8576e-05 | 0.16568    | 0.70878    |  38.7 | 13.49
Output  | 0          | 0          | 0          |   0.0 |  0.00
Modify  | 1.6664e-05 | 0.0015656  | 0.0035517  |   2.3 |  0.13
Other   |            | 0.2144     |            |       | 17.46

Nlocal:        1388.23 ave        2019 max           0 min
Histogram: 28 4 0 16 8 0 8 12 90 42
Nghost:        2437.50 ave        3379 max           0 min
Histogram: 24 0 8 8 16 4 12 4 30 102
Neighs:        39606.8 ave       59075 max           0 min
Histogram: 28 4 4 14 6 0 12 8 95 37

Total # of neighbors = 8238211
Ave neighs/atom = 28.530502
Neighbor list builds = 0
Dangerous builds = 0
The dot product: 3.88871123902237e-08
Setting atom values ...
  1 settings made for x
  1 settings made for y
  1 settings made for z
Setting up cg style minimization ...
  Unit style    : metal
  Current step  : 3922
Per MPI rank memory allocation (min/avg/max) = 5.425 | 5.522 | 5.555 Mbytes
Step PotEng KinEng TotEng v_fx v_fy v_fz 
    3922   -1152449.2            0   -1152449.2 -0.028192264 -4.0035184e-05 -0.030491486 
    4000   -1152449.2            0   -1152449.2 -2.5029966e-05 4.2885384e-05 -8.818715e-05 
    4146   -1152449.2            0   -1152449.2 -1.2800071e-06 4.065962e-06 -7.1765811e-06 
Loop time of 1.46787 on 208 procs for 224 steps with 288751 atoms

99.9% CPU use with 208 MPI tasks x 1 OpenMP threads

Minimization stats:
  Stopping criterion = energy tolerance
  Energy initial, next-to-last, final = 
      -1152449.1663338  -1152449.16851531  -1152449.16851531
  Force two-norm initial, final = 0.1752384 3.9641749e-05
  Force max component initial, final = 0.12402584 7.1765811e-06
  Final line search alpha, max atom move = 1.0000000 7.1765811e-06
  Iterations, force evaluations = 224 448

MPI task timing breakdown:
Section |  min time  |  avg time  |  max time  |%varavg| %total
---------------------------------------------------------------
Pair    | 6.2301e-05 | 1.0003     | 1.3348     |  33.6 | 68.15
Neigh   | 0          | 0          | 0          |   0.0 |  0.00
Comm    | 7.257e-05  | 0.19839    | 0.83663    |  41.7 | 13.52
Output  | 9.6726e-05 | 9.8439e-05 | 0.0001662  |   0.0 |  0.01
Modify  | 2.0841e-05 | 0.0018449  | 0.004205   |   2.5 |  0.13
Other   |            | 0.2672     |            |       | 18.21

Nlocal:        1388.23 ave        2019 max           0 min
Histogram: 28 4 0 16 8 0 8 12 90 42
Nghost:        2437.49 ave        3379 max           0 min
Histogram: 24 0 8 8 16 4 12 4 30 102
Neighs:        39606.8 ave       59067 max           0 min
Histogram: 28 4 4 14 6 0 12 8 95 37

Total # of neighbors = 8238215
Ave neighs/atom = 28.530516
Neighbor list builds = 0
Dangerous builds = 0
The dot product: 2.61962155057326e-07
Setting atom values ...
  1 settings made for x
  1 settings made for y
  1 settings made for z
Setting up cg style minimization ...
  Unit style    : metal
  Current step  : 4146
Per MPI rank memory allocation (min/avg/max) = 5.425 | 5.522 | 5.555 Mbytes
Step PotEng KinEng TotEng v_fx v_fy v_fz 
    4146   -1152449.1            0   -1152449.1 -0.027488966 0.0012181776 -0.028390412 
    4352   -1152449.1            0   -1152449.1 1.1503943e-06 2.5257366e-06 -2.2495313e-06 
Loop time of 1.34281 on 208 procs for 206 steps with 288751 atoms

99.9% CPU use with 208 MPI tasks x 1 OpenMP threads

Minimization stats:
  Stopping criterion = energy tolerance
  Energy initial, next-to-last, final = 
     -1152449.14119995  -1152449.14325189  -1152449.14325189
  Force two-norm initial, final = 0.17466144 9.5520440e-05
  Force max component initial, final = 0.12711188 1.1337773e-05
  Final line search alpha, max atom move = 1.0000000 1.1337773e-05
  Iterations, force evaluations = 206 412

MPI task timing breakdown:
Section |  min time  |  avg time  |  max time  |%varavg| %total
---------------------------------------------------------------
Pair    | 5.4899e-05 | 0.91663    | 1.2242     |  32.1 | 68.26
Neigh   | 0          | 0          | 0          |   0.0 |  0.00
Comm    | 6.3512e-05 | 0.18086    | 0.76379    |  39.9 | 13.47
Output  | 0          | 0          | 0          |   0.0 |  0.00
Modify  | 1.7801e-05 | 0.0016985  | 0.0038644  |   2.4 |  0.13
Other   |            | 0.2436     |            |       | 18.14

Nlocal:        1388.23 ave        2020 max           0 min
Histogram: 28 4 0 16 8 0 8 12 90 42
Nghost:        2437.49 ave        3379 max           0 min
Histogram: 24 0 8 8 16 4 12 4 30 102
Neighs:        39606.8 ave       59101 max           0 min
Histogram: 28 4 4 14 6 0 12 8 95 37

Total # of neighbors = 8238215
Ave neighs/atom = 28.530516
Neighbor list builds = 0
Dangerous builds = 0
The dot product: 4.55452879359914e-08
Setting atom values ...
  1 settings made for x
  1 settings made for y
  1 settings made for z
Setting up cg style minimization ...
  Unit style    : metal
  Current step  : 4352
Per MPI rank memory allocation (min/avg/max) = 5.425 | 5.522 | 5.555 Mbytes
Step PotEng KinEng TotEng v_fx v_fy v_fz 
    4352   -1152449.1            0   -1152449.1 -0.023930325 0.0019040267 -0.023682279 
    4535   -1152449.1            0   -1152449.1 -4.8886656e-06 8.9277936e-06 -1.5617968e-05 
Loop time of 1.20098 on 208 procs for 183 steps with 288751 atoms

99.9% CPU use with 208 MPI tasks x 1 OpenMP threads

Minimization stats:
  Stopping criterion = energy tolerance
  Energy initial, next-to-last, final = 
     -1152449.11494253  -1152449.11680144  -1152449.11680144
  Force two-norm initial, final = 0.17379546 0.0001374557
  Force max component initial, final = 0.13008029 2.7096405e-05
  Final line search alpha, max atom move = 1.0000000 2.7096405e-05
  Iterations, force evaluations = 183 366

MPI task timing breakdown:
Section |  min time  |  avg time  |  max time  |%varavg| %total
---------------------------------------------------------------
Pair    | 5.0709e-05 | 0.8186     | 1.0907     |  30.4 | 68.16
Neigh   | 0          | 0          | 0          |   0.0 |  0.00
Comm    | 5.7457e-05 | 0.16323    | 0.69507    |  37.8 | 13.59
Output  | 0          | 0          | 0          |   0.0 |  0.00
Modify  | 1.6659e-05 | 0.0015099  | 0.003425   |   2.2 |  0.13
Other   |            | 0.2176     |            |       | 18.12

Nlocal:        1388.23 ave        2020 max           0 min
Histogram: 28 4 0 16 8 0 8 12 90 42
Nghost:        2437.49 ave        3379 max           0 min
Histogram: 24 0 8 8 16 4 12 4 30 102
Neighs:        39606.8 ave       59098 max           0 min
Histogram: 28 4 4 14 6 0 12 8 95 37

Total # of neighbors = 8238214
Ave neighs/atom = 28.530512
Neighbor list builds = 0
Dangerous builds = 0
The dot product: 4.43972581886718e-07
Setting atom values ...
  1 settings made for x
  1 settings made for y
  1 settings made for z
Setting up cg style minimization ...
  Unit style    : metal
  Current step  : 4535
Per MPI rank memory allocation (min/avg/max) = 5.425 | 5.522 | 5.555 Mbytes
Step PotEng KinEng TotEng v_fx v_fy v_fz 
    4535   -1152449.1            0   -1152449.1 -0.018790295 0.0017312425 -0.017642275 
    4743   -1152449.1            0   -1152449.1 1.518996e-06 -3.119981e-06 5.0260872e-06 
Loop time of 1.36549 on 208 procs for 208 steps with 288751 atoms

99.9% CPU use with 208 MPI tasks x 1 OpenMP threads

Minimization stats:
  Stopping criterion = energy tolerance
  Energy initial, next-to-last, final = 
     -1152449.08733689  -1152449.08906716  -1152449.08906716
  Force two-norm initial, final = 0.17327557 6.8683839e-05
  Force max component initial, final = 0.13298213 7.7909143e-06
  Final line search alpha, max atom move = 1.0000000 7.7909143e-06
  Iterations, force evaluations = 208 416

MPI task timing breakdown:
Section |  min time  |  avg time  |  max time  |%varavg| %total
---------------------------------------------------------------
Pair    | 5.7636e-05 | 0.92623    | 1.2488     |  32.3 | 67.83
Neigh   | 0          | 0          | 0          |   0.0 |  0.00
Comm    | 6.2624e-05 | 0.18409    | 0.77158    |  39.9 | 13.48
Output  | 0          | 0          | 0          |   0.0 |  0.00
Modify  | 1.8093e-05 | 0.0017131  | 0.0038754  |   2.4 |  0.13
Other   |            | 0.2535     |            |       | 18.56

Nlocal:        1388.23 ave        2020 max           0 min
Histogram: 28 4 0 16 8 0 8 12 90 42
Nghost:        2437.50 ave        3379 max           0 min
Histogram: 24 0 8 8 16 4 12 4 30 102
Neighs:        39606.8 ave       59092 max           0 min
Histogram: 28 4 4 14 6 0 12 8 95 37

Total # of neighbors = 8238213
Ave neighs/atom = 28.530509
Neighbor list builds = 0
Dangerous builds = 0
The dot product: -1.14985660369248e-07
Setting atom values ...
  1 settings made for x
  1 settings made for y
  1 settings made for z
Setting up cg style minimization ...
  Unit style    : metal
  Current step  : 4743
Per MPI rank memory allocation (min/avg/max) = 5.425 | 5.522 | 5.555 Mbytes
Step PotEng KinEng TotEng v_fx v_fy v_fz 
    4743   -1152449.1            0   -1152449.1 -0.013519279 0.0014483091 -0.012277867 
    4933   -1152449.1            0   -1152449.1 3.5600704e-06 -1.0591179e-05 1.5138298e-05 
Loop time of 1.24378 on 208 procs for 190 steps with 288751 atoms

99.9% CPU use with 208 MPI tasks x 1 OpenMP threads

Minimization stats:
  Stopping criterion = energy tolerance
  Energy initial, next-to-last, final = 
     -1152449.05839069  -1152449.06004638  -1152449.06004638
  Force two-norm initial, final = 0.17334287 0.00010948729
  Force max component initial, final = 0.13562824 1.5138298e-05
  Final line search alpha, max atom move = 1.0000000 1.5138298e-05
  Iterations, force evaluations = 190 380

MPI task timing breakdown:
Section |  min time  |  avg time  |  max time  |%varavg| %total
---------------------------------------------------------------
Pair    | 5.3366e-05 | 0.85076    | 1.1375     |  31.0 | 68.40
Neigh   | 0          | 0          | 0          |   0.0 |  0.00
Comm    | 5.8436e-05 | 0.16936    | 0.72045    |  38.9 | 13.62
Output  | 0          | 0          | 0          |   0.0 |  0.00
Modify  | 1.9425e-05 | 0.0015631  | 0.0035678  |   2.3 |  0.13
Other   |            | 0.2221     |            |       | 17.86

Nlocal:        1388.23 ave        2020 max           0 min
Histogram: 28 4 0 16 8 0 8 12 90 42
Nghost:        2437.50 ave        3379 max           0 min
Histogram: 24 0 8 8 16 4 12 4 30 102
Neighs:        39606.8 ave       59101 max           0 min
Histogram: 28 4 4 14 6 0 12 8 95 37

Total # of neighbors = 8238214
Ave neighs/atom = 28.530512
Neighbor list builds = 0
Dangerous builds = 0
The dot product: -2.76467984854176e-07
Setting atom values ...
  1 settings made for x
  1 settings made for y
  1 settings made for z
Setting up cg style minimization ...
  Unit style    : metal
  Current step  : 4933
Per MPI rank memory allocation (min/avg/max) = 5.425 | 5.522 | 5.555 Mbytes
Step PotEng KinEng TotEng v_fx v_fy v_fz 
    4933     -1152449            0     -1152449 -0.0089462069 0.0011098229 -0.0079766907 
    5000     -1152449            0     -1152449 -2.9127865e-05 7.6498794e-05 -0.00010853664 
    5164     -1152449            0     -1152449 -6.8290544e-07 1.9143369e-06 -2.681513e-06 
Loop time of 1.50945 on 208 procs for 231 steps with 288751 atoms

99.9% CPU use with 208 MPI tasks x 1 OpenMP threads

Minimization stats:
  Stopping criterion = energy tolerance
  Energy initial, next-to-last, final = 
     -1152449.02815715  -1152449.02980103  -1152449.02980103
  Force two-norm initial, final = 0.17390406 2.9321729e-05
  Force max component initial, final = 0.13804823 3.2720987e-06
  Final line search alpha, max atom move = 1.0000000 3.2720987e-06
  Iterations, force evaluations = 231 462

MPI task timing breakdown:
Section |  min time  |  avg time  |  max time  |%varavg| %total
---------------------------------------------------------------
Pair    | 6.4298e-05 | 1.0263     | 1.3752     |  34.0 | 67.99
Neigh   | 0          | 0          | 0          |   0.0 |  0.00
Comm    | 7.2318e-05 | 0.20369    | 0.85746    |  42.2 | 13.49
Output  | 0.00010159 | 0.00010359 | 0.00017022 |   0.0 |  0.01
Modify  | 2.0328e-05 | 0.0019016  | 0.0043187  |   2.5 |  0.13
Other   |            | 0.2775     |            |       | 18.38

Nlocal:        1388.23 ave        2020 max           0 min
Histogram: 28 4 0 16 8 0 8 12 89 43
Nghost:        2437.49 ave        3379 max           0 min
Histogram: 24 0 8 8 16 4 12 4 30 102
Neighs:        39606.8 ave       59102 max           0 min
Histogram: 28 4 4 14 6 0 12 8 95 37

Total # of neighbors = 8238218
Ave neighs/atom = 28.530526
Neighbor list builds = 0
Dangerous builds = 0
The dot product: 4.24837744220653e-08
Setting atom values ...
  1 settings made for x
  1 settings made for y
  1 settings made for z
Setting up cg style minimization ...
  Unit style    : metal
  Current step  : 5164
Per MPI rank memory allocation (min/avg/max) = 5.425 | 5.522 | 5.555 Mbytes
Step PotEng KinEng TotEng v_fx v_fy v_fz 
    5164     -1152449            0     -1152449 -0.0055765324 0.00091694719 -0.0050651621 
    5360     -1152449            0     -1152449 2.1323053e-06 -1.0321127e-05 1.2951624e-05 
Loop time of 1.28426 on 208 procs for 196 steps with 288751 atoms

99.9% CPU use with 208 MPI tasks x 1 OpenMP threads

Minimization stats:
  Stopping criterion = energy tolerance
  Energy initial, next-to-last, final = 
     -1152448.99679516  -1152448.99844273  -1152448.99844273
  Force two-norm initial, final = 0.17464811 0.00010493457
  Force max component initial, final = 0.14014468 1.7618486e-05
  Final line search alpha, max atom move = 1.0000000 1.7618486e-05
  Iterations, force evaluations = 196 392

MPI task timing breakdown:
Section |  min time  |  avg time  |  max time  |%varavg| %total
---------------------------------------------------------------
Pair    | 5.4341e-05 | 0.87715    | 1.179      |  31.5 | 68.30
Neigh   | 0          | 0          | 0          |   0.0 |  0.00
Comm    | 6.0106e-05 | 0.17488    | 0.7382     |  39.3 | 13.62
Output  | 0          | 0          | 0          |   0.0 |  0.00
Modify  | 1.7929e-05 | 0.0016149  | 0.003699   |   2.3 |  0.13
Other   |            | 0.2306     |            |       | 17.96

Nlocal:        1388.23 ave        2020 max           0 min
Histogram: 28 4 0 16 8 0 8 12 89 43
Nghost:        2437.50 ave        3379 max           0 min
Histogram: 24 0 8 8 16 4 12 4 30 102
Neighs:        39606.8 ave       59097 max           0 min
Histogram: 28 4 4 14 6 0 12 8 95 37

Total # of neighbors = 8238215
Ave neighs/atom = 28.530516
Neighbor list builds = 0
Dangerous builds = 0
The dot product: -1.76772475975174e-07
Setting atom values ...
  1 settings made for x
  1 settings made for y
  1 settings made for z
Setting up cg style minimization ...
  Unit style    : metal
  Current step  : 5360
Per MPI rank memory allocation (min/avg/max) = 5.425 | 5.522 | 5.555 Mbytes
Step PotEng KinEng TotEng v_fx v_fy v_fz 
    5360     -1152449            0     -1152449 -0.0029893659 0.00031461529 -0.0024555705 
    5543     -1152449            0     -1152449 3.9795184e-07 9.1164707e-06 -9.5703386e-06 
Loop time of 1.21307 on 208 procs for 183 steps with 288751 atoms

99.9% CPU use with 208 MPI tasks x 1 OpenMP threads

Minimization stats:
  Stopping criterion = energy tolerance
  Energy initial, next-to-last, final = 
     -1152448.96437091  -1152448.96603335  -1152448.96603335
  Force two-norm initial, final = 0.17553592 0.0001662255
  Force max component initial, final = 0.14208845 3.2285186e-05
  Final line search alpha, max atom move = 1.0000000 3.2285186e-05
  Iterations, force evaluations = 183 366

MPI task timing breakdown:
Section |  min time  |  avg time  |  max time  |%varavg| %total
---------------------------------------------------------------
Pair    | 4.9443e-05 | 0.81687    | 1.0949     |  30.4 | 67.34
Neigh   | 0          | 0          | 0          |   0.0 |  0.00
Comm    | 5.8314e-05 | 0.1638     | 0.68196    |  37.3 | 13.50
Output  | 0          | 0          | 0          |   0.0 |  0.00
Modify  | 1.6211e-05 | 0.0015092  | 0.003426   |   2.2 |  0.12
Other   |            | 0.2309     |            |       | 19.03

Nlocal:        1388.23 ave        2020 max           0 min
Histogram: 28 4 0 16 8 0 8 12 89 43
Nghost:        2437.52 ave        3379 max           0 min
Histogram: 24 0 8 8 16 4 12 4 30 102
Neighs:        39606.8 ave       59100 max           0 min
Histogram: 28 4 4 14 6 0 12 8 95 37

Total # of neighbors = 8238219
Ave neighs/atom = 28.530530
Neighbor list builds = 0
Dangerous builds = 0
The dot product: 1.17109636837558e-07
Setting atom values ...
  1 settings made for x
  1 settings made for y
  1 settings made for z
Setting up cg style minimization ...
  Unit style    : metal
  Current step  : 5543
Per MPI rank memory allocation (min/avg/max) = 5.425 | 5.522 | 5.555 Mbytes
Step PotEng KinEng TotEng v_fx v_fy v_fz 
    5543   -1152448.9            0   -1152448.9 -0.0012392403 -0.00037234585 -0.00046352568 
    5762   -1152448.9            0   -1152448.9 -1.8089321e-06 6.0259983e-06 -7.6356187e-06 
Loop time of 1.44902 on 208 procs for 219 steps with 288751 atoms

99.9% CPU use with 208 MPI tasks x 1 OpenMP threads

Minimization stats:
  Stopping criterion = energy tolerance
  Energy initial, next-to-last, final = 
     -1152448.93100237  -1152448.93271279  -1152448.93271279
  Force two-norm initial, final = 0.17632332 7.0629233e-05
  Force max component initial, final = 0.1436983 7.6356187e-06
  Final line search alpha, max atom move = 1.0000000 7.6356187e-06
  Iterations, force evaluations = 219 438

MPI task timing breakdown:
Section |  min time  |  avg time  |  max time  |%varavg| %total
---------------------------------------------------------------
Pair    | 6.0466e-05 | 0.98171    | 1.3044     |  33.3 | 67.75
Neigh   | 0          | 0          | 0          |   0.0 |  0.00
Comm    | 6.8108e-05 | 0.19712    | 0.82933    |  41.1 | 13.60
Output  | 0          | 0          | 0          |   0.0 |  0.00
Modify  | 2.0139e-05 | 0.0018     | 0.0040871  |   2.5 |  0.12
Other   |            | 0.2684     |            |       | 18.52

Nlocal:        1388.23 ave        2021 max           0 min
Histogram: 28 4 0 16 8 0 8 12 89 43
Nghost:        2437.52 ave        3379 max           0 min
Histogram: 24 0 8 8 16 4 12 4 30 102
Neighs:        39606.8 ave       59129 max           0 min
Histogram: 28 4 4 14 6 0 12 8 95 37

Total # of neighbors = 8238215
Ave neighs/atom = 28.530516
Neighbor list builds = 0
Dangerous builds = 0
The dot product: 8.75337865345023e-08
Setting atom values ...
  1 settings made for x
  1 settings made for y
  1 settings made for z
Setting up cg style minimization ...
  Unit style    : metal
  Current step  : 5762
Per MPI rank memory allocation (min/avg/max) = 5.425 | 5.522 | 5.555 Mbytes
Step PotEng KinEng TotEng v_fx v_fy v_fz 
    5762   -1152448.9            0   -1152448.9 3.3239754e-05 -0.0013084262  0.001383326 
    5951   -1152448.9            0   -1152448.9 -2.46767e-06 7.5587671e-06 -9.5376608e-06 
Loop time of 1.22323 on 208 procs for 189 steps with 288751 atoms

99.9% CPU use with 208 MPI tasks x 1 OpenMP threads

Minimization stats:
  Stopping criterion = energy tolerance
  Energy initial, next-to-last, final = 
     -1152448.89680268  -1152448.89843378  -1152448.89843378
  Force two-norm initial, final = 0.17709522 0.00012655903
  Force max component initial, final = 0.14516683 9.5376608e-06
  Final line search alpha, max atom move = 1.0000000 9.5376608e-06
  Iterations, force evaluations = 189 378

MPI task timing breakdown:
Section |  min time  |  avg time  |  max time  |%varavg| %total
---------------------------------------------------------------
Pair    | 5.349e-05  | 0.84049    | 1.1243     |  30.8 | 68.71
Neigh   | 0          | 0          | 0          |   0.0 |  0.00
Comm    | 5.7968e-05 | 0.1648     | 0.70381    |  38.5 | 13.47
Output  | 0          | 0          | 0          |   0.0 |  0.00
Modify  | 1.6464e-05 | 0.0015555  | 0.0035601  |   2.3 |  0.13
Other   |            | 0.2164     |            |       | 17.69

Nlocal:        1388.23 ave        2021 max           0 min
Histogram: 28 4 0 16 8 0 8 12 89 43
Nghost:        2437.52 ave        3379 max           0 min
Histogram: 24 0 8 8 16 4 12 4 30 102
Neighs:        39606.8 ave       59127 max           0 min
Histogram: 28 4 4 14 6 0 12 8 95 37

Total # of neighbors = 8238216
Ave neighs/atom = 28.530519
Neighbor list builds = 0
Dangerous builds = 0
The dot product: 8.88563120835632e-08
Setting atom values ...
  1 settings made for x
  1 settings made for y
  1 settings made for z
Setting up cg style minimization ...
  Unit style    : metal
  Current step  : 5951
Per MPI rank memory allocation (min/avg/max) = 5.425 | 5.522 | 5.555 Mbytes
Step PotEng KinEng TotEng v_fx v_fy v_fz 
    5951   -1152448.9            0   -1152448.9 0.0016143582 -0.0033133831 0.0044760775 
    6000   -1152448.9            0   -1152448.9 -6.8185413e-05 0.0002212123 -0.00027231427 
    6161   -1152448.9            0   -1152448.9 2.8951599e-06 -1.2735602e-05 1.4987398e-05 
Loop time of 1.37426 on 208 procs for 210 steps with 288751 atoms

99.9% CPU use with 208 MPI tasks x 1 OpenMP threads

Minimization stats:
  Stopping criterion = energy tolerance
  Energy initial, next-to-last, final = 
     -1152448.86148929  -1152448.86310032  -1152448.86310032
  Force two-norm initial, final = 0.17835383 8.4354037e-05
  Force max component initial, final = 0.14686512 2.0414518e-05
  Final line search alpha, max atom move = 1.0000000 2.0414518e-05
  Iterations, force evaluations = 210 420

MPI task timing breakdown:
Section |  min time  |  avg time  |  max time  |%varavg| %total
---------------------------------------------------------------
Pair    | 5.6872e-05 | 0.93781    | 1.2507     |  32.6 | 68.24
Neigh   | 0          | 0          | 0          |   0.0 |  0.00
Comm    | 6.5949e-05 | 0.18607    | 0.79089    |  40.5 | 13.54
Output  | 8.6878e-05 | 9.7024e-05 | 0.00016379 |   0.0 |  0.01
Modify  | 1.9608e-05 | 0.0017284  | 0.0039266  |   2.4 |  0.13
Other   |            | 0.2486     |            |       | 18.09

Nlocal:        1388.23 ave        2021 max           0 min
Histogram: 28 4 0 16 8 0 8 12 89 43
Nghost:        2437.52 ave        3379 max           0 min
Histogram: 24 0 8 8 16 4 12 4 30 102
Neighs:        39606.8 ave       59146 max           0 min
Histogram: 28 4 4 14 6 0 12 8 96 36

Total # of neighbors = 8238215
Ave neighs/atom = 28.530516
Neighbor list builds = 0
Dangerous builds = 0
The dot product: -1.11962871221517e-07
Setting atom values ...
  1 settings made for x
  1 settings made for y
  1 settings made for z
Setting up cg style minimization ...
  Unit style    : metal
  Current step  : 6161
Per MPI rank memory allocation (min/avg/max) = 5.425 | 5.522 | 5.555 Mbytes
Step PotEng KinEng TotEng v_fx v_fy v_fz 
    6161   -1152448.8            0   -1152448.8 0.0029010425 -0.0054887668 0.0074794584 
    6357   -1152448.8            0   -1152448.8 1.3218378e-05 -3.518658e-05 4.4382352e-05 
Loop time of 1.26727 on 208 procs for 196 steps with 288751 atoms

99.9% CPU use with 208 MPI tasks x 1 OpenMP threads

Minimization stats:
  Stopping criterion = energy tolerance
  Energy initial, next-to-last, final = 
     -1152448.82511487  -1152448.82683899  -1152448.82683899
  Force two-norm initial, final = 0.17966808 0.00016900894
  Force max component initial, final = 0.14849324 4.4382352e-05
  Final line search alpha, max atom move = 1.0000000 4.4382352e-05
  Iterations, force evaluations = 196 392

MPI task timing breakdown:
Section |  min time  |  avg time  |  max time  |%varavg| %total
---------------------------------------------------------------
Pair    | 5.4281e-05 | 0.87024    | 1.1653     |  31.3 | 68.67
Neigh   | 0          | 0          | 0          |   0.0 |  0.00
Comm    | 5.9842e-05 | 0.17097    | 0.72612    |  39.0 | 13.49
Output  | 0          | 0          | 0          |   0.0 |  0.00
Modify  | 1.6727e-05 | 0.0016168  | 0.0036622  |   2.3 |  0.13
Other   |            | 0.2244     |            |       | 17.71

Nlocal:        1388.23 ave        2021 max           0 min
Histogram: 28 4 0 16 8 0 8 12 89 43
Nghost:        2437.51 ave        3379 max           0 min
Histogram: 24 0 8 8 16 4 12 4 30 102
Neighs:        39606.8 ave       59137 max           0 min
Histogram: 28 4 4 14 6 0 12 8 97 35

Total # of neighbors = 8238217
Ave neighs/atom = 28.530523
Neighbor list builds = 0
Dangerous builds = 0
The dot product: -2.92401173103079e-07
Setting atom values ...
  1 settings made for x
  1 settings made for y
  1 settings made for z
Setting up cg style minimization ...
  Unit style    : metal
  Current step  : 6357
Per MPI rank memory allocation (min/avg/max) = 5.425 | 5.522 | 5.555 Mbytes
Step PotEng KinEng TotEng v_fx v_fy v_fz 
    6357   -1152448.8            0   -1152448.8 0.0035720039 -0.0071844418 0.0095426735 
    6570   -1152448.8            0   -1152448.8 -6.2144984e-06 1.6735015e-05 -2.0844097e-05 
Loop time of 1.39154 on 208 procs for 213 steps with 288751 atoms

99.9% CPU use with 208 MPI tasks x 1 OpenMP threads

Minimization stats:
  Stopping criterion = energy tolerance
  Energy initial, next-to-last, final = 
      -1152448.7880379  -1152448.78965936  -1152448.78965936
  Force two-norm initial, final = 0.18023942 7.8682696e-05
  Force max component initial, final = 0.14953311 2.0844097e-05
  Final line search alpha, max atom move = 1.0000000 2.0844097e-05
  Iterations, force evaluations = 213 426

MPI task timing breakdown:
Section |  min time  |  avg time  |  max time  |%varavg| %total
---------------------------------------------------------------
Pair    | 5.9757e-05 | 0.95421    | 1.2734     |  32.8 | 68.57
Neigh   | 0          | 0          | 0          |   0.0 |  0.00
Comm    | 6.6149e-05 | 0.19084    | 0.80829    |  40.9 | 13.71
Output  | 0          | 0          | 0          |   0.0 |  0.00
Modify  | 2.0048e-05 | 0.0017515  | 0.0039804  |   2.4 |  0.13
Other   |            | 0.2447     |            |       | 17.59

Nlocal:        1388.23 ave        2022 max           0 min
Histogram: 28 4 0 16 8 0 8 12 89 43
Nghost:        2437.53 ave        3379 max           0 min
Histogram: 24 0 8 8 16 4 12 4 30 102
Neighs:        39606.8 ave       59181 max           0 min
Histogram: 28 4 4 14 6 0 12 8 98 34

Total # of neighbors = 8238213
Ave neighs/atom = 28.530509
Neighbor list builds = 0
Dangerous builds = 0
The dot product: 9.17678323252597e-08
Setting atom values ...
  1 settings made for x
  1 settings made for y
  1 settings made for z
Setting up cg style minimization ...
  Unit style    : metal
  Current step  : 6570
Per MPI rank memory allocation (min/avg/max) = 5.425 | 5.522 | 5.555 Mbytes
Step PotEng KinEng TotEng v_fx v_fy v_fz 
    6570   -1152448.7            0   -1152448.7 0.0045695015 -0.010054829  0.012984469 
    6766   -1152448.8            0   -1152448.8 -9.6296162e-06 2.4407774e-05 -3.0562825e-05 
Loop time of 1.28243 on 208 procs for 196 steps with 288751 atoms

99.9% CPU use with 208 MPI tasks x 1 OpenMP threads

Minimization stats:
  Stopping criterion = energy tolerance
  Energy initial, next-to-last, final = 
      -1152448.7498405    -1152448.751472    -1152448.751472
  Force two-norm initial, final = 0.1812181 0.00011300569
  Force max component initial, final = 0.15084699 3.0562825e-05
  Final line search alpha, max atom move = 1.0000000 3.0562825e-05
  Iterations, force evaluations = 196 392

MPI task timing breakdown:
Section |  min time  |  avg time  |  max time  |%varavg| %total
---------------------------------------------------------------
Pair    | 5.2896e-05 | 0.87161    | 1.1688     |  31.3 | 67.97
Neigh   | 0          | 0          | 0          |   0.0 |  0.00
Comm    | 6.1609e-05 | 0.17185    | 0.72706    |  39.0 | 13.40
Output  | 0          | 0          | 0          |   0.0 |  0.00
Modify  | 1.7867e-05 | 0.0016129  | 0.0036649  |   2.3 |  0.13
Other   |            | 0.2374     |            |       | 18.51

Nlocal:        1388.23 ave        2022 max           0 min
Histogram: 28 4 0 16 8 0 8 12 89 43
Nghost:        2437.54 ave        3379 max           0 min
Histogram: 24 0 8 8 16 4 12 4 30 102
Neighs:        39606.8 ave       59175 max           0 min
Histogram: 28 4 4 14 6 0 12 8 97 35

Total # of neighbors = 8238213
Ave neighs/atom = 28.530509
Neighbor list builds = 0
Dangerous builds = 0
The dot product: 7.71485807700556e-08
Setting atom values ...
  1 settings made for x
  1 settings made for y
  1 settings made for z
Setting up cg style minimization ...
  Unit style    : metal
  Current step  : 6766
Per MPI rank memory allocation (min/avg/max) = 5.425 | 5.522 | 5.555 Mbytes
Step PotEng KinEng TotEng v_fx v_fy v_fz 
    6766   -1152448.7            0   -1152448.7 0.0052022058  -0.01289613  0.016159598 
    6952   -1152448.7            0   -1152448.7 5.3697298e-06 -2.1675337e-05 2.4958172e-05 
Loop time of 1.22004 on 208 procs for 186 steps with 288751 atoms

99.9% CPU use with 208 MPI tasks x 1 OpenMP threads

Minimization stats:
  Stopping criterion = energy tolerance
  Energy initial, next-to-last, final = 
     -1152448.71072645   -1152448.7125344   -1152448.7125344
  Force two-norm initial, final = 0.18166741 0.00014634213
  Force max component initial, final = 0.15191613 3.7628347e-05
  Final line search alpha, max atom move = 1.0000000 3.7628347e-05
  Iterations, force evaluations = 186 372

MPI task timing breakdown:
Section |  min time  |  avg time  |  max time  |%varavg| %total
---------------------------------------------------------------
Pair    | 5.1513e-05 | 0.83215    | 1.1088     |  30.7 | 68.21
Neigh   | 0          | 0          | 0          |   0.0 |  0.00
Comm    | 6.0141e-05 | 0.16542    | 0.70601    |  38.4 | 13.56
Output  | 0          | 0          | 0          |   0.0 |  0.00
Modify  | 1.7267e-05 | 0.0015305  | 0.0034726  |   2.3 |  0.13
Other   |            | 0.2209     |            |       | 18.11

Nlocal:        1388.23 ave        2022 max           0 min
Histogram: 28 4 0 16 8 0 8 12 89 43
Nghost:        2437.55 ave        3379 max           0 min
Histogram: 24 0 8 8 16 4 12 4 30 102
Neighs:        39606.8 ave       59174 max           0 min
Histogram: 28 4 4 14 6 0 12 8 97 35

Total # of neighbors = 8238212
Ave neighs/atom = 28.530506
Neighbor list builds = 0
Dangerous builds = 0
The dot product: -4.36743842214935e-08
Setting atom values ...
  1 settings made for x
  1 settings made for y
  1 settings made for z
Setting up cg style minimization ...
  Unit style    : metal
  Current step  : 6952
Per MPI rank memory allocation (min/avg/max) = 5.425 | 5.522 | 5.555 Mbytes
Step PotEng KinEng TotEng v_fx v_fy v_fz 
    6952   -1152448.7            0   -1152448.7 0.0056022122    -0.014953  0.018410299 
    7000   -1152448.7            0   -1152448.7 0.00014483243 -0.00034709535 0.00043700634 
    7107   -1152448.7            0   -1152448.7 3.3000109e-06 3.1125043e-07 1.8478034e-06 
Loop time of 1.00862 on 208 procs for 155 steps with 288751 atoms

99.9% CPU use with 208 MPI tasks x 1 OpenMP threads

Minimization stats:
  Stopping criterion = energy tolerance
  Energy initial, next-to-last, final = 
     -1152448.67133538  -1152448.67308563  -1152448.67308563
  Force two-norm initial, final = 0.18056628 0.00015213208
  Force max component initial, final = 0.15195763 1.7507179e-05
  Final line search alpha, max atom move = 1.0000000 1.7507179e-05
  Iterations, force evaluations = 155 310

MPI task timing breakdown:
Section |  min time  |  avg time  |  max time  |%varavg| %total
---------------------------------------------------------------
Pair    | 4.3435e-05 | 0.68983    | 0.92268    |  27.9 | 68.39
Neigh   | 0          | 0          | 0          |   0.0 |  0.00
Comm    | 4.8696e-05 | 0.13615    | 0.57617    |  34.6 | 13.50
Output  | 0.00011671 | 0.0001187  | 0.00018202 |   0.0 |  0.01
Modify  | 1.3338e-05 | 0.0012789  | 0.0029018  |   2.1 |  0.13
Other   |            | 0.1812     |            |       | 17.97

Nlocal:        1388.23 ave        2023 max           0 min
Histogram: 28 4 0 16 8 0 8 12 89 43
Nghost:        2437.55 ave        3379 max           0 min
Histogram: 24 0 8 8 16 4 12 4 30 102
Neighs:        39606.8 ave       59192 max           0 min
Histogram: 28 4 4 14 6 0 12 8 98 34

Total # of neighbors = 8238206
Ave neighs/atom = 28.530485
Neighbor list builds = 0
Dangerous builds = 0
The dot product: 5.8466963902717e-09
Setting atom values ...
  1 settings made for x
  1 settings made for y
  1 settings made for z
Setting up cg style minimization ...
  Unit style    : metal
  Current step  : 7107
Per MPI rank memory allocation (min/avg/max) = 5.425 | 5.522 | 5.555 Mbytes
Step PotEng KinEng TotEng v_fx v_fy v_fz 
    7107   -1152448.6            0   -1152448.6 0.0059740941 -0.017884803  0.021559479 
    7302   -1152448.6            0   -1152448.6 7.997558e-06 -2.7032809e-05 3.1910189e-05 
Loop time of 1.27596 on 208 procs for 195 steps with 288751 atoms

99.9% CPU use with 208 MPI tasks x 1 OpenMP threads

Minimization stats:
  Stopping criterion = energy tolerance
  Energy initial, next-to-last, final = 
     -1152448.63159267  -1152448.63361086  -1152448.63361086
  Force two-norm initial, final = 0.17957763 0.00014952377
  Force max component initial, final = 0.15163267 3.5272941e-05
  Final line search alpha, max atom move = 1.0000000 3.5272941e-05
  Iterations, force evaluations = 195 390

MPI task timing breakdown:
Section |  min time  |  avg time  |  max time  |%varavg| %total
---------------------------------------------------------------
Pair    | 5.2405e-05 | 0.87367    | 1.1663     |  31.5 | 68.47
Neigh   | 0          | 0          | 0          |   0.0 |  0.00
Comm    | 6.1616e-05 | 0.17408    | 0.7338     |  38.9 | 13.64
Output  | 0          | 0          | 0          |   0.0 |  0.00
Modify  | 1.8225e-05 | 0.0016061  | 0.0036343  |   2.3 |  0.13
Other   |            | 0.2266     |            |       | 17.76

Nlocal:        1388.23 ave        2023 max           0 min
Histogram: 28 4 0 16 8 0 8 12 88 44
Nghost:        2437.55 ave        3379 max           0 min
Histogram: 24 0 8 8 16 4 12 4 30 102
Neighs:        39606.7 ave       59189 max           0 min
Histogram: 28 4 4 14 6 0 12 8 98 34

Total # of neighbors = 8238199
Ave neighs/atom = 28.530461
Neighbor list builds = 0
Dangerous builds = 0
The dot product: 2.71220307090494e-08
Setting atom values ...
  1 settings made for x
  1 settings made for y
  1 settings made for z
Setting up cg style minimization ...
  Unit style    : metal
  Current step  : 7302
Per MPI rank memory allocation (min/avg/max) = 5.425 | 5.522 | 5.555 Mbytes
Step PotEng KinEng TotEng v_fx v_fy v_fz 
    7302   -1152448.6            0   -1152448.6 0.0094459287  -0.01892761    0.0249098 
    7519   -1152448.6            0   -1152448.6 -2.2937054e-06 -1.9049335e-06 3.6640765e-07 
Loop time of 1.42036 on 208 procs for 217 steps with 288751 atoms

99.9% CPU use with 208 MPI tasks x 1 OpenMP threads

Minimization stats:
  Stopping criterion = energy tolerance
  Energy initial, next-to-last, final = 
     -1152448.59289886  -1152448.59507477  -1152448.59507477
  Force two-norm initial, final = 0.17789177 9.0903797e-05
  Force max component initial, final = 0.14911495 1.0448575e-05
  Final line search alpha, max atom move = 1.0000000 1.0448575e-05
  Iterations, force evaluations = 217 434

MPI task timing breakdown:
Section |  min time  |  avg time  |  max time  |%varavg| %total
---------------------------------------------------------------
Pair    | 5.9046e-05 | 0.96586    | 1.2928     |  33.0 | 68.00
Neigh   | 0          | 0          | 0          |   0.0 |  0.00
Comm    | 6.6906e-05 | 0.19183    | 0.80902    |  40.8 | 13.51
Output  | 0          | 0          | 0          |   0.0 |  0.00
Modify  | 1.8422e-05 | 0.0017857  | 0.0040648  |   2.4 |  0.13
Other   |            | 0.2609     |            |       | 18.37

Nlocal:        1388.23 ave        2023 max           0 min
Histogram: 28 4 0 16 8 0 8 12 88 44
Nghost:        2437.55 ave        3379 max           0 min
Histogram: 24 0 8 8 16 4 12 4 30 102
Neighs:        39606.8 ave       59198 max           0 min
Histogram: 28 4 4 14 6 0 12 8 99 33

Total # of neighbors = 8238205
Ave neighs/atom = 28.530481
Neighbor list builds = 0
Dangerous builds = 0
The dot product: -7.07890172746399e-09
Setting atom values ...
  1 settings made for x
  1 settings made for y
  1 settings made for z
Setting up cg style minimization ...
  Unit style    : metal
  Current step  : 7519
Per MPI rank memory allocation (min/avg/max) = 5.425 | 5.522 | 5.555 Mbytes
Step PotEng KinEng TotEng v_fx v_fy v_fz 
    7519   -1152448.6            0   -1152448.6  0.011439617 -0.018607236  0.025947121 
    7763   -1152448.6            0   -1152448.6 5.5073172e-06 -1.0822253e-05 1.4330109e-05 
Loop time of 1.62132 on 208 procs for 244 steps with 288751 atoms

99.9% CPU use with 208 MPI tasks x 1 OpenMP threads

Minimization stats:
  Stopping criterion = energy tolerance
  Energy initial, next-to-last, final = 
     -1152448.55619488   -1152448.5685826   -1152448.5685826
  Force two-norm initial, final = 0.18587194 7.8886158e-05
  Force max component initial, final = 0.14653498 1.4330109e-05
  Final line search alpha, max atom move = 1.0000000 1.4330109e-05
  Iterations, force evaluations = 244 488

MPI task timing breakdown:
Section |  min time  |  avg time  |  max time  |%varavg| %total
---------------------------------------------------------------
Pair    | 6.4608e-05 | 1.0947     | 1.4604     |  35.1 | 67.52
Neigh   | 4.5339e-06 | 0.0015487  | 0.002298   |   1.9 |  0.10
Comm    | 0.00021566 | 0.22008    | 0.92795    |  43.4 | 13.57
Output  | 0          | 0          | 0          |   0.0 |  0.00
Modify  | 2.2589e-05 | 0.0020086  | 0.0045665  |   2.6 |  0.12
Other   |            | 0.303      |            |       | 18.69

Nlocal:        1388.23 ave        2022 max           0 min
Histogram: 28 4 0 16 8 0 8 12 88 44
Nghost:        2437.55 ave        3379 max           0 min
Histogram: 24 0 8 8 16 4 12 4 30 102
Neighs:        39606.7 ave       59166 max           0 min
Histogram: 28 4 4 14 6 0 12 8 97 35

Total # of neighbors = 8238192
Ave neighs/atom = 28.530436
Neighbor list builds = 1
Dangerous builds = 0
The dot product: -3.41344411465848e-07
Setting atom values ...
  1 settings made for x
  1 settings made for y
  1 settings made for z
Setting up cg style minimization ...
  Unit style    : metal
  Current step  : 7763
[...]
Histogram: 24 0 8 8 16 4 12 4 30 102
Neighs:        39606.7 ave       59396 max           0 min
Histogram: 28 4 4 14 6 0 12 8 98 34

Total # of neighbors = 8238201
Ave neighs/atom = 28.530467
Neighbor list builds = 0
Dangerous builds = 0
The dot product: -4.84046341789094e-08
Setting atom values ...
  1 settings made for x
  1 settings made for y
  1 settings made for z
Setting up cg style minimization ...
  Unit style    : metal
  Current step  : 28029
Per MPI rank memory allocation (min/avg/max) = 5.425 | 5.522 | 5.555 Mbytes
Step PotEng KinEng TotEng v_fx v_fy v_fz 
   28029   -1152449.4            0   -1152449.4  0.024467803  0.018755131 -0.040557637 
   28218   -1152449.4            0   -1152449.4 -4.3923252e-06 -1.3303535e-05 1.9554017e-05 
Loop time of 1.23355 on 208 procs for 189 steps with 288751 atoms

99.9% CPU use with 208 MPI tasks x 1 OpenMP threads

Minimization stats:
  Stopping criterion = energy tolerance
  Energy initial, next-to-last, final = 
     -1152449.42823157  -1152449.42963568  -1152449.42963568
  Force two-norm initial, final = 0.17112892 0.00011641019
  Force max component initial, final = 0.073621396 1.9554017e-05
  Final line search alpha, max atom move = 1.0000000 1.9554017e-05
  Iterations, force evaluations = 189 378

MPI task timing breakdown:
Section |  min time  |  avg time  |  max time  |%varavg| %total
---------------------------------------------------------------
Pair    | 5.0852e-05 | 0.84124    | 1.1354     |  30.8 | 68.20
Neigh   | 0          | 0          | 0          |   0.0 |  0.00
Comm    | 5.976e-05  | 0.16549    | 0.7087     |  38.5 | 13.42
Output  | 0          | 0          | 0          |   0.0 |  0.00
Modify  | 1.552e-05  | 0.0015581  | 0.0035536  |   2.3 |  0.13
Other   |            | 0.2253     |            |       | 18.26

Nlocal:        1388.23 ave        2027 max           0 min
Histogram: 28 4 0 16 8 0 8 12 88 44
Nghost:        2437.27 ave        3380 max           0 min
Histogram: 24 0 8 8 16 4 12 4 30 102
Neighs:        39606.8 ave       59395 max           0 min
Histogram: 28 4 4 14 6 0 12 8 98 34

Total # of neighbors = 8238205
Ave neighs/atom = 28.530481
Neighbor list builds = 0
Dangerous builds = 0
The dot product: -2.72950328768455e-08
Setting atom values ...
  1 settings made for x
  1 settings made for y
  1 settings made for z
Setting up cg style minimization ...
  Unit style    : metal
  Current step  : 28218
Per MPI rank memory allocation (min/avg/max) = 5.425 | 5.522 | 5.555 Mbytes
Step PotEng KinEng TotEng v_fx v_fy v_fz 
   28218   -1152449.4            0   -1152449.4  0.027692322   0.01508633 -0.038403722 
   28396   -1152449.4            0   -1152449.4 -1.288636e-05 3.2010395e-05 -3.045964e-05 
Loop time of 1.20922 on 208 procs for 178 steps with 288751 atoms

99.9% CPU use with 208 MPI tasks x 1 OpenMP threads

Minimization stats:
  Stopping criterion = energy tolerance
  Energy initial, next-to-last, final = 
     -1152449.42121236   -1152449.4225626   -1152449.4225626
  Force two-norm initial, final = 0.16842669 0.00017033866
  Force max component initial, final = 0.072783713 3.8926679e-05
  Final line search alpha, max atom move = 1.0000000 3.8926679e-05
  Iterations, force evaluations = 178 356

MPI task timing breakdown:
Section |  min time  |  avg time  |  max time  |%varavg| %total
---------------------------------------------------------------
Pair    | 4.8374e-05 | 0.79799    | 1.0754     |  30.0 | 65.99
Neigh   | 0          | 0          | 0          |   0.0 |  0.00
Comm    | 5.6537e-05 | 0.16015    | 0.68296    |  37.1 | 13.24
Output  | 0          | 0          | 0          |   0.0 |  0.00
Modify  | 1.4908e-05 | 0.0014671  | 0.003305   |   2.2 |  0.12
Other   |            | 0.2496     |            |       | 20.64

Nlocal:        1388.23 ave        2025 max           0 min
Histogram: 28 4 0 16 8 0 8 12 88 44
Nghost:        2437.27 ave        3380 max           0 min
Histogram: 24 0 8 8 16 4 12 4 30 102
Neighs:        39606.8 ave       59343 max           0 min
Histogram: 28 4 4 14 6 0 12 8 98 34

Total # of neighbors = 8238205
Ave neighs/atom = 28.530481
Neighbor list builds = 0
Dangerous builds = 0
The dot product: 3.90763494152959e-08
Setting atom values ...
  1 settings made for x
  1 settings made for y
  1 settings made for z
Setting up cg style minimization ...
  Unit style    : metal
  Current step  : 28396
Per MPI rank memory allocation (min/avg/max) = 5.425 | 5.522 | 5.555 Mbytes
Step PotEng KinEng TotEng v_fx v_fy v_fz 
   28396   -1152449.4            0   -1152449.4  0.031812821   0.01049549 -0.035731885 
   28604   -1152449.4            0   -1152449.4 3.1198806e-06 7.5218689e-06 -1.1561664e-05 
Loop time of 1.39032 on 208 procs for 208 steps with 288751 atoms

99.9% CPU use with 208 MPI tasks x 1 OpenMP threads

Minimization stats:
  Stopping criterion = energy tolerance
  Energy initial, next-to-last, final = 
     -1152449.41265503  -1152449.41395018  -1152449.41395018
  Force two-norm initial, final = 0.16605053 6.4989496e-05
  Force max component initial, final = 0.071957824 1.4205380e-05
  Final line search alpha, max atom move = 1.0000000 1.4205380e-05
  Iterations, force evaluations = 208 416

MPI task timing breakdown:
Section |  min time  |  avg time  |  max time  |%varavg| %total
---------------------------------------------------------------
Pair    | 5.5959e-05 | 0.92637    | 1.2536     |  32.3 | 66.63
Neigh   | 0          | 0          | 0          |   0.0 |  0.00
Comm    | 6.5771e-05 | 0.18448    | 0.77808    |  39.8 | 13.27
Output  | 0          | 0          | 0          |   0.0 |  0.00
Modify  | 1.8407e-05 | 0.0017136  | 0.0038906  |   2.4 |  0.12
Other   |            | 0.2778     |            |       | 19.98

Nlocal:        1388.23 ave        2025 max           0 min
Histogram: 28 4 0 16 8 0 8 12 88 44
Nghost:        2437.27 ave        3380 max           0 min
Histogram: 24 0 8 8 16 4 12 4 30 102
Neighs:        39606.8 ave       59356 max           0 min
Histogram: 28 4 4 14 6 0 12 8 98 34

Total # of neighbors = 8238207
Ave neighs/atom = 28.530488
Neighbor list builds = 0
Dangerous builds = 0
The dot product: 1.30296120469527e-08
Setting atom values ...
  1 settings made for x
  1 settings made for y
  1 settings made for z
Setting up cg style minimization ...
  Unit style    : metal
  Current step  : 28604
Per MPI rank memory allocation (min/avg/max) = 5.425 | 5.522 | 5.555 Mbytes
Step PotEng KinEng TotEng v_fx v_fy v_fz 
   28604   -1152449.4            0   -1152449.4  0.038105542 0.0034182994 -0.031517335 
   28799   -1152449.4            0   -1152449.4 1.1650895e-08 -9.2098207e-06 1.1442234e-05 
Loop time of 1.31999 on 208 procs for 195 steps with 288751 atoms

99.9% CPU use with 208 MPI tasks x 1 OpenMP threads

Minimization stats:
  Stopping criterion = energy tolerance
  Energy initial, next-to-last, final = 
     -1152449.40272877  -1152449.40398779  -1152449.40398779
  Force two-norm initial, final = 0.16486286 7.8849500e-05
  Force max component initial, final = 0.071616714 1.6069906e-05
  Final line search alpha, max atom move = 1.0000000 1.6069906e-05
  Iterations, force evaluations = 195 390

MPI task timing breakdown:
Section |  min time  |  avg time  |  max time  |%varavg| %total
---------------------------------------------------------------
Pair    | 5.3882e-05 | 0.87232    | 1.1856     |  31.5 | 66.09
Neigh   | 0          | 0          | 0          |   0.0 |  0.00
Comm    | 6.1416e-05 | 0.1753     | 0.73153    |  38.3 | 13.28
Output  | 0          | 0          | 0          |   0.0 |  0.00
Modify  | 1.6192e-05 | 0.0016075  | 0.0036406  |   2.3 |  0.12
Other   |            | 0.2708     |            |       | 20.51

Nlocal:        1388.23 ave        2025 max           0 min
Histogram: 28 4 0 16 8 0 8 12 88 44
Nghost:        2437.29 ave        3380 max           0 min
Histogram: 24 0 8 8 16 4 12 4 30 102
Neighs:        39606.8 ave       59353 max           0 min
Histogram: 28 4 4 14 6 0 12 8 98 34

Total # of neighbors = 8238204
Ave neighs/atom = 28.530478
Neighbor list builds = 0
Dangerous builds = 0
The dot product: -6.38653217594093e-09
Setting atom values ...
  1 settings made for x
  1 settings made for y
  1 settings made for z
Setting up cg style minimization ...
  Unit style    : metal
  Current step  : 28799
Per MPI rank memory allocation (min/avg/max) = 5.425 | 5.522 | 5.555 Mbytes
Step PotEng KinEng TotEng v_fx v_fy v_fz 
   28799   -1152449.4            0   -1152449.4  0.045818526 -0.005202889 -0.026431286 
   28868   -1152449.4            0   -1152449.4 8.8590662e-06 -1.2671706e-05 9.4076727e-06 
Loop time of 0.453943 on 208 procs for 69 steps with 288751 atoms

99.9% CPU use with 208 MPI tasks x 1 OpenMP threads

Minimization stats:
  Stopping criterion = energy tolerance
  Energy initial, next-to-last, final = 
     -1152449.39184162  -1152449.39330933  -1152449.39330933
  Force two-norm initial, final = 0.16723361 0.00010727416
  Force max component initial, final = 0.07140325 1.8029098e-05
  Final line search alpha, max atom move = 1.0000000 1.8029098e-05
  Iterations, force evaluations = 69 138

MPI task timing breakdown:
Section |  min time  |  avg time  |  max time  |%varavg| %total
---------------------------------------------------------------
Pair    | 1.9656e-05 | 0.30896    | 0.41776    |  18.7 | 68.06
Neigh   | 0          | 0          | 0          |   0.0 |  0.00
Comm    | 2.2566e-05 | 0.060782   | 0.2586     |  23.4 | 13.39
Output  | 0          | 0          | 0          |   0.0 |  0.00
Modify  | 5.8908e-06 | 0.00057269 | 0.0012964  |   0.0 |  0.13
Other   |            | 0.08363    |            |       | 18.42

Nlocal:        1388.23 ave        2025 max           0 min
Histogram: 28 4 0 16 8 0 8 12 88 44
Nghost:        2437.31 ave        3380 max           0 min
Histogram: 24 0 8 8 16 4 12 4 30 102
Neighs:        39606.8 ave       59355 max           0 min
Histogram: 28 4 4 14 6 0 12 8 98 34

Total # of neighbors = 8238204
Ave neighs/atom = 28.530478
Neighbor list builds = 0
Dangerous builds = 0
The dot product: 4.03045722361599e-08
Setting atom values ...
  1 settings made for x
  1 settings made for y
  1 settings made for z
Setting up cg style minimization ...
  Unit style    : metal
  Current step  : 28868
Per MPI rank memory allocation (min/avg/max) = 5.425 | 5.522 | 5.555 Mbytes
Step PotEng KinEng TotEng v_fx v_fy v_fz 
   28868   -1152449.4            0   -1152449.4  0.053357486 -0.013213825 -0.022183215 
   29000   -1152449.4            0   -1152449.4 -4.2612828e-05 4.4852737e-05 -2.490646e-05 
   29033   -1152449.4            0   -1152449.4 8.1163575e-06 -5.7787327e-06 1.3088714e-06 
Loop time of 1.08883 on 208 procs for 165 steps with 288751 atoms

99.9% CPU use with 208 MPI tasks x 1 OpenMP threads

Minimization stats:
  Stopping criterion = energy tolerance
  Energy initial, next-to-last, final = 
     -1152449.38125816  -1152449.38324763  -1152449.38324763
  Force two-norm initial, final = 0.17127029 0.00017304287
  Force max component initial, final = 0.070108247 1.8593564e-05
  Final line search alpha, max atom move = 1.0000000 1.8593564e-05
  Iterations, force evaluations = 165 330

MPI task timing breakdown:
Section |  min time  |  avg time  |  max time  |%varavg| %total
---------------------------------------------------------------
Pair    | 4.437e-05  | 0.73839    | 0.99674    |  28.8 | 67.81
Neigh   | 0          | 0          | 0          |   0.0 |  0.00
Comm    | 5.3704e-05 | 0.14645    | 0.62121    |  35.9 | 13.45
Output  | 9.9886e-05 | 0.0001015  | 0.00019857 |   0.0 |  0.01
Modify  | 1.4497e-05 | 0.0013587  | 0.0030738  |   2.1 |  0.12
Other   |            | 0.2025     |            |       | 18.60

Nlocal:        1388.23 ave        2025 max           0 min
Histogram: 28 4 0 16 8 0 8 12 88 44
Nghost:        2437.31 ave        3380 max           0 min
Histogram: 24 0 8 8 16 4 12 4 30 102
Neighs:        39606.8 ave       59357 max           0 min
Histogram: 28 4 4 14 6 0 12 8 98 34

Total # of neighbors = 8238207
Ave neighs/atom = 28.530488
Neighbor list builds = 0
Dangerous builds = 0
The dot product: 5.71313799831261e-08
Setting atom values ...
  1 settings made for x
  1 settings made for y
  1 settings made for z
Setting up cg style minimization ...
  Unit style    : metal
  Current step  : 29033
Per MPI rank memory allocation (min/avg/max) = 5.425 | 5.522 | 5.555 Mbytes
Step PotEng KinEng TotEng v_fx v_fy v_fz 
   29033   -1152449.4            0   -1152449.4  0.052931595 -0.013500791 -0.022045646 
   29107   -1152449.4            0   -1152449.4 6.7707052e-06 2.0039699e-05 -2.9755409e-05 
Loop time of 0.485882 on 208 procs for 74 steps with 288751 atoms

99.9% CPU use with 208 MPI tasks x 1 OpenMP threads

Minimization stats:
  Stopping criterion = energy tolerance
  Energy initial, next-to-last, final = 
     -1152449.37208393  -1152449.37373201  -1152449.37373201
  Force two-norm initial, final = 0.16741752 0.00019123413
  Force max component initial, final = 0.070092539 2.9755409e-05
  Final line search alpha, max atom move = 1.0000000 2.9755409e-05
  Iterations, force evaluations = 74 148

MPI task timing breakdown:
Section |  min time  |  avg time  |  max time  |%varavg| %total
---------------------------------------------------------------
Pair    | 2.0699e-05 | 0.33098    | 0.44695    |  19.3 | 68.12
Neigh   | 0          | 0          | 0          |   0.0 |  0.00
Comm    | 2.3951e-05 | 0.064641   | 0.27746    |  24.2 | 13.30
Output  | 0          | 0          | 0          |   0.0 |  0.00
Modify  | 6.8592e-06 | 0.00061314 | 0.001394   |   0.0 |  0.13
Other   |            | 0.08964    |            |       | 18.45

Nlocal:        1388.23 ave        2025 max           0 min
Histogram: 28 4 0 16 8 0 8 12 88 44
Nghost:        2437.29 ave        3380 max           0 min
Histogram: 24 0 8 8 16 4 12 4 30 102
Neighs:        39606.8 ave       59355 max           0 min
Histogram: 28 4 4 14 6 0 12 8 98 34

Total # of neighbors = 8238205
Ave neighs/atom = 28.530481
Neighbor list builds = 0
Dangerous builds = 0
The dot product: -1.25850151512336e-08
Setting atom values ...
  1 settings made for x
  1 settings made for y
  1 settings made for z
Setting up cg style minimization ...
  Unit style    : metal
  Current step  : 29107
Per MPI rank memory allocation (min/avg/max) = 5.425 | 5.522 | 5.555 Mbytes
Step PotEng KinEng TotEng v_fx v_fy v_fz 
   29107   -1152449.4            0   -1152449.4  0.050155699 -0.011924902 -0.022317512 
   29206   -1152449.4            0   -1152449.4 -4.8390587e-06 -1.760755e-05 2.5305154e-05 
Loop time of 0.655617 on 208 procs for 99 steps with 288751 atoms

99.9% CPU use with 208 MPI tasks x 1 OpenMP threads

Minimization stats:
  Stopping criterion = energy tolerance
  Energy initial, next-to-last, final = 
     -1152449.36268308  -1152449.36412756  -1152449.36412756
  Force two-norm initial, final = 0.1630614 9.6203607e-05
  Force max component initial, final = 0.069802108 2.5305154e-05
  Final line search alpha, max atom move = 1.0000000 2.5305154e-05
  Iterations, force evaluations = 99 198

MPI task timing breakdown:
Section |  min time  |  avg time  |  max time  |%varavg| %total
---------------------------------------------------------------
Pair    | 2.8405e-05 | 0.44242    | 0.60417    |  22.3 | 67.48
Neigh   | 0          | 0          | 0          |   0.0 |  0.00
Comm    | 3.2196e-05 | 0.087334   | 0.37188    |  27.9 | 13.32
Output  | 0          | 0          | 0          |   0.0 |  0.00
Modify  | 8.9579e-06 | 0.00081833 | 0.001854   |   0.0 |  0.12
Other   |            | 0.125      |            |       | 19.07

Nlocal:        1388.23 ave        2025 max           0 min
Histogram: 28 4 0 16 8 0 8 12 88 44
Nghost:        2437.29 ave        3380 max           0 min
Histogram: 24 0 8 8 16 4 12 4 30 102
Neighs:        39606.8 ave       59355 max           0 min
Histogram: 28 4 4 14 6 0 12 8 98 34

Total # of neighbors = 8238206
Ave neighs/atom = 28.530485
Neighbor list builds = 0
Dangerous builds = 0
The dot product: 6.29371926639528e-09
Setting atom values ...
  1 settings made for x
  1 settings made for y
  1 settings made for z
Setting up cg style minimization ...
  Unit style    : metal
  Current step  : 29206
Per MPI rank memory allocation (min/avg/max) = 5.425 | 5.522 | 5.555 Mbytes
Step PotEng KinEng TotEng v_fx v_fy v_fz 
   29206   -1152449.4            0   -1152449.4  0.048711313 -0.011710991 -0.021773642 
   29344   -1152449.4            0   -1152449.4 -1.6296473e-06 1.7989373e-05 -2.0956746e-05 
Loop time of 0.90811 on 208 procs for 138 steps with 288751 atoms

99.9% CPU use with 208 MPI tasks x 1 OpenMP threads

Minimization stats:
  Stopping criterion = energy tolerance
  Energy initial, next-to-last, final = 
     -1152449.35275663  -1152449.35413183  -1152449.35413183
  Force two-norm initial, final = 0.1601072 0.00014332476
  Force max component initial, final = 0.069224234 2.1461545e-05
  Final line search alpha, max atom move = 1.0000000 2.1461545e-05
  Iterations, force evaluations = 138 276

MPI task timing breakdown:
Section |  min time  |  avg time  |  max time  |%varavg| %total
---------------------------------------------------------------
Pair    | 3.9865e-05 | 0.6177     | 0.83672    |  26.3 | 68.02
Neigh   | 0          | 0          | 0          |   0.0 |  0.00
Comm    | 4.39e-05   | 0.12295    | 0.5189     |  32.8 | 13.54
Output  | 0          | 0          | 0          |   0.0 |  0.00
Modify  | 1.1623e-05 | 0.0011377  | 0.0025829  |   2.0 |  0.13
Other   |            | 0.1663     |            |       | 18.31

Nlocal:        1388.23 ave        2025 max           0 min
Histogram: 28 4 0 16 8 0 8 12 88 44
Nghost:        2437.29 ave        3380 max           0 min
Histogram: 24 0 8 8 16 4 12 4 30 102
Neighs:        39606.7 ave       59353 max           0 min
Histogram: 28 4 4 14 6 0 12 8 98 34

Total # of neighbors = 8238203
Ave neighs/atom = 28.530474
Neighbor list builds = 0
Dangerous builds = 0
The dot product: -1.99757179842571e-08
Setting atom values ...
  1 settings made for x
  1 settings made for y
  1 settings made for z
Setting up cg style minimization ...
  Unit style    : metal
  Current step  : 29344
Per MPI rank memory allocation (min/avg/max) = 5.425 | 5.522 | 5.555 Mbytes
Step PotEng KinEng TotEng v_fx v_fy v_fz 
   29344   -1152449.3            0   -1152449.3  0.048951498  -0.01336458 -0.020143221 
   29463   -1152449.3            0   -1152449.3 -1.3249768e-05 -1.8725459e-05 3.2950017e-05 
Loop time of 0.783937 on 208 procs for 119 steps with 288751 atoms

99.9% CPU use with 208 MPI tasks x 1 OpenMP threads

Minimization stats:
  Stopping criterion = energy tolerance
  Energy initial, next-to-last, final = 
     -1152449.34233465  -1152449.34372351  -1152449.34372351
  Force two-norm initial, final = 0.15855439 0.0001645967
  Force max component initial, final = 0.068562613 3.2950017e-05
  Final line search alpha, max atom move = 1.0000000 3.2950017e-05
  Iterations, force evaluations = 119 238

MPI task timing breakdown:
Section |  min time  |  avg time  |  max time  |%varavg| %total
---------------------------------------------------------------
Pair    | 3.2174e-05 | 0.53169    | 0.72117    |  24.5 | 67.82
Neigh   | 0          | 0          | 0          |   0.0 |  0.00
Comm    | 3.7834e-05 | 0.10495    | 0.44982    |  30.6 | 13.39
Output  | 0          | 0          | 0          |   0.0 |  0.00
Modify  | 1.0165e-05 | 0.00098144 | 0.0022243  |   0.0 |  0.13
Other   |            | 0.1463     |            |       | 18.66

Nlocal:        1388.23 ave        2025 max           0 min
Histogram: 28 4 0 16 8 0 8 12 88 44
Nghost:        2437.31 ave        3380 max           0 min
Histogram: 24 0 8 8 16 4 12 4 30 102
Neighs:        39606.8 ave       59353 max           0 min
Histogram: 28 4 4 14 6 0 12 8 98 34

Total # of neighbors = 8238204
Ave neighs/atom = 28.530478
Neighbor list builds = 0
Dangerous builds = 0
The dot product: -1.18105538793126e-08
