LAMMPS (29 Oct 2020)
OMP_NUM_THREADS environment is not set. Defaulting to 1 thread. (../comm.cpp:94)
  using 1 OpenMP thread(s) per MPI task
OMP_NUM_THREADS environment is not set. Defaulting to 1 thread. (../comm.cpp:94)
  using 1 OpenMP thread(s) per MPI task
Reading data file ...
  orthogonal box = (-122.39241 -121.13707 -37.090501) to (122.39241 121.13707 37.090501)
  13 by 4 by 2 MPI processor grid
  reading atoms ...
  288751 atoms
  read_data CPU = 0.474 seconds
199981 atoms in group inner
88770 atoms in group outer
1 atoms in group carbon
Neighbor list info ...
  update every 1 steps, delay 0 steps, check yes
  max neighbors/atom: 2000, page size: 100000
  master list distance cutoff = 5.6
  ghost atom cutoff = 5.6
  binsize = 2.8, bins = 88 87 27
  1 neighbor lists, perpetual/occasional/extra = 1 0 0
  (1) pair eam/alloy, perpetual
      attributes: half, newton on
      pair build: half/bin/atomonly/newton
      stencil: half/bin/3d/newton
      bin: standard
Setting up cg style minimization ...
  Unit style    : metal
  Current step  : 0
Per MPI rank memory allocation (min/avg/max) = 5.441 | 5.816 | 6.074 Mbytes
Step v_fx v_fy v_fz PotEng KinEng TotEng 
       0   -13.545925   -22.730074   -13.385529   -1152441.7            0   -1152441.7 
     239 -1.8472633e-05 -2.332015e-05 -2.8963772e-05     -1152449            0     -1152449 
Loop time of 2.92802 on 104 procs for 239 steps with 288751 atoms

99.8% CPU use with 104 MPI tasks x 1 OpenMP threads

Minimization stats:
  Stopping criterion = energy tolerance
  Energy initial, next-to-last, final = 
     -1152441.68387772  -1152448.97218771  -1152448.97218771
  Force two-norm initial, final = 48.111734 0.00013334594
  Force max component initial, final = 28.805396 3.7334270e-05
  Final line search alpha, max atom move = 1.0000000 3.7334270e-05
  Iterations, force evaluations = 239 475

MPI task timing breakdown:
Section |  min time  |  avg time  |  max time  |%varavg| %total
---------------------------------------------------------------
Pair    | 0.75844    | 2.0277     | 2.6664     |  37.8 | 69.25
Neigh   | 8.6332e-05 | 0.025107   | 0.037178   |   6.6 |  0.86
Comm    | 0.049284   | 0.48517    | 1.3759     |  53.2 | 16.57
Output  | 0          | 0          | 0          |   0.0 |  0.00
Modify  | 2.8171e-05 | 0.002594   | 0.0066961  |   3.2 |  0.09
Other   |            | 0.3874     |            |       | 13.23

Nlocal:        2776.45 ave        3953 max           0 min
Histogram: 8 4 4 0 4 12 8 0 30 34
Nghost:        3879.11 ave        5424 max         232 min
Histogram: 8 0 8 0 16 0 8 8 16 40
Neighs:        79213.6 ave      115167 max           0 min
Histogram: 8 4 4 0 10 6 8 8 24 32

Total # of neighbors = 8238216
Ave neighs/atom = 28.530519
Neighbor list builds = 8
Dangerous builds = 1
Setting atom values ...
  1 settings made for x
  1 settings made for y
  1 settings made for z
Setting up cg style minimization ...
  Unit style    : metal
  Current step  : 239
Per MPI rank memory allocation (min/avg/max) = 5.441 | 5.816 | 6.074 Mbytes
Step PotEng KinEng TotEng v_fx v_fy v_fz 
     239     -1152449            0     -1152449 -0.0044255385   0.01242884  0.028647971 
     356     -1152449            0     -1152449 -2.1680251e-06 -8.7664881e-07 -8.2045087e-06 
Loop time of 1.42716 on 104 procs for 117 steps with 288751 atoms

99.9% CPU use with 104 MPI tasks x 1 OpenMP threads

Minimization stats:
  Stopping criterion = energy tolerance
  Energy initial, next-to-last, final = 
     -1152448.97139479  -1152448.97198515  -1152448.97198515
  Force two-norm initial, final = 0.10901825 0.00020885078
  Force max component initial, final = 0.04099477 8.2045087e-06
  Final line search alpha, max atom move = 1.0000000 8.2045087e-06
  Iterations, force evaluations = 117 234

MPI task timing breakdown:
Section |  min time  |  avg time  |  max time  |%varavg| %total
---------------------------------------------------------------
Pair    | 0.35244    | 0.99346    | 1.3222     |  27.1 | 69.61
Neigh   | 0          | 0          | 0          |   0.0 |  0.00
Comm    | 0.026553   | 0.23352    | 0.67225    |  37.9 | 16.36
Output  | 0          | 0          | 0          |   0.0 |  0.00
Modify  | 1.3675e-05 | 0.0019446  | 0.0041227  |   2.1 |  0.14
Other   |            | 0.1982     |            |       | 13.89

Nlocal:        2776.45 ave        3954 max           0 min
Histogram: 8 4 4 0 4 12 8 0 30 34
Nghost:        3879.22 ave        5423 max         232 min
Histogram: 8 0 8 0 16 0 8 8 16 40
Neighs:        79213.5 ave      115204 max           0 min
Histogram: 8 4 4 0 10 6 8 8 24 32

Total # of neighbors = 8238206
Ave neighs/atom = 28.530485
Neighbor list builds = 0
Dangerous builds = 0
Setting atom values ...
  1 settings made for x
  1 settings made for y
  1 settings made for z
Setting up cg style minimization ...
  Unit style    : metal
  Current step  : 356
Per MPI rank memory allocation (min/avg/max) = 5.441 | 5.816 | 6.074 Mbytes
Step PotEng KinEng TotEng v_fx v_fy v_fz 
     356     -1152449            0     -1152449 -0.0073105875  0.025721553  0.026224134 
     574     -1152449            0     -1152449 3.7519866e-06 4.6223259e-06 1.0182018e-05 
Loop time of 2.62646 on 104 procs for 218 steps with 288751 atoms

99.9% CPU use with 104 MPI tasks x 1 OpenMP threads

Minimization stats:
  Stopping criterion = energy tolerance
  Energy initial, next-to-last, final = 
     -1152448.96938165   -1152448.9710184   -1152448.9710184
  Force two-norm initial, final = 0.16311396 5.3366615e-05
  Force max component initial, final = 0.081139461 1.0349281e-05
  Final line search alpha, max atom move = 1.0000000 1.0349281e-05
  Iterations, force evaluations = 218 436

MPI task timing breakdown:
Section |  min time  |  avg time  |  max time  |%varavg| %total
---------------------------------------------------------------
Pair    | 0.65699    | 1.8351     | 2.4393     |  36.9 | 69.87
Neigh   | 0          | 0          | 0          |   0.0 |  0.00
Comm    | 0.041719   | 0.4292     | 1.2374     |  51.7 | 16.34
Output  | 0          | 0          | 0          |   0.0 |  0.00
Modify  | 2.7251e-05 | 0.0036054  | 0.0076536  |   2.8 |  0.14
Other   |            | 0.3586     |            |       | 13.65

Nlocal:        2776.45 ave        3954 max           0 min
Histogram: 8 4 4 0 4 12 8 0 30 34
Nghost:        3879.22 ave        5423 max         232 min
Histogram: 8 0 8 0 16 0 8 8 16 40
Neighs:        79213.5 ave      115202 max           0 min
Histogram: 8 4 4 0 10 6 8 8 24 32

Total # of neighbors = 8238203
Ave neighs/atom = 28.530474
Neighbor list builds = 0
Dangerous builds = 0
The dot product: 1.11840464139104e-07
Setting atom values ...
  1 settings made for x
  1 settings made for y
  1 settings made for z
Setting up cg style minimization ...
  Unit style    : metal
  Current step  : 574
Per MPI rank memory allocation (min/avg/max) = 5.441 | 5.816 | 6.074 Mbytes
Step PotEng KinEng TotEng v_fx v_fy v_fz 
     574     -1152449            0     -1152449 -0.010882865  0.011733588 0.0025405389 
     783     -1152449            0     -1152449 -1.4974165e-05 -2.078365e-05 -2.4271399e-05 
Loop time of 2.5409 on 104 procs for 209 steps with 288751 atoms

99.9% CPU use with 104 MPI tasks x 1 OpenMP threads

Minimization stats:
  Stopping criterion = energy tolerance
  Energy initial, next-to-last, final = 
     -1152448.96769555  -1152448.97007135  -1152448.97007135
  Force two-norm initial, final = 0.15648786 0.00011670521
  Force max component initial, final = 0.088405275 2.4271399e-05
  Final line search alpha, max atom move = 1.0000000 2.4271399e-05
  Iterations, force evaluations = 209 418

MPI task timing breakdown:
Section |  min time  |  avg time  |  max time  |%varavg| %total
---------------------------------------------------------------
Pair    | 0.62323    | 1.7652     | 2.3746     |  36.4 | 69.47
Neigh   | 0          | 0          | 0          |   0.0 |  0.00
Comm    | 0.039958   | 0.41803    | 1.2015     |  50.3 | 16.45
Output  | 0          | 0          | 0          |   0.0 |  0.00
Modify  | 2.8426e-05 | 0.0034627  | 0.0073842  |   2.8 |  0.14
Other   |            | 0.3542     |            |       | 13.94

Nlocal:        2776.45 ave        3953 max           0 min
Histogram: 8 4 4 0 4 12 8 0 30 34
Nghost:        3879.21 ave        5423 max         232 min
Histogram: 8 0 8 0 16 0 8 8 16 40
Neighs:        79213.5 ave      115185 max           0 min
Histogram: 8 4 4 0 10 6 8 8 24 32

Total # of neighbors = 8238200
Ave neighs/atom = 28.530464
Neighbor list builds = 0
Dangerous builds = 0
The dot product: -5.69134737783139e-07
Setting atom values ...
  1 settings made for x
  1 settings made for y
  1 settings made for z
Setting up cg style minimization ...
  Unit style    : metal
  Current step  : 783
Per MPI rank memory allocation (min/avg/max) = 5.441 | 5.816 | 6.074 Mbytes
Step PotEng KinEng TotEng v_fx v_fy v_fz 
     783     -1152449            0     -1152449 -0.018322554 -0.015007158 -0.011031844 
     982     -1152449            0     -1152449 1.5641531e-05 1.8964995e-05 1.2268322e-05 
Loop time of 2.37596 on 104 procs for 199 steps with 288751 atoms

99.9% CPU use with 104 MPI tasks x 1 OpenMP threads

Minimization stats:
  Stopping criterion = energy tolerance
  Energy initial, next-to-last, final = 
     -1152448.96672759  -1152448.96890283  -1152448.96890283
  Force two-norm initial, final = 0.16878255 0.00018798033
  Force max component initial, final = 0.089074328 4.3936922e-05
  Final line search alpha, max atom move = 1.0000000 4.3936922e-05
  Iterations, force evaluations = 199 398

MPI task timing breakdown:
Section |  min time  |  avg time  |  max time  |%varavg| %total
---------------------------------------------------------------
Pair    | 0.59796    | 1.6741     | 2.2197     |  35.2 | 70.46
Neigh   | 0          | 0          | 0          |   0.0 |  0.00
Comm    | 0.037439   | 0.38842    | 1.1306     |  49.7 | 16.35
Output  | 0          | 0          | 0          |   0.0 |  0.00
Modify  | 2.3942e-05 | 0.0032934  | 0.0069896  |   2.7 |  0.14
Other   |            | 0.3102     |            |       | 13.05

Nlocal:        2776.45 ave        3951 max           0 min
Histogram: 8 4 4 0 4 12 8 0 30 34
Nghost:        3879.14 ave        5422 max         232 min
Histogram: 8 0 8 0 16 0 8 8 16 40
Neighs:        79213.5 ave      115120 max           0 min
Histogram: 8 4 4 0 10 6 8 8 24 32

Total # of neighbors = 8238209
Ave neighs/atom = 28.530495
Neighbor list builds = 0
Dangerous builds = 0
The dot product: 2.61199055490025e-07
Setting atom values ...
  1 settings made for x
  1 settings made for y
  1 settings made for z
Setting up cg style minimization ...
  Unit style    : metal
  Current step  : 982
Per MPI rank memory allocation (min/avg/max) = 5.441 | 5.816 | 6.074 Mbytes
Step PotEng KinEng TotEng v_fx v_fy v_fz 
     982     -1152449            0     -1152449 -0.022699696 -0.027808095 -0.012656752 
    1000     -1152449            0     -1152449 0.0029414562 0.0054829239 0.0023153939 
    1406   -1152449.2            0   -1152449.2 2.5760306e-06 2.4531524e-06 1.1838822e-06 
Loop time of 5.04837 on 104 procs for 424 steps with 288751 atoms

99.9% CPU use with 104 MPI tasks x 1 OpenMP threads

Minimization stats:
  Stopping criterion = energy tolerance
  Energy initial, next-to-last, final = 
     -1152448.96483075  -1152449.19762094  -1152449.19762094
  Force two-norm initial, final = 0.17787858 3.4236938e-05
  Force max component initial, final = 0.087139398 8.7443486e-06
  Final line search alpha, max atom move = 1.0000000 8.7443486e-06
  Iterations, force evaluations = 424 848

MPI task timing breakdown:
Section |  min time  |  avg time  |  max time  |%varavg| %total
---------------------------------------------------------------
Pair    | 1.2906     | 3.5756     | 4.7101     |  50.9 | 70.83
Neigh   | 4.1078e-05 | 0.011727   | 0.017025   |   4.5 |  0.23
Comm    | 0.080357   | 0.82141    | 2.4217     |  73.6 | 16.27
Output  | 0.00015705 | 0.00016282 | 0.00024362 |   0.0 |  0.00
Modify  | 5.4162e-05 | 0.0069966  | 0.014913   |   3.9 |  0.14
Other   |            | 0.6324     |            |       | 12.53

Nlocal:        2776.45 ave        3946 max           0 min
Histogram: 8 4 4 0 4 12 8 0 28 36
Nghost:        3879.36 ave        5423 max         232 min
Histogram: 8 0 8 0 16 0 8 8 16 40
Neighs:        79214.2 ave      114941 max           0 min
Histogram: 8 4 4 0 10 6 8 8 22 34

Total # of neighbors = 8238275
Ave neighs/atom = 28.530724
Neighbor list builds = 4
Dangerous builds = 0
The dot product: 1.29195216934476e-07
Setting atom values ...
  1 settings made for x
  1 settings made for y
  1 settings made for z
Setting up cg style minimization ...
  Unit style    : metal
  Current step  : 1406
Per MPI rank memory allocation (min/avg/max) = 5.441 | 5.816 | 6.074 Mbytes
Step PotEng KinEng TotEng v_fx v_fy v_fz 
    1406   -1152449.2            0   -1152449.2 -0.046735697 -0.060229544 0.00045120908 
    1651   -1152449.2            0   -1152449.2 -9.4792404e-07 -2.6508302e-06 -6.9135407e-08 
Loop time of 2.97393 on 104 procs for 245 steps with 288751 atoms

99.9% CPU use with 104 MPI tasks x 1 OpenMP threads

Minimization stats:
  Stopping criterion = energy tolerance
  Energy initial, next-to-last, final = 
     -1152449.19677509  -1152449.19946639  -1152449.19946639
  Force two-norm initial, final = 0.20929405 2.1541930e-05
  Force max component initial, final = 0.081676246 4.0349168e-06
  Final line search alpha, max atom move = 1.0000000 4.0349168e-06
  Iterations, force evaluations = 245 490

MPI task timing breakdown:
Section |  min time  |  avg time  |  max time  |%varavg| %total
---------------------------------------------------------------
Pair    | 0.73604    | 2.0587     | 2.7438     |  39.1 | 69.23
Neigh   | 0          | 0          | 0          |   0.0 |  0.00
Comm    | 0.046181   | 0.48412    | 1.3862     |  54.2 | 16.28
Output  | 0          | 0          | 0          |   0.0 |  0.00
Modify  | 2.8947e-05 | 0.0040458  | 0.0086096  |   3.0 |  0.14
Other   |            | 0.427      |            |       | 14.36

Nlocal:        2776.45 ave        3944 max           0 min
Histogram: 8 4 4 0 4 12 8 0 28 36
Nghost:        3879.14 ave        5422 max         232 min
Histogram: 8 0 8 0 16 0 8 8 16 40
Neighs:        79214.8 ave      114910 max           0 min
Histogram: 8 4 4 0 10 6 8 8 22 34

Total # of neighbors = 8238334
Ave neighs/atom = 28.530928
Neighbor list builds = 0
Dangerous builds = 0
The dot product: 3.17114668996908e-08
Setting atom values ...
  1 settings made for x
  1 settings made for y
  1 settings made for z
Setting up cg style minimization ...
  Unit style    : metal
  Current step  : 1651
Per MPI rank memory allocation (min/avg/max) = 5.441 | 5.816 | 6.074 Mbytes
Step PotEng KinEng TotEng v_fx v_fy v_fz 
    1651   -1152449.2            0   -1152449.2 -0.023292501  -0.03067015 -0.0037488032 
    2000   -1152449.2            0   -1152449.2 -8.3938029e-07 -5.7845563e-06 -7.165434e-07 
    2007   -1152449.2            0   -1152449.2 -6.1372351e-06 -7.6707133e-06 -9.3675585e-07 
Loop time of 4.2348 on 104 procs for 356 steps with 288751 atoms

99.9% CPU use with 104 MPI tasks x 1 OpenMP threads

Minimization stats:
  Stopping criterion = energy tolerance
  Energy initial, next-to-last, final = 
     -1152449.19782703   -1152449.2001828   -1152449.2001828
  Force two-norm initial, final = 0.19498744 8.0855226e-05
  Force max component initial, final = 0.085842756 1.6248414e-05
  Final line search alpha, max atom move = 1.0000000 1.6248414e-05
  Iterations, force evaluations = 356 712

MPI task timing breakdown:
Section |  min time  |  avg time  |  max time  |%varavg| %total
---------------------------------------------------------------
Pair    | 1.0669     | 2.9952     | 3.9804     |  46.9 | 70.73
Neigh   | 0          | 0          | 0          |   0.0 |  0.00
Comm    | 0.076999   | 0.69119    | 2.0184     |  66.9 | 16.32
Output  | 0.00028283 | 0.00029223 | 0.00046663 |   0.0 |  0.01
Modify  | 4.4325e-05 | 0.0058736  | 0.012999   |   3.6 |  0.14
Other   |            | 0.5422     |            |       | 12.80

Nlocal:        2776.45 ave        3943 max           0 min
Histogram: 8 4 4 0 4 12 8 0 28 36
Nghost:        3879.14 ave        5422 max         232 min
Histogram: 8 0 8 0 16 0 8 8 16 40
Neighs:        79214.6 ave      114880 max           0 min
Histogram: 8 4 4 0 10 6 8 8 22 34

Total # of neighbors = 8238323
Ave neighs/atom = 28.530890
Neighbor list builds = 0
Dangerous builds = 0
The dot product: -1.37130985566544e-08
Setting atom values ...
  1 settings made for x
  1 settings made for y
  1 settings made for z
Setting up cg style minimization ...
  Unit style    : metal
  Current step  : 2007
Per MPI rank memory allocation (min/avg/max) = 5.441 | 5.816 | 6.074 Mbytes
Step PotEng KinEng TotEng v_fx v_fy v_fz 
    2007   -1152449.2            0   -1152449.2 -0.022324852 -0.037119743 -0.0039789254 
    2404   -1152449.4            0   -1152449.4 1.0418345e-05 1.0141172e-05 1.1404575e-06 
Loop time of 4.75508 on 104 procs for 397 steps with 288751 atoms

99.9% CPU use with 104 MPI tasks x 1 OpenMP threads

Minimization stats:
  Stopping criterion = energy tolerance
  Energy initial, next-to-last, final = 
     -1152449.19791714  -1152449.40581273  -1152449.40581273
  Force two-norm initial, final = 0.19759879 0.00013723974
  Force max component initial, final = 0.086059315 3.3976086e-05
  Final line search alpha, max atom move = 1.0000000 3.3976086e-05
  Iterations, force evaluations = 397 794

MPI task timing breakdown:
Section |  min time  |  avg time  |  max time  |%varavg| %total
---------------------------------------------------------------
Pair    | 1.2244     | 3.3401     | 4.4157     |  48.9 | 70.24
Neigh   | 9.157e-05  | 0.02634    | 0.038203   |   6.7 |  0.55
Comm    | 0.079002   | 0.77369    | 2.2594     |  70.8 | 16.27
Output  | 0          | 0          | 0          |   0.0 |  0.00
Modify  | 4.9724e-05 | 0.0065505  | 0.013998   |   3.8 |  0.14
Other   |            | 0.6084     |            |       | 12.79

Nlocal:        2776.45 ave        3959 max           0 min
Histogram: 8 4 4 0 4 12 8 2 28 34
Nghost:        3879.09 ave        5423 max         232 min
Histogram: 8 0 8 0 16 0 8 8 16 40
Neighs:        79213.1 ave      115313 max           0 min
Histogram: 8 4 4 0 10 6 8 8 24 32

Total # of neighbors = 8238167
Ave neighs/atom = 28.530350
Neighbor list builds = 9
Dangerous builds = 0
The dot product: -1.08541662038911e-06
Setting atom values ...
  1 settings made for x
  1 settings made for y
  1 settings made for z
Setting up cg style minimization ...
  Unit style    : metal
  Current step  : 2404
Per MPI rank memory allocation (min/avg/max) = 5.441 | 5.816 | 6.074 Mbytes
Step PotEng KinEng TotEng v_fx v_fy v_fz 
    2404   -1152449.4            0   -1152449.4  0.097686888   0.16754434   0.11366978 
    2665   -1152449.4            0   -1152449.4 -1.3767753e-06 -1.6654069e-06 -1.2386886e-06 
Loop time of 3.16931 on 104 procs for 261 steps with 288751 atoms

99.9% CPU use with 104 MPI tasks x 1 OpenMP threads

Minimization stats:
  Stopping criterion = energy tolerance
  Energy initial, next-to-last, final = 
     -1152449.41354842  -1152449.42201889  -1152449.42201889
  Force two-norm initial, final = 0.29704455 1.3851499e-05
  Force max component initial, final = 0.16754434 2.2857495e-06
  Final line search alpha, max atom move = 1.0000000 2.2857495e-06
  Iterations, force evaluations = 261 522

MPI task timing breakdown:
Section |  min time  |  avg time  |  max time  |%varavg| %total
---------------------------------------------------------------
Pair    | 0.76914    | 2.1956     | 2.9719     |  40.7 | 69.28
Neigh   | 0          | 0          | 0          |   0.0 |  0.00
Comm    | 0.059163   | 0.51992    | 1.4868     |  55.8 | 16.40
Output  | 0          | 0          | 0          |   0.0 |  0.00
Modify  | 3.0884e-05 | 0.0043037  | 0.009169   |   3.1 |  0.14
Other   |            | 0.4495     |            |       | 14.18

Nlocal:        2776.45 ave        3961 max           0 min
Histogram: 8 4 4 0 6 10 8 2 28 34
Nghost:        3879.18 ave        5424 max         232 min
Histogram: 8 0 8 0 16 0 8 8 16 40
Neighs:        79213.4 ave      115373 max           0 min
Histogram: 8 4 4 0 10 6 8 8 24 32

Total # of neighbors = 8238194
Ave neighs/atom = 28.530443
Neighbor list builds = 0
Dangerous builds = 0
The dot product: -1.39811530385553e-07
Setting atom values ...
  1 settings made for x
  1 settings made for y
  1 settings made for z
Setting up cg style minimization ...
  Unit style    : metal
  Current step  : 2665
Per MPI rank memory allocation (min/avg/max) = 5.441 | 5.816 | 6.074 Mbytes
Step PotEng KinEng TotEng v_fx v_fy v_fz 
    2665   -1152449.4            0   -1152449.4 -0.072905291  -0.11786213 -0.035845604 
    2880   -1152449.4            0   -1152449.4 -6.5275998e-06 -1.1696383e-05  -3.4726e-06 
Loop time of 2.57346 on 104 procs for 215 steps with 288751 atoms

99.9% CPU use with 104 MPI tasks x 1 OpenMP threads

Minimization stats:
  Stopping criterion = energy tolerance
  Energy initial, next-to-last, final = 
     -1152449.42713193  -1152449.43103457  -1152449.43103457
  Force two-norm initial, final = 0.24804883 6.8693643e-05
  Force max component initial, final = 0.11786213 1.3805020e-05
  Final line search alpha, max atom move = 1.0000000 1.3805020e-05
  Iterations, force evaluations = 215 430

MPI task timing breakdown:
Section |  min time  |  avg time  |  max time  |%varavg| %total
---------------------------------------------------------------
Pair    | 0.64381    | 1.8091     | 2.4109     |  36.7 | 70.30
Neigh   | 0          | 0          | 0          |   0.0 |  0.00
Comm    | 0.041521   | 0.42098    | 1.23       |  51.9 | 16.36
Output  | 0          | 0          | 0          |   0.0 |  0.00
Modify  | 2.5476e-05 | 0.003551   | 0.0075939  |   2.8 |  0.14
Other   |            | 0.3398     |            |       | 13.20

Nlocal:        2776.45 ave        3961 max           0 min
Histogram: 8 4 4 0 6 10 8 2 28 34
Nghost:        3879.09 ave        5423 max         232 min
Histogram: 8 0 8 0 16 0 8 8 16 40
Neighs:        79213.5 ave      115386 max           0 min
Histogram: 8 4 4 0 10 6 8 8 24 32

Total # of neighbors = 8238200
Ave neighs/atom = 28.530464
Neighbor list builds = 0
Dangerous builds = 0
The dot product: 4.18915205064117e-07
Setting atom values ...
  1 settings made for x
  1 settings made for y
  1 settings made for z
Setting up cg style minimization ...
  Unit style    : metal
  Current step  : 2880
Per MPI rank memory allocation (min/avg/max) = 5.441 | 5.816 | 6.074 Mbytes
Step PotEng KinEng TotEng v_fx v_fy v_fz 
    2880   -1152449.4            0   -1152449.4 -0.0020840735  0.018369735 0.0062728511 
    3000   -1152449.4            0   -1152449.4 -7.6072896e-05 -0.00010843341 -5.3168703e-05 
    3078   -1152449.4            0   -1152449.4 -1.6484941e-06 -2.4783671e-06 -1.198749e-06 
Loop time of 2.36743 on 104 procs for 198 steps with 288751 atoms

99.9% CPU use with 104 MPI tasks x 1 OpenMP threads

Minimization stats:
  Stopping criterion = energy tolerance
  Energy initial, next-to-last, final = 
     -1152449.43447941  -1152449.43658055  -1152449.43658055
  Force two-norm initial, final = 0.19981484 4.5188532e-05
  Force max component initial, final = 0.10349171 3.3512459e-06
  Final line search alpha, max atom move = 1.0000000 3.3512459e-06
  Iterations, force evaluations = 198 396

MPI task timing breakdown:
Section |  min time  |  avg time  |  max time  |%varavg| %total
---------------------------------------------------------------
Pair    | 0.59904    | 1.6704     | 2.2245     |  35.1 | 70.56
Neigh   | 0          | 0          | 0          |   0.0 |  0.00
Comm    | 0.036364   | 0.38706    | 1.1275     |  49.9 | 16.35
Output  | 0.00025214 | 0.00025497 | 0.00039662 |   0.0 |  0.01
Modify  | 2.3334e-05 | 0.0032684  | 0.0069806  |   2.7 |  0.14
Other   |            | 0.3064     |            |       | 12.94

Nlocal:        2776.45 ave        3961 max           0 min
Histogram: 8 4 4 0 6 10 8 2 28 34
Nghost:        3879.09 ave        5423 max         232 min
Histogram: 8 0 8 0 16 0 8 8 16 40
Neighs:        79213.5 ave      115398 max           0 min
Histogram: 8 4 4 0 10 6 8 8 24 32

Total # of neighbors = 8238199
Ave neighs/atom = 28.530461
Neighbor list builds = 0
Dangerous builds = 0
The dot product: -2.80892315009534e-08
Setting atom values ...
  1 settings made for x
  1 settings made for y
  1 settings made for z
Setting up cg style minimization ...
  Unit style    : metal
  Current step  : 3078
Per MPI rank memory allocation (min/avg/max) = 5.441 | 5.816 | 6.074 Mbytes
Step PotEng KinEng TotEng v_fx v_fy v_fz 
    3078   -1152449.4            0   -1152449.4 -0.017663418 -0.030222899  -0.01274799 
    3253   -1152449.4            0   -1152449.4 1.7362348e-05 2.9699389e-05 1.2528015e-05 
Loop time of 2.0812 on 104 procs for 175 steps with 288751 atoms

99.9% CPU use with 104 MPI tasks x 1 OpenMP threads

Minimization stats:
  Stopping criterion = energy tolerance
  Energy initial, next-to-last, final = 
     -1152449.43810547  -1152449.44006749  -1152449.44006749
  Force two-norm initial, final = 0.20336275 0.00016015916
  Force max component initial, final = 0.10140728 3.5053955e-05
  Final line search alpha, max atom move = 1.0000000 3.5053955e-05
  Iterations, force evaluations = 175 350

MPI task timing breakdown:
Section |  min time  |  avg time  |  max time  |%varavg| %total
---------------------------------------------------------------
Pair    | 0.52409    | 1.468      | 1.9594     |  32.9 | 70.54
Neigh   | 0          | 0          | 0          |   0.0 |  0.00
Comm    | 0.030524   | 0.33911    | 0.99057    |  46.7 | 16.29
Output  | 0          | 0          | 0          |   0.0 |  0.00
Modify  | 2.0642e-05 | 0.0028888  | 0.0061584  |   2.5 |  0.14
Other   |            | 0.2712     |            |       | 13.03

Nlocal:        2776.45 ave        3961 max           0 min
Histogram: 8 4 4 0 6 10 8 2 28 34
Nghost:        3879.09 ave        5423 max         232 min
Histogram: 8 0 8 0 16 0 8 8 16 40
Neighs:        79213.4 ave      115399 max           0 min
Histogram: 8 4 4 0 10 6 8 8 24 32

Total # of neighbors = 8238196
Ave neighs/atom = 28.530450
Neighbor list builds = 0
Dangerous builds = 0
The dot product: -1.07412383788329e-07
Setting atom values ...
  1 settings made for x
  1 settings made for y
  1 settings made for z
Setting up cg style minimization ...
  Unit style    : metal
  Current step  : 3253
Per MPI rank memory allocation (min/avg/max) = 5.441 | 5.816 | 6.074 Mbytes
Step PotEng KinEng TotEng v_fx v_fy v_fz 
    3253   -1152449.4            0   -1152449.4  -0.01430471 -0.025765308 -0.011101292 
    3429   -1152449.4            0   -1152449.4 1.1638449e-05 2.6037207e-05 1.0719293e-05 
Loop time of 2.11503 on 104 procs for 176 steps with 288751 atoms

99.9% CPU use with 104 MPI tasks x 1 OpenMP threads

Minimization stats:
  Stopping criterion = energy tolerance
  Energy initial, next-to-last, final = 
     -1152449.43963492  -1152449.44158733  -1152449.44158733
  Force two-norm initial, final = 0.20218661 0.00013112547
  Force max component initial, final = 0.099801239 3.0441696e-05
  Final line search alpha, max atom move = 1.0000000 3.0441696e-05
  Iterations, force evaluations = 176 352

MPI task timing breakdown:
Section |  min time  |  avg time  |  max time  |%varavg| %total
---------------------------------------------------------------
Pair    | 0.52772    | 1.4835     | 1.9684     |  33.1 | 70.14
Neigh   | 0          | 0          | 0          |   0.0 |  0.00
Comm    | 0.036155   | 0.34428    | 1.0034     |  47.2 | 16.28
Output  | 0          | 0          | 0          |   0.0 |  0.00
Modify  | 2.3662e-05 | 0.0029086  | 0.0062041  |   2.5 |  0.14
Other   |            | 0.2844     |            |       | 13.45

Nlocal:        2776.45 ave        3961 max           0 min
Histogram: 8 4 4 0 6 10 8 2 28 34
Nghost:        3879.09 ave        5423 max         232 min
Histogram: 8 0 8 0 16 0 8 8 16 40
Neighs:        79213.5 ave      115400 max           0 min
Histogram: 8 4 4 0 10 6 8 8 24 32

Total # of neighbors = 8238199
Ave neighs/atom = 28.530461
Neighbor list builds = 0
Dangerous builds = 0
The dot product: -4.01837318255946e-08
Setting atom values ...
  1 settings made for x
  1 settings made for y
  1 settings made for z
Setting up cg style minimization ...
  Unit style    : metal
  Current step  : 3429
Per MPI rank memory allocation (min/avg/max) = 5.441 | 5.816 | 6.074 Mbytes
Step PotEng KinEng TotEng v_fx v_fy v_fz 
    3429   -1152449.4            0   -1152449.4 -0.014917312 -0.029778118 -0.012716484 
    3622   -1152449.4            0   -1152449.4 1.9328778e-06 2.4662123e-06 1.1782809e-06 
Loop time of 2.28077 on 104 procs for 193 steps with 288751 atoms

99.9% CPU use with 104 MPI tasks x 1 OpenMP threads

Minimization stats:
  Stopping criterion = energy tolerance
  Energy initial, next-to-last, final = 
     -1152449.43913266  -1152449.44109726  -1152449.44109726
  Force two-norm initial, final = 0.20288496 9.4130181e-05
  Force max component initial, final = 0.098017202 6.6931863e-06
  Final line search alpha, max atom move = 1.0000000 6.6931863e-06
  Iterations, force evaluations = 193 386

MPI task timing breakdown:
Section |  min time  |  avg time  |  max time  |%varavg| %total
---------------------------------------------------------------
Pair    | 0.57665    | 1.6172     | 2.1463     |  34.5 | 70.91
Neigh   | 0          | 0          | 0          |   0.0 |  0.00
Comm    | 0.0342     | 0.37294    | 1.0983     |  49.6 | 16.35
Output  | 0          | 0          | 0          |   0.0 |  0.00
Modify  | 2.4149e-05 | 0.0031802  | 0.00681    |   2.7 |  0.14
Other   |            | 0.2874     |            |       | 12.60

Nlocal:        2776.45 ave        3961 max           0 min
Histogram: 8 4 4 0 6 10 8 3 27 34
Nghost:        3879.11 ave        5424 max         232 min
Histogram: 8 0 8 0 16 0 8 8 16 40
Neighs:        79213.5 ave      115407 max           0 min
Histogram: 8 4 4 0 10 6 8 8 24 32

Total # of neighbors = 8238199
Ave neighs/atom = 28.530461
Neighbor list builds = 0
Dangerous builds = 0
The dot product: -6.81613275455453e-09
Setting atom values ...
  1 settings made for x
  1 settings made for y
  1 settings made for z
Setting up cg style minimization ...
  Unit style    : metal
  Current step  : 3622
Per MPI rank memory allocation (min/avg/max) = 5.441 | 5.816 | 6.074 Mbytes
Step PotEng KinEng TotEng v_fx v_fy v_fz 
    3622   -1152449.4            0   -1152449.4  -0.01712875 -0.030676874 -0.013686936 
    3795   -1152449.4            0   -1152449.4 2.1699056e-06 2.4673816e-06 1.2454397e-06 
Loop time of 2.05484 on 104 procs for 173 steps with 288751 atoms

99.9% CPU use with 104 MPI tasks x 1 OpenMP threads

Minimization stats:
  Stopping criterion = energy tolerance
  Energy initial, next-to-last, final = 
     -1152449.43663041  -1152449.43858988  -1152449.43858988
  Force two-norm initial, final = 0.20299416 0.00015029282
  Force max component initial, final = 0.096098374 1.4900730e-05
  Final line search alpha, max atom move = 1.0000000 1.4900730e-05
  Iterations, force evaluations = 173 346

MPI task timing breakdown:
Section |  min time  |  avg time  |  max time  |%varavg| %total
---------------------------------------------------------------
Pair    | 0.51657    | 1.4554     | 1.9404     |  32.8 | 70.83
Neigh   | 0          | 0          | 0          |   0.0 |  0.00
Comm    | 0.03116    | 0.3359     | 0.98312    |  46.8 | 16.35
Output  | 0          | 0          | 0          |   0.0 |  0.00
Modify  | 2.1551e-05 | 0.0028569  | 0.0061192  |   2.5 |  0.14
Other   |            | 0.2607     |            |       | 12.69

Nlocal:        2776.45 ave        3960 max           0 min
Histogram: 8 4 4 0 4 12 8 4 26 34
Nghost:        3879.11 ave        5424 max         232 min
Histogram: 8 0 8 0 16 0 8 8 16 40
Neighs:        79213.5 ave      115377 max           0 min
Histogram: 8 4 4 0 10 6 8 8 24 32

Total # of neighbors = 8238200
Ave neighs/atom = 28.530464
Neighbor list builds = 0
Dangerous builds = 0
The dot product: -9.20786872901459e-09
Setting atom values ...
  1 settings made for x
  1 settings made for y
  1 settings made for z
Setting up cg style minimization ...
  Unit style    : metal
  Current step  : 3795
Per MPI rank memory allocation (min/avg/max) = 5.441 | 5.816 | 6.074 Mbytes
Step PotEng KinEng TotEng v_fx v_fy v_fz 
    3795   -1152449.4            0   -1152449.4 -0.018167168 -0.030524231 -0.014150372 
    4000   -1152449.4            0   -1152449.4 2.1427726e-06 3.1498237e-06 1.5104655e-06 
    4007   -1152449.4            0   -1152449.4 -1.1925359e-06 -2.9235755e-06 -1.252632e-06 
Loop time of 2.50683 on 104 procs for 212 steps with 288751 atoms

99.9% CPU use with 104 MPI tasks x 1 OpenMP threads

Minimization stats:
  Stopping criterion = energy tolerance
  Energy initial, next-to-last, final = 
     -1152449.43212113  -1152449.43407052  -1152449.43407052
  Force two-norm initial, final = 0.20266965 3.7095375e-05
  Force max component initial, final = 0.098395367 3.4589873e-06
  Final line search alpha, max atom move = 1.0000000 3.4589873e-06
  Iterations, force evaluations = 212 424

MPI task timing breakdown:
Section |  min time  |  avg time  |  max time  |%varavg| %total
---------------------------------------------------------------
Pair    | 0.63291    | 1.7744     | 2.3616     |  36.2 | 70.78
Neigh   | 0          | 0          | 0          |   0.0 |  0.00
Comm    | 0.036406   | 0.40843    | 1.1917     |  51.7 | 16.29
Output  | 0.00014862 | 0.00015841 | 0.00030333 |   0.0 |  0.01
Modify  | 2.5278e-05 | 0.0034998  | 0.0074519  |   2.8 |  0.14
Other   |            | 0.3204     |            |       | 12.78

Nlocal:        2776.45 ave        3960 max           0 min
Histogram: 8 4 4 0 4 12 8 4 26 34
Nghost:        3879.18 ave        5424 max         232 min
Histogram: 8 0 8 0 16 0 8 8 16 40
Neighs:        79213.4 ave      115381 max           0 min
Histogram: 8 4 4 0 10 6 8 8 24 32

Total # of neighbors = 8238198
Ave neighs/atom = 28.530457
Neighbor list builds = 0
Dangerous builds = 0
The dot product: 9.21336179314273e-09
Setting atom values ...
  1 settings made for x
  1 settings made for y
  1 settings made for z
Setting up cg style minimization ...
  Unit style    : metal
  Current step  : 4007
Per MPI rank memory allocation (min/avg/max) = 5.441 | 5.816 | 6.074 Mbytes
Step PotEng KinEng TotEng v_fx v_fy v_fz 
    4007   -1152449.4            0   -1152449.4 -0.019113661  -0.02986278 -0.014420243 
    4191   -1152449.4            0   -1152449.4 -9.1652457e-07 8.3907147e-07 1.2505474e-07 
Loop time of 2.20433 on 104 procs for 184 steps with 288751 atoms

99.9% CPU use with 104 MPI tasks x 1 OpenMP threads

Minimization stats:
  Stopping criterion = energy tolerance
  Energy initial, next-to-last, final = 
     -1152449.42560145  -1152449.42754102  -1152449.42754102
  Force two-norm initial, final = 0.20221304 0.00013257047
  Force max component initial, final = 0.10079758 5.9799432e-06
  Final line search alpha, max atom move = 1.0000000 5.9799432e-06
  Iterations, force evaluations = 184 368

MPI task timing breakdown:
Section |  min time  |  avg time  |  max time  |%varavg| %total
---------------------------------------------------------------
Pair    | 0.54661    | 1.5486     | 2.0837     |  33.9 | 70.25
Neigh   | 0          | 0          | 0          |   0.0 |  0.00
Comm    | 0.033135   | 0.36037    | 1.0394     |  47.6 | 16.35
Output  | 0          | 0          | 0          |   0.0 |  0.00
Modify  | 2.172e-05  | 0.0030338  | 0.0064774  |   2.6 |  0.14
Other   |            | 0.2924     |            |       | 13.26

Nlocal:        2776.45 ave        3960 max           0 min
Histogram: 8 4 4 0 4 12 8 4 26 34
Nghost:        3879.18 ave        5424 max         232 min
Histogram: 8 0 8 0 16 0 8 8 16 40
Neighs:        79213.5 ave      115378 max           0 min
Histogram: 8 4 4 0 10 6 8 8 24 32

Total # of neighbors = 8238200
Ave neighs/atom = 28.530464
Neighbor list builds = 0
Dangerous builds = 0
The dot product: -5.19547232637975e-10
Setting atom values ...
  1 settings made for x
  1 settings made for y
  1 settings made for z
Setting up cg style minimization ...
  Unit style    : metal
  Current step  : 4191
Per MPI rank memory allocation (min/avg/max) = 5.441 | 5.816 | 6.074 Mbytes
Step PotEng KinEng TotEng v_fx v_fy v_fz 
    4191   -1152449.4            0   -1152449.4 -0.020236255 -0.028777799 -0.014563284 
    4382   -1152449.4            0   -1152449.4 -3.1606926e-07 -1.2086611e-06 -5.0604026e-07 
Loop time of 2.27464 on 104 procs for 191 steps with 288751 atoms

99.9% CPU use with 104 MPI tasks x 1 OpenMP threads

Minimization stats:
  Stopping criterion = energy tolerance
  Energy initial, next-to-last, final = 
     -1152449.41708002  -1152449.41900881  -1152449.41900881
  Force two-norm initial, final = 0.20170359 0.00010579807
  Force max component initial, final = 0.10319554 6.4331287e-06
  Final line search alpha, max atom move = 1.0000000 6.4331287e-06
  Iterations, force evaluations = 191 382

MPI task timing breakdown:
Section |  min time  |  avg time  |  max time  |%varavg| %total
---------------------------------------------------------------
Pair    | 0.57184    | 1.6031     | 2.1465     |  34.5 | 70.48
Neigh   | 0          | 0          | 0          |   0.0 |  0.00
Comm    | 0.032519   | 0.37215    | 1.0887     |  48.9 | 16.36
Output  | 0          | 0          | 0          |   0.0 |  0.00
Modify  | 2.2921e-05 | 0.0031499  | 0.0067382  |   2.6 |  0.14
Other   |            | 0.2963     |            |       | 13.02

Nlocal:        2776.45 ave        3957 max           0 min
Histogram: 8 4 4 0 4 12 8 4 26 34
Nghost:        3879.20 ave        5424 max         232 min
Histogram: 8 0 8 0 16 0 8 8 16 40
Neighs:        79213.5 ave      115265 max           0 min
Histogram: 8 4 4 0 10 6 8 8 24 32

Total # of neighbors = 8238208
Ave neighs/atom = 28.530492
Neighbor list builds = 0
Dangerous builds = 0
The dot product: 3.6541176131413e-09
Setting atom values ...
  1 settings made for x
  1 settings made for y
  1 settings made for z
Setting up cg style minimization ...
  Unit style    : metal
  Current step  : 4382
Per MPI rank memory allocation (min/avg/max) = 5.441 | 5.816 | 6.074 Mbytes
Step PotEng KinEng TotEng v_fx v_fy v_fz 
    4382   -1152449.4            0   -1152449.4 -0.021539889 -0.027242501  -0.01455907 
    4579   -1152449.4            0   -1152449.4 1.3060504e-05 2.5867289e-05 1.2324517e-05 
Loop time of 2.35332 on 104 procs for 197 steps with 288751 atoms

99.9% CPU use with 104 MPI tasks x 1 OpenMP threads

Minimization stats:
  Stopping criterion = energy tolerance
  Energy initial, next-to-last, final = 
     -1152449.40656943  -1152449.40848604  -1152449.40848604
  Force two-norm initial, final = 0.20117579 9.4935206e-05
  Force max component initial, final = 0.10557645 2.5867289e-05
  Final line search alpha, max atom move = 1.0000000 2.5867289e-05
  Iterations, force evaluations = 197 394

MPI task timing breakdown:
Section |  min time  |  avg time  |  max time  |%varavg| %total
---------------------------------------------------------------
Pair    | 0.58964    | 1.6614     | 2.2135     |  35.0 | 70.60
Neigh   | 0          | 0          | 0          |   0.0 |  0.00
Comm    | 0.040536   | 0.38527    | 1.1188     |  49.6 | 16.37
Output  | 0          | 0          | 0          |   0.0 |  0.00
Modify  | 2.3451e-05 | 0.0032494  | 0.0069612  |   2.7 |  0.14
Other   |            | 0.3034     |            |       | 12.89

Nlocal:        2776.45 ave        3957 max           0 min
Histogram: 8 4 4 0 4 12 8 4 26 34
Nghost:        3879.16 ave        5424 max         232 min
Histogram: 8 0 8 0 16 0 8 8 16 40
Neighs:        79213.6 ave      115281 max           0 min
Histogram: 8 4 4 0 10 6 8 8 24 32

Total # of neighbors = 8238211
Ave neighs/atom = 28.530502
Neighbor list builds = 0
Dangerous builds = 0
The dot product: -8.97989749330782e-08
Setting atom values ...
  1 settings made for x
  1 settings made for y
  1 settings made for z
Setting up cg style minimization ...
  Unit style    : metal
  Current step  : 4579
Per MPI rank memory allocation (min/avg/max) = 5.441 | 5.816 | 6.074 Mbytes
Step PotEng KinEng TotEng v_fx v_fy v_fz 
    4579   -1152449.4            0   -1152449.4 -0.023049714 -0.025228576 -0.014395751 
    4766   -1152449.4            0   -1152449.4 5.1495256e-06 1.1554104e-05 5.469035e-06 
Loop time of 2.24774 on 104 procs for 187 steps with 288751 atoms

99.9% CPU use with 104 MPI tasks x 1 OpenMP threads

Minimization stats:
  Stopping criterion = energy tolerance
  Energy initial, next-to-last, final = 
     -1152449.39408562   -1152449.3959896   -1152449.3959896
  Force two-norm initial, final = 0.2006592 0.00012321234
  Force max component initial, final = 0.10791254 1.1554104e-05
  Final line search alpha, max atom move = 1.0000000 1.1554104e-05
  Iterations, force evaluations = 187 374

MPI task timing breakdown:
Section |  min time  |  avg time  |  max time  |%varavg| %total
---------------------------------------------------------------
Pair    | 0.5594     | 1.5765     | 2.0984     |  34.3 | 70.14
Neigh   | 0          | 0          | 0          |   0.0 |  0.00
Comm    | 0.035062   | 0.36877    | 1.0713     |  48.3 | 16.41
Output  | 0          | 0          | 0          |   0.0 |  0.00
Modify  | 2.2414e-05 | 0.0030984  | 0.0066474  |   2.6 |  0.14
Other   |            | 0.2994     |            |       | 13.32

Nlocal:        2776.45 ave        3956 max           0 min
Histogram: 8 4 4 0 4 12 8 0 30 34
Nghost:        3879.20 ave        5424 max         232 min
Histogram: 8 0 8 0 16 0 8 8 16 40
Neighs:        79213.6 ave      115238 max           0 min
Histogram: 8 4 4 0 10 6 8 8 24 32

Total # of neighbors = 8238211
Ave neighs/atom = 28.530502
Neighbor list builds = 0
Dangerous builds = 0
The dot product: -3.83320602025027e-08
Setting atom values ...
  1 settings made for x
  1 settings made for y
  1 settings made for z
Setting up cg style minimization ...
  Unit style    : metal
  Current step  : 4766
Per MPI rank memory allocation (min/avg/max) = 5.441 | 5.816 | 6.074 Mbytes
Step PotEng KinEng TotEng v_fx v_fy v_fz 
    4766   -1152449.4            0   -1152449.4 -0.024831534   -0.0227727 -0.014097035 
    4925   -1152449.4            0   -1152449.4 3.3316844e-05 5.9832577e-05 3.0240317e-05 
Loop time of 1.89784 on 104 procs for 159 steps with 288751 atoms

99.9% CPU use with 104 MPI tasks x 1 OpenMP threads

Minimization stats:
  Stopping criterion = energy tolerance
  Energy initial, next-to-last, final = 
       -1152449.379651  -1152449.38154314  -1152449.38154314
  Force two-norm initial, final = 0.20022763 0.00024837699
  Force max component initial, final = 0.11019254 5.9832577e-05
  Final line search alpha, max atom move = 1.0000000 5.9832577e-05
  Iterations, force evaluations = 159 318

MPI task timing breakdown:
Section |  min time  |  avg time  |  max time  |%varavg| %total
---------------------------------------------------------------
Pair    | 0.47665    | 1.3378     | 1.7856     |  31.5 | 70.49
Neigh   | 0          | 0          | 0          |   0.0 |  0.00
Comm    | 0.030288   | 0.30987    | 0.89581    |  44.2 | 16.33
Output  | 0          | 0          | 0          |   0.0 |  0.00
Modify  | 1.8694e-05 | 0.0026257  | 0.0055931  |   2.4 |  0.14
Other   |            | 0.2476     |            |       | 13.05

Nlocal:        2776.45 ave        3956 max           0 min
Histogram: 8 4 4 0 4 12 8 0 30 34
Nghost:        3879.19 ave        5424 max         232 min
Histogram: 8 0 8 0 16 0 8 8 16 40
Neighs:        79213.6 ave      115255 max           0 min
Histogram: 8 4 4 0 10 6 8 8 24 32

Total # of neighbors = 8238211
Ave neighs/atom = 28.530502
Neighbor list builds = 0
Dangerous builds = 0
The dot product: -2.07312175434777e-07
Setting atom values ...
  1 settings made for x
  1 settings made for y
  1 settings made for z
Setting up cg style minimization ...
  Unit style    : metal
  Current step  : 4925
Per MPI rank memory allocation (min/avg/max) = 5.441 | 5.816 | 6.074 Mbytes
Step PotEng KinEng TotEng v_fx v_fy v_fz 
    4925   -1152449.4            0   -1152449.4 -0.026803165 -0.019886314 -0.013650836 
    5000   -1152449.4            0   -1152449.4 0.00015034757 0.00024894184 0.00013047311 
    5114   -1152449.4            0   -1152449.4 7.1432256e-06 1.3893968e-05 7.0096346e-06 
Loop time of 2.24229 on 104 procs for 189 steps with 288751 atoms

99.9% CPU use with 104 MPI tasks x 1 OpenMP threads

Minimization stats:
  Stopping criterion = energy tolerance
  Energy initial, next-to-last, final = 
     -1152449.36329529  -1152449.36517369  -1152449.36517369
  Force two-norm initial, final = 0.19988825 0.00010773599
  Force max component initial, final = 0.11241326 1.3893968e-05
  Final line search alpha, max atom move = 1.0000000 1.3893968e-05
  Iterations, force evaluations = 189 378

MPI task timing breakdown:
Section |  min time  |  avg time  |  max time  |%varavg| %total
---------------------------------------------------------------
Pair    | 0.5663     | 1.59       | 2.1001     |  34.0 | 70.91
Neigh   | 0          | 0          | 0          |   0.0 |  0.00
Comm    | 0.032671   | 0.36631    | 1.0729     |  49.0 | 16.34
Output  | 0.00025699 | 0.00026369 | 0.00037942 |   0.0 |  0.01
Modify  | 2.2673e-05 | 0.0031226  | 0.0066904  |   2.6 |  0.14
Other   |            | 0.2825     |            |       | 12.60

Nlocal:        2776.45 ave        3955 max           0 min
Histogram: 8 4 4 0 4 12 8 0 30 34
Nghost:        3879.18 ave        5424 max         232 min
Histogram: 8 0 8 0 16 0 8 8 16 40
Neighs:        79213.6 ave      115225 max           0 min
Histogram: 8 4 4 0 10 6 8 8 24 32

Total # of neighbors = 8238210
Ave neighs/atom = 28.530499
Neighbor list builds = 0
Dangerous builds = 0
The dot product: -4.36727160988079e-08
Setting atom values ...
  1 settings made for x
  1 settings made for y
  1 settings made for z
Setting up cg style minimization ...
  Unit style    : metal
  Current step  : 5114
Per MPI rank memory allocation (min/avg/max) = 5.441 | 5.816 | 6.074 Mbytes
Step PotEng KinEng TotEng v_fx v_fy v_fz 
    5114   -1152449.3            0   -1152449.3 -0.028813518 -0.017908395 -0.013554911 
    5259   -1152449.3            0   -1152449.3 2.1644283e-06 5.8075834e-06 2.7886713e-06 
Loop time of 1.72047 on 104 procs for 145 steps with 288751 atoms

99.9% CPU use with 104 MPI tasks x 1 OpenMP threads

Minimization stats:
  Stopping criterion = energy tolerance
  Energy initial, next-to-last, final = 
     -1152449.34505868    -1152449.346915    -1152449.346915
  Force two-norm initial, final = 0.19976382 0.00030521571
  Force max component initial, final = 0.11457016 2.9815866e-05
  Final line search alpha, max atom move = 1.0000000 2.9815866e-05
  Iterations, force evaluations = 145 290

MPI task timing breakdown:
Section |  min time  |  avg time  |  max time  |%varavg| %total
---------------------------------------------------------------
Pair    | 0.43405    | 1.2221     | 1.6196     |  30.1 | 71.03
Neigh   | 0          | 0          | 0          |   0.0 |  0.00
Comm    | 0.026652   | 0.2803     | 0.82941    |  43.2 | 16.29
Output  | 0          | 0          | 0          |   0.0 |  0.00
Modify  | 1.7253e-05 | 0.0023958  | 0.0051331  |   2.3 |  0.14
Other   |            | 0.2157     |            |       | 12.54

Nlocal:        2776.45 ave        3955 max           0 min
Histogram: 8 4 4 0 4 12 8 0 30 34
Nghost:        3879.18 ave        5424 max         232 min
Histogram: 8 0 8 0 16 0 8 8 16 40
Neighs:        79213.6 ave      115225 max           0 min
Histogram: 8 4 4 0 10 6 8 8 24 32

Total # of neighbors = 8238214
Ave neighs/atom = 28.530512
Neighbor list builds = 0
Dangerous builds = 0
The dot product: -1.67597769397081e-08
Setting atom values ...
  1 settings made for x
  1 settings made for y
  1 settings made for z
Setting up cg style minimization ...
  Unit style    : metal
  Current step  : 5259
Per MPI rank memory allocation (min/avg/max) = 5.441 | 5.816 | 6.074 Mbytes
Step PotEng KinEng TotEng v_fx v_fy v_fz 
    5259   -1152449.3            0   -1152449.3 -0.032015355 -0.015281869 -0.013489363 
    5451   -1152449.3            0   -1152449.3 -8.1414883e-07 -1.8113847e-06 -9.1348416e-07 
Loop time of 2.27531 on 104 procs for 192 steps with 288751 atoms

99.9% CPU use with 104 MPI tasks x 1 OpenMP threads

Minimization stats:
  Stopping criterion = energy tolerance
  Energy initial, next-to-last, final = 
     -1152449.32500174  -1152449.32683585  -1152449.32683585
  Force two-norm initial, final = 0.20003961 8.8762175e-05
  Force max component initial, final = 0.11678592 2.8420934e-06
  Final line search alpha, max atom move = 1.0000000 2.8420934e-06
  Iterations, force evaluations = 192 384

MPI task timing breakdown:
Section |  min time  |  avg time  |  max time  |%varavg| %total
---------------------------------------------------------------
Pair    | 0.57463    | 1.6091     | 2.149      |  34.5 | 70.72
Neigh   | 0          | 0          | 0          |   0.0 |  0.00
Comm    | 0.033419   | 0.37199    | 1.0833     |  49.2 | 16.35
Output  | 0          | 0          | 0          |   0.0 |  0.00
Modify  | 2.2636e-05 | 0.0031697  | 0.00676    |   2.6 |  0.14
Other   |            | 0.2911     |            |       | 12.79

Nlocal:        2776.45 ave        3954 max           0 min
Histogram: 8 4 4 0 4 12 8 0 30 34
Nghost:        3879.14 ave        5424 max         232 min
Histogram: 8 0 8 0 16 0 8 8 16 40
Neighs:        79213.6 ave      115206 max           0 min
Histogram: 8 4 4 0 10 6 8 8 24 32

Total # of neighbors = 8238215
Ave neighs/atom = 28.530516
Neighbor list builds = 0
Dangerous builds = 0
The dot product: 5.50514650645854e-09
Setting atom values ...
  1 settings made for x
  1 settings made for y
  1 settings made for z
Setting up cg style minimization ...
  Unit style    : metal
  Current step  : 5451
Per MPI rank memory allocation (min/avg/max) = 5.441 | 5.816 | 6.074 Mbytes
Step PotEng KinEng TotEng v_fx v_fy v_fz 
    5451   -1152449.3            0   -1152449.3 -0.037879879 -0.010000427 -0.013059767 
    5665   -1152449.3            0   -1152449.3 -2.5640253e-06 -1.6007591e-06 -1.2570636e-06 
Loop time of 2.55146 on 104 procs for 214 steps with 288751 atoms

99.9% CPU use with 104 MPI tasks x 1 OpenMP threads

Minimization stats:
  Stopping criterion = energy tolerance
  Energy initial, next-to-last, final = 
     -1152449.30322759   -1152449.3065294   -1152449.3065294
  Force two-norm initial, final = 0.20120358 0.00010773915
  Force max component initial, final = 0.11895796 5.8704679e-06
  Final line search alpha, max atom move = 1.0000000 5.8704679e-06
  Iterations, force evaluations = 214 428

MPI task timing breakdown:
Section |  min time  |  avg time  |  max time  |%varavg| %total
---------------------------------------------------------------
Pair    | 0.63832    | 1.8059     | 2.4041     |  36.5 | 70.78
Neigh   | 0          | 0          | 0          |   0.0 |  0.00
Comm    | 0.041619   | 0.41789    | 1.2265     |  52.1 | 16.38
Output  | 0          | 0          | 0          |   0.0 |  0.00
Modify  | 2.5336e-05 | 0.0035347  | 0.0075885  |   2.8 |  0.14
Other   |            | 0.3241     |            |       | 12.70

Nlocal:        2776.45 ave        3954 max           0 min
Histogram: 8 4 4 0 4 12 8 0 30 34
Nghost:        3879.07 ave        5423 max         232 min
Histogram: 8 0 8 0 16 0 8 8 16 40
Neighs:        79213.6 ave      115206 max           0 min
Histogram: 8 4 4 0 10 6 8 8 24 32

Total # of neighbors = 8238218
Ave neighs/atom = 28.530526
Neighbor list builds = 0
Dangerous builds = 0
The dot product: 7.61947937493293e-08
Setting atom values ...
  1 settings made for x
  1 settings made for y
  1 settings made for z
Setting up cg style minimization ...
  Unit style    : metal
  Current step  : 5665
Per MPI rank memory allocation (min/avg/max) = 5.441 | 5.816 | 6.074 Mbytes
Step PotEng KinEng TotEng v_fx v_fy v_fz 
    5665   -1152449.3            0   -1152449.3  -0.16228213   0.12398761  -0.02292298 
    5902   -1152449.3            0   -1152449.3 -4.5227028e-05 -4.3941183e-05 -2.9575954e-05 
Loop time of 2.81238 on 104 procs for 237 steps with 288751 atoms

99.9% CPU use with 104 MPI tasks x 1 OpenMP threads

Minimization stats:
  Stopping criterion = energy tolerance
  Energy initial, next-to-last, final = 
     -1152449.28502484  -1152449.33958348  -1152449.33958348
  Force two-norm initial, final = 0.28159256 0.00020210315
  Force max component initial, final = 0.16228213 5.1432399e-05
  Final line search alpha, max atom move = 1.0000000 5.1432399e-05
  Iterations, force evaluations = 237 474

MPI task timing breakdown:
Section |  min time  |  avg time  |  max time  |%varavg| %total
---------------------------------------------------------------
Pair    | 0.71856    | 1.9884     | 2.6442     |  38.1 | 70.70
Neigh   | 2.0305e-05 | 0.0058774  | 0.0085573  |   3.2 |  0.21
Comm    | 0.043186   | 0.45992    | 1.3425     |  54.5 | 16.35
Output  | 0          | 0          | 0          |   0.0 |  0.00
Modify  | 2.9262e-05 | 0.0039081  | 0.0083622  |   2.9 |  0.14
Other   |            | 0.3543     |            |       | 12.60

Nlocal:        2776.45 ave        3956 max           0 min
Histogram: 8 4 4 0 4 12 8 0 30 34
Nghost:        3879.14 ave        5424 max         232 min
Histogram: 8 0 8 0 16 0 8 8 16 40
Neighs:        79213.4 ave      115294 max           0 min
Histogram: 8 4 4 0 10 6 8 8 24 32

Total # of neighbors = 8238195
Ave neighs/atom = 28.530447
Neighbor list builds = 2
Dangerous builds = 0
The dot product: -7.20224753584897e-07
Setting atom values ...
  1 settings made for x
  1 settings made for y
  1 settings made for z
Setting up cg style minimization ...
  Unit style    : metal
  Current step  : 5902
Per MPI rank memory allocation (min/avg/max) = 5.441 | 5.816 | 6.074 Mbytes
Step PotEng KinEng TotEng v_fx v_fy v_fz 
    5902   -1152449.3            0   -1152449.3 -0.074641307  0.087983755  -0.06198875 
    6000   -1152449.3            0   -1152449.3 4.4980189e-05 -2.1097955e-05 3.4261318e-05 
    6091   -1152449.3            0   -1152449.3 4.4387648e-06 -3.9523637e-07 3.2175023e-06 
Loop time of 2.28951 on 104 procs for 189 steps with 288751 atoms

99.9% CPU use with 104 MPI tasks x 1 OpenMP threads

Minimization stats:
  Stopping criterion = energy tolerance
  Energy initial, next-to-last, final = 
     -1152449.33459068   -1152449.3365967   -1152449.3365967
  Force two-norm initial, final = 0.19520656 7.7383498e-05
  Force max component initial, final = 0.087983755 5.0720973e-06
  Final line search alpha, max atom move = 1.0000000 5.0720973e-06
  Iterations, force evaluations = 189 378

MPI task timing breakdown:
Section |  min time  |  avg time  |  max time  |%varavg| %total
---------------------------------------------------------------
Pair    | 0.56293    | 1.5969     | 2.1505     |  34.4 | 69.75
Neigh   | 0          | 0          | 0          |   0.0 |  0.00
Comm    | 0.037838   | 0.37322    | 1.0789     |  48.2 | 16.30
Output  | 0.00016146 | 0.00016443 | 0.00029235 |   0.0 |  0.01
Modify  | 2.2436e-05 | 0.0031189  | 0.0066605  |   2.6 |  0.14
Other   |            | 0.3161     |            |       | 13.81

Nlocal:        2776.45 ave        3959 max           0 min
Histogram: 8 4 4 0 4 12 8 4 26 34
Nghost:        3879.22 ave        5424 max         232 min
Histogram: 8 0 8 0 16 0 8 8 16 40
Neighs:        79213.4 ave      115347 max           0 min
Histogram: 8 4 4 0 10 6 8 8 24 32

Total # of neighbors = 8238189
Ave neighs/atom = 28.530426
Neighbor list builds = 0
Dangerous builds = 0
The dot product: -6.93745484948624e-08
Setting atom values ...
  1 settings made for x
  1 settings made for y
  1 settings made for z
Setting up cg style minimization ...
  Unit style    : metal
  Current step  : 6091
Per MPI rank memory allocation (min/avg/max) = 5.441 | 5.816 | 6.074 Mbytes
Step PotEng KinEng TotEng v_fx v_fy v_fz 
    6091   -1152449.3            0   -1152449.3 -0.042374732   0.03530046 -0.036045504 
    6242   -1152449.3            0   -1152449.3 6.3485675e-05 4.9128177e-05 4.0976635e-05 
Loop time of 1.79507 on 104 procs for 151 steps with 288751 atoms

99.9% CPU use with 104 MPI tasks x 1 OpenMP threads

Minimization stats:
  Stopping criterion = energy tolerance
  Energy initial, next-to-last, final = 
      -1152449.3304188  -1152449.33159087  -1152449.33159087
  Force two-norm initial, final = 0.15581007 0.00028561257
  Force max component initial, final = 0.061858836 6.3485675e-05
  Final line search alpha, max atom move = 1.0000000 6.3485675e-05
  Iterations, force evaluations = 151 302

MPI task timing breakdown:
Section |  min time  |  avg time  |  max time  |%varavg| %total
---------------------------------------------------------------
Pair    | 0.4495     | 1.2689     | 1.6945     |  30.8 | 70.69
Neigh   | 0          | 0          | 0          |   0.0 |  0.00
Comm    | 0.025952   | 0.29447    | 0.85922    |  43.7 | 16.40
Output  | 0          | 0          | 0          |   0.0 |  0.00
Modify  | 1.8373e-05 | 0.0024946  | 0.0053273  |   2.4 |  0.14
Other   |            | 0.2292     |            |       | 12.77

Nlocal:        2776.45 ave        3959 max           0 min
Histogram: 8 4 4 0 4 12 8 4 26 34
Nghost:        3879.22 ave        5424 max         232 min
Histogram: 8 0 8 0 16 0 8 8 16 40
Neighs:        79213.3 ave      115346 max           0 min
Histogram: 8 4 4 0 10 6 8 8 24 32

Total # of neighbors = 8238187
Ave neighs/atom = 28.530419
Neighbor list builds = 0
Dangerous builds = 0
The dot product: -9.26391004287898e-08
Setting atom values ...
  1 settings made for x
  1 settings made for y
  1 settings made for z
Setting up cg style minimization ...
  Unit style    : metal
  Current step  : 6242
Per MPI rank memory allocation (min/avg/max) = 5.441 | 5.816 | 6.074 Mbytes
Step PotEng KinEng TotEng v_fx v_fy v_fz 
    6242   -1152449.3            0   -1152449.3 -0.039371055  0.031544176 -0.033867469 
    6428   -1152449.3            0   -1152449.3 -2.4603573e-06 -4.2856589e-07 -1.7934664e-06 
Loop time of 2.23754 on 104 procs for 186 steps with 288751 atoms

99.9% CPU use with 104 MPI tasks x 1 OpenMP threads

Minimization stats:
  Stopping criterion = energy tolerance
  Energy initial, next-to-last, final = 
     -1152449.32396854  -1152449.32509518  -1152449.32509518
  Force two-norm initial, final = 0.15213632 9.9366692e-05
  Force max component initial, final = 0.059934698 9.2309128e-06
  Final line search alpha, max atom move = 1.0000000 9.2309128e-06
  Iterations, force evaluations = 186 372

MPI task timing breakdown:
Section |  min time  |  avg time  |  max time  |%varavg| %total
---------------------------------------------------------------
Pair    | 0.56457    | 1.572      | 2.0774     |  34.0 | 70.26
Neigh   | 0          | 0          | 0          |   0.0 |  0.00
Comm    | 0.034998   | 0.36547    | 1.0643     |  48.1 | 16.33
Output  | 0          | 0          | 0          |   0.0 |  0.00
Modify  | 2.1975e-05 | 0.0030717  | 0.0065492  |   2.6 |  0.14
Other   |            | 0.297      |            |       | 13.27

Nlocal:        2776.45 ave        3959 max           0 min
Histogram: 8 4 4 0 4 12 8 4 26 34
Nghost:        3879.20 ave        5425 max         232 min
Histogram: 8 0 8 0 16 0 8 8 16 40
Neighs:        79213.3 ave      115349 max           0 min
Histogram: 8 4 4 0 10 6 8 8 24 32

Total # of neighbors = 8238188
Ave neighs/atom = 28.530422
Neighbor list builds = 0
Dangerous builds = 0
The dot product: 7.39703813367512e-09
Setting atom values ...
  1 settings made for x
  1 settings made for y
  1 settings made for z
Setting up cg style minimization ...
  Unit style    : metal
  Current step  : 6428
Per MPI rank memory allocation (min/avg/max) = 5.441 | 5.816 | 6.074 Mbytes
Step PotEng KinEng TotEng v_fx v_fy v_fz 
    6428   -1152449.3            0   -1152449.3 -0.038438492   0.03067155 -0.033452579 
    6617   -1152449.3            0   -1152449.3 -2.8486481e-05 -8.2918847e-06 -2.0460058e-05 
Loop time of 2.27821 on 104 procs for 189 steps with 288751 atoms

99.9% CPU use with 104 MPI tasks x 1 OpenMP threads

Minimization stats:
  Stopping criterion = energy tolerance
  Energy initial, next-to-last, final = 
     -1152449.31599715  -1152449.31710171  -1152449.31710171
  Force two-norm initial, final = 0.15046417 0.00010841033
  Force max component initial, final = 0.057996912 2.8486481e-05
  Final line search alpha, max atom move = 1.0000000 2.8486481e-05
  Iterations, force evaluations = 189 378

MPI task timing breakdown:
Section |  min time  |  avg time  |  max time  |%varavg| %total
---------------------------------------------------------------
Pair    | 0.56361    | 1.5876     | 2.1215     |  34.4 | 69.69
Neigh   | 0          | 0          | 0          |   0.0 |  0.00
Comm    | 0.033004   | 0.37228    | 1.0792     |  48.2 | 16.34
Output  | 0          | 0          | 0          |   0.0 |  0.00
Modify  | 2.2468e-05 | 0.003121   | 0.0066614  |   2.6 |  0.14
Other   |            | 0.3152     |            |       | 13.83

Nlocal:        2776.45 ave        3959 max           0 min
Histogram: 8 4 4 0 4 12 8 4 26 34
Nghost:        3879.20 ave        5424 max         232 min
Histogram: 8 0 8 0 16 0 8 8 16 40
Neighs:        79213.4 ave      115342 max           0 min
Histogram: 8 4 4 0 10 6 8 8 24 32

Total # of neighbors = 8238189
Ave neighs/atom = 28.530426
Neighbor list builds = 0
Dangerous builds = 0
The dot product: 7.58641004146415e-08
Setting atom values ...
  1 settings made for x
  1 settings made for y
  1 settings made for z
Setting up cg style minimization ...
  Unit style    : metal
  Current step  : 6617
Per MPI rank memory allocation (min/avg/max) = 5.441 | 5.816 | 6.074 Mbytes
Step PotEng KinEng TotEng v_fx v_fy v_fz 
    6617   -1152449.3            0   -1152449.3 -0.037778147  0.029597288 -0.033173312 
    6814   -1152449.3            0   -1152449.3 3.975586e-06 1.4517558e-05 9.4714356e-07 
Loop time of 2.35907 on 104 procs for 197 steps with 288751 atoms

99.9% CPU use with 104 MPI tasks x 1 OpenMP threads

Minimization stats:
  Stopping criterion = energy tolerance
  Energy initial, next-to-last, final = 
     -1152449.30650162  -1152449.30759071  -1152449.30759071
  Force two-norm initial, final = 0.14909969 8.7313640e-05
  Force max component initial, final = 0.056030626 1.7128088e-05
  Final line search alpha, max atom move = 1.0000000 1.7128088e-05
  Iterations, force evaluations = 197 394

MPI task timing breakdown:
Section |  min time  |  avg time  |  max time  |%varavg| %total
---------------------------------------------------------------
Pair    | 0.58916    | 1.6591     | 2.2169     |  35.1 | 70.33
Neigh   | 0          | 0          | 0          |   0.0 |  0.00
Comm    | 0.038044   | 0.38499    | 1.1137     |  49.6 | 16.32
Output  | 0          | 0          | 0          |   0.0 |  0.00
Modify  | 2.3385e-05 | 0.0032493  | 0.0069293  |   2.7 |  0.14
Other   |            | 0.3117     |            |       | 13.21

Nlocal:        2776.45 ave        3959 max           0 min
Histogram: 8 4 4 0 4 12 8 4 26 34
Nghost:        3879.18 ave        5424 max         232 min
Histogram: 8 0 8 0 16 0 8 8 16 40
Neighs:        79213.4 ave      115349 max           0 min
Histogram: 8 4 4 0 10 6 8 8 24 32

Total # of neighbors = 8238189
Ave neighs/atom = 28.530426
Neighbor list builds = 0
Dangerous builds = 0
The dot product: 2.17753842300963e-08
Setting atom values ...
  1 settings made for x
  1 settings made for y
  1 settings made for z
Setting up cg style minimization ...
  Unit style    : metal
  Current step  : 6814
Per MPI rank memory allocation (min/avg/max) = 5.441 | 5.816 | 6.074 Mbytes
Step PotEng KinEng TotEng v_fx v_fy v_fz 
    6814   -1152449.3            0   -1152449.3 -0.037245783  0.028149813 -0.032900837 
    7000   -1152449.3            0   -1152449.3 1.245526e-05 1.0937631e-05 7.9786844e-06 
    7008   -1152449.3            0   -1152449.3 -1.0884882e-05 1.809239e-05 -1.1080863e-05 
Loop time of 2.29403 on 104 procs for 194 steps with 288751 atoms

99.9% CPU use with 104 MPI tasks x 1 OpenMP threads

Minimization stats:
  Stopping criterion = energy tolerance
  Energy initial, next-to-last, final = 
     -1152449.29546164  -1152449.29653754  -1152449.29653754
  Force two-norm initial, final = 0.14790808 9.7402218e-05
  Force max component initial, final = 0.05563736 1.8848478e-05
  Final line search alpha, max atom move = 1.0000000 1.8848478e-05
  Iterations, force evaluations = 194 388

MPI task timing breakdown:
Section |  min time  |  avg time  |  max time  |%varavg| %total
---------------------------------------------------------------
Pair    | 0.57986    | 1.6243     | 2.16       |  34.7 | 70.81
Neigh   | 0          | 0          | 0          |   0.0 |  0.00
Comm    | 0.03477    | 0.37482    | 1.0991     |  49.5 | 16.34
Output  | 0.000241   | 0.00025325 | 0.00040332 |   0.0 |  0.01
Modify  | 2.315e-05  | 0.0032005  | 0.0068559  |   2.7 |  0.14
Other   |            | 0.2914     |            |       | 12.70

Nlocal:        2776.45 ave        3959 max           0 min
Histogram: 8 4 4 0 4 12 8 4 26 34
Nghost:        3879.18 ave        5424 max         232 min
Histogram: 8 0 8 0 16 0 8 8 16 40
Neighs:        79213.4 ave      115349 max           0 min
Histogram: 8 4 4 0 10 6 8 8 24 32

Total # of neighbors = 8238189
Ave neighs/atom = 28.530426
Neighbor list builds = 0
Dangerous builds = 0
The dot product: 7.73342858787e-08
Setting atom values ...
  1 settings made for x
  1 settings made for y
  1 settings made for z
Setting up cg style minimization ...
  Unit style    : metal
  Current step  : 7008
Per MPI rank memory allocation (min/avg/max) = 5.441 | 5.816 | 6.074 Mbytes
Step PotEng KinEng TotEng v_fx v_fy v_fz 
    7008   -1152449.3            0   -1152449.3 -0.037005771   0.02633941 -0.032764173 
    7196   -1152449.3            0   -1152449.3 1.8852617e-05 2.2840737e-05 1.1162488e-05 
Loop time of 2.26307 on 104 procs for 188 steps with 288751 atoms

99.9% CPU use with 104 MPI tasks x 1 OpenMP threads

Minimization stats:
  Stopping criterion = energy tolerance
  Energy initial, next-to-last, final = 
     -1152449.28285366  -1152449.28391813  -1152449.28391813
  Force two-norm initial, final = 0.14697524 0.00012000531
  Force max component initial, final = 0.055586716 2.3641360e-05
  Final line search alpha, max atom move = 1.0000000 2.3641360e-05
  Iterations, force evaluations = 188 376

MPI task timing breakdown:
Section |  min time  |  avg time  |  max time  |%varavg| %total
---------------------------------------------------------------
Pair    | 0.55677    | 1.5838     | 2.1371     |  34.6 | 69.99
Neigh   | 0          | 0          | 0          |   0.0 |  0.00
Comm    | 0.038242   | 0.36966    | 1.0661     |  48.2 | 16.33
Output  | 0          | 0          | 0          |   0.0 |  0.00
Modify  | 2.236e-05  | 0.0030985  | 0.0066044  |   2.6 |  0.14
Other   |            | 0.3065     |            |       | 13.54

Nlocal:        2776.45 ave        3959 max           0 min
Histogram: 8 4 4 0 4 12 8 4 26 34
Nghost:        3879.16 ave        5424 max         232 min
Histogram: 8 0 8 0 16 0 8 8 16 40
Neighs:        79213.3 ave      115349 max           0 min
Histogram: 8 4 4 0 10 6 8 8 24 32

Total # of neighbors = 8238188
Ave neighs/atom = 28.530422
Neighbor list builds = 0
Dangerous builds = 0
The dot product: -1.52799719078617e-08
Setting atom values ...
  1 settings made for x
  1 settings made for y
  1 settings made for z
Setting up cg style minimization ...
  Unit style    : metal
  Current step  : 7196
Per MPI rank memory allocation (min/avg/max) = 5.441 | 5.816 | 6.074 Mbytes
Step PotEng KinEng TotEng v_fx v_fy v_fz 
    7196   -1152449.3            0   -1152449.3 -0.037061022   0.02427294 -0.032787114 
    7407   -1152449.3            0   -1152449.3 1.0894751e-05 1.052839e-05 6.8823766e-06 
Loop time of 2.50757 on 104 procs for 211 steps with 288751 atoms

99.9% CPU use with 104 MPI tasks x 1 OpenMP threads

Minimization stats:
  Stopping criterion = energy tolerance
  Energy initial, next-to-last, final = 
      -1152449.2686594  -1152449.26971324  -1152449.26971324
  Force two-norm initial, final = 0.14623491 5.1585464e-05
  Force max component initial, final = 0.055522829 1.0894751e-05
  Final line search alpha, max atom move = 1.0000000 1.0894751e-05
  Iterations, force evaluations = 211 422

MPI task timing breakdown:
Section |  min time  |  avg time  |  max time  |%varavg| %total
---------------------------------------------------------------
Pair    | 0.62889    | 1.7678     | 2.3636     |  36.2 | 70.50
Neigh   | 0          | 0          | 0          |   0.0 |  0.00
Comm    | 0.036311   | 0.40912    | 1.1958     |  51.5 | 16.32
Output  | 0          | 0          | 0          |   0.0 |  0.00
Modify  | 2.5063e-05 | 0.0034838  | 0.0074586  |   2.8 |  0.14
Other   |            | 0.3272     |            |       | 13.05

Nlocal:        2776.45 ave        3959 max           0 min
Histogram: 8 4 4 0 4 12 8 4 26 34
Nghost:        3879.12 ave        5424 max         232 min
Histogram: 8 0 8 0 16 0 8 8 16 40
Neighs:        79213.4 ave      115348 max           0 min
Histogram: 8 4 4 0 10 6 8 8 24 32

Total # of neighbors = 8238190
Ave neighs/atom = 28.530429
Neighbor list builds = 0
Dangerous builds = 0
The dot product: -1.67262357690845e-08
Setting atom values ...
  1 settings made for x
  1 settings made for y
  1 settings made for z
Setting up cg style minimization ...
  Unit style    : metal
  Current step  : 7407
Per MPI rank memory allocation (min/avg/max) = 5.441 | 5.816 | 6.074 Mbytes
Step PotEng KinEng TotEng v_fx v_fy v_fz 
    7407   -1152449.3            0   -1152449.3 -0.037520948  0.022111008 -0.033088188 
    7657   -1152449.3            0   -1152449.3 -7.9117382e-07 -3.156522e-07 -5.7325476e-07 
Loop time of 2.97375 on 104 procs for 250 steps with 288751 atoms

99.9% CPU use with 104 MPI tasks x 1 OpenMP threads

Minimization stats:
  Stopping criterion = energy tolerance
  Energy initial, next-to-last, final = 
     -1152449.25286661  -1152449.25390876  -1152449.25390876
  Force two-norm initial, final = 0.14578192 8.7222789e-06
  Force max component initial, final = 0.055489268 1.4136874e-06
  Final line search alpha, max atom move = 1.0000000 1.4136874e-06
  Iterations, force evaluations = 250 500

MPI task timing breakdown:
Section |  min time  |  avg time  |  max time  |%varavg| %total
---------------------------------------------------------------
Pair    | 0.74422    | 2.1082     | 2.8085     |  39.5 | 70.89
Neigh   | 0          | 0          | 0          |   0.0 |  0.00
Comm    | 0.044943   | 0.487      | 1.4243     |  56.3 | 16.38
Output  | 0          | 0          | 0          |   0.0 |  0.00
Modify  | 2.9402e-05 | 0.004123   | 0.0088484  |   3.0 |  0.14
Other   |            | 0.3744     |            |       | 12.59

Nlocal:        2776.45 ave        3959 max           0 min
Histogram: 8 4 4 0 4 12 8 4 26 34
Nghost:        3879.12 ave        5424 max         232 min
Histogram: 8 0 8 0 16 0 8 8 16 40
Neighs:        79213.4 ave      115348 max           0 min
Histogram: 8 4 4 0 10 6 8 8 24 32

Total # of neighbors = 8238189
Ave neighs/atom = 28.530426
Neighbor list builds = 0
Dangerous builds = 0
The dot product: 2.17329716540756e-09
Setting atom values ...
  1 settings made for x
  1 settings made for y
  1 settings made for z
Setting up cg style minimization ...
  Unit style    : metal
  Current step  : 7657
Per MPI rank memory allocation (min/avg/max) = 5.441 | 5.816 | 6.074 Mbytes
Step PotEng KinEng TotEng v_fx v_fy v_fz 
    7657   -1152449.2            0   -1152449.2  -0.03857453  0.020020519 -0.033857673 
    7877   -1152449.2            0   -1152449.2 5.5711441e-06 -3.2181848e-06 4.9428404e-06 
Loop time of 2.62764 on 104 procs for 220 steps with 288751 atoms

99.9% CPU use with 104 MPI tasks x 1 OpenMP threads

Minimization stats:
  Stopping criterion = energy tolerance
  Energy initial, next-to-last, final = 
     -1152449.23546663  -1152449.23649467  -1152449.23649467
  Force two-norm initial, final = 0.1456751 3.6998529e-05
  Force max component initial, final = 0.055455873 9.1604063e-06
  Final line search alpha, max atom move = 1.0000000 9.1604063e-06
  Iterations, force evaluations = 220 440

MPI task timing breakdown:
Section |  min time  |  avg time  |  max time  |%varavg| %total
---------------------------------------------------------------
Pair    | 0.6549     | 1.8443     | 2.4789     |  37.1 | 70.19
Neigh   | 0          | 0          | 0          |   0.0 |  0.00
Comm    | 0.039589   | 0.42912    | 1.2484     |  52.4 | 16.33
Output  | 0          | 0          | 0          |   0.0 |  0.00
Modify  | 2.5827e-05 | 0.0036219  | 0.0077401  |   2.8 |  0.14
Other   |            | 0.3506     |            |       | 13.34

Nlocal:        2776.45 ave        3959 max           0 min
Histogram: 8 4 4 0 4 12 8 4 26 34
Nghost:        3879.16 ave        5424 max         232 min
Histogram: 8 0 8 0 16 0 8 8 16 40
Neighs:        79213.3 ave      115365 max           0 min
Histogram: 8 4 4 0 10 6 8 8 24 32

Total # of neighbors = 8238188
Ave neighs/atom = 28.530422
Neighbor list builds = 0
Dangerous builds = 0
The dot product: -2.55906839466957e-08
Setting atom values ...
  1 settings made for x
  1 settings made for y
  1 settings made for z
Setting up cg style minimization ...
  Unit style    : metal
  Current step  : 7877
Per MPI rank memory allocation (min/avg/max) = 5.441 | 5.816 | 6.074 Mbytes
Step PotEng KinEng TotEng v_fx v_fy v_fz 
    7877   -1152449.2            0   -1152449.2 -0.040505309  0.018122143 -0.035362599 
    8000   -1152449.2            0   -1152449.2 0.00022217013 -2.7774626e-05 0.00018216937 
    8095   -1152449.2            0   -1152449.2 9.1809324e-06 -1.6951026e-06 7.6180678e-06 
Loop time of 2.62494 on 104 procs for 218 steps with 288751 atoms

99.9% CPU use with 104 MPI tasks x 1 OpenMP threads

Minimization stats:
  Stopping criterion = energy tolerance
  Energy initial, next-to-last, final = 
     -1152449.21646355  -1152449.21747644  -1152449.21747644
  Force two-norm initial, final = 0.14604549 4.6790713e-05
  Force max component initial, final = 0.055399046 1.2516298e-05
  Final line search alpha, max atom move = 1.0000000 1.2516298e-05
  Iterations, force evaluations = 218 436

MPI task timing breakdown:
Section |  min time  |  avg time  |  max time  |%varavg| %total
---------------------------------------------------------------
Pair    | 0.64192    | 1.8256     | 2.4759     |  37.1 | 69.55
Neigh   | 0          | 0          | 0          |   0.0 |  0.00
Comm    | 0.044399   | 0.42798    | 1.2272     |  51.4 | 16.30
Output  | 0.00015204 | 0.00015798 | 0.0002898  |   0.0 |  0.01
Modify  | 2.5911e-05 | 0.0035918  | 0.0076489  |   2.8 |  0.14
Other   |            | 0.3676     |            |       | 14.01

Nlocal:        2776.45 ave        3959 max           0 min
Histogram: 8 4 4 0 4 12 8 4 26 34
Nghost:        3879.18 ave        5424 max         232 min
Histogram: 8 0 8 0 16 0 8 8 16 40
Neighs:        79213.4 ave      115365 max           0 min
Histogram: 8 4 4 0 10 6 8 8 24 32

Total # of neighbors = 8238189
Ave neighs/atom = 28.530426
Neighbor list builds = 0
Dangerous builds = 0
The dot product: -3.96507099040455e-08
Setting atom values ...
  1 settings made for x
  1 settings made for y
  1 settings made for z
Setting up cg style minimization ...
  Unit style    : metal
  Current step  : 8095
Per MPI rank memory allocation (min/avg/max) = 5.441 | 5.816 | 6.074 Mbytes
Step PotEng KinEng TotEng v_fx v_fy v_fz 
    8095   -1152449.2            0   -1152449.2 -0.043701322  0.016628244 -0.037985064 
    8334   -1152449.2            0   -1152449.2 -5.2518531e-06 4.9193417e-07 -4.3130807e-06 
Loop time of 2.85139 on 104 procs for 239 steps with 288751 atoms

99.9% CPU use with 104 MPI tasks x 1 OpenMP threads

Minimization stats:
  Stopping criterion = energy tolerance
  Energy initial, next-to-last, final = 
     -1152449.19588838  -1152449.19688792  -1152449.19688792
  Force two-norm initial, final = 0.1472165 2.0110037e-05
  Force max component initial, final = 0.055304467 5.2518531e-06
  Final line search alpha, max atom move = 1.0000000 5.2518531e-06
  Iterations, force evaluations = 239 478

MPI task timing breakdown:
Section |  min time  |  avg time  |  max time  |%varavg| %total
---------------------------------------------------------------
Pair    | 0.71344    | 2.0094     | 2.6767     |  38.8 | 70.47
Neigh   | 0          | 0          | 0          |   0.0 |  0.00
Comm    | 0.041529   | 0.46811    | 1.3614     |  54.7 | 16.42
Output  | 0          | 0          | 0          |   0.0 |  0.00
Modify  | 2.8727e-05 | 0.0039519  | 0.008421   |   2.9 |  0.14
Other   |            | 0.3699     |            |       | 12.97

Nlocal:        2776.45 ave        3959 max           0 min
Histogram: 8 4 4 0 4 12 8 4 26 34
Nghost:        3879.17 ave        5424 max         232 min
Histogram: 8 0 8 0 16 0 8 8 16 40
Neighs:        79213.4 ave      115371 max           0 min
Histogram: 8 4 4 0 10 6 8 8 24 32

Total # of neighbors = 8238191
Ave neighs/atom = 28.530433
Neighbor list builds = 0
Dangerous builds = 0
The dot product: 2.62791967484756e-08
Setting atom values ...
  1 settings made for x
  1 settings made for y
  1 settings made for z
Setting up cg style minimization ...
  Unit style    : metal
  Current step  : 8334
Per MPI rank memory allocation (min/avg/max) = 5.441 | 5.816 | 6.074 Mbytes
Step PotEng KinEng TotEng v_fx v_fy v_fz 
    8334   -1152449.2            0   -1152449.2 -0.048793752  0.015945507 -0.042372694 
    8529   -1152449.2            0   -1152449.2 -6.4357945e-06 5.5578851e-06 -6.1751424e-06 
Loop time of 2.35907 on 104 procs for 195 steps with 288751 atoms

99.9% CPU use with 104 MPI tasks x 1 OpenMP threads

Minimization stats:
  Stopping criterion = energy tolerance
  Energy initial, next-to-last, final = 
     -1152449.17382055  -1152449.17482339  -1152449.17482339
  Force two-norm initial, final = 0.14989309 0.00010776649
  Force max component initial, final = 0.056313904 1.3364306e-05
  Final line search alpha, max atom move = 1.0000000 1.3364306e-05
  Iterations, force evaluations = 195 390

MPI task timing breakdown:
Section |  min time  |  avg time  |  max time  |%varavg| %total
---------------------------------------------------------------
Pair    | 0.5797     | 1.6453     | 2.2057     |  34.9 | 69.75
Neigh   | 0          | 0          | 0          |   0.0 |  0.00
Comm    | 0.041225   | 0.386      | 1.1193     |  49.4 | 16.36
Output  | 0          | 0          | 0          |   0.0 |  0.00
Modify  | 2.4282e-05 | 0.0032139  | 0.006845   |   2.7 |  0.14
Other   |            | 0.3245     |            |       | 13.76

Nlocal:        2776.45 ave        3959 max           0 min
Histogram: 8 4 4 0 4 12 8 4 26 34
Nghost:        3879.16 ave        5424 max         232 min
Histogram: 8 0 8 0 16 0 8 8 16 40
Neighs:        79213.4 ave      115372 max           0 min
Histogram: 8 4 4 0 10 6 8 8 24 32

Total # of neighbors = 8238194
Ave neighs/atom = 28.530443
Neighbor list builds = 0
Dangerous builds = 0
The dot product: 5.51419244861009e-08
Setting atom values ...
  1 settings made for x
  1 settings made for y
  1 settings made for z
Setting up cg style minimization ...
  Unit style    : metal
  Current step  : 8529
Per MPI rank memory allocation (min/avg/max) = 5.441 | 5.816 | 6.074 Mbytes
Step PotEng KinEng TotEng v_fx v_fy v_fz 
    8529   -1152449.2            0   -1152449.2 -0.058021463  0.016347236 -0.050579502 
[...]
    1992   -1152449.2            0   -1152449.2 0.00035689815 -0.0039988633  0.030788622 
    2000   -1152449.2            0   -1152449.2 3.0368604e-06 0.00038343026 0.0011280169 
    2400   -1152449.4            0   -1152449.4 8.6143503e-06 1.4885268e-05 5.5890602e-05 
Loop time of 4.82863 on 104 procs for 408 steps with 288751 atoms

99.9% CPU use with 104 MPI tasks x 1 OpenMP threads

Minimization stats:
  Stopping criterion = energy tolerance
  Energy initial, next-to-last, final = 
     -1152449.19990628  -1152449.44165448  -1152449.44165448
  Force two-norm initial, final = 0.031049276 0.00017781113
  Force max component initial, final = 0.030788622 5.5890602e-05
  Final line search alpha, max atom move = 1.0000000 5.5890602e-05
  Iterations, force evaluations = 408 816

MPI task timing breakdown:
Section |  min time  |  avg time  |  max time  |%varavg| %total
---------------------------------------------------------------
Pair    | 1.261      | 3.449      | 4.4799     |  49.7 | 71.43
Neigh   | 0.00010284 | 0.029337   | 0.042813   |   7.1 |  0.61
Comm    | 0.077226   | 0.78744    | 2.3246     |  72.5 | 16.31
Output  | 0.00017381 | 0.00018012 | 0.00026474 |   0.0 |  0.00
Modify  | 4.5022e-05 | 0.0044013  | 0.011351   |   4.1 |  0.09
Other   |            | 0.5583     |            |       | 11.56

Nlocal:        2776.45 ave        3959 max           0 min
Histogram: 8 4 4 0 4 12 8 2 28 34
Nghost:        3879.14 ave        5424 max         232 min
Histogram: 8 0 8 0 16 0 8 8 16 40
Neighs:        79213.3 ave      115330 max           0 min
Histogram: 8 4 4 0 10 6 8 8 24 32

Total # of neighbors = 8238182
Ave neighs/atom = 28.530402
Neighbor list builds = 10
Dangerous builds = 0
OMP_NUM_THREADS environment is not set. Defaulting to 1 thread. (../comm.cpp:94)
  using 1 OpenMP thread(s) per MPI task
Reading data file ...
  orthogonal box = (-122.39241 -121.13707 -37.090501) to (122.39241 121.13707 37.090501)
  13 by 4 by 2 MPI processor grid
  reading atoms ...
  288751 atoms
  read_data CPU = 0.344 seconds
199981 atoms in group inner
88770 atoms in group outer
1 atoms in group carbon
Neighbor list info ...
  update every 1 steps, delay 0 steps, check yes
  max neighbors/atom: 2000, page size: 100000
  master list distance cutoff = 5.6
  ghost atom cutoff = 5.6
  binsize = 2.8, bins = 88 87 27
  1 neighbor lists, perpetual/occasional/extra = 1 0 0
  (1) pair eam/alloy, perpetual
      attributes: half, newton on
      pair build: half/bin/atomonly/newton
      stencil: half/bin/3d/newton
      bin: standard
Setting up cg style minimization ...
  Unit style    : metal
  Current step  : 0
Per MPI rank memory allocation (min/avg/max) = 5.441 | 5.816 | 6.074 Mbytes
Step v_fx v_fy v_fz PotEng KinEng TotEng 
       0   -13.545925   -22.730074   -13.385529   -1152441.7            0   -1152441.7 
     239 -1.8472633e-05 -2.332015e-05 -2.8963772e-05     -1152449            0     -1152449 
Loop time of 2.82761 on 104 procs for 239 steps with 288751 atoms

99.9% CPU use with 104 MPI tasks x 1 OpenMP threads

Minimization stats:
  Stopping criterion = energy tolerance
  Energy initial, next-to-last, final = 
     -1152441.68387772  -1152448.97218771  -1152448.97218771
  Force two-norm initial, final = 48.111734 0.00013334594
  Force max component initial, final = 28.805396 3.7334270e-05
  Final line search alpha, max atom move = 1.0000000 3.7334270e-05
  Iterations, force evaluations = 239 475

MPI task timing breakdown:
Section |  min time  |  avg time  |  max time  |%varavg| %total
---------------------------------------------------------------
Pair    | 0.73712    | 2.0047     | 2.5883     |  37.6 | 70.90
Neigh   | 8.0779e-05 | 0.023549   | 0.034279   |   6.3 |  0.83
Comm    | 0.043968   | 0.46197    | 1.3934     |  55.4 | 16.34
Output  | 0          | 0          | 0          |   0.0 |  0.00
Modify  | 2.7224e-05 | 0.0025557  | 0.00654    |   3.2 |  0.09
Other   |            | 0.3349     |            |       | 11.84

Nlocal:        2776.45 ave        3953 max           0 min
Histogram: 8 4 4 0 4 12 8 0 30 34
Nghost:        3879.11 ave        5424 max         232 min
Histogram: 8 0 8 0 16 0 8 8 16 40
Neighs:        79213.6 ave      115167 max           0 min
Histogram: 8 4 4 0 10 6 8 8 24 32

Total # of neighbors = 8238216
Ave neighs/atom = 28.530519
Neighbor list builds = 8
Dangerous builds = 1
Setting atom values ...
  1 settings made for x
  1 settings made for y
  1 settings made for z
Setting up cg style minimization ...
  Unit style    : metal
  Current step  : 239
Per MPI rank memory allocation (min/avg/max) = 5.441 | 5.816 | 6.074 Mbytes
Step PotEng KinEng TotEng v_fx v_fy v_fz 
     239     -1152449            0     -1152449 -0.018529965 -0.0079148396 -0.0012463924 
     405     -1152449            0     -1152449 1.0429357e-05 1.0412529e-05 -6.1182592e-07 
Loop time of 1.94471 on 104 procs for 166 steps with 288751 atoms

99.9% CPU use with 104 MPI tasks x 1 OpenMP threads

Minimization stats:
  Stopping criterion = energy tolerance
  Energy initial, next-to-last, final = 
     -1152448.97196671  -1152448.97214926  -1152448.97214926
  Force two-norm initial, final = 0.059116518 9.8682968e-05
  Force max component initial, final = 0.021816501 1.9237133e-05
  Final line search alpha, max atom move = 1.0000000 1.9237133e-05
  Iterations, force evaluations = 166 332

MPI task timing breakdown:
Section |  min time  |  avg time  |  max time  |%varavg| %total
---------------------------------------------------------------
Pair    | 0.49588    | 1.4005     | 1.8333     |  32.2 | 72.01
Neigh   | 0          | 0          | 0          |   0.0 |  0.00
Comm    | 0.029638   | 0.32257    | 0.97527    |  46.8 | 16.59
Output  | 0          | 0          | 0          |   0.0 |  0.00
Modify  | 2.0007e-05 | 0.0027375  | 0.0058143  |   2.5 |  0.14
Other   |            | 0.2189     |            |       | 11.26

Nlocal:        2776.45 ave        3954 max           0 min
Histogram: 8 4 4 0 4 12 8 0 30 34
Nghost:        3879.22 ave        5423 max         232 min
Histogram: 8 0 8 0 16 0 8 8 16 40
Neighs:        79213.5 ave      115204 max           0 min
Histogram: 8 4 4 0 10 6 8 8 24 32

Total # of neighbors = 8238206
Ave neighs/atom = 28.530485
Neighbor list builds = 0
Dangerous builds = 0
Setting atom values ...
  1 settings made for x
  1 settings made for y
  1 settings made for z
Setting up cg style minimization ...
  Unit style    : metal
  Current step  : 405
Per MPI rank memory allocation (min/avg/max) = 5.441 | 5.816 | 6.074 Mbytes
Step PotEng KinEng TotEng v_fx v_fy v_fz 
     405     -1152449            0     -1152449 -0.054583023 -0.035309191 -0.0098685643 
     616     -1152449            0     -1152449 6.5834889e-06 6.4360221e-06 1.1347171e-06 
Loop time of 2.45245 on 104 procs for 211 steps with 288751 atoms

99.9% CPU use with 104 MPI tasks x 1 OpenMP threads

Minimization stats:
  Stopping criterion = energy tolerance
  Energy initial, next-to-last, final = 
     -1152448.96946401  -1152448.97151326  -1152448.97151326
  Force two-norm initial, final = 0.190042 6.4839816e-05
  Force max component initial, final = 0.078485579 1.7658695e-05
  Final line search alpha, max atom move = 1.0000000 1.7658695e-05
  Iterations, force evaluations = 211 422

MPI task timing breakdown:
Section |  min time  |  avg time  |  max time  |%varavg| %total
---------------------------------------------------------------
Pair    | 0.62839    | 1.7705     | 2.3088     |  36.2 | 72.19
Neigh   | 0          | 0          | 0          |   0.0 |  0.00
Comm    | 0.036963   | 0.40424    | 1.2101     |  52.8 | 16.48
Output  | 0          | 0          | 0          |   0.0 |  0.00
Modify  | 2.5205e-05 | 0.0034797  | 0.0074391  |   2.8 |  0.14
Other   |            | 0.2742     |            |       | 11.18

Nlocal:        2776.45 ave        3954 max           0 min
Histogram: 8 4 4 0 4 12 8 0 30 34
Nghost:        3879.22 ave        5423 max         232 min
Histogram: 8 0 8 0 16 0 8 8 16 40
Neighs:        79213.5 ave      115204 max           0 min
Histogram: 8 4 4 0 10 6 8 8 24 32

Total # of neighbors = 8238204
Ave neighs/atom = 28.530478
Neighbor list builds = 0
Dangerous builds = 0
The dot product: -3.18138150871823e-08
Setting atom values ...
  1 settings made for x
  1 settings made for y
  1 settings made for z
Setting up cg style minimization ...
  Unit style    : metal
  Current step  : 616
Per MPI rank memory allocation (min/avg/max) = 5.441 | 5.816 | 6.074 Mbytes
Step PotEng KinEng TotEng v_fx v_fy v_fz 
     616     -1152449            0     -1152449 -0.043081498 -0.044174835 -0.015884384 
     844     -1152449            0     -1152449 2.0350424e-05 2.5331551e-05 8.2210228e-06 
Loop time of 2.65793 on 104 procs for 228 steps with 288751 atoms

99.9% CPU use with 104 MPI tasks x 1 OpenMP threads

Minimization stats:
  Stopping criterion = energy tolerance
  Energy initial, next-to-last, final = 
     -1152448.96810305  -1152448.97053545  -1152448.97053545
  Force two-norm initial, final = 0.18341434 0.00018025665
  Force max component initial, final = 0.083919992 3.0016234e-05
  Final line search alpha, max atom move = 1.0000000 3.0016234e-05
  Iterations, force evaluations = 228 456

MPI task timing breakdown:
Section |  min time  |  avg time  |  max time  |%varavg| %total
---------------------------------------------------------------
Pair    | 0.67929    | 1.9197     | 2.4982     |  37.8 | 72.22
Neigh   | 0          | 0          | 0          |   0.0 |  0.00
Comm    | 0.038991   | 0.44239    | 1.342      |  55.1 | 16.64
Output  | 0          | 0          | 0          |   0.0 |  0.00
Modify  | 2.6418e-05 | 0.0037541  | 0.0079802  |   2.9 |  0.14
Other   |            | 0.2921     |            |       | 10.99

Nlocal:        2776.45 ave        3954 max           0 min
Histogram: 8 4 4 0 4 12 8 0 30 34
Nghost:        3879.21 ave        5423 max         232 min
Histogram: 8 0 8 0 16 0 8 8 16 40
Neighs:        79213.5 ave      115215 max           0 min
Histogram: 8 4 4 0 10 6 8 8 24 32

Total # of neighbors = 8238202
Ave neighs/atom = 28.530471
Neighbor list builds = 0
Dangerous builds = 0
The dot product: -1.18927503104149e-07
Setting atom values ...
  1 settings made for x
  1 settings made for y
  1 settings made for z
Setting up cg style minimization ...
  Unit style    : metal
  Current step  : 844
Per MPI rank memory allocation (min/avg/max) = 5.441 | 5.816 | 6.074 Mbytes
Step PotEng KinEng TotEng v_fx v_fy v_fz 
     844     -1152449            0     -1152449 -0.031941932 -0.037841425 -0.016480195 
    1000     -1152449            0     -1152449 6.4281705e-05 0.0001044876 4.2317005e-05 
    1075     -1152449            0     -1152449 -1.7103316e-05 -2.2620568e-05 -9.5860484e-06 
Loop time of 2.69825 on 104 procs for 231 steps with 288751 atoms

99.9% CPU use with 104 MPI tasks x 1 OpenMP threads

Minimization stats:
  Stopping criterion = energy tolerance
  Energy initial, next-to-last, final = 
     -1152448.96733233  -1152448.96961062  -1152448.96961062
  Force two-norm initial, final = 0.1796 0.00021421226
  Force max component initial, final = 0.087339129 4.2150867e-05
  Final line search alpha, max atom move = 1.0000000 4.2150867e-05
  Iterations, force evaluations = 231 462

MPI task timing breakdown:
Section |  min time  |  avg time  |  max time  |%varavg| %total
---------------------------------------------------------------
Pair    | 0.69028    | 1.9446     | 2.5209     |  37.8 | 72.07
Neigh   | 0          | 0          | 0          |   0.0 |  0.00
Comm    | 0.043232   | 0.44437    | 1.3296     |  55.1 | 16.47
Output  | 0.0001831  | 0.00019077 | 0.00038453 |   0.0 |  0.01
Modify  | 2.7751e-05 | 0.003815   | 0.0081851  |   2.9 |  0.14
Other   |            | 0.3053     |            |       | 11.31

Nlocal:        2776.45 ave        3952 max           0 min
Histogram: 8 4 4 0 4 12 8 0 30 34
Nghost:        3879.16 ave        5422 max         232 min
Histogram: 8 0 8 0 16 0 8 8 16 40
Neighs:        79213.5 ave      115146 max           0 min
Histogram: 8 4 4 0 10 6 8 8 24 32

Total # of neighbors = 8238207
Ave neighs/atom = 28.530488
Neighbor list builds = 0
Dangerous builds = 0
The dot product: -5.73959748808414e-08
Setting atom values ...
  1 settings made for x
  1 settings made for y
  1 settings made for z
Setting up cg style minimization ...
  Unit style    : metal
  Current step  : 1075
Per MPI rank memory allocation (min/avg/max) = 5.441 | 5.816 | 6.074 Mbytes
Step PotEng KinEng TotEng v_fx v_fy v_fz 
    1075     -1152449            0     -1152449 -0.028810559 -0.034968917 -0.013625886 
    1444   -1152449.2            0   -1152449.2 6.790059e-06 8.5584485e-06 3.3130441e-06 
Loop time of 4.36471 on 104 procs for 369 steps with 288751 atoms

99.9% CPU use with 104 MPI tasks x 1 OpenMP threads

Minimization stats:
  Stopping criterion = energy tolerance
  Energy initial, next-to-last, final = 
      -1152448.9659931  -1152449.19631914  -1152449.19631914
  Force two-norm initial, final = 0.18158194 6.6887290e-05
  Force max component initial, final = 0.08675432 1.8369040e-05
  Final line search alpha, max atom move = 1.0000000 1.8369040e-05
  Iterations, force evaluations = 369 738

MPI task timing breakdown:
Section |  min time  |  avg time  |  max time  |%varavg| %total
---------------------------------------------------------------
Pair    | 1.1228     | 3.1145     | 4.0623     |  47.8 | 71.36
Neigh   | 5.1989e-05 | 0.014668   | 0.021504   |   5.0 |  0.34
Comm    | 0.069875   | 0.72002    | 2.1264     |  69.4 | 16.50
Output  | 0          | 0          | 0          |   0.0 |  0.00
Modify  | 4.4021e-05 | 0.0060778  | 0.01307    |   3.7 |  0.14
Other   |            | 0.5095     |            |       | 11.67

Nlocal:        2776.45 ave        3947 max           0 min
Histogram: 8 4 4 0 4 12 8 0 28 36
Nghost:        3879.32 ave        5423 max         232 min
Histogram: 8 0 8 0 16 0 8 8 16 40
Neighs:        79214.5 ave      114978 max           0 min
Histogram: 8 4 4 0 10 6 8 8 24 32

Total # of neighbors = 8238304
Ave neighs/atom = 28.530824
Neighbor list builds = 5
Dangerous builds = 0
The dot product: 3.00461820854633e-07
Setting atom values ...
  1 settings made for x
  1 settings made for y
  1 settings made for z
Setting up cg style minimization ...
  Unit style    : metal
  Current step  : 1444
Per MPI rank memory allocation (min/avg/max) = 5.441 | 5.816 | 6.074 Mbytes
Step PotEng KinEng TotEng v_fx v_fy v_fz 
    1444   -1152449.2            0   -1152449.2  -0.04841825 -0.062227262 -4.035475e-06 
    1631   -1152449.2            0   -1152449.2 -3.6217021e-06 -1.3903342e-05 -7.2730985e-07 
Loop time of 2.17537 on 104 procs for 187 steps with 288751 atoms

99.9% CPU use with 104 MPI tasks x 1 OpenMP threads

Minimization stats:
  Stopping criterion = energy tolerance
  Energy initial, next-to-last, final = 
     -1152449.19598495  -1152449.19855011  -1152449.19855011
  Force two-norm initial, final = 0.20943274 0.00016982121
  Force max component initial, final = 0.081938478 3.8868769e-05
  Final line search alpha, max atom move = 1.0000000 3.8868769e-05
  Iterations, force evaluations = 187 374

MPI task timing breakdown:
Section |  min time  |  avg time  |  max time  |%varavg| %total
---------------------------------------------------------------
Pair    | 0.55577    | 1.5716     | 2.0436     |  34.1 | 72.24
Neigh   | 0          | 0          | 0          |   0.0 |  0.00
Comm    | 0.034094   | 0.35855    | 1.0773     |  49.6 | 16.48
Output  | 0          | 0          | 0          |   0.0 |  0.00
Modify  | 2.1956e-05 | 0.0030872  | 0.0066648  |   2.6 |  0.14
Other   |            | 0.2421     |            |       | 11.13

Nlocal:        2776.45 ave        3944 max           0 min
Histogram: 8 4 4 0 4 12 8 0 28 36
Nghost:        3879.14 ave        5422 max         232 min
Histogram: 8 0 8 0 16 0 8 8 16 40
Neighs:        79214.8 ave      114901 max           0 min
Histogram: 8 4 4 0 10 6 8 8 22 34

Total # of neighbors = 8238337
Ave neighs/atom = 28.530938
Neighbor list builds = 0
Dangerous builds = 0
The dot product: 1.11838296774306e-07
Setting atom values ...
  1 settings made for x
  1 settings made for y
  1 settings made for z
Setting up cg style minimization ...
  Unit style    : metal
  Current step  : 1631
Per MPI rank memory allocation (min/avg/max) = 5.441 | 5.816 | 6.074 Mbytes
Step PotEng KinEng TotEng v_fx v_fy v_fz 
    1631   -1152449.2            0   -1152449.2 -0.022531388 -0.028739702 -0.003386497 
    1928   -1152449.2            0   -1152449.2 1.8288329e-07 2.4803714e-07 2.9384739e-08 
Loop time of 3.48599 on 104 procs for 297 steps with 288751 atoms

99.9% CPU use with 104 MPI tasks x 1 OpenMP threads

Minimization stats:
  Stopping criterion = energy tolerance
  Energy initial, next-to-last, final = 
      -1152449.1975586  -1152449.19983172  -1152449.19983172
  Force two-norm initial, final = 0.19428136 1.6501225e-06
  Force max component initial, final = 0.085802629 4.6367389e-07
  Final line search alpha, max atom move = 1.0000000 4.6367389e-07
  Iterations, force evaluations = 297 594

MPI task timing breakdown:
Section |  min time  |  avg time  |  max time  |%varavg| %total
---------------------------------------------------------------
Pair    | 0.88919    | 2.4989     | 3.2825     |  43.1 | 71.68
Neigh   | 0          | 0          | 0          |   0.0 |  0.00
Comm    | 0.051047   | 0.57306    | 1.7085     |  62.5 | 16.44
Output  | 0          | 0          | 0          |   0.0 |  0.00
Modify  | 3.5864e-05 | 0.0048914  | 0.010457   |   3.3 |  0.14
Other   |            | 0.4091     |            |       | 11.74

Nlocal:        2776.45 ave        3945 max           0 min
Histogram: 8 4 4 0 4 12 8 0 28 36
Nghost:        3879.14 ave        5422 max         232 min
Histogram: 8 0 8 0 16 0 8 8 16 40
Neighs:        79214.7 ave      114936 max           0 min
Histogram: 8 4 4 0 10 6 8 8 22 34

Total # of neighbors = 8238327
Ave neighs/atom = 28.530904
Neighbor list builds = 0
Dangerous builds = 0
The dot product: -6.79638298207174e-12
Setting up cg style minimization ...
  Unit style    : metal
  Current step  : 1928
Per MPI rank memory allocation (min/avg/max) = 5.441 | 5.816 | 6.074 Mbytes
Step PotEng KinEng TotEng v_fx v_fy v_fz 
    1928   -1152449.2            0   -1152449.2 0.00049726787 -0.0046885591  0.036484605 
    2000   -1152449.2            0   -1152449.2 5.3302976e-05 5.0354472e-05 -0.0001806643 
    2329   -1152449.4            0   -1152449.4 7.5563589e-06 1.0340706e-05 5.5941115e-05 
Loop time of 4.71036 on 104 procs for 401 steps with 288751 atoms

99.9% CPU use with 104 MPI tasks x 1 OpenMP threads

Minimization stats:
  Stopping criterion = energy tolerance
  Energy initial, next-to-last, final = 
     -1152449.19983172  -1152449.44165447  -1152449.44165447
  Force two-norm initial, final = 0.036787991 0.00020538097
  Force max component initial, final = 0.036484605 5.5941115e-05
  Final line search alpha, max atom move = 1.0000000 5.5941115e-05
  Iterations, force evaluations = 401 802

MPI task timing breakdown:
Section |  min time  |  avg time  |  max time  |%varavg| %total
---------------------------------------------------------------
Pair    | 1.2346     | 3.3745     | 4.3967     |  49.1 | 71.64
Neigh   | 0.00010357 | 0.029339   | 0.043065   |   7.1 |  0.62
Comm    | 0.073386   | 0.77349    | 2.3094     |  72.2 | 16.42
Output  | 0.00015476 | 0.00016164 | 0.00035479 |   0.0 |  0.00
Modify  | 4.5623e-05 | 0.0043031  | 0.011066   |   4.1 |  0.09
Other   |            | 0.5286     |            |       | 11.22

Nlocal:        2776.45 ave        3958 max           0 min
Histogram: 8 4 4 0 4 12 8 2 28 34
Nghost:        3879.12 ave        5424 max         232 min
Histogram: 8 0 8 0 16 0 8 8 16 40
Neighs:        79213.3 ave      115280 max           0 min
Histogram: 8 4 4 0 10 6 8 8 24 32

Total # of neighbors = 8238182
Ave neighs/atom = 28.530402
Neighbor list builds = 10
Dangerous builds = 0
