LAMMPS (29 Oct 2020)
OMP_NUM_THREADS environment is not set. Defaulting to 1 thread. (../comm.cpp:94)
  using 1 OpenMP thread(s) per MPI task
OMP_NUM_THREADS environment is not set. Defaulting to 1 thread. (../comm.cpp:94)
  using 1 OpenMP thread(s) per MPI task
Reading data file ...
  orthogonal box = (-122.39241 -121.13707 -37.090501) to (122.39241 121.13707 37.090501)
  13 by 4 by 2 MPI processor grid
  reading atoms ...
  288751 atoms
  read_data CPU = 0.373 seconds
199981 atoms in group inner
88770 atoms in group outer
1 atoms in group carbon
Neighbor list info ...
  update every 1 steps, delay 0 steps, check yes
  max neighbors/atom: 2000, page size: 100000
  master list distance cutoff = 5.6
  ghost atom cutoff = 5.6
  binsize = 2.8, bins = 88 87 27
  1 neighbor lists, perpetual/occasional/extra = 1 0 0
  (1) pair eam/alloy, perpetual
      attributes: half, newton on
      pair build: half/bin/atomonly/newton
      stencil: half/bin/3d/newton
      bin: standard
Setting up cg style minimization ...
  Unit style    : metal
  Current step  : 0
Per MPI rank memory allocation (min/avg/max) = 5.441 | 5.816 | 6.074 Mbytes
Step v_fx v_fy v_fz PotEng KinEng TotEng 
       0    25.675614    14.499197    49.136815   -1152433.7            0   -1152433.7 
     206 3.9470967e-06 4.5202006e-07 -3.6476595e-06   -1152449.5            0   -1152449.5 
Loop time of 2.46364 on 104 procs for 206 steps with 288751 atoms

99.8% CPU use with 104 MPI tasks x 1 OpenMP threads

Minimization stats:
  Stopping criterion = energy tolerance
  Energy initial, next-to-last, final = 
     -1152433.72376748  -1152449.45035286  -1152449.45035286
  Force two-norm initial, final = 86.020324 3.1058136e-05
  Force max component initial, final = 56.309633 4.5228635e-06
  Final line search alpha, max atom move = 1.0000000 4.5228635e-06
  Iterations, force evaluations = 206 404

MPI task timing breakdown:
Section |  min time  |  avg time  |  max time  |%varavg| %total
---------------------------------------------------------------
Pair    | 0.63881    | 1.7125     | 2.2314     |  34.9 | 69.51
Neigh   | 5.1356e-05 | 0.014635   | 0.021214   |   5.0 |  0.59
Comm    | 0.046984   | 0.39727    | 1.149      |  49.7 | 16.13
Output  | 0          | 0          | 0          |   0.0 |  0.00
Modify  | 2.4358e-05 | 0.0021881  | 0.0055489  |   2.9 |  0.09
Other   |            | 0.3371     |            |       | 13.68

Nlocal:        2776.45 ave        3958 max           0 min
Histogram: 8 4 4 0 4 12 8 2 28 34
Nghost:        3879.01 ave        5424 max         232 min
Histogram: 8 0 8 0 16 0 8 8 16 40
Neighs:        79213.6 ave      115362 max           0 min
Histogram: 8 4 4 0 10 6 8 8 24 32

Total # of neighbors = 8238212
Ave neighs/atom = 28.530506
Neighbor list builds = 5
Dangerous builds = 0
Setting atom values ...
  1 settings made for x
  1 settings made for y
  1 settings made for z
Setting up cg style minimization ...
  Unit style    : metal
  Current step  : 206
Per MPI rank memory allocation (min/avg/max) = 5.441 | 5.816 | 6.074 Mbytes
Step PotEng KinEng TotEng v_fx v_fy v_fz 
     206   -1152449.4            0   -1152449.4  0.012431216 -0.016212526 -0.020767637 
     324   -1152449.5            0   -1152449.5 -2.4690362e-05 1.2036454e-05 -2.3131529e-05 
Loop time of 1.40436 on 104 procs for 118 steps with 288751 atoms

99.8% CPU use with 104 MPI tasks x 1 OpenMP threads

Minimization stats:
  Stopping criterion = energy tolerance
  Energy initial, next-to-last, final = 
     -1152449.44947023   -1152449.4500204   -1152449.4500204
  Force two-norm initial, final = 0.10821816 0.0001859924
  Force max component initial, final = 0.047629062 2.7960555e-05
  Final line search alpha, max atom move = 1.0000000 2.7960555e-05
  Iterations, force evaluations = 118 236

MPI task timing breakdown:
Section |  min time  |  avg time  |  max time  |%varavg| %total
---------------------------------------------------------------
Pair    | 0.3626     | 1.0014     | 1.307      |  27.0 | 71.30
Neigh   | 0          | 0          | 0          |   0.0 |  0.00
Comm    | 0.019979   | 0.23076    | 0.6854     |  38.8 | 16.43
Output  | 0          | 0          | 0          |   0.0 |  0.00
Modify  | 1.5458e-05 | 0.001954   | 0.0041569  |   2.1 |  0.14
Other   |            | 0.1703     |            |       | 12.13

Nlocal:        2776.45 ave        3961 max           0 min
Histogram: 8 4 4 0 6 10 8 2 28 34
Nghost:        3879.01 ave        5424 max         232 min
Histogram: 8 0 8 0 16 0 8 8 16 40
Neighs:        79213.4 ave      115455 max           0 min
Histogram: 8 4 4 0 10 6 8 8 24 32

Total # of neighbors = 8238197
Ave neighs/atom = 28.530454
Neighbor list builds = 0
Dangerous builds = 0
Setting atom values ...
  1 settings made for x
  1 settings made for y
  1 settings made for z
Setting up cg style minimization ...
  Unit style    : metal
  Current step  : 324
Per MPI rank memory allocation (min/avg/max) = 5.441 | 5.816 | 6.074 Mbytes
Step PotEng KinEng TotEng v_fx v_fy v_fz 
     324   -1152449.4            0   -1152449.4   0.02164151 -0.023242095 -0.033928541 
     465   -1152449.4            0   -1152449.4 -9.7984562e-07 7.1881872e-06 3.1945882e-05 
Loop time of 1.68212 on 104 procs for 141 steps with 288751 atoms

99.8% CPU use with 104 MPI tasks x 1 OpenMP threads

Minimization stats:
  Stopping criterion = energy tolerance
  Energy initial, next-to-last, final = 
     -1152449.44665781  -1152449.44808491  -1152449.44808491
  Force two-norm initial, final = 0.17472625 0.0001463118
  Force max component initial, final = 0.079527808 3.1945882e-05
  Final line search alpha, max atom move = 1.0000000 3.1945882e-05
  Iterations, force evaluations = 141 282

MPI task timing breakdown:
Section |  min time  |  avg time  |  max time  |%varavg| %total
---------------------------------------------------------------
Pair    | 0.42778    | 1.189      | 1.5505     |  29.6 | 70.68
Neigh   | 0          | 0          | 0          |   0.0 |  0.00
Comm    | 0.026339   | 0.27304    | 0.80334    |  42.2 | 16.23
Output  | 0          | 0          | 0          |   0.0 |  0.00
Modify  | 1.7415e-05 | 0.0023352  | 0.0049567  |   2.3 |  0.14
Other   |            | 0.2177     |            |       | 12.94

Nlocal:        2776.45 ave        3961 max           0 min
Histogram: 8 4 4 0 6 10 8 2 28 34
Nghost:        3879.01 ave        5424 max         232 min
Histogram: 8 0 8 0 16 0 8 8 16 40
Neighs:        79213.5 ave      115455 max           0 min
Histogram: 8 4 4 0 10 6 8 8 24 32

Total # of neighbors = 8238199
Ave neighs/atom = 28.530461
Neighbor list builds = 0
Dangerous builds = 0
The dot product: -8.03249966686496e-08
Setting atom values ...
  1 settings made for x
  1 settings made for y
  1 settings made for z
Setting up cg style minimization ...
  Unit style    : metal
  Current step  : 465
Per MPI rank memory allocation (min/avg/max) = 5.441 | 5.816 | 6.074 Mbytes
Step PotEng KinEng TotEng v_fx v_fy v_fz 
     465   -1152449.4            0   -1152449.4    0.0210214 -0.019039937 -0.031906345 
     590   -1152449.4            0   -1152449.4 6.2278447e-06 -2.5682606e-06 2.0019285e-05 
Loop time of 1.48599 on 104 procs for 125 steps with 288751 atoms

99.9% CPU use with 104 MPI tasks x 1 OpenMP threads

Minimization stats:
  Stopping criterion = energy tolerance
  Energy initial, next-to-last, final = 
     -1152449.44328002  -1152449.44466019  -1152449.44466019
  Force two-norm initial, final = 0.17149282 9.9003326e-05
  Force max component initial, final = 0.079139338 2.0363741e-05
  Final line search alpha, max atom move = 1.0000000 2.0363741e-05
  Iterations, force evaluations = 125 250

MPI task timing breakdown:
Section |  min time  |  avg time  |  max time  |%varavg| %total
---------------------------------------------------------------
Pair    | 0.37974    | 1.0602     | 1.3894     |  27.8 | 71.34
Neigh   | 0          | 0          | 0          |   0.0 |  0.00
Comm    | 0.02194    | 0.24384    | 0.72237    |  39.9 | 16.41
Output  | 0          | 0          | 0          |   0.0 |  0.00
Modify  | 1.5573e-05 | 0.0020674  | 0.0044255  |   2.1 |  0.14
Other   |            | 0.1799     |            |       | 12.11

Nlocal:        2776.45 ave        3961 max           0 min
Histogram: 8 4 4 0 6 10 8 2 28 34
Nghost:        3879.01 ave        5424 max         232 min
Histogram: 8 0 8 0 16 0 8 8 16 40
Neighs:        79213.5 ave      115455 max           0 min
Histogram: 8 4 4 0 10 6 8 8 24 32

Total # of neighbors = 8238199
Ave neighs/atom = 28.530461
Neighbor list builds = 0
Dangerous builds = 0
The dot product: -7.08811223858884e-08
Setting atom values ...
  1 settings made for x
  1 settings made for y
  1 settings made for z
Setting up cg style minimization ...
  Unit style    : metal
  Current step  : 590
Per MPI rank memory allocation (min/avg/max) = 5.441 | 5.816 | 6.074 Mbytes
Step PotEng KinEng TotEng v_fx v_fy v_fz 
     590   -1152449.4            0   -1152449.4  0.019614359 -0.015596446 -0.026193782 
     753   -1152449.4            0   -1152449.4 -8.2261605e-06 6.3270781e-06 2.0556295e-06 
Loop time of 1.91861 on 104 procs for 163 steps with 288751 atoms

99.9% CPU use with 104 MPI tasks x 1 OpenMP threads

Minimization stats:
  Stopping criterion = energy tolerance
  Energy initial, next-to-last, final = 
     -1152449.43854587  -1152449.43990957  -1152449.43990957
  Force two-norm initial, final = 0.16884824 0.00014000418
  Force max component initial, final = 0.077232741 1.5034513e-05
  Final line search alpha, max atom move = 1.0000000 1.5034513e-05
  Iterations, force evaluations = 163 326

MPI task timing breakdown:
Section |  min time  |  avg time  |  max time  |%varavg| %total
---------------------------------------------------------------
Pair    | 0.49783    | 1.3724     | 1.7836     |  31.6 | 71.53
Neigh   | 0          | 0          | 0          |   0.0 |  0.00
Comm    | 0.029228   | 0.31192    | 0.92695    |  45.8 | 16.26
Output  | 0          | 0          | 0          |   0.0 |  0.00
Modify  | 1.9917e-05 | 0.0027025  | 0.0057342  |   2.4 |  0.14
Other   |            | 0.2315     |            |       | 12.07

Nlocal:        2776.45 ave        3961 max           0 min
Histogram: 8 4 4 0 6 10 8 2 28 34
Nghost:        3879.01 ave        5424 max         232 min
Histogram: 8 0 8 0 16 0 8 8 16 40
Neighs:        79213.5 ave      115455 max           0 min
Histogram: 8 4 4 0 10 6 8 8 24 32

Total # of neighbors = 8238201
Ave neighs/atom = 28.530467
Neighbor list builds = 0
Dangerous builds = 0
The dot product: 7.19356616061716e-09
Setting atom values ...
  1 settings made for x
  1 settings made for y
  1 settings made for z
Setting up cg style minimization ...
  Unit style    : metal
  Current step  : 753
Per MPI rank memory allocation (min/avg/max) = 5.441 | 5.816 | 6.074 Mbytes
Step PotEng KinEng TotEng v_fx v_fy v_fz 
     753   -1152449.4            0   -1152449.4  0.017870218 -0.013481654 -0.019480443 
     880   -1152449.4            0   -1152449.4 1.4734265e-06 -7.2133065e-07 -1.2483429e-05 
Loop time of 1.50719 on 104 procs for 127 steps with 288751 atoms

99.9% CPU use with 104 MPI tasks x 1 OpenMP threads

Minimization stats:
  Stopping criterion = energy tolerance
  Energy initial, next-to-last, final = 
     -1152449.43244143  -1152449.43379724  -1152449.43379724
  Force two-norm initial, final = 0.16729228 0.00021570047
  Force max component initial, final = 0.074583302 4.4739352e-05
  Final line search alpha, max atom move = 1.0000000 4.4739352e-05
  Iterations, force evaluations = 127 254

MPI task timing breakdown:
Section |  min time  |  avg time  |  max time  |%varavg| %total
---------------------------------------------------------------
Pair    | 0.38611    | 1.0763     | 1.4047     |  28.0 | 71.41
Neigh   | 0          | 0          | 0          |   0.0 |  0.00
Comm    | 0.021554   | 0.24559    | 0.72481    |  40.2 | 16.29
Output  | 0          | 0          | 0          |   0.0 |  0.00
Modify  | 1.5651e-05 | 0.0021073  | 0.0044814  |   2.2 |  0.14
Other   |            | 0.1832     |            |       | 12.15

Nlocal:        2776.45 ave        3961 max           0 min
Histogram: 8 4 4 0 6 10 8 2 28 34
Nghost:        3879.01 ave        5424 max         232 min
Histogram: 8 0 8 0 16 0 8 8 16 40
Neighs:        79213.5 ave      115455 max           0 min
Histogram: 8 4 4 0 10 6 8 8 24 32

Total # of neighbors = 8238202
Ave neighs/atom = 28.530471
Neighbor list builds = 0
Dangerous builds = 0
The dot product: 3.42310870501603e-08
Setting atom values ...
  1 settings made for x
  1 settings made for y
  1 settings made for z
Setting up cg style minimization ...
  Unit style    : metal
  Current step  : 880
Per MPI rank memory allocation (min/avg/max) = 5.441 | 5.816 | 6.074 Mbytes
Step PotEng KinEng TotEng v_fx v_fy v_fz 
     880   -1152449.4            0   -1152449.4  0.016166349  -0.01237748  -0.01339492 
    1000   -1152449.4            0   -1152449.4 3.3025325e-05 -2.1208409e-05 -7.9015469e-05 
    1063   -1152449.4            0   -1152449.4 -3.0586625e-06 3.4037451e-06 -1.091989e-05 
Loop time of 2.16753 on 104 procs for 183 steps with 288751 atoms

99.8% CPU use with 104 MPI tasks x 1 OpenMP threads

Minimization stats:
  Stopping criterion = energy tolerance
  Energy initial, next-to-last, final = 
     -1152449.42492646  -1152449.42628337  -1152449.42628337
  Force two-norm initial, final = 0.16676481 9.7420819e-05
  Force max component initial, final = 0.074436437 2.2194578e-05
  Final line search alpha, max atom move = 1.0000000 2.2194578e-05
  Iterations, force evaluations = 183 366

MPI task timing breakdown:
Section |  min time  |  avg time  |  max time  |%varavg| %total
---------------------------------------------------------------
Pair    | 0.55547    | 1.5418     | 2.0129     |  33.6 | 71.13
Neigh   | 0          | 0          | 0          |   0.0 |  0.00
Comm    | 0.035974   | 0.35134    | 1.0357     |  48.2 | 16.21
Output  | 0.00030239 | 0.00031137 | 0.00043166 |   0.0 |  0.01
Modify  | 2.2034e-05 | 0.0030262  | 0.0064285  |   2.6 |  0.14
Other   |            | 0.2711     |            |       | 12.51

Nlocal:        2776.45 ave        3961 max           0 min
Histogram: 8 4 4 0 6 10 8 2 28 34
Nghost:        3879.01 ave        5424 max         232 min
Histogram: 8 0 8 0 16 0 8 8 16 40
Neighs:        79213.5 ave      115455 max           0 min
Histogram: 8 4 4 0 10 6 8 8 24 32

Total # of neighbors = 8238201
Ave neighs/atom = 28.530467
Neighbor list builds = 0
Dangerous builds = 0
The dot product: 3.99291744205527e-08
Setting atom values ...
  1 settings made for x
  1 settings made for y
  1 settings made for z
Setting up cg style minimization ...
  Unit style    : metal
  Current step  : 1063
Per MPI rank memory allocation (min/avg/max) = 5.441 | 5.816 | 6.074 Mbytes
Step PotEng KinEng TotEng v_fx v_fy v_fz 
    1063   -1152449.4            0   -1152449.4  0.014772811 -0.011910412 -0.0086999066 
    1180   -1152449.4            0   -1152449.4 5.8127002e-06 4.0838261e-06 -8.2548215e-05 
Loop time of 1.37615 on 104 procs for 117 steps with 288751 atoms

99.9% CPU use with 104 MPI tasks x 1 OpenMP threads

Minimization stats:
  Stopping criterion = energy tolerance
  Energy initial, next-to-last, final = 
     -1152449.41597254  -1152449.41733622  -1152449.41733622
  Force two-norm initial, final = 0.16681137 0.00026226822
  Force max component initial, final = 0.074755638 8.2548215e-05
  Final line search alpha, max atom move = 1.0000000 8.2548215e-05
  Iterations, force evaluations = 117 234

MPI task timing breakdown:
Section |  min time  |  avg time  |  max time  |%varavg| %total
---------------------------------------------------------------
Pair    | 0.35521    | 0.98842    | 1.2912     |  26.8 | 71.83
Neigh   | 0          | 0          | 0          |   0.0 |  0.00
Comm    | 0.020296   | 0.22467    | 0.67023    |  39.0 | 16.33
Output  | 0          | 0          | 0          |   0.0 |  0.00
Modify  | 1.4425e-05 | 0.0019396  | 0.0041284  |   2.1 |  0.14
Other   |            | 0.1611     |            |       | 11.71

Nlocal:        2776.45 ave        3960 max           0 min
Histogram: 8 4 4 0 4 12 8 2 28 34
Nghost:        3879.01 ave        5424 max         232 min
Histogram: 8 0 8 0 16 0 8 8 16 40
Neighs:        79213.5 ave      115424 max           0 min
Histogram: 8 4 4 0 10 6 8 8 24 32

Total # of neighbors = 8238203
Ave neighs/atom = 28.530474
Neighbor list builds = 0
Dangerous builds = 0
The dot product: 1.68107097549531e-07
Setting atom values ...
  1 settings made for x
  1 settings made for y
  1 settings made for z
Setting up cg style minimization ...
  Unit style    : metal
  Current step  : 1180
Per MPI rank memory allocation (min/avg/max) = 5.441 | 5.816 | 6.074 Mbytes
Step PotEng KinEng TotEng v_fx v_fy v_fz 
    1180   -1152449.4            0   -1152449.4  0.013928398  -0.01202381 -0.0050445083 
    1371   -1152449.4            0   -1152449.4 2.3752027e-06 -2.2915128e-06 9.3122702e-07 
Loop time of 2.22999 on 104 procs for 191 steps with 288751 atoms

99.9% CPU use with 104 MPI tasks x 1 OpenMP threads

Minimization stats:
  Stopping criterion = energy tolerance
  Energy initial, next-to-last, final = 
     -1152449.40555885  -1152449.40693081  -1152449.40693081
  Force two-norm initial, final = 0.16711533 6.2791254e-05
  Force max component initial, final = 0.0746565 7.8397827e-06
  Final line search alpha, max atom move = 1.0000000 7.8397827e-06
  Iterations, force evaluations = 191 382

MPI task timing breakdown:
Section |  min time  |  avg time  |  max time  |%varavg| %total
---------------------------------------------------------------
Pair    | 0.58029    | 1.6053     | 2.0824     |  34.2 | 71.98
Neigh   | 0          | 0          | 0          |   0.0 |  0.00
Comm    | 0.034435   | 0.36258    | 1.0848     |  50.2 | 16.26
Output  | 0          | 0          | 0          |   0.0 |  0.00
Modify  | 2.3044e-05 | 0.003157   | 0.0067195  |   2.6 |  0.14
Other   |            | 0.259      |            |       | 11.61

Nlocal:        2776.45 ave        3956 max           0 min
Histogram: 8 4 4 0 4 12 8 2 28 34
Nghost:        3879.01 ave        5424 max         232 min
Histogram: 8 0 8 0 16 0 8 8 16 40
Neighs:        79213.5 ave      115299 max           0 min
Histogram: 8 4 4 0 10 6 8 8 24 32

Total # of neighbors = 8238201
Ave neighs/atom = 28.530467
Neighbor list builds = 0
Dangerous builds = 0
The dot product: -1.17436452146446e-08
Setting atom values ...
  1 settings made for x
  1 settings made for y
  1 settings made for z
Setting up cg style minimization ...
  Unit style    : metal
  Current step  : 1371
Per MPI rank memory allocation (min/avg/max) = 5.441 | 5.816 | 6.074 Mbytes
Step PotEng KinEng TotEng v_fx v_fy v_fz 
    1371   -1152449.4            0   -1152449.4   0.01387766 -0.012787773 -0.0025274765 
    1524   -1152449.4            0   -1152449.4 -1.6727028e-05 1.7262332e-05 -8.9840949e-06 
Loop time of 1.83061 on 104 procs for 153 steps with 288751 atoms

99.9% CPU use with 104 MPI tasks x 1 OpenMP threads

Minimization stats:
  Stopping criterion = energy tolerance
  Energy initial, next-to-last, final = 
     -1152449.39366492  -1152449.39504343  -1152449.39504343
  Force two-norm initial, final = 0.16756465 0.00017791678
  Force max component initial, final = 0.074518157 3.8691302e-05
  Final line search alpha, max atom move = 1.0000000 3.8691302e-05
  Iterations, force evaluations = 153 306

MPI task timing breakdown:
Section |  min time  |  avg time  |  max time  |%varavg| %total
---------------------------------------------------------------
Pair    | 0.46982    | 1.2993     | 1.7045     |  30.7 | 70.98
Neigh   | 0          | 0          | 0          |   0.0 |  0.00
Comm    | 0.026028   | 0.3004     | 0.88836    |  43.5 | 16.41
Output  | 0          | 0          | 0          |   0.0 |  0.00
Modify  | 1.8773e-05 | 0.0025333  | 0.0054734  |   2.4 |  0.14
Other   |            | 0.2284     |            |       | 12.48

Nlocal:        2776.45 ave        3954 max           0 min
Histogram: 8 4 4 0 4 12 8 2 28 34
Nghost:        3879.01 ave        5424 max         232 min
Histogram: 8 0 8 0 16 0 8 8 16 40
Neighs:        79213.5 ave      115233 max           0 min
Histogram: 8 4 4 0 10 6 8 8 24 32

Total # of neighbors = 8238202
Ave neighs/atom = 28.530471
Neighbor list builds = 0
Dangerous builds = 0
The dot product: 8.30678601409453e-08
Setting atom values ...
  1 settings made for x
  1 settings made for y
  1 settings made for z
Setting up cg style minimization ...
  Unit style    : metal
  Current step  : 1524
Per MPI rank memory allocation (min/avg/max) = 5.441 | 5.816 | 6.074 Mbytes
Step PotEng KinEng TotEng v_fx v_fy v_fz 
    1524   -1152449.4            0   -1152449.4  0.014519676 -0.014140548 -0.00066867981 
    1675   -1152449.4            0   -1152449.4 1.8946409e-05 -4.9654683e-06 -8.0544127e-05 
Loop time of 1.77055 on 104 procs for 151 steps with 288751 atoms

99.9% CPU use with 104 MPI tasks x 1 OpenMP threads

Minimization stats:
  Stopping criterion = energy tolerance
  Energy initial, next-to-last, final = 
     -1152449.38027143  -1152449.38165486  -1152449.38165486
  Force two-norm initial, final = 0.16796131 0.00023158933
  Force max component initial, final = 0.074343227 8.0544127e-05
  Final line search alpha, max atom move = 1.0000000 8.0544127e-05
  Iterations, force evaluations = 151 302

MPI task timing breakdown:
Section |  min time  |  avg time  |  max time  |%varavg| %total
---------------------------------------------------------------
Pair    | 0.45725    | 1.2737     | 1.654      |  30.6 | 71.94
Neigh   | 0          | 0          | 0          |   0.0 |  0.00
Comm    | 0.02694    | 0.28975    | 0.86559    |  44.6 | 16.36
Output  | 0          | 0          | 0          |   0.0 |  0.00
Modify  | 1.8243e-05 | 0.0024993  | 0.0053276  |   2.4 |  0.14
Other   |            | 0.2046     |            |       | 11.56

Nlocal:        2776.45 ave        3952 max           0 min
Histogram: 8 4 4 0 4 12 8 2 28 34
Nghost:        3879.01 ave        5424 max         232 min
Histogram: 8 0 8 0 16 0 8 8 16 40
Neighs:        79213.5 ave      115163 max           0 min
Histogram: 8 4 4 0 10 6 8 8 24 32

Total # of neighbors = 8238203
Ave neighs/atom = 28.530474
Neighbor list builds = 0
Dangerous builds = 0
The dot product: 8.07653451860369e-08
Setting atom values ...
  1 settings made for x
  1 settings made for y
  1 settings made for z
Setting up cg style minimization ...
  Unit style    : metal
  Current step  : 1675
Per MPI rank memory allocation (min/avg/max) = 5.441 | 5.816 | 6.074 Mbytes
Step PotEng KinEng TotEng v_fx v_fy v_fz 
    1675   -1152449.4            0   -1152449.4  0.015583999 -0.015764393 0.00031907687 
    1858   -1152449.4            0   -1152449.4 1.7315619e-05 -1.0808918e-05 -3.632195e-05 
Loop time of 2.17416 on 104 procs for 183 steps with 288751 atoms

99.9% CPU use with 104 MPI tasks x 1 OpenMP threads

Minimization stats:
  Stopping criterion = energy tolerance
  Energy initial, next-to-last, final = 
     -1152449.36536049   -1152449.3667486   -1152449.3667486
  Force two-norm initial, final = 0.16836519 0.00011393357
  Force max component initial, final = 0.074276478 3.6321950e-05
  Final line search alpha, max atom move = 1.0000000 3.6321950e-05
  Iterations, force evaluations = 183 366

MPI task timing breakdown:
Section |  min time  |  avg time  |  max time  |%varavg| %total
---------------------------------------------------------------
Pair    | 0.55339    | 1.5542     | 2.0311     |  33.8 | 71.49
Neigh   | 0          | 0          | 0          |   0.0 |  0.00
Comm    | 0.032603   | 0.35917    | 1.0586     |  47.9 | 16.52
Output  | 0          | 0          | 0          |   0.0 |  0.00
Modify  | 2.2156e-05 | 0.0030289  | 0.0064932  |   2.6 |  0.14
Other   |            | 0.2577     |            |       | 11.85

Nlocal:        2776.45 ave        3950 max           0 min
Histogram: 8 4 4 0 4 12 8 2 26 36
Nghost:        3879.01 ave        5424 max         232 min
Histogram: 8 0 8 0 16 0 8 8 16 40
Neighs:        79213.5 ave      115084 max           0 min
Histogram: 8 4 4 0 10 6 8 8 24 32

Total # of neighbors = 8238204
Ave neighs/atom = 28.530478
Neighbor list builds = 0
Dangerous builds = 0
The dot product: 1.57427838705843e-08
Setting atom values ...
  1 settings made for x
  1 settings made for y
  1 settings made for z
Setting up cg style minimization ...
  Unit style    : metal
  Current step  : 1858
Per MPI rank memory allocation (min/avg/max) = 5.441 | 5.816 | 6.074 Mbytes
Step PotEng KinEng TotEng v_fx v_fy v_fz 
    1858   -1152449.3            0   -1152449.3  0.016277317 -0.016851202 0.00051566829 
    2000   -1152449.4            0   -1152449.4 -1.3350554e-05 4.6429319e-07 6.7745911e-05 
    2036   -1152449.4            0   -1152449.4 -8.8949495e-06 -5.6181855e-07 4.9582505e-05 
Loop time of 2.08548 on 104 procs for 178 steps with 288751 atoms

99.9% CPU use with 104 MPI tasks x 1 OpenMP threads

Minimization stats:
  Stopping criterion = energy tolerance
  Energy initial, next-to-last, final = 
     -1152449.34890956  -1152449.35030222  -1152449.35030222
  Force two-norm initial, final = 0.1686306 0.00014733471
  Force max component initial, final = 0.074365801 4.9582505e-05
  Final line search alpha, max atom move = 1.0000000 4.9582505e-05
  Iterations, force evaluations = 178 356

MPI task timing breakdown:
Section |  min time  |  avg time  |  max time  |%varavg| %total
---------------------------------------------------------------
Pair    | 0.53966    | 1.4935     | 1.94       |  33.0 | 71.62
Neigh   | 0          | 0          | 0          |   0.0 |  0.00
Comm    | 0.031753   | 0.33865    | 1.0107     |  48.0 | 16.24
Output  | 0.00027755 | 0.00028134 | 0.00040881 |   0.0 |  0.01
Modify  | 2.132e-05  | 0.0029427  | 0.0062467  |   2.5 |  0.14
Other   |            | 0.2501     |            |       | 11.99

Nlocal:        2776.45 ave        3947 max           0 min
Histogram: 8 4 4 0 4 12 8 2 26 36
Nghost:        3879.01 ave        5424 max         232 min
Histogram: 8 0 8 0 16 0 8 8 16 40
Neighs:        79213.5 ave      114995 max           0 min
Histogram: 8 4 4 0 10 6 8 8 24 32

Total # of neighbors = 8238204
Ave neighs/atom = 28.530478
Neighbor list builds = 0
Dangerous builds = 0
The dot product: -8.40750932728799e-08
Setting atom values ...
  1 settings made for x
  1 settings made for y
  1 settings made for z
Setting up cg style minimization ...
  Unit style    : metal
  Current step  : 2036
Per MPI rank memory allocation (min/avg/max) = 5.441 | 5.816 | 6.074 Mbytes
Step PotEng KinEng TotEng v_fx v_fy v_fz 
    2036   -1152449.3            0   -1152449.3  0.016125439 -0.016873774 -0.00014098634 
    2253   -1152449.3            0   -1152449.3 8.5215635e-07 7.2928582e-07 -7.7246402e-06 
Loop time of 2.53603 on 104 procs for 217 steps with 288751 atoms

99.9% CPU use with 104 MPI tasks x 1 OpenMP threads

Minimization stats:
  Stopping criterion = energy tolerance
  Energy initial, next-to-last, final = 
     -1152449.33089103   -1152449.3323031   -1152449.3323031
  Force two-norm initial, final = 0.16873896 4.1942936e-05
  Force max component initial, final = 0.074492724 9.0090073e-06
  Final line search alpha, max atom move = 1.0000000 9.0090073e-06
  Iterations, force evaluations = 217 434

MPI task timing breakdown:
Section |  min time  |  avg time  |  max time  |%varavg| %total
---------------------------------------------------------------
Pair    | 0.65628    | 1.8306     | 2.3843     |  36.6 | 72.19
Neigh   | 0          | 0          | 0          |   0.0 |  0.00
Comm    | 0.037943   | 0.41369    | 1.2292     |  53.2 | 16.31
Output  | 0          | 0          | 0          |   0.0 |  0.00
Modify  | 2.5167e-05 | 0.0035911  | 0.0076498  |   2.8 |  0.14
Other   |            | 0.2881     |            |       | 11.36

Nlocal:        2776.45 ave        3943 max           0 min
Histogram: 8 4 4 0 4 12 8 2 26 36
Nghost:        3879.05 ave        5424 max         232 min
Histogram: 8 0 8 0 16 0 8 8 16 40
Neighs:        79213.5 ave      114879 max           0 min
Histogram: 8 4 4 0 10 6 8 8 22 34

Total # of neighbors = 8238202
Ave neighs/atom = 28.530471
Neighbor list builds = 0
Dangerous builds = 0
The dot product: 2.35092106065117e-08
Setting atom values ...
  1 settings made for x
  1 settings made for y
  1 settings made for z
Setting up cg style minimization ...
  Unit style    : metal
  Current step  : 2253
Per MPI rank memory allocation (min/avg/max) = 5.441 | 5.816 | 6.074 Mbytes
Step PotEng KinEng TotEng v_fx v_fy v_fz 
    2253   -1152449.3            0   -1152449.3  0.013830641 -0.013830214 -0.004359517 
    2465   -1152449.3            0   -1152449.3 -1.0627381e-06 -1.4349695e-06 1.1165338e-05 
Loop time of 2.45407 on 104 procs for 212 steps with 288751 atoms

99.9% CPU use with 104 MPI tasks x 1 OpenMP threads

Minimization stats:
  Stopping criterion = energy tolerance
  Energy initial, next-to-last, final = 
     -1152449.31130293  -1152449.31287199  -1152449.31287199
  Force two-norm initial, final = 0.16864079 6.3110486e-05
  Force max component initial, final = 0.074308225 1.5474616e-05
  Final line search alpha, max atom move = 1.0000000 1.5474616e-05
  Iterations, force evaluations = 212 424

MPI task timing breakdown:
Section |  min time  |  avg time  |  max time  |%varavg| %total
---------------------------------------------------------------
Pair    | 0.64523    | 1.7788     | 2.3069     |  35.9 | 72.48
Neigh   | 0          | 0          | 0          |   0.0 |  0.00
Comm    | 0.04019    | 0.39859    | 1.1983     |  52.9 | 16.24
Output  | 0          | 0          | 0          |   0.0 |  0.00
Modify  | 2.5668e-05 | 0.0034947  | 0.0074073  |   2.8 |  0.14
Other   |            | 0.2732     |            |       | 11.13

Nlocal:        2776.45 ave        3936 max           0 min
Histogram: 8 4 4 0 4 12 8 0 28 36
Nghost:        3879.05 ave        5424 max         232 min
Histogram: 8 0 8 0 16 0 8 8 16 40
Neighs:        79213.4 ave      114662 max           0 min
Histogram: 8 4 4 0 8 8 8 8 22 34

Total # of neighbors = 8238196
Ave neighs/atom = 28.530450
Neighbor list builds = 0
Dangerous builds = 0
The dot product: -1.01330449763773e-07
Setting atom values ...
  1 settings made for x
  1 settings made for y
  1 settings made for z
Setting up cg style minimization ...
  Unit style    : metal
  Current step  : 2465
Per MPI rank memory allocation (min/avg/max) = 5.441 | 5.816 | 6.074 Mbytes
Step PotEng KinEng TotEng v_fx v_fy v_fz 
    2465   -1152449.3            0   -1152449.3 -0.0019767494  0.010258852 -0.027636699 
    2666   -1152449.3            0   -1152449.3 -2.6233325e-06 -1.4373584e-06 1.5375444e-05 
Loop time of 2.36368 on 104 procs for 201 steps with 288751 atoms

99.9% CPU use with 104 MPI tasks x 1 OpenMP threads

Minimization stats:
  Stopping criterion = energy tolerance
  Energy initial, next-to-last, final = 
     -1152449.29039322  -1152449.29271877  -1152449.29271877
  Force two-norm initial, final = 0.17088665 0.00011406693
  Force max component initial, final = 0.072007989 2.0699861e-05
  Final line search alpha, max atom move = 1.0000000 2.0699861e-05
  Iterations, force evaluations = 201 402

MPI task timing breakdown:
Section |  min time  |  avg time  |  max time  |%varavg| %total
---------------------------------------------------------------
Pair    | 0.6113     | 1.6995     | 2.2052     |  35.1 | 71.90
Neigh   | 0          | 0          | 0          |   0.0 |  0.00
Comm    | 0.04087    | 0.3842     | 1.151      |  51.1 | 16.25
Output  | 0          | 0          | 0          |   0.0 |  0.00
Modify  | 2.4276e-05 | 0.0033216  | 0.0070808  |   2.7 |  0.14
Other   |            | 0.2767     |            |       | 11.70

Nlocal:        2776.45 ave        3930 max           0 min
Histogram: 8 4 4 0 4 12 8 0 26 38
Nghost:        3879.05 ave        5424 max         232 min
Histogram: 8 0 8 0 16 0 8 8 16 40
Neighs:        79213.5 ave      114456 max           0 min
Histogram: 8 4 4 0 8 8 8 8 20 36

Total # of neighbors = 8238199
Ave neighs/atom = 28.530461
Neighbor list builds = 0
Dangerous builds = 0
The dot product: -2.549725091194e-07
Setting atom values ...
  1 settings made for x
  1 settings made for y
  1 settings made for z
Setting up cg style minimization ...
  Unit style    : metal
  Current step  : 2666
Per MPI rank memory allocation (min/avg/max) = 5.441 | 5.816 | 6.074 Mbytes
Step PotEng KinEng TotEng v_fx v_fy v_fz 
    2666   -1152449.3            0   -1152449.3 -0.025374056   0.05853837 -0.059001274 
    2869   -1152449.3            0   -1152449.3 -8.6476046e-06 3.8722101e-06 1.8345744e-05 
Loop time of 2.36898 on 104 procs for 203 steps with 288751 atoms

99.9% CPU use with 104 MPI tasks x 1 OpenMP threads

Minimization stats:
  Stopping criterion = energy tolerance
  Energy initial, next-to-last, final = 
     -1152449.26909461  -1152449.27261422  -1152449.27261422
  Force two-norm initial, final = 0.19073974 0.00016535156
  Force max component initial, final = 0.079003622 2.8712262e-05
  Final line search alpha, max atom move = 1.0000000 2.8712262e-05
  Iterations, force evaluations = 203 406

MPI task timing breakdown:
Section |  min time  |  avg time  |  max time  |%varavg| %total
---------------------------------------------------------------
Pair    | 0.61601    | 1.7042     | 2.2153     |  35.2 | 71.94
Neigh   | 0          | 0          | 0          |   0.0 |  0.00
Comm    | 0.036941   | 0.38491    | 1.143      |  51.2 | 16.25
Output  | 0          | 0          | 0          |   0.0 |  0.00
Modify  | 2.4511e-05 | 0.0033594  | 0.0071723  |   2.7 |  0.14
Other   |            | 0.2765     |            |       | 11.67

Nlocal:        2776.45 ave        3930 max           0 min
Histogram: 8 4 4 0 4 12 8 0 26 38
Nghost:        3879.12 ave        5425 max         232 min
Histogram: 8 0 8 0 16 0 8 8 16 40
Neighs:        79213.4 ave      114457 max           0 min
Histogram: 8 4 4 0 8 8 8 8 20 36

Total # of neighbors = 8238195
Ave neighs/atom = 28.530447
Neighbor list builds = 0
Dangerous builds = 0
The dot product: -1.36965432653352e-07
Setting atom values ...
  1 settings made for x
  1 settings made for y
  1 settings made for z
Setting up cg style minimization ...
  Unit style    : metal
  Current step  : 2869
Per MPI rank memory allocation (min/avg/max) = 5.441 | 5.816 | 6.074 Mbytes
Step PotEng KinEng TotEng v_fx v_fy v_fz 
    2869   -1152449.2            0   -1152449.2 -0.031736063  0.091204706 -0.064320766 
    3000   -1152449.3            0   -1152449.3 -0.00014181385 3.489984e-06 0.00037587953 
    3066   -1152449.3            0   -1152449.3 -1.1370725e-05 -1.1288336e-05 4.9128316e-05 
Loop time of 2.31726 on 104 procs for 197 steps with 288751 atoms

99.9% CPU use with 104 MPI tasks x 1 OpenMP threads

Minimization stats:
  Stopping criterion = energy tolerance
  Energy initial, next-to-last, final = 
     -1152449.24800238  -1152449.25212612  -1152449.25212612
  Force two-norm initial, final = 0.20677365 0.00020468983
  Force max component initial, final = 0.091204706 4.9128316e-05
  Final line search alpha, max atom move = 1.0000000 4.9128316e-05
  Iterations, force evaluations = 197 394

MPI task timing breakdown:
Section |  min time  |  avg time  |  max time  |%varavg| %total
---------------------------------------------------------------
Pair    | 0.59882    | 1.6655     | 2.1793     |  34.8 | 71.88
Neigh   | 0          | 0          | 0          |   0.0 |  0.00
Comm    | 0.033633   | 0.38058    | 1.1349     |  50.3 | 16.42
Output  | 0.00025927 | 0.0002629  | 0.00038923 |   0.0 |  0.01
Modify  | 2.3711e-05 | 0.003261   | 0.006988   |   2.7 |  0.14
Other   |            | 0.2676     |            |       | 11.55

Nlocal:        2776.45 ave        3936 max           0 min
Histogram: 8 4 4 0 4 12 8 0 28 36
Nghost:        3879.12 ave        5425 max         232 min
Histogram: 8 0 8 0 16 0 8 8 16 40
Neighs:        79213.4 ave      114660 max           0 min
Histogram: 8 4 4 0 8 8 8 8 22 34

Total # of neighbors = 8238198
Ave neighs/atom = 28.530457
Neighbor list builds = 0
Dangerous builds = 0
The dot product: -1.13467863333117e-06
Setting atom values ...
  1 settings made for x
  1 settings made for y
  1 settings made for z
Setting up cg style minimization ...
  Unit style    : metal
  Current step  : 3066
Per MPI rank memory allocation (min/avg/max) = 5.441 | 5.816 | 6.074 Mbytes
Step PotEng KinEng TotEng v_fx v_fy v_fz 
    3066   -1152449.2            0   -1152449.2 -0.025489802    0.1028932 -0.056821308 
    3259   -1152449.2            0   -1152449.2 -2.7717715e-06 3.2261841e-06 2.8797332e-06 
Loop time of 2.24373 on 104 procs for 193 steps with 288751 atoms

99.9% CPU use with 104 MPI tasks x 1 OpenMP threads

Minimization stats:
  Stopping criterion = energy tolerance
  Energy initial, next-to-last, final = 
     -1152449.22679491   -1152449.2308135   -1152449.2308135
  Force two-norm initial, final = 0.20953183 0.00020829531
  Force max component initial, final = 0.1028932 1.7166401e-05
  Final line search alpha, max atom move = 1.0000000 1.7166401e-05
  Iterations, force evaluations = 193 386

MPI task timing breakdown:
Section |  min time  |  avg time  |  max time  |%varavg| %total
---------------------------------------------------------------
Pair    | 0.58271    | 1.6237     | 2.1125     |  34.6 | 72.37
Neigh   | 0          | 0          | 0          |   0.0 |  0.00
Comm    | 0.036343   | 0.36808    | 1.1028     |  50.4 | 16.40
Output  | 0          | 0          | 0          |   0.0 |  0.00
Modify  | 2.3862e-05 | 0.0031879  | 0.0068017  |   2.6 |  0.14
Other   |            | 0.2488     |            |       | 11.09

Nlocal:        2776.45 ave        3945 max           0 min
Histogram: 8 4 4 0 4 12 8 2 26 36
Nghost:        3879.09 ave        5425 max         232 min
Histogram: 8 0 8 0 16 0 8 8 16 40
Neighs:        79213.5 ave      114922 max           0 min
Histogram: 8 4 4 0 10 6 8 8 22 34

Total # of neighbors = 8238203
Ave neighs/atom = 28.530474
Neighbor list builds = 0
Dangerous builds = 0
The dot product: 6.49915194858545e-08
Setting atom values ...
  1 settings made for x
  1 settings made for y
  1 settings made for z
Setting up cg style minimization ...
  Unit style    : metal
  Current step  : 3259
Per MPI rank memory allocation (min/avg/max) = 5.441 | 5.816 | 6.074 Mbytes
Step PotEng KinEng TotEng v_fx v_fy v_fz 
    3259   -1152449.2            0   -1152449.2 -0.015390533  0.093936442 -0.043120671 
    3461   -1152449.2            0   -1152449.2 5.3101878e-06 3.0711484e-08 -1.1417469e-05 
Loop time of 2.38143 on 104 procs for 202 steps with 288751 atoms

99.9% CPU use with 104 MPI tasks x 1 OpenMP threads

Minimization stats:
  Stopping criterion = energy tolerance
  Energy initial, next-to-last, final = 
     -1152449.20477302  -1152449.20821517  -1152449.20821517
  Force two-norm initial, final = 0.20081743 0.00015890554
  Force max component initial, final = 0.1101427 1.6634848e-05
  Final line search alpha, max atom move = 1.0000000 1.6634848e-05
  Iterations, force evaluations = 202 404

MPI task timing breakdown:
Section |  min time  |  avg time  |  max time  |%varavg| %total
---------------------------------------------------------------
Pair    | 0.613      | 1.7061     | 2.2409     |  35.2 | 71.64
Neigh   | 0          | 0          | 0          |   0.0 |  0.00
Comm    | 0.034685   | 0.39102    | 1.1643     |  50.7 | 16.42
Output  | 0          | 0          | 0          |   0.0 |  0.00
Modify  | 2.4314e-05 | 0.0033423  | 0.007181   |   2.7 |  0.14
Other   |            | 0.2809     |            |       | 11.80

Nlocal:        2776.45 ave        3953 max           0 min
Histogram: 8 4 4 0 4 12 8 2 28 34
Nghost:        3879.05 ave        5425 max         232 min
Histogram: 8 0 8 0 16 0 8 8 16 40
Neighs:        79213.5 ave      115196 max           0 min
Histogram: 8 4 4 0 10 6 8 8 24 32

Total # of neighbors = 8238206
Ave neighs/atom = 28.530485
Neighbor list builds = 0
Dangerous builds = 0
The dot product: 1.49482839474918e-07
Setting atom values ...
  1 settings made for x
  1 settings made for y
  1 settings made for z
Setting up cg style minimization ...
  Unit style    : metal
  Current step  : 3461
Per MPI rank memory allocation (min/avg/max) = 5.441 | 5.816 | 6.074 Mbytes
Step PotEng KinEng TotEng v_fx v_fy v_fz 
    3461   -1152449.2            0   -1152449.2 -0.0059489318   0.07757232  -0.03407421 
    3677   -1152449.2            0   -1152449.2 2.3947509e-06 2.2628047e-07 -4.8686608e-06 
Loop time of 2.54118 on 104 procs for 216 steps with 288751 atoms

99.9% CPU use with 104 MPI tasks x 1 OpenMP threads

Minimization stats:
  Stopping criterion = energy tolerance
  Energy initial, next-to-last, final = 
     -1152449.18156906  -1152449.18465723  -1152449.18465723
  Force two-norm initial, final = 0.19068293 8.6485623e-05
  Force max component initial, final = 0.11592401 8.5592845e-06
  Final line search alpha, max atom move = 1.0000000 8.5592845e-06
  Iterations, force evaluations = 216 432

MPI task timing breakdown:
Section |  min time  |  avg time  |  max time  |%varavg| %total
---------------------------------------------------------------
Pair    | 0.65407    | 1.8203     | 2.3658     |  36.6 | 71.63
Neigh   | 0          | 0          | 0          |   0.0 |  0.00
Comm    | 0.042827   | 0.41065    | 1.241      |  53.7 | 16.16
Output  | 0          | 0          | 0          |   0.0 |  0.00
Modify  | 2.6781e-05 | 0.0035699  | 0.0075852  |   2.8 |  0.14
Other   |            | 0.3067     |            |       | 12.07

Nlocal:        2776.45 ave        3954 max           0 min
Histogram: 8 4 4 0 4 12 8 2 28 34
Nghost:        3879.00 ave        5425 max         232 min
Histogram: 8 0 8 0 16 0 8 8 16 40
Neighs:        79213.5 ave      115237 max           0 min
Histogram: 8 4 4 0 10 6 8 8 24 32

Total # of neighbors = 8238206
Ave neighs/atom = 28.530485
Neighbor list builds = 0
Dangerous builds = 0
The dot product: 7.51513257982255e-08
Setting atom values ...
  1 settings made for x
  1 settings made for y
  1 settings made for z
Setting up cg style minimization ...
  Unit style    : metal
  Current step  : 3677
Per MPI rank memory allocation (min/avg/max) = 5.441 | 5.816 | 6.074 Mbytes
Step PotEng KinEng TotEng v_fx v_fy v_fz 
    3677   -1152449.2            0   -1152449.2 0.0025497735  0.063805449 -0.032437258 
    3878   -1152449.2            0   -1152449.2 -1.2550828e-05 -8.3504573e-07 2.3278559e-05 
Loop time of 2.35594 on 104 procs for 201 steps with 288751 atoms

99.9% CPU use with 104 MPI tasks x 1 OpenMP threads

Minimization stats:
  Stopping criterion = energy tolerance
  Energy initial, next-to-last, final = 
     -1152449.15754722  -1152449.16028077  -1152449.16028077
  Force two-norm initial, final = 0.18402327 0.00013417628
  Force max component initial, final = 0.1200369 3.3316564e-05
  Final line search alpha, max atom move = 1.0000000 3.3316564e-05
  Iterations, force evaluations = 201 402

MPI task timing breakdown:
Section |  min time  |  avg time  |  max time  |%varavg| %total
---------------------------------------------------------------
Pair    | 0.60821    | 1.6922     | 2.2178     |  35.1 | 71.83
Neigh   | 0          | 0          | 0          |   0.0 |  0.00
Comm    | 0.035611   | 0.38378    | 1.1414     |  50.8 | 16.29
Output  | 0          | 0          | 0          |   0.0 |  0.00
Modify  | 2.4004e-05 | 0.0033304  | 0.0070964  |   2.7 |  0.14
Other   |            | 0.2767     |            |       | 11.74

Nlocal:        2776.45 ave        3954 max           0 min
Histogram: 8 4 4 0 4 12 8 2 28 34
Nghost:        3878.99 ave        5425 max         232 min
Histogram: 8 0 8 0 16 0 8 8 16 40
Neighs:        79213.6 ave      115233 max           0 min
Histogram: 8 4 4 0 10 6 8 8 24 32

Total # of neighbors = 8238211
Ave neighs/atom = 28.530502
Neighbor list builds = 0
Dangerous builds = 0
The dot product: -3.86206317268175e-07
Setting atom values ...
  1 settings made for x
  1 settings made for y
  1 settings made for z
Setting up cg style minimization ...
  Unit style    : metal
  Current step  : 3878
Per MPI rank memory allocation (min/avg/max) = 5.441 | 5.816 | 6.074 Mbytes
Step PotEng KinEng TotEng v_fx v_fy v_fz 
    3878   -1152449.1            0   -1152449.1 0.0087396557  0.055971872 -0.032655192 
    4000   -1152449.1            0   -1152449.1 2.2995259e-05 -3.1191799e-05 -2.8856167e-05 
    4073   -1152449.1            0   -1152449.1 -1.6079556e-05 3.0207194e-06 2.6186145e-05 
Loop time of 2.27977 on 104 procs for 195 steps with 288751 atoms

99.9% CPU use with 104 MPI tasks x 1 OpenMP threads

Minimization stats:
  Stopping criterion = energy tolerance
  Energy initial, next-to-last, final = 
        -1152449.13245  -1152449.13491755  -1152449.13491755
  Force two-norm initial, final = 0.18137417 0.00013850191
  Force max component initial, final = 0.12421439 2.6186145e-05
  Final line search alpha, max atom move = 1.0000000 2.6186145e-05
  Iterations, force evaluations = 195 390

MPI task timing breakdown:
Section |  min time  |  avg time  |  max time  |%varavg| %total
---------------------------------------------------------------
Pair    | 0.59075    | 1.6423     | 2.1377     |  34.4 | 72.04
Neigh   | 0          | 0          | 0          |   0.0 |  0.00
Comm    | 0.037866   | 0.37083    | 1.1122     |  50.4 | 16.27
Output  | 0.00014688 | 0.00015822 | 0.00029699 |   0.0 |  0.01
Modify  | 2.3943e-05 | 0.0032173  | 0.0068586  |   2.7 |  0.14
Other   |            | 0.2633     |            |       | 11.55

Nlocal:        2776.45 ave        3955 max           0 min
Histogram: 8 4 4 0 4 12 8 2 28 34
Nghost:        3878.96 ave        5425 max         232 min
Histogram: 8 0 8 0 16 0 8 8 16 40
Neighs:        79213.6 ave      115286 max           0 min
Histogram: 8 4 4 0 10 6 8 8 24 32

Total # of neighbors = 8238214
Ave neighs/atom = 28.530512
Neighbor list builds = 0
Dangerous builds = 0
The dot product: -3.74142452620784e-07
Setting atom values ...
  1 settings made for x
  1 settings made for y
  1 settings made for z
Setting up cg style minimization ...
  Unit style    : metal
  Current step  : 4073
Per MPI rank memory allocation (min/avg/max) = 5.441 | 5.816 | 6.074 Mbytes
Step PotEng KinEng TotEng v_fx v_fy v_fz 
    4073   -1152449.1            0   -1152449.1   0.01137479  0.046502713 -0.028896314 
    4263   -1152449.1            0   -1152449.1 -1.3983106e-05 2.082863e-06 2.1519468e-05 
Loop time of 2.23293 on 104 procs for 190 steps with 288751 atoms

99.9% CPU use with 104 MPI tasks x 1 OpenMP threads

Minimization stats:
  Stopping criterion = energy tolerance
  Energy initial, next-to-last, final = 
     -1152449.10616586  -1152449.10830287  -1152449.10830287
  Force two-norm initial, final = 0.1785757 0.00013443733
  Force max component initial, final = 0.12820664 2.1519468e-05
  Final line search alpha, max atom move = 1.0000000 2.1519468e-05
  Iterations, force evaluations = 190 380

MPI task timing breakdown:
Section |  min time  |  avg time  |  max time  |%varavg| %total
---------------------------------------------------------------
Pair    | 0.5737     | 1.6053     | 2.0945     |  34.3 | 71.89
Neigh   | 0          | 0          | 0          |   0.0 |  0.00
Comm    | 0.034972   | 0.36421    | 1.0942     |  49.9 | 16.31
Output  | 0          | 0          | 0          |   0.0 |  0.00
Modify  | 2.3014e-05 | 0.0031476  | 0.0067078  |   2.6 |  0.14
Other   |            | 0.2602     |            |       | 11.66

Nlocal:        2776.45 ave        3955 max           0 min
Histogram: 8 4 4 0 4 12 8 2 28 34
Nghost:        3878.96 ave        5425 max         232 min
Histogram: 8 0 8 0 16 0 8 8 16 40
Neighs:        79213.6 ave      115282 max           0 min
Histogram: 8 4 4 0 10 6 8 8 24 32

Total # of neighbors = 8238213
Ave neighs/atom = 28.530509
Neighbor list builds = 0
Dangerous builds = 0
The dot product: -2.85818647213586e-07
Setting atom values ...
  1 settings made for x
  1 settings made for y
  1 settings made for z
Setting up cg style minimization ...
  Unit style    : metal
  Current step  : 4263
Per MPI rank memory allocation (min/avg/max) = 5.441 | 5.816 | 6.074 Mbytes
Step PotEng KinEng TotEng v_fx v_fy v_fz 
    4263   -1152449.1            0   -1152449.1  0.010832557  0.035953667 -0.022545269 
    4440   -1152449.1            0   -1152449.1 2.7969275e-05 -2.8130018e-06 -4.1064161e-05 
Loop time of 2.06871 on 104 procs for 177 steps with 288751 atoms

99.9% CPU use with 104 MPI tasks x 1 OpenMP threads

Minimization stats:
  Stopping criterion = energy tolerance
  Energy initial, next-to-last, final = 
     -1152449.07843358  -1152449.08033443  -1152449.08033443
  Force two-norm initial, final = 0.1761097 0.00018365047
  Force max component initial, final = 0.13180526 4.1064161e-05
  Final line search alpha, max atom move = 1.0000000 4.1064161e-05
  Iterations, force evaluations = 177 354

MPI task timing breakdown:
Section |  min time  |  avg time  |  max time  |%varavg| %total
---------------------------------------------------------------
Pair    | 0.53893    | 1.4873     | 1.9411     |  32.9 | 71.89
Neigh   | 0          | 0          | 0          |   0.0 |  0.00
Comm    | 0.03137    | 0.33519    | 0.99734    |  48.0 | 16.20
Output  | 0          | 0          | 0          |   0.0 |  0.00
Modify  | 2.1593e-05 | 0.0029242  | 0.0062374  |   2.5 |  0.14
Other   |            | 0.2433     |            |       | 11.76

Nlocal:        2776.45 ave        3955 max           0 min
Histogram: 8 4 4 0 4 12 8 1 29 34
Nghost:        3878.99 ave        5426 max         232 min
Histogram: 8 0 8 0 16 0 8 8 16 40
Neighs:        79213.6 ave      115285 max           0 min
Histogram: 8 4 4 0 10 6 8 8 24 32

Total # of neighbors = 8238212
Ave neighs/atom = 28.530506
Neighbor list builds = 0
Dangerous builds = 0
The dot product: 4.85874209504801e-07
Setting atom values ...
  1 settings made for x
  1 settings made for y
  1 settings made for z
Setting up cg style minimization ...
  Unit style    : metal
  Current step  : 4440
Per MPI rank memory allocation (min/avg/max) = 5.441 | 5.816 | 6.074 Mbytes
Step PotEng KinEng TotEng v_fx v_fy v_fz 
    4440     -1152449            0     -1152449 0.0089380271  0.026425686 -0.016416946 
    4700   -1152449.1            0   -1152449.1 -1.0103318e-06 1.7317656e-07 1.4100011e-06 
Loop time of 3.08126 on 104 procs for 260 steps with 288751 atoms

99.9% CPU use with 104 MPI tasks x 1 OpenMP threads

Minimization stats:
  Stopping criterion = energy tolerance
  Energy initial, next-to-last, final = 
     -1152449.04927441  -1152449.05102978  -1152449.05102978
  Force two-norm initial, final = 0.17482729 6.6338079e-06
  Force max component initial, final = 0.13495081 1.4100011e-06
  Final line search alpha, max atom move = 1.0000000 1.4100011e-06
  Iterations, force evaluations = 260 520

MPI task timing breakdown:
Section |  min time  |  avg time  |  max time  |%varavg| %total
---------------------------------------------------------------
Pair    | 0.78895    | 2.2031     | 2.888      |  40.1 | 71.50
Neigh   | 0          | 0          | 0          |   0.0 |  0.00
Comm    | 0.046261   | 0.50281    | 1.5103     |  58.1 | 16.32
Output  | 0          | 0          | 0          |   0.0 |  0.00
Modify  | 3.1364e-05 | 0.0042961  | 0.0091515  |   3.1 |  0.14
Other   |            | 0.3711     |            |       | 12.04

Nlocal:        2776.45 ave        3955 max           0 min
Histogram: 8 4 4 0 4 12 8 0 30 34
Nghost:        3879.03 ave        5426 max         232 min
Histogram: 8 0 8 0 16 0 8 8 16 40
Neighs:        79213.6 ave      115285 max           0 min
Histogram: 8 4 4 0 10 6 8 8 24 32

Total # of neighbors = 8238215
Ave neighs/atom = 28.530516
Neighbor list builds = 0
Dangerous builds = 0
The dot product: -1.39843662440114e-08
Setting atom values ...
  1 settings made for x
  1 settings made for y
  1 settings made for z
Setting up cg style minimization ...
  Unit style    : metal
  Current step  : 4700
Per MPI rank memory allocation (min/avg/max) = 5.441 | 5.816 | 6.074 Mbytes
Step PotEng KinEng TotEng v_fx v_fy v_fz 
    4700     -1152449            0     -1152449 0.0066713159  0.018716078 -0.011294803 
    4872     -1152449            0     -1152449 -2.0825803e-05 8.4548649e-06 2.7526597e-05 
Loop time of 2.02531 on 104 procs for 172 steps with 288751 atoms

99.9% CPU use with 104 MPI tasks x 1 OpenMP threads

Minimization stats:
  Stopping criterion = energy tolerance
  Energy initial, next-to-last, final = 
     -1152449.01877607   -1152449.0204949   -1152449.0204949
  Force two-norm initial, final = 0.17460948 0.00022016578
  Force max component initial, final = 0.13772123 4.9959289e-05
  Final line search alpha, max atom move = 1.0000000 4.9959289e-05
  Iterations, force evaluations = 172 344

MPI task timing breakdown:
Section |  min time  |  avg time  |  max time  |%varavg| %total
---------------------------------------------------------------
Pair    | 0.52135    | 1.4481     | 1.896      |  32.6 | 71.50
Neigh   | 0          | 0          | 0          |   0.0 |  0.00
Comm    | 0.029704   | 0.32887    | 0.97194    |  47.0 | 16.24
Output  | 0          | 0          | 0          |   0.0 |  0.00
Modify  | 2.1322e-05 | 0.0028417  | 0.006027   |   2.5 |  0.14
Other   |            | 0.2454     |            |       | 12.12

Nlocal:        2776.45 ave        3955 max           0 min
Histogram: 8 4 4 0 4 12 8 0 30 34
Nghost:        3879.03 ave        5426 max         232 min
Histogram: 8 0 8 0 16 0 8 8 16 40
Neighs:        79213.6 ave      115304 max           0 min
Histogram: 8 4 4 0 10 6 8 8 24 32

Total # of neighbors = 8238218
Ave neighs/atom = 28.530526
Neighbor list builds = 0
Dangerous builds = 0
The dot product: -2.25184806730458e-07
Setting atom values ...
  1 settings made for x
  1 settings made for y
  1 settings made for z
Setting up cg style minimization ...
  Unit style    : metal
  Current step  : 4872
Per MPI rank memory allocation (min/avg/max) = 5.441 | 5.816 | 6.074 Mbytes
Step PotEng KinEng TotEng v_fx v_fy v_fz 
    4872     -1152449            0     -1152449 0.0047696658  0.012978175 -0.0076111385 
    5000     -1152449            0     -1152449 -9.0708776e-05 1.4898449e-05 0.00011893828 
    5086     -1152449            0     -1152449 -8.5868931e-06 1.5941249e-06  1.12411e-05 
Loop time of 2.53918 on 104 procs for 214 steps with 288751 atoms

99.9% CPU use with 104 MPI tasks x 1 OpenMP threads

Minimization stats:
  Stopping criterion = energy tolerance
  Energy initial, next-to-last, final = 
     -1152448.98715807  -1152448.98884114  -1152448.98884114
  Force two-norm initial, final = 0.17497439 7.5422496e-05
  Force max component initial, final = 0.14007033 1.1241100e-05
  Final line search alpha, max atom move = 1.0000000 1.1241100e-05
  Iterations, force evaluations = 214 428

MPI task timing breakdown:
Section |  min time  |  avg time  |  max time  |%varavg| %total
---------------------------------------------------------------
Pair    | 0.64952    | 1.8092     | 2.3843     |  36.3 | 71.25
Neigh   | 0          | 0          | 0          |   0.0 |  0.00
Comm    | 0.036842   | 0.41897    | 1.2311     |  51.5 | 16.50
Output  | 0.00089276 | 0.00089653 | 0.0010249  |   0.0 |  0.04
Modify  | 2.564e-05  | 0.0035413  | 0.0076176  |   2.8 |  0.14
Other   |            | 0.3066     |            |       | 12.07

Nlocal:        2776.45 ave        3956 max           0 min
Histogram: 8 4 4 0 4 12 8 0 30 34
Nghost:        3879.05 ave        5426 max         232 min
Histogram: 8 0 8 0 16 0 8 8 16 40
Neighs:        79213.6 ave      115339 max           0 min
Histogram: 8 4 4 0 10 6 8 8 24 32

Total # of neighbors = 8238215
Ave neighs/atom = 28.530516
Neighbor list builds = 0
Dangerous builds = 0
The dot product: -9.03733083006698e-08
Setting atom values ...
  1 settings made for x
  1 settings made for y
  1 settings made for z
Setting up cg style minimization ...
  Unit style    : metal
  Current step  : 5086
Per MPI rank memory allocation (min/avg/max) = 5.441 | 5.816 | 6.074 Mbytes
Step PotEng KinEng TotEng v_fx v_fy v_fz 
    5086     -1152449            0     -1152449 0.0027783539 0.0087663017 -0.0043605447 
    5263     -1152449            0     -1152449 3.4747275e-05 -6.6787363e-06 -4.4366199e-05 
Loop time of 2.08203 on 104 procs for 177 steps with 288751 atoms

99.9% CPU use with 104 MPI tasks x 1 OpenMP threads

Minimization stats:
  Stopping criterion = energy tolerance
  Energy initial, next-to-last, final = 
     -1152448.95445584  -1152448.95616347  -1152448.95616347
  Force two-norm initial, final = 0.17566063 0.00020959586
  Force max component initial, final = 0.14211149 4.4366199e-05
  Final line search alpha, max atom move = 1.0000000 4.4366199e-05
  Iterations, force evaluations = 177 354

MPI task timing breakdown:
Section |  min time  |  avg time  |  max time  |%varavg| %total
---------------------------------------------------------------
Pair    | 0.53608    | 1.4965     | 1.9638     |  33.3 | 71.88
Neigh   | 0          | 0          | 0          |   0.0 |  0.00
Comm    | 0.033581   | 0.33938    | 1.0248     |  48.2 | 16.30
Output  | 0          | 0          | 0          |   0.0 |  0.00
Modify  | 2.1394e-05 | 0.0029268  | 0.0062532  |   2.5 |  0.14
Other   |            | 0.2432     |            |       | 11.68

Nlocal:        2776.45 ave        3956 max           0 min
Histogram: 8 4 4 0 4 12 8 0 30 34
Nghost:        3879.03 ave        5426 max         232 min
Histogram: 8 0 8 0 16 0 8 8 16 40
Neighs:        79213.6 ave      115342 max           0 min
Histogram: 8 4 4 0 10 6 8 8 24 32

Total # of neighbors = 8238219
Ave neighs/atom = 28.530530
Neighbor list builds = 0
Dangerous builds = 0
The dot product: 3.34335810793874e-07
Setting atom values ...
  1 settings made for x
  1 settings made for y
  1 settings made for z
Setting up cg style minimization ...
  Unit style    : metal
  Current step  : 5263
Per MPI rank memory allocation (min/avg/max) = 5.441 | 5.816 | 6.074 Mbytes
Step PotEng KinEng TotEng v_fx v_fy v_fz 
    5263   -1152448.9            0   -1152448.9 0.0011992108 0.0059189015 -0.0019902232 
    5463   -1152448.9            0   -1152448.9 -1.0651672e-05 1.2311032e-06 1.3372124e-05 
Loop time of 2.35287 on 104 procs for 200 steps with 288751 atoms

99.9% CPU use with 104 MPI tasks x 1 OpenMP threads

Minimization stats:
  Stopping criterion = energy tolerance
  Energy initial, next-to-last, final = 
     -1152448.92086991   -1152448.9225801   -1152448.9225801
  Force two-norm initial, final = 0.17633404 0.00010183843
  Force max component initial, final = 0.14377067 1.3384131e-05
  Final line search alpha, max atom move = 1.0000000 1.3384131e-05
  Iterations, force evaluations = 200 400

MPI task timing breakdown:
Section |  min time  |  avg time  |  max time  |%varavg| %total
---------------------------------------------------------------
Pair    | 0.60546    | 1.689      | 2.2142     |  35.1 | 71.78
Neigh   | 0          | 0          | 0          |   0.0 |  0.00
Comm    | 0.033499   | 0.38703    | 1.1574     |  50.7 | 16.45
Output  | 0          | 0          | 0          |   0.0 |  0.00
Modify  | 2.4111e-05 | 0.0033046  | 0.0070042  |   2.7 |  0.14
Other   |            | 0.2736     |            |       | 11.63

Nlocal:        2776.45 ave        3955 max           0 min
Histogram: 8 4 4 0 4 12 8 0 30 34
Nghost:        3879.03 ave        5426 max         232 min
Histogram: 8 0 8 0 16 0 8 8 16 40
Neighs:        79213.6 ave      115318 max           0 min
Histogram: 8 4 4 0 10 6 8 8 24 32

Total # of neighbors = 8238214
Ave neighs/atom = 28.530512
Neighbor list builds = 0
Dangerous builds = 0
The dot product: -9.27897099359816e-08
Setting atom values ...
  1 settings made for x
  1 settings made for y
  1 settings made for z
Setting up cg style minimization ...
  Unit style    : metal
  Current step  : 5463
Per MPI rank memory allocation (min/avg/max) = 5.441 | 5.816 | 6.074 Mbytes
Step PotEng KinEng TotEng v_fx v_fy v_fz 
    5463   -1152448.9            0   -1152448.9 -0.00085463843 0.0039394915 0.00076327336 
    5648   -1152448.9            0   -1152448.9 2.5938423e-06 -3.0312311e-06 -2.9888252e-06 
Loop time of 2.1575 on 104 procs for 185 steps with 288751 atoms

99.9% CPU use with 104 MPI tasks x 1 OpenMP threads

Minimization stats:
  Stopping criterion = energy tolerance
  Energy initial, next-to-last, final = 
     -1152448.88637178  -1152448.88799407  -1152448.88799407
  Force two-norm initial, final = 0.17722307 0.00014224258
  Force max component initial, final = 0.14539928 1.8308667e-05
  Final line search alpha, max atom move = 1.0000000 1.8308667e-05
  Iterations, force evaluations = 185 370

MPI task timing breakdown:
Section |  min time  |  avg time  |  max time  |%varavg| %total
---------------------------------------------------------------
Pair    | 0.56034    | 1.5557     | 2.0313     |  33.7 | 72.11
Neigh   | 0          | 0          | 0          |   0.0 |  0.00
Comm    | 0.037895   | 0.35105    | 1.0557     |  49.5 | 16.27
Output  | 0          | 0          | 0          |   0.0 |  0.00
Modify  | 2.2796e-05 | 0.0030604  | 0.0065493  |   2.6 |  0.14
Other   |            | 0.2476     |            |       | 11.48

Nlocal:        2776.45 ave        3956 max           0 min
Histogram: 8 4 4 0 4 12 8 0 30 34
Nghost:        3879.03 ave        5426 max         232 min
Histogram: 8 0 8 0 16 0 8 8 16 40
Neighs:        79213.6 ave      115334 max           0 min
Histogram: 8 4 4 0 10 6 8 8 24 32

Total # of neighbors = 8238216
Ave neighs/atom = 28.530519
Neighbor list builds = 0
Dangerous builds = 0
The dot product: 1.53062845388678e-08
Setting atom values ...
  1 settings made for x
  1 settings made for y
  1 settings made for z
Setting up cg style minimization ...
  Unit style    : metal
  Current step  : 5648
Per MPI rank memory allocation (min/avg/max) = 5.441 | 5.816 | 6.074 Mbytes
Step PotEng KinEng TotEng v_fx v_fy v_fz 
    5648   -1152448.9            0   -1152448.9 -0.0036973626 0.0026126238 0.0043273055 
    5829   -1152448.9            0   -1152448.9 1.8774664e-05 3.356366e-07 -2.2961108e-05 
Loop time of 2.1503 on 104 procs for 181 steps with 288751 atoms

99.9% CPU use with 104 MPI tasks x 1 OpenMP threads

Minimization stats:
  Stopping criterion = energy tolerance
  Energy initial, next-to-last, final = 
     -1152448.85073358  -1152448.85235815  -1152448.85235815
  Force two-norm initial, final = 0.17854446 0.00018514069
  Force max component initial, final = 0.14715888 3.7470675e-05
  Final line search alpha, max atom move = 1.0000000 3.7470675e-05
  Iterations, force evaluations = 181 362

MPI task timing breakdown:
Section |  min time  |  avg time  |  max time  |%varavg| %total
---------------------------------------------------------------
Pair    | 0.54655    | 1.5297     | 2.0042     |  33.4 | 71.14
Neigh   | 0          | 0          | 0          |   0.0 |  0.00
Comm    | 0.030176   | 0.34896    | 1.0359     |  48.3 | 16.23
Output  | 0          | 0          | 0          |   0.0 |  0.00
Modify  | 2.165e-05  | 0.002994   | 0.0063682  |   2.6 |  0.14
Other   |            | 0.2686     |            |       | 12.49

Nlocal:        2776.45 ave        3956 max           0 min
Histogram: 8 4 4 0 4 12 8 0 30 34
Nghost:        3879.01 ave        5426 max         232 min
Histogram: 8 0 8 0 16 0 8 8 16 40
Neighs:        79213.6 ave      115328 max           0 min
Histogram: 8 4 4 0 10 6 8 8 24 32

Total # of neighbors = 8238215
Ave neighs/atom = 28.530516
Neighbor list builds = 0
Dangerous builds = 0
The dot product: 1.07945508605156e-07
Setting atom values ...
  1 settings made for x
  1 settings made for y
  1 settings made for z
Setting up cg style minimization ...
  Unit style    : metal
  Current step  : 5829
Per MPI rank memory allocation (min/avg/max) = 5.441 | 5.816 | 6.074 Mbytes
Step PotEng KinEng TotEng v_fx v_fy v_fz 
    5829   -1152448.8            0   -1152448.8 -0.0062593622  0.001936705 0.0074186066 
    6000   -1152448.8            0   -1152448.8 5.2199505e-05 -6.5777151e-06 -6.2548956e-05 
    6039   -1152448.8            0   -1152448.8 -1.0969547e-05 1.9548643e-06 1.3103657e-05 
Loop time of 2.45333 on 104 procs for 210 steps with 288751 atoms

99.9% CPU use with 104 MPI tasks x 1 OpenMP threads

Minimization stats:
  Stopping criterion = energy tolerance
  Energy initial, next-to-last, final = 
     -1152448.81409249  -1152448.81585226  -1152448.81585226
  Force two-norm initial, final = 0.17976634 7.7685400e-05
  Force max component initial, final = 0.14872963 1.3103657e-05
  Final line search alpha, max atom move = 1.0000000 1.3103657e-05
  Iterations, force evaluations = 210 420

MPI task timing breakdown:
Section |  min time  |  avg time  |  max time  |%varavg| %total
---------------------------------------------------------------
Pair    | 0.63483    | 1.76       | 2.3033     |  35.9 | 71.74
Neigh   | 0          | 0          | 0          |   0.0 |  0.00
Comm    | 0.037177   | 0.3965     | 1.1815     |  52.3 | 16.16
Output  | 0.00025669 | 0.00026628 | 0.00039994 |   0.0 |  0.01
Modify  | 2.5676e-05 | 0.0034652  | 0.0073679  |   2.8 |  0.14
Other   |            | 0.2931     |            |       | 11.95

Nlocal:        2776.45 ave        3955 max           0 min
Histogram: 8 4 4 0 4 12 8 0 30 34
Nghost:        3879.01 ave        5426 max         232 min
Histogram: 8 0 8 0 16 0 8 8 16 40
Neighs:        79213.6 ave      115319 max           0 min
Histogram: 8 4 4 0 10 6 8 8 24 32

Total # of neighbors = 8238213
Ave neighs/atom = 28.530509
Neighbor list builds = 0
Dangerous builds = 0
The dot product: -5.38599419251894e-08
Setting atom values ...
  1 settings made for x
  1 settings made for y
  1 settings made for z
Setting up cg style minimization ...
  Unit style    : metal
  Current step  : 6039
Per MPI rank memory allocation (min/avg/max) = 5.441 | 5.816 | 6.074 Mbytes
Step PotEng KinEng TotEng v_fx v_fy v_fz 
    6039   -1152448.8            0   -1152448.8 -0.0083767777  0.001742138 0.0098891386 
    6229   -1152448.8            0   -1152448.8 -1.5923011e-06 -1.3158965e-06 1.9963979e-06 
Loop time of 2.23919 on 104 procs for 190 steps with 288751 atoms

99.9% CPU use with 104 MPI tasks x 1 OpenMP threads

Minimization stats:
  Stopping criterion = energy tolerance
  Energy initial, next-to-last, final = 
     -1152448.77675008  -1152448.77836769  -1152448.77836769
  Force two-norm initial, final = 0.18038509 0.00012971827
  Force max component initial, final = 0.1498137 1.5394421e-05
  Final line search alpha, max atom move = 1.0000000 1.5394421e-05
  Iterations, force evaluations = 190 380

MPI task timing breakdown:
Section |  min time  |  avg time  |  max time  |%varavg| %total
---------------------------------------------------------------
Pair    | 0.57412    | 1.6078     | 2.1102     |  34.4 | 71.80
Neigh   | 0          | 0          | 0          |   0.0 |  0.00
Comm    | 0.033181   | 0.36776    | 1.0982     |  49.6 | 16.42
Output  | 0          | 0          | 0          |   0.0 |  0.00
Modify  | 2.2624e-05 | 0.003139   | 0.006676   |   2.6 |  0.14
Other   |            | 0.2605     |            |       | 11.63

Nlocal:        2776.45 ave        3956 max           0 min
Histogram: 8 4 4 0 4 12 8 0 30 34
Nghost:        3878.99 ave        5426 max         232 min
Histogram: 8 0 8 0 16 0 8 8 16 40
Neighs:        79213.6 ave      115329 max           0 min
Histogram: 8 4 4 0 10 6 8 8 24 32

Total # of neighbors = 8238215
Ave neighs/atom = 28.530516
Neighbor list builds = 0
Dangerous builds = 0
The dot product: -4.96120999421218e-09
Setting atom values ...
  1 settings made for x
  1 settings made for y
  1 settings made for z
Setting up cg style minimization ...
  Unit style    : metal
  Current step  : 6229
Per MPI rank memory allocation (min/avg/max) = 5.441 | 5.816 | 6.074 Mbytes
Step PotEng KinEng TotEng v_fx v_fy v_fz 
    6229   -1152448.7            0   -1152448.7 -0.011537703 0.0020543453  0.013558258 
    6438   -1152448.7            0   -1152448.7 -1.7223827e-05 3.2639262e-06 2.0226168e-05 
Loop time of 2.44786 on 104 procs for 209 steps with 288751 atoms

99.9% CPU use with 104 MPI tasks x 1 OpenMP threads

Minimization stats:
  Stopping criterion = energy tolerance
  Energy initial, next-to-last, final = 
     -1152448.73825659  -1152448.73990296  -1152448.73990296
  Force two-norm initial, final = 0.1813115 7.8046110e-05
  Force max component initial, final = 0.15112683 2.1044545e-05
  Final line search alpha, max atom move = 1.0000000 2.1044545e-05
  Iterations, force evaluations = 209 418

MPI task timing breakdown:
Section |  min time  |  avg time  |  max time  |%varavg| %total
---------------------------------------------------------------
Pair    | 0.6305     | 1.756      | 2.2995     |  35.9 | 71.74
Neigh   | 0          | 0          | 0          |   0.0 |  0.00
Comm    | 0.035997   | 0.39822    | 1.1836     |  52.1 | 16.27
Output  | 0          | 0          | 0          |   0.0 |  0.00
Modify  | 2.5367e-05 | 0.0034524  | 0.0073325  |   2.8 |  0.14
Other   |            | 0.2902     |            |       | 11.86

Nlocal:        2776.45 ave        3956 max           0 min
Histogram: 8 4 4 0 4 12 8 0 30 34
Nghost:        3878.99 ave        5426 max         232 min
Histogram: 8 0 8 0 16 0 8 8 16 40
Neighs:        79213.6 ave      115329 max           0 min
Histogram: 8 4 4 0 10 6 8 8 24 32

Total # of neighbors = 8238213
Ave neighs/atom = 28.530509
Neighbor list builds = 0
Dangerous builds = 0
The dot product: -3.21819024306765e-08
Setting atom values ...
  1 settings made for x
  1 settings made for y
  1 settings made for z
Setting up cg style minimization ...
  Unit style    : metal
  Current step  : 6438
Per MPI rank memory allocation (min/avg/max) = 5.441 | 5.816 | 6.074 Mbytes
Step PotEng KinEng TotEng v_fx v_fy v_fz 
    6438   -1152448.7            0   -1152448.7 -0.014274961 0.0027517594  0.016699412 
    6582   -1152448.7            0   -1152448.7 4.1738583e-05 -1.037753e-05 -4.8659967e-05 
Loop time of 1.69115 on 104 procs for 144 steps with 288751 atoms

99.9% CPU use with 104 MPI tasks x 1 OpenMP threads

Minimization stats:
  Stopping criterion = energy tolerance
  Energy initial, next-to-last, final = 
     -1152448.69893219  -1152448.70081757  -1152448.70081757
  Force two-norm initial, final = 0.18153761 0.00024096826
  Force max component initial, final = 0.15209301 6.6516058e-05
  Final line search alpha, max atom move = 1.0000000 6.6516058e-05
  Iterations, force evaluations = 144 288

MPI task timing breakdown:
Section |  min time  |  avg time  |  max time  |%varavg| %total
---------------------------------------------------------------
Pair    | 0.43834    | 1.2189     | 1.594      |  29.8 | 72.08
Neigh   | 0          | 0          | 0          |   0.0 |  0.00
Comm    | 0.024693   | 0.27586    | 0.8251     |  43.5 | 16.31
Output  | 0          | 0          | 0          |   0.0 |  0.00
Modify  | 1.7541e-05 | 0.002386   | 0.0051115  |   2.3 |  0.14
Other   |            | 0.194      |            |       | 11.47

Nlocal:        2776.45 ave        3955 max           0 min
Histogram: 8 4 4 0 4 12 8 0 30 34
Nghost:        3878.99 ave        5426 max         232 min
Histogram: 8 0 8 0 16 0 8 8 16 40
Neighs:        79213.6 ave      115286 max           0 min
Histogram: 8 4 4 0 10 6 8 8 24 32

Total # of neighbors = 8238215
Ave neighs/atom = 28.530516
Neighbor list builds = 0
Dangerous builds = 0
The dot product: 4.3642861018541e-08
Setting atom values ...
  1 settings made for x
  1 settings made for y
  1 settings made for z
Setting up cg style minimization ...
  Unit style    : metal
  Current step  : 6582
Per MPI rank memory allocation (min/avg/max) = 5.441 | 5.816 | 6.074 Mbytes
Step PotEng KinEng TotEng v_fx v_fy v_fz 
    6582   -1152448.7            0   -1152448.7  -0.01629892 0.0032897458  0.019020246 
    6797   -1152448.7            0   -1152448.7 -7.7945707e-06 1.4147566e-06 9.1076291e-06 
Loop time of 2.54352 on 104 procs for 215 steps with 288751 atoms

99.9% CPU use with 104 MPI tasks x 1 OpenMP threads

Minimization stats:
  Stopping criterion = energy tolerance
  Energy initial, next-to-last, final = 
     -1152448.65947507  -1152448.66126548  -1152448.66126548
  Force two-norm initial, final = 0.18014138 3.6322165e-05
  Force max component initial, final = 0.15183045 9.7860062e-06
  Final line search alpha, max atom move = 1.0000000 9.7860062e-06
  Iterations, force evaluations = 215 430

MPI task timing breakdown:
Section |  min time  |  avg time  |  max time  |%varavg| %total
---------------------------------------------------------------
Pair    | 0.6493     | 1.8102     | 2.3644     |  36.5 | 71.17
Neigh   | 0          | 0          | 0          |   0.0 |  0.00
Comm    | 0.038892   | 0.41302    | 1.2198     |  52.4 | 16.24
Output  | 0          | 0          | 0          |   0.0 |  0.00
Modify  | 2.5695e-05 | 0.0035497  | 0.0076352  |   2.8 |  0.14
Other   |            | 0.3168     |            |       | 12.45

Nlocal:        2776.45 ave        3956 max           0 min
Histogram: 8 4 4 0 4 12 8 0 30 34
Nghost:        3878.92 ave        5425 max         232 min
Histogram: 8 0 8 0 16 0 8 8 16 40
Neighs:        79213.5 ave      115318 max           0 min
Histogram: 8 4 4 0 10 6 8 8 24 32

Total # of neighbors = 8238200
Ave neighs/atom = 28.530464
Neighbor list builds = 0
Dangerous builds = 0
The dot product: 5.42204455809721e-09
Setting atom values ...
  1 settings made for x
  1 settings made for y
  1 settings made for z
Setting up cg style minimization ...
  Unit style    : metal
  Current step  : 6797
Per MPI rank memory allocation (min/avg/max) = 5.441 | 5.816 | 6.074 Mbytes
Step PotEng KinEng TotEng v_fx v_fy v_fz 
    6797   -1152448.6            0   -1152448.6 -0.019189745 0.0037449556  0.022431108 
    7000   -1152448.6            0   -1152448.6 3.0717658e-05 -7.0497865e-06 -3.5825967e-05 
    7011   -1152448.6            0   -1152448.6 -9.8129788e-06 2.1652065e-06 1.1451474e-05 
Loop time of 2.52473 on 104 procs for 214 steps with 288751 atoms

99.9% CPU use with 104 MPI tasks x 1 OpenMP threads

Minimization stats:
  Stopping criterion = energy tolerance
  Energy initial, next-to-last, final = 
     -1152448.61983896  -1152448.62198927  -1152448.62198927
  Force two-norm initial, final = 0.17913051 0.00013743062
  Force max component initial, final = 0.15122275 1.2859789e-05
  Final line search alpha, max atom move = 1.0000000 1.2859789e-05
  Iterations, force evaluations = 214 428

MPI task timing breakdown:
Section |  min time  |  avg time  |  max time  |%varavg| %total
---------------------------------------------------------------
Pair    | 0.64609    | 1.8051     | 2.3815     |  36.3 | 71.50
Neigh   | 0          | 0          | 0          |   0.0 |  0.00
Comm    | 0.036359   | 0.41471    | 1.2187     |  51.9 | 16.43
Output  | 0.00019939 | 0.00020625 | 0.00034831 |   0.0 |  0.01
Modify  | 2.6138e-05 | 0.0035303  | 0.00751    |   2.8 |  0.14
Other   |            | 0.3012     |            |       | 11.93

Nlocal:        2776.45 ave        3955 max           0 min
Histogram: 8 4 4 0 4 12 8 0 30 34
Nghost:        3878.90 ave        5425 max         232 min
Histogram: 8 0 8 0 16 0 8 8 16 40
Neighs:        79213.5 ave      115295 max           0 min
Histogram: 8 4 4 0 10 6 8 8 24 32

Total # of neighbors = 8238201
Ave neighs/atom = 28.530467
Neighbor list builds = 0
Dangerous builds = 0
The dot product: 6.96056817990747e-09
Setting atom values ...
  1 settings made for x
  1 settings made for y
  1 settings made for z
Setting up cg style minimization ...
  Unit style    : metal
  Current step  : 7011
Per MPI rank memory allocation (min/avg/max) = 5.441 | 5.816 | 6.074 Mbytes
Step PotEng KinEng TotEng v_fx v_fy v_fz 
    7011   -1152448.6            0   -1152448.6 -0.021549511 0.00085622141  0.025488996 
    7303   -1152448.6            0   -1152448.6 1.7121941e-06 -1.0020169e-07 -2.0226487e-06 
Loop time of 3.41306 on 104 procs for 292 steps with 288751 atoms

99.9% CPU use with 104 MPI tasks x 1 OpenMP threads

Minimization stats:
  Stopping criterion = energy tolerance
  Energy initial, next-to-last, final = 
     -1152448.58159885  -1152448.58610422  -1152448.58610422
  Force two-norm initial, final = 0.17846308 2.0064167e-05
  Force max component initial, final = 0.14831486 2.1247464e-06
  Final line search alpha, max atom move = 1.0000000 2.1247464e-06
  Iterations, force evaluations = 292 584

MPI task timing breakdown:
Section |  min time  |  avg time  |  max time  |%varavg| %total
---------------------------------------------------------------
Pair    | 0.88321    | 2.4567     | 3.2051     |  42.4 | 71.98
Neigh   | 1.0614e-05 | 0.0029451  | 0.0042949  |   2.2 |  0.09
Comm    | 0.055685   | 0.55591    | 1.6615     |  62.0 | 16.29
Output  | 0          | 0          | 0          |   0.0 |  0.00
Modify  | 3.5695e-05 | 0.0048201  | 0.010313   |   3.3 |  0.14
Other   |            | 0.3927     |            |       | 11.51

Nlocal:        2776.45 ave        3954 max           0 min
Histogram: 8 4 4 0 4 12 8 0 30 34
Nghost:        3878.95 ave        5425 max         232 min
Histogram: 8 0 8 0 16 0 8 8 16 40
Neighs:        79213.4 ave      115279 max           0 min
Histogram: 8 4 4 0 10 6 8 8 24 32

Total # of neighbors = 8238196
Ave neighs/atom = 28.530450
Neighbor list builds = 1
Dangerous builds = 0
The dot product: 3.2889198704559e-08
Setting atom values ...
  1 settings made for x
  1 settings made for y
  1 settings made for z
Setting up cg style minimization ...
  Unit style    : metal
  Current step  : 7303
Per MPI rank memory allocation (min/avg/max) = 5.441 | 5.816 | 6.074 Mbytes
Step PotEng KinEng TotEng v_fx v_fy v_fz 
    7303   -1152448.6            0   -1152448.6 -0.011699489 -0.0012496195  0.013535122 
    7574   -1152448.6            0   -1152448.6 7.2572414e-07 -1.3382981e-07 -8.2179205e-07 
Loop time of 3.17 on 104 procs for 271 steps with 288751 atoms

99.9% CPU use with 104 MPI tasks x 1 OpenMP threads

Minimization stats:
  Stopping criterion = energy tolerance
  Energy initial, next-to-last, final = 
     -1152448.55848886  -1152448.56158734  -1152448.56158734
  Force two-norm initial, final = 0.18440867 8.1761476e-06
  Force max component initial, final = 0.14846407 1.1610599e-06
  Final line search alpha, max atom move = 1.0000000 1.1610599e-06
  Iterations, force evaluations = 271 542

MPI task timing breakdown:
Section |  min time  |  avg time  |  max time  |%varavg| %total
---------------------------------------------------------------
Pair    | 0.81895    | 2.2883     | 2.9898     |  40.9 | 72.19
Neigh   | 0          | 0          | 0          |   0.0 |  0.00
Comm    | 0.044972   | 0.52223    | 1.5679     |  59.3 | 16.47
Output  | 0          | 0          | 0          |   0.0 |  0.00
Modify  | 3.2411e-05 | 0.0044871  | 0.0095037  |   3.1 |  0.14
Other   |            | 0.355      |            |       | 11.20

Nlocal:        2776.45 ave        3956 max           0 min
Histogram: 8 4 4 0 4 12 8 0 30 34
Nghost:        3879.04 ave        5426 max         232 min
Histogram: 8 0 8 0 16 0 8 8 16 40
Neighs:        79213.4 ave      115333 max           0 min
Histogram: 8 4 4 0 10 6 8 8 24 32

Total # of neighbors = 8238198
Ave neighs/atom = 28.530457
Neighbor list builds = 0
Dangerous builds = 0
The dot product: 6.77155307870685e-09
Setting atom values ...
  1 settings made for x
  1 settings made for y
  1 settings made for z
Setting up cg style minimization ...
  Unit style    : metal
  Current step  : 7574
Per MPI rank memory allocation (min/avg/max) = 5.441 | 5.816 | 6.074 Mbytes
Step PotEng KinEng TotEng v_fx v_fy v_fz 
    7574   -1152448.5            0   -1152448.5 -0.024685752 0.0041707561  0.027542103 
    7882   -1152448.5            0   -1152448.5 9.8180662e-07 -8.4177282e-08 -1.1024202e-06 
[...]
Histogram: 8 0 8 0 16 0 8 8 16 40
Neighs:        79213.2 ave      115484 max           0 min
Histogram: 8 4 4 0 10 6 8 8 24 32

Total # of neighbors = 8238174
Ave neighs/atom = 28.530374
Neighbor list builds = 0
Dangerous builds = 0
The dot product: 1.615408413592e-10
Setting atom values ...
  1 settings made for x
  1 settings made for y
  1 settings made for z
Setting up cg style minimization ...
  Unit style    : metal
  Current step  : 27489
Per MPI rank memory allocation (min/avg/max) = 5.441 | 5.816 | 6.074 Mbytes
Step PotEng KinEng TotEng v_fx v_fy v_fz 
   27489   -1152449.1            0   -1152449.1 0.00074890871 0.0083283022 -0.010852945 
   27662   -1152449.1            0   -1152449.1 -8.1017058e-06 -5.5773834e-06 1.2726347e-05 
Loop time of 2.0692 on 104 procs for 173 steps with 288751 atoms

99.9% CPU use with 104 MPI tasks x 1 OpenMP threads

Minimization stats:
  Stopping criterion = energy tolerance
  Energy initial, next-to-last, final = 
     -1152449.12554755  -1152449.12689566  -1152449.12689566
  Force two-norm initial, final = 0.16243721 0.00012035093
  Force max component initial, final = 0.093631771 1.4825420e-05
  Final line search alpha, max atom move = 1.0000000 1.4825420e-05
  Iterations, force evaluations = 173 346

MPI task timing breakdown:
Section |  min time  |  avg time  |  max time  |%varavg| %total
---------------------------------------------------------------
Pair    | 0.52064    | 1.4614     | 1.9334     |  33.0 | 70.62
Neigh   | 0          | 0          | 0          |   0.0 |  0.00
Comm    | 0.029306   | 0.3369     | 0.9821     |  46.6 | 16.28
Output  | 0          | 0          | 0          |   0.0 |  0.00
Modify  | 2.1679e-05 | 0.0028772  | 0.0060914  |   2.5 |  0.14
Other   |            | 0.2681     |            |       | 12.95

Nlocal:        2776.45 ave        3961 max           0 min
Histogram: 8 4 4 0 6 10 8 4 26 34
Nghost:        3879.09 ave        5424 max         232 min
Histogram: 8 0 8 0 16 0 8 8 16 40
Neighs:        79213.2 ave      115487 max           0 min
Histogram: 8 4 4 0 10 6 8 8 24 32

Total # of neighbors = 8238174
Ave neighs/atom = 28.530374
Neighbor list builds = 0
Dangerous builds = 0
The dot product: -1.51225898584295e-08
Setting atom values ...
  1 settings made for x
  1 settings made for y
  1 settings made for z
Setting up cg style minimization ...
  Unit style    : metal
  Current step  : 27662
Per MPI rank memory allocation (min/avg/max) = 5.441 | 5.816 | 6.074 Mbytes
Step PotEng KinEng TotEng v_fx v_fy v_fz 
   27662   -1152449.1            0   -1152449.1 0.00091047827 0.0072717125 -0.0096726298 
   27836   -1152449.1            0   -1152449.1 8.4079084e-07 2.132149e-06 -3.2481548e-06 
Loop time of 2.04431 on 104 procs for 174 steps with 288751 atoms

99.9% CPU use with 104 MPI tasks x 1 OpenMP threads

Minimization stats:
  Stopping criterion = energy tolerance
  Energy initial, next-to-last, final = 
     -1152449.10680814  -1152449.10816732  -1152449.10816732
  Force two-norm initial, final = 0.16202251 0.00011091649
  Force max component initial, final = 0.094533582 7.7529231e-06
  Final line search alpha, max atom move = 1.0000000 7.7529231e-06
  Iterations, force evaluations = 174 348

MPI task timing breakdown:
Section |  min time  |  avg time  |  max time  |%varavg| %total
---------------------------------------------------------------
Pair    | 0.52649    | 1.4637     | 1.9274     |  32.8 | 71.60
Neigh   | 0          | 0          | 0          |   0.0 |  0.00
Comm    | 0.029137   | 0.33274    | 0.98385    |  47.4 | 16.28
Output  | 0          | 0          | 0          |   0.0 |  0.00
Modify  | 2.131e-05  | 0.0028698  | 0.0061004  |   2.5 |  0.14
Other   |            | 0.245      |            |       | 11.98

Nlocal:        2776.45 ave        3961 max           0 min
Histogram: 8 4 4 0 6 10 8 4 26 34
Nghost:        3879.12 ave        5425 max         232 min
Histogram: 8 0 8 0 16 0 8 8 16 40
Neighs:        79213.2 ave      115486 max           0 min
Histogram: 8 4 4 0 10 6 8 8 24 32

Total # of neighbors = 8238172
Ave neighs/atom = 28.530367
Neighbor list builds = 0
Dangerous builds = 0
The dot product: 5.45937219122001e-09
Setting atom values ...
  1 settings made for x
  1 settings made for y
  1 settings made for z
Setting up cg style minimization ...
  Unit style    : metal
  Current step  : 27836
Per MPI rank memory allocation (min/avg/max) = 5.441 | 5.816 | 6.074 Mbytes
Step PotEng KinEng TotEng v_fx v_fy v_fz 
   27836   -1152449.1            0   -1152449.1 0.0010662877  0.006137604 -0.0083869318 
   27982   -1152449.1            0   -1152449.1 -7.1423466e-06 -8.8357946e-06 1.609888e-05 
Loop time of 1.72226 on 104 procs for 146 steps with 288751 atoms

99.9% CPU use with 104 MPI tasks x 1 OpenMP threads

Minimization stats:
  Stopping criterion = energy tolerance
  Energy initial, next-to-last, final = 
     -1152449.08701612  -1152449.08841247  -1152449.08841247
  Force two-norm initial, final = 0.16179432 0.00024353915
  Force max component initial, final = 0.09534618 4.2560421e-05
  Final line search alpha, max atom move = 1.0000000 4.2560421e-05
  Iterations, force evaluations = 146 292

MPI task timing breakdown:
Section |  min time  |  avg time  |  max time  |%varavg| %total
---------------------------------------------------------------
Pair    | 0.43986    | 1.23       | 1.6192     |  30.0 | 71.42
Neigh   | 0          | 0          | 0          |   0.0 |  0.00
Comm    | 0.025      | 0.28032    | 0.82793    |  43.7 | 16.28
Output  | 0          | 0          | 0          |   0.0 |  0.00
Modify  | 1.8135e-05 | 0.0024146  | 0.0051129  |   2.3 |  0.14
Other   |            | 0.2095     |            |       | 12.16

Nlocal:        2776.45 ave        3961 max           0 min
Histogram: 8 4 4 0 6 10 8 4 26 34
Nghost:        3879.12 ave        5425 max         232 min
Histogram: 8 0 8 0 16 0 8 8 16 40
Neighs:        79213.2 ave      115486 max           0 min
Histogram: 8 4 4 0 10 6 8 8 24 32

Total # of neighbors = 8238172
Ave neighs/atom = 28.530367
Neighbor list builds = 0
Dangerous builds = 0
The dot product: -2.06021771060782e-08
Setting atom values ...
  1 settings made for x
  1 settings made for y
  1 settings made for z
Setting up cg style minimization ...
  Unit style    : metal
  Current step  : 27982
Per MPI rank memory allocation (min/avg/max) = 5.441 | 5.816 | 6.074 Mbytes
Step PotEng KinEng TotEng v_fx v_fy v_fz 
   27982   -1152449.1            0   -1152449.1 0.0011792011 0.0051872663 -0.0072955154 
   28000   -1152449.1            0   -1152449.1 0.0010699329 0.0001349924 -0.00093548717 
   28167   -1152449.1            0   -1152449.1 -1.2683788e-05 2.4864471e-06 6.0088001e-06 
Loop time of 2.19746 on 104 procs for 185 steps with 288751 atoms

99.9% CPU use with 104 MPI tasks x 1 OpenMP threads

Minimization stats:
  Stopping criterion = energy tolerance
  Energy initial, next-to-last, final = 
     -1152449.06621678  -1152449.06760295  -1152449.06760295
  Force two-norm initial, final = 0.16179025 9.0585412e-05
  Force max component initial, final = 0.096076735 2.3354159e-05
  Final line search alpha, max atom move = 1.0000000 2.3354159e-05
  Iterations, force evaluations = 185 370

MPI task timing breakdown:
Section |  min time  |  avg time  |  max time  |%varavg| %total
---------------------------------------------------------------
Pair    | 0.55965    | 1.5567     | 2.0573     |  33.9 | 70.84
Neigh   | 0          | 0          | 0          |   0.0 |  0.00
Comm    | 0.032718   | 0.35999    | 1.046      |  48.2 | 16.38
Output  | 0.00022478 | 0.00023636 | 0.0003323  |   0.0 |  0.01
Modify  | 2.3491e-05 | 0.003061   | 0.0064883  |   2.6 |  0.14
Other   |            | 0.2775     |            |       | 12.63

Nlocal:        2776.45 ave        3961 max           0 min
Histogram: 8 4 4 0 6 10 8 4 26 34
Nghost:        3879.16 ave        5425 max         232 min
Histogram: 8 0 8 0 16 0 8 8 16 40
Neighs:        79213.2 ave      115483 max           0 min
Histogram: 8 4 4 0 10 6 8 8 24 32

Total # of neighbors = 8238171
Ave neighs/atom = 28.530364
Neighbor list builds = 0
Dangerous builds = 0
The dot product: 1.33141543983975e-08
Setting atom values ...
  1 settings made for x
  1 settings made for y
  1 settings made for z
Setting up cg style minimization ...
  Unit style    : metal
  Current step  : 28167
Per MPI rank memory allocation (min/avg/max) = 5.441 | 5.816 | 6.074 Mbytes
Step PotEng KinEng TotEng v_fx v_fy v_fz 
   28167     -1152449            0     -1152449 0.0011471594 0.0043016968 -0.0061768617 
   28337     -1152449            0     -1152449 5.3680778e-05 -7.0600411e-07 -3.7618955e-05 
Loop time of 2.00225 on 104 procs for 170 steps with 288751 atoms

99.9% CPU use with 104 MPI tasks x 1 OpenMP threads

Minimization stats:
  Stopping criterion = energy tolerance
  Energy initial, next-to-last, final = 
     -1152449.04425741  -1152449.04561035  -1152449.04561035
  Force two-norm initial, final = 0.16192331 0.00019915674
  Force max component initial, final = 0.096784662 5.7150954e-05
  Final line search alpha, max atom move = 1.0000000 5.7150954e-05
  Iterations, force evaluations = 170 340

MPI task timing breakdown:
Section |  min time  |  avg time  |  max time  |%varavg| %total
---------------------------------------------------------------
Pair    | 0.51463    | 1.43       | 1.8842     |  32.4 | 71.42
Neigh   | 0          | 0          | 0          |   0.0 |  0.00
Comm    | 0.029599   | 0.32679    | 0.96802    |  47.0 | 16.32
Output  | 0          | 0          | 0          |   0.0 |  0.00
Modify  | 2.0665e-05 | 0.0028137  | 0.0059732  |   2.5 |  0.14
Other   |            | 0.2426     |            |       | 12.12

Nlocal:        2776.45 ave        3960 max           0 min
Histogram: 8 4 4 0 4 12 8 4 26 34
Nghost:        3879.16 ave        5425 max         232 min
Histogram: 8 0 8 0 16 0 8 8 16 40
Neighs:        79213.2 ave      115450 max           0 min
Histogram: 8 4 4 0 10 6 8 8 24 32

Total # of neighbors = 8238170
Ave neighs/atom = 28.530360
Neighbor list builds = 0
Dangerous builds = 0
The dot product: -2.8965381635709e-08
Setting atom values ...
  1 settings made for x
  1 settings made for y
  1 settings made for z
Setting up cg style minimization ...
  Unit style    : metal
  Current step  : 28337
Per MPI rank memory allocation (min/avg/max) = 5.441 | 5.816 | 6.074 Mbytes
Step PotEng KinEng TotEng v_fx v_fy v_fz 
   28337     -1152449            0     -1152449 0.00089976452 0.0035231327 -0.0050340506 
   28568     -1152449            0     -1152449 -4.1847793e-06 -1.6688812e-07 3.2078923e-06 
Loop time of 2.73763 on 104 procs for 231 steps with 288751 atoms

99.9% CPU use with 104 MPI tasks x 1 OpenMP threads

Minimization stats:
  Stopping criterion = energy tolerance
  Energy initial, next-to-last, final = 
     -1152449.02099458  -1152449.02232711  -1152449.02232711
  Force two-norm initial, final = 0.16217442 1.9672939e-05
  Force max component initial, final = 0.097440043 5.4043743e-06
  Final line search alpha, max atom move = 1.0000000 5.4043743e-06
  Iterations, force evaluations = 231 462

MPI task timing breakdown:
Section |  min time  |  avg time  |  max time  |%varavg| %total
---------------------------------------------------------------
Pair    | 0.69951    | 1.9428     | 2.5672     |  37.8 | 70.97
Neigh   | 0          | 0          | 0          |   0.0 |  0.00
Comm    | 0.040452   | 0.44721    | 1.317      |  54.3 | 16.34
Output  | 0          | 0          | 0          |   0.0 |  0.00
Modify  | 2.9089e-05 | 0.003813   | 0.0081064  |   2.9 |  0.14
Other   |            | 0.3438     |            |       | 12.56

Nlocal:        2776.45 ave        3960 max           0 min
Histogram: 8 4 4 0 4 12 8 4 26 34
Nghost:        3879.16 ave        5425 max         232 min
Histogram: 8 0 8 0 16 0 8 8 16 40
Neighs:        79213.2 ave      115451 max           0 min
Histogram: 8 4 4 0 10 6 8 8 24 32

Total # of neighbors = 8238171
Ave neighs/atom = 28.530364
Neighbor list builds = 0
Dangerous builds = 0
The dot product: 2.16973894938574e-09
Setting atom values ...
  1 settings made for x
  1 settings made for y
  1 settings made for z
Setting up cg style minimization ...
  Unit style    : metal
  Current step  : 28568
Per MPI rank memory allocation (min/avg/max) = 5.441 | 5.816 | 6.074 Mbytes
Step PotEng KinEng TotEng v_fx v_fy v_fz 
   28568     -1152449            0     -1152449 0.00023447299 0.0028451081 -0.0037149387 
   28810     -1152449            0     -1152449 3.6015508e-07 1.3274253e-07 -4.2356099e-07 
Loop time of 2.90062 on 104 procs for 242 steps with 288751 atoms

99.9% CPU use with 104 MPI tasks x 1 OpenMP threads

Minimization stats:
  Stopping criterion = energy tolerance
  Energy initial, next-to-last, final = 
      -1152448.9963399  -1152448.99765431  -1152448.99765431
  Force two-norm initial, final = 0.16262156 1.2495984e-05
  Force max component initial, final = 0.098088283 2.7020999e-06
  Final line search alpha, max atom move = 1.0000000 2.7020999e-06
  Iterations, force evaluations = 242 484

MPI task timing breakdown:
Section |  min time  |  avg time  |  max time  |%varavg| %total
---------------------------------------------------------------
Pair    | 0.73303    | 2.0391     | 2.6981     |  38.8 | 70.30
Neigh   | 0          | 0          | 0          |   0.0 |  0.00
Comm    | 0.04446    | 0.46914    | 1.363      |  55.1 | 16.17
Output  | 0          | 0          | 0          |   0.0 |  0.00
Modify  | 3.0096e-05 | 0.0039963  | 0.0084766  |   3.0 |  0.14
Other   |            | 0.3884     |            |       | 13.39

Nlocal:        2776.45 ave        3960 max           0 min
Histogram: 8 4 4 0 4 12 8 4 26 34
Nghost:        3879.16 ave        5425 max         232 min
Histogram: 8 0 8 0 16 0 8 8 16 40
Neighs:        79213.2 ave      115453 max           0 min
Histogram: 8 4 4 0 10 6 8 8 24 32

Total # of neighbors = 8238173
Ave neighs/atom = 28.530370
Neighbor list builds = 0
Dangerous builds = 0
The dot product: -1.22747789247449e-10
Setting atom values ...
  1 settings made for x
  1 settings made for y
  1 settings made for z
Setting up cg style minimization ...
  Unit style    : metal
  Current step  : 28810
Per MPI rank memory allocation (min/avg/max) = 5.441 | 5.816 | 6.074 Mbytes
Step PotEng KinEng TotEng v_fx v_fy v_fz 
   28810     -1152449            0     -1152449 -0.0005725171 0.0022521492 -0.0023991852 
   29000     -1152449            0     -1152449 7.1045559e-06 -2.0860839e-06 -2.4857904e-06 
   29029     -1152449            0     -1152449 -1.4511408e-06 -1.2353763e-06 2.5801451e-06 
Loop time of 2.58724 on 104 procs for 219 steps with 288751 atoms

99.9% CPU use with 104 MPI tasks x 1 OpenMP threads

Minimization stats:
  Stopping criterion = energy tolerance
  Energy initial, next-to-last, final = 
      -1152448.9701926  -1152448.97149252  -1152448.97149252
  Force two-norm initial, final = 0.16327639 3.4552566e-05
  Force max component initial, final = 0.098680945 8.1887910e-06
  Final line search alpha, max atom move = 1.0000000 8.1887910e-06
  Iterations, force evaluations = 219 438

MPI task timing breakdown:
Section |  min time  |  avg time  |  max time  |%varavg| %total
---------------------------------------------------------------
Pair    | 0.6623     | 1.8412     | 2.4365     |  36.8 | 71.16
Neigh   | 0          | 0          | 0          |   0.0 |  0.00
Comm    | 0.037433   | 0.42091    | 1.2437     |  53.1 | 16.27
Output  | 0.0002507  | 0.00026209 | 0.00042797 |   0.0 |  0.01
Modify  | 2.6881e-05 | 0.0036233  | 0.0076906  |   2.8 |  0.14
Other   |            | 0.3213     |            |       | 12.42

Nlocal:        2776.45 ave        3960 max           0 min
Histogram: 8 4 4 0 4 12 8 4 26 34
Nghost:        3879.12 ave        5425 max         232 min
Histogram: 8 0 8 0 16 0 8 8 16 40
Neighs:        79213.2 ave      115451 max           0 min
Histogram: 8 4 4 0 10 6 8 8 24 32

Total # of neighbors = 8238171
Ave neighs/atom = 28.530364
Neighbor list builds = 0
Dangerous builds = 0
The dot product: 5.72098952999149e-10
Setting atom values ...
  1 settings made for x
  1 settings made for y
  1 settings made for z
Setting up cg style minimization ...
  Unit style    : metal
  Current step  : 29029
Per MPI rank memory allocation (min/avg/max) = 5.441 | 5.816 | 6.074 Mbytes
Step PotEng KinEng TotEng v_fx v_fy v_fz 
   29029   -1152448.9            0   -1152448.9 -0.0014219946 0.0017375939 -0.0011505394 
   29280   -1152448.9            0   -1152448.9 1.0338897e-06 2.2650887e-07 -1.0224512e-06 
Loop time of 2.94326 on 104 procs for 251 steps with 288751 atoms

99.9% CPU use with 104 MPI tasks x 1 OpenMP threads

Minimization stats:
  Stopping criterion = energy tolerance
  Energy initial, next-to-last, final = 
     -1152448.94246174  -1152448.94375573  -1152448.94375573
  Force two-norm initial, final = 0.1641449 7.5616831e-06
  Force max component initial, final = 0.099234158 1.0338897e-06
  Final line search alpha, max atom move = 1.0000000 1.0338897e-06
  Iterations, force evaluations = 251 502

MPI task timing breakdown:
Section |  min time  |  avg time  |  max time  |%varavg| %total
---------------------------------------------------------------
Pair    | 0.75868    | 2.1113     | 2.7767     |  39.3 | 71.73
Neigh   | 0          | 0          | 0          |   0.0 |  0.00
Comm    | 0.043363   | 0.47877    | 1.4212     |  57.2 | 16.27
Output  | 0          | 0          | 0          |   0.0 |  0.00
Modify  | 3.0878e-05 | 0.0041432  | 0.0088131  |   3.0 |  0.14
Other   |            | 0.3491     |            |       | 11.86

Nlocal:        2776.45 ave        3960 max           0 min
Histogram: 8 4 4 0 4 12 8 4 26 34
Nghost:        3879.09 ave        5425 max         232 min
Histogram: 8 0 8 0 16 0 8 8 16 40
Neighs:        79213.2 ave      115452 max           0 min
Histogram: 8 4 4 0 10 6 8 8 24 32

Total # of neighbors = 8238172
Ave neighs/atom = 28.530367
Neighbor list builds = 0
Dangerous builds = 0
The dot product: -1.22815510680095e-09
Setting atom values ...
  1 settings made for x
  1 settings made for y
  1 settings made for z
Setting up cg style minimization ...
  Unit style    : metal
  Current step  : 29280
Per MPI rank memory allocation (min/avg/max) = 5.441 | 5.816 | 6.074 Mbytes
Step PotEng KinEng TotEng v_fx v_fy v_fz 
   29280   -1152448.9            0   -1152448.9 -0.0020832944 0.0012924221 -0.00012356739 
   29471   -1152448.9            0   -1152448.9 1.5701477e-05 -5.1492748e-06 -4.7987654e-06 
Loop time of 2.24863 on 104 procs for 191 steps with 288751 atoms

99.9% CPU use with 104 MPI tasks x 1 OpenMP threads

Minimization stats:
  Stopping criterion = energy tolerance
  Energy initial, next-to-last, final = 
     -1152448.91307731  -1152448.91437104  -1152448.91437104
  Force two-norm initial, final = 0.16520766 0.00011017284
  Force max component initial, final = 0.099769525 1.5701477e-05
  Final line search alpha, max atom move = 1.0000000 1.5701477e-05
  Iterations, force evaluations = 191 382

MPI task timing breakdown:
Section |  min time  |  avg time  |  max time  |%varavg| %total
---------------------------------------------------------------
Pair    | 0.57938    | 1.6066     | 2.1194     |  34.3 | 71.45
Neigh   | 0          | 0          | 0          |   0.0 |  0.00
Comm    | 0.034269   | 0.36627    | 1.0793     |  49.5 | 16.29
Output  | 0          | 0          | 0          |   0.0 |  0.00
Modify  | 2.3759e-05 | 0.0031547  | 0.0067145  |   2.6 |  0.14
Other   |            | 0.2726     |            |       | 12.12

Nlocal:        2776.45 ave        3960 max           0 min
Histogram: 8 4 4 0 4 12 8 4 26 34
Nghost:        3879.05 ave        5424 max         232 min
Histogram: 8 0 8 0 16 0 8 8 16 40
Neighs:        79213.2 ave      115454 max           0 min
Histogram: 8 4 4 0 10 6 8 8 24 32

Total # of neighbors = 8238170
Ave neighs/atom = 28.530360
Neighbor list builds = 0
Dangerous builds = 0
The dot product: -2.32928592645029e-08
