LAMMPS (29 Oct 2020)
OMP_NUM_THREADS environment is not set. Defaulting to 1 thread. (../comm.cpp:94)
  using 1 OpenMP thread(s) per MPI task
OMP_NUM_THREADS environment is not set. Defaulting to 1 thread. (../comm.cpp:94)
  using 1 OpenMP thread(s) per MPI task
Reading data file ...
  orthogonal box = (-122.39241 -121.13707 -37.090501) to (122.39241 121.13707 37.090501)
  13 by 4 by 2 MPI processor grid
  reading atoms ...
  288751 atoms
  read_data CPU = 0.401 seconds
199981 atoms in group inner
88770 atoms in group outer
1 atoms in group carbon
Neighbor list info ...
  update every 1 steps, delay 0 steps, check yes
  max neighbors/atom: 2000, page size: 100000
  master list distance cutoff = 5.6
  ghost atom cutoff = 5.6
  binsize = 2.8, bins = 88 87 27
  1 neighbor lists, perpetual/occasional/extra = 1 0 0
  (1) pair eam/alloy, perpetual
      attributes: half, newton on
      pair build: half/bin/atomonly/newton
      stencil: half/bin/3d/newton
      bin: standard
Setting up cg style minimization ...
  Unit style    : metal
  Current step  : 0
Per MPI rank memory allocation (min/avg/max) = 5.441 | 5.816 | 6.074 Mbytes
Step v_fx v_fy v_fz PotEng KinEng TotEng 
       0   0.22017325   0.62875094  -0.56449545   -1152447.8            0   -1152447.8 
     223 -7.916844e-07 1.192087e-06 -1.2302382e-06   -1152449.5            0   -1152449.5 
Loop time of 2.59649 on 104 procs for 223 steps with 288751 atoms

99.8% CPU use with 104 MPI tasks x 1 OpenMP threads

Minimization stats:
  Stopping criterion = energy tolerance
  Energy initial, next-to-last, final = 
     -1152447.84135674  -1152449.45035272  -1152449.45035272
  Force two-norm initial, final = 9.8329665 1.0780119e-05
  Force max component initial, final = 4.6431781 2.8763470e-06
  Final line search alpha, max atom move = 1.0000000 2.8763470e-06
  Iterations, force evaluations = 223 445

MPI task timing breakdown:
Section |  min time  |  avg time  |  max time  |%varavg| %total
---------------------------------------------------------------
Pair    | 0.68918    | 1.8697     | 2.424      |  36.5 | 72.01
Neigh   | 2.1718e-05 | 0.0058612  | 0.0084711  |   3.2 |  0.23
Comm    | 0.040315   | 0.41999    | 1.2666     |  54.6 | 16.18
Output  | 0          | 0          | 0          |   0.0 |  0.00
Modify  | 2.5543e-05 | 0.0023964  | 0.0061432  |   3.1 |  0.09
Other   |            | 0.2986     |            |       | 11.50

Nlocal:        2776.45 ave        3960 max           0 min
Histogram: 8 4 4 0 4 12 8 2 28 34
Nghost:        3879.03 ave        5425 max         232 min
Histogram: 8 0 8 0 16 0 8 8 16 40
Neighs:        79213.7 ave      115434 max           0 min
Histogram: 8 4 4 0 10 6 8 8 24 32

Total # of neighbors = 8238223
Ave neighs/atom = 28.530544
Neighbor list builds = 2
Dangerous builds = 0
Setting atom values ...
  1 settings made for x
  1 settings made for y
  1 settings made for z
Setting up cg style minimization ...
  Unit style    : metal
  Current step  : 223
Per MPI rank memory allocation (min/avg/max) = 5.441 | 5.816 | 6.074 Mbytes
Step PotEng KinEng TotEng v_fx v_fy v_fz 
     223   -1152449.4            0   -1152449.4  0.019851828  0.010640505 -0.022137584 
     350   -1152449.5            0   -1152449.5 -3.4129409e-05 1.7231644e-05 6.8448968e-05 
Loop time of 1.47507 on 104 procs for 127 steps with 288751 atoms

99.9% CPU use with 104 MPI tasks x 1 OpenMP threads

Minimization stats:
  Stopping criterion = energy tolerance
  Energy initial, next-to-last, final = 
     -1152449.44954611  -1152449.45010972  -1152449.45010972
  Force two-norm initial, final = 0.11490782 0.00025015439
  Force max component initial, final = 0.051177121 6.8448968e-05
  Final line search alpha, max atom move = 1.0000000 6.8448968e-05
  Iterations, force evaluations = 127 254

MPI task timing breakdown:
Section |  min time  |  avg time  |  max time  |%varavg| %total
---------------------------------------------------------------
Pair    | 0.38686    | 1.0733     | 1.3843     |  27.9 | 72.76
Neigh   | 0          | 0          | 0          |   0.0 |  0.00
Comm    | 0.022865   | 0.23988    | 0.72569    |  41.6 | 16.26
Output  | 0          | 0          | 0          |   0.0 |  0.00
Modify  | 1.6334e-05 | 0.0021088  | 0.0045046  |   2.2 |  0.14
Other   |            | 0.1598     |            |       | 10.83

Nlocal:        2776.45 ave        3957 max           0 min
Histogram: 8 4 4 0 4 12 8 2 28 34
Nghost:        3879.03 ave        5424 max         232 min
Histogram: 8 0 8 0 16 0 8 8 16 40
Neighs:        79213.4 ave      115350 max           0 min
Histogram: 8 4 4 0 10 6 8 8 24 32

Total # of neighbors = 8238197
Ave neighs/atom = 28.530454
Neighbor list builds = 0
Dangerous builds = 0
Setting atom values ...
  1 settings made for x
  1 settings made for y
  1 settings made for z
Setting up cg style minimization ...
  Unit style    : metal
  Current step  : 350
Per MPI rank memory allocation (min/avg/max) = 5.441 | 5.816 | 6.074 Mbytes
Step PotEng KinEng TotEng v_fx v_fy v_fz 
     350   -1152449.4            0   -1152449.4  0.032089431  0.026250476 -0.046522965 
     500   -1152449.4            0   -1152449.4 1.8168415e-05 4.9173438e-06 -3.7256278e-05 
Loop time of 1.74564 on 104 procs for 150 steps with 288751 atoms

99.9% CPU use with 104 MPI tasks x 1 OpenMP threads

Minimization stats:
  Stopping criterion = energy tolerance
  Energy initial, next-to-last, final = 
     -1152449.44678496  -1152449.44853609  -1152449.44853609
  Force two-norm initial, final = 0.20354406 0.00027568765
  Force max component initial, final = 0.088196273 3.8390238e-05
  Final line search alpha, max atom move = 1.0000000 3.8390238e-05
  Iterations, force evaluations = 150 300

MPI task timing breakdown:
Section |  min time  |  avg time  |  max time  |%varavg| %total
---------------------------------------------------------------
Pair    | 0.45669    | 1.259      | 1.6406     |  30.3 | 72.12
Neigh   | 0          | 0          | 0          |   0.0 |  0.00
Comm    | 0.026016   | 0.28353    | 0.85315    |  44.7 | 16.24
Output  | 0          | 0          | 0          |   0.0 |  0.00
Modify  | 1.8532e-05 | 0.0024765  | 0.0053152  |   2.3 |  0.14
Other   |            | 0.2006     |            |       | 11.49

Nlocal:        2776.45 ave        3957 max           0 min
Histogram: 8 4 4 0 4 12 8 2 28 34
Nghost:        3879.03 ave        5424 max         232 min
Histogram: 8 0 8 0 16 0 8 8 16 40
Neighs:        79213.5 ave      115351 max           0 min
Histogram: 8 4 4 0 10 6 8 8 24 32

Total # of neighbors = 8238200
Ave neighs/atom = 28.530464
Neighbor list builds = 0
Dangerous builds = 0
The dot product: 1.54495014515399e-07
Setting atom values ...
  1 settings made for x
  1 settings made for y
  1 settings made for z
Setting up cg style minimization ...
  Unit style    : metal
  Current step  : 500
Per MPI rank memory allocation (min/avg/max) = 5.441 | 5.816 | 6.074 Mbytes
Step PotEng KinEng TotEng v_fx v_fy v_fz 
     500   -1152449.4            0   -1152449.4  0.026879409  0.031550496 -0.048523724 
     625   -1152449.4            0   -1152449.4 5.2346479e-06 2.2268536e-05 1.3922899e-05 
Loop time of 1.45993 on 104 procs for 125 steps with 288751 atoms

99.9% CPU use with 104 MPI tasks x 1 OpenMP threads

Minimization stats:
  Stopping criterion = energy tolerance
  Energy initial, next-to-last, final = 
     -1152449.44385415  -1152449.44552485  -1152449.44552485
  Force two-norm initial, final = 0.19824741 0.00014647095
  Force max component initial, final = 0.082491488 2.6511152e-05
  Final line search alpha, max atom move = 1.0000000 2.6511152e-05
  Iterations, force evaluations = 125 250

MPI task timing breakdown:
Section |  min time  |  avg time  |  max time  |%varavg| %total
---------------------------------------------------------------
Pair    | 0.38062    | 1.0572     | 1.3704     |  27.7 | 72.41
Neigh   | 0          | 0          | 0          |   0.0 |  0.00
Comm    | 0.024792   | 0.24105    | 0.7311     |  41.1 | 16.51
Output  | 0          | 0          | 0          |   0.0 |  0.00
Modify  | 1.5388e-05 | 0.0020657  | 0.0043989  |   2.1 |  0.14
Other   |            | 0.1596     |            |       | 10.93

Nlocal:        2776.45 ave        3957 max           0 min
Histogram: 8 4 4 0 4 12 8 2 28 34
Nghost:        3879.03 ave        5424 max         232 min
Histogram: 8 0 8 0 16 0 8 8 16 40
Neighs:        79213.5 ave      115352 max           0 min
Histogram: 8 4 4 0 10 6 8 8 24 32

Total # of neighbors = 8238201
Ave neighs/atom = 28.530467
Neighbor list builds = 0
Dangerous builds = 0
The dot product: -1.91087406302277e-08
Setting atom values ...
  1 settings made for x
  1 settings made for y
  1 settings made for z
Setting up cg style minimization ...
  Unit style    : metal
  Current step  : 625
Per MPI rank memory allocation (min/avg/max) = 5.441 | 5.816 | 6.074 Mbytes
Step PotEng KinEng TotEng v_fx v_fy v_fz 
     625   -1152449.4            0   -1152449.4  0.021953262  0.034524598 -0.045687726 
     770   -1152449.4            0   -1152449.4 5.0063707e-07 4.9840776e-06 6.9912242e-06 
Loop time of 1.72274 on 104 procs for 145 steps with 288751 atoms

99.9% CPU use with 104 MPI tasks x 1 OpenMP threads

Minimization stats:
  Stopping criterion = energy tolerance
  Energy initial, next-to-last, final = 
     -1152449.43942834  -1152449.44103469  -1152449.44103469
  Force two-norm initial, final = 0.19312444 4.5910029e-05
  Force max component initial, final = 0.077583354 8.3899408e-06
  Final line search alpha, max atom move = 1.0000000 8.3899408e-06
  Iterations, force evaluations = 145 290

MPI task timing breakdown:
Section |  min time  |  avg time  |  max time  |%varavg| %total
---------------------------------------------------------------
Pair    | 0.43955    | 1.22       | 1.6029     |  29.6 | 70.82
Neigh   | 0          | 0          | 0          |   0.0 |  0.00
Comm    | 0.033487   | 0.27937    | 0.84025    |  43.5 | 16.22
Output  | 0          | 0          | 0          |   0.0 |  0.00
Modify  | 1.6915e-05 | 0.0023924  | 0.0050826  |   2.3 |  0.14
Other   |            | 0.2209     |            |       | 12.83

Nlocal:        2776.45 ave        3957 max           0 min
Histogram: 8 4 4 0 4 12 8 2 28 34
Nghost:        3879.03 ave        5424 max         232 min
Histogram: 8 0 8 0 16 0 8 8 16 40
Neighs:        79213.5 ave      115332 max           0 min
Histogram: 8 4 4 0 10 6 8 8 24 32

Total # of neighbors = 8238202
Ave neighs/atom = 28.530471
Neighbor list builds = 0
Dangerous builds = 0
The dot product: -1.74762465451267e-08
Setting atom values ...
  1 settings made for x
  1 settings made for y
  1 settings made for z
Setting up cg style minimization ...
  Unit style    : metal
  Current step  : 770
Per MPI rank memory allocation (min/avg/max) = 5.441 | 5.816 | 6.074 Mbytes
Step PotEng KinEng TotEng v_fx v_fy v_fz 
     770   -1152449.4            0   -1152449.4  0.018546857  0.036469701 -0.041991555 
     916   -1152449.4            0   -1152449.4 1.2487973e-06 5.1396054e-07 -7.679066e-06 
Loop time of 1.70707 on 104 procs for 146 steps with 288751 atoms

99.9% CPU use with 104 MPI tasks x 1 OpenMP threads

Minimization stats:
  Stopping criterion = energy tolerance
  Energy initial, next-to-last, final = 
     -1152449.43346517  -1152449.43502269  -1152449.43502269
  Force two-norm initial, final = 0.18901097 3.9754859e-05
  Force max component initial, final = 0.073741826 7.6790660e-06
  Final line search alpha, max atom move = 1.0000000 7.6790660e-06
  Iterations, force evaluations = 146 292

MPI task timing breakdown:
Section |  min time  |  avg time  |  max time  |%varavg| %total
---------------------------------------------------------------
Pair    | 0.44324    | 1.2309     | 1.6001     |  29.9 | 72.11
Neigh   | 0          | 0          | 0          |   0.0 |  0.00
Comm    | 0.025211   | 0.27675    | 0.84047    |  44.6 | 16.21
Output  | 0          | 0          | 0          |   0.0 |  0.00
Modify  | 1.7484e-05 | 0.0024064  | 0.0051499  |   2.3 |  0.14
Other   |            | 0.197      |            |       | 11.54

Nlocal:        2776.45 ave        3956 max           0 min
Histogram: 8 4 4 0 4 12 8 0 30 34
Nghost:        3879.03 ave        5424 max         232 min
Histogram: 8 0 8 0 16 0 8 8 16 40
Neighs:        79213.5 ave      115319 max           0 min
Histogram: 8 4 4 0 10 6 8 8 24 32

Total # of neighbors = 8238202
Ave neighs/atom = 28.530471
Neighbor list builds = 0
Dangerous builds = 0
The dot product: 2.65326227850857e-08
Setting atom values ...
  1 settings made for x
  1 settings made for y
  1 settings made for z
Setting up cg style minimization ...
  Unit style    : metal
  Current step  : 916
Per MPI rank memory allocation (min/avg/max) = 5.441 | 5.816 | 6.074 Mbytes
Step PotEng KinEng TotEng v_fx v_fy v_fz 
     916   -1152449.4            0   -1152449.4  0.016468794  0.038445262 -0.039162265 
    1000   -1152449.4            0   -1152449.4 -6.6212027e-06 -6.7280587e-05 -0.00015115795 
    1032   -1152449.4            0   -1152449.4 -1.4988891e-06 -1.8010031e-05 -4.3169488e-05 
Loop time of 1.34988 on 104 procs for 116 steps with 288751 atoms

99.9% CPU use with 104 MPI tasks x 1 OpenMP threads

Minimization stats:
  Stopping criterion = energy tolerance
  Energy initial, next-to-last, final = 
     -1152449.42593632  -1152449.42745804  -1152449.42745804
  Force two-norm initial, final = 0.18595183 0.00019199099
  Force max component initial, final = 0.070661884 4.3169488e-05
  Final line search alpha, max atom move = 1.0000000 4.3169488e-05
  Iterations, force evaluations = 116 232

MPI task timing breakdown:
Section |  min time  |  avg time  |  max time  |%varavg| %total
---------------------------------------------------------------
Pair    | 0.35423    | 0.97292    | 1.2673     |  26.5 | 72.07
Neigh   | 0          | 0          | 0          |   0.0 |  0.00
Comm    | 0.023544   | 0.21964    | 0.66231    |  39.3 | 16.27
Output  | 0.00023391 | 0.00023921 | 0.0003549  |   0.0 |  0.02
Modify  | 1.3998e-05 | 0.0019201  | 0.0040835  |   2.1 |  0.14
Other   |            | 0.1552     |            |       | 11.49

Nlocal:        2776.45 ave        3956 max           0 min
Histogram: 8 4 4 0 4 12 8 0 30 34
Nghost:        3879.03 ave        5424 max         232 min
Histogram: 8 0 8 0 16 0 8 8 16 40
Neighs:        79213.5 ave      115319 max           0 min
Histogram: 8 4 4 0 10 6 8 8 24 32

Total # of neighbors = 8238201
Ave neighs/atom = 28.530467
Neighbor list builds = 0
Dangerous builds = 0
The dot product: 8.64553997186279e-08
Setting atom values ...
  1 settings made for x
  1 settings made for y
  1 settings made for z
Setting up cg style minimization ...
  Unit style    : metal
  Current step  : 1032
Per MPI rank memory allocation (min/avg/max) = 5.441 | 5.816 | 6.074 Mbytes
Step PotEng KinEng TotEng v_fx v_fy v_fz 
    1032   -1152449.4            0   -1152449.4  0.015305862  0.041039902 -0.037834899 
    1151   -1152449.4            0   -1152449.4 -7.7311672e-06 -1.6759902e-05 3.5530229e-05 
Loop time of 1.3732 on 104 procs for 119 steps with 288751 atoms

99.9% CPU use with 104 MPI tasks x 1 OpenMP threads

Minimization stats:
  Stopping criterion = energy tolerance
  Energy initial, next-to-last, final = 
     -1152449.41682697   -1152449.4183236   -1152449.4183236
  Force two-norm initial, final = 0.18378275 0.00017685565
  Force max component initial, final = 0.067990777 3.5530229e-05
  Final line search alpha, max atom move = 1.0000000 3.5530229e-05
  Iterations, force evaluations = 119 238

MPI task timing breakdown:
Section |  min time  |  avg time  |  max time  |%varavg| %total
---------------------------------------------------------------
Pair    | 0.36247    | 1.0017     | 1.2903     |  26.8 | 72.95
Neigh   | 0          | 0          | 0          |   0.0 |  0.00
Comm    | 0.020534   | 0.22217    | 0.67443    |  40.4 | 16.18
Output  | 0          | 0          | 0          |   0.0 |  0.00
Modify  | 1.4428e-05 | 0.0019637  | 0.0041905  |   2.1 |  0.14
Other   |            | 0.1474     |            |       | 10.73

Nlocal:        2776.45 ave        3956 max           0 min
Histogram: 8 4 4 0 4 12 8 0 30 34
Nghost:        3879.03 ave        5424 max         232 min
Histogram: 8 0 8 0 16 0 8 8 16 40
Neighs:        79213.5 ave      115318 max           0 min
Histogram: 8 4 4 0 10 6 8 8 24 32

Total # of neighbors = 8238204
Ave neighs/atom = 28.530478
Neighbor list builds = 0
Dangerous builds = 0
The dot product: -1.3962076108876e-07
Setting atom values ...
  1 settings made for x
  1 settings made for y
  1 settings made for z
Setting up cg style minimization ...
  Unit style    : metal
  Current step  : 1151
Per MPI rank memory allocation (min/avg/max) = 5.441 | 5.816 | 6.074 Mbytes
Step PotEng KinEng TotEng v_fx v_fy v_fz 
    1151   -1152449.4            0   -1152449.4  0.014683998  0.044590543 -0.038088551 
    1348   -1152449.4            0   -1152449.4 -5.3117881e-07 -5.7168091e-07 7.0450864e-06 
Loop time of 2.28698 on 104 procs for 197 steps with 288751 atoms

99.9% CPU use with 104 MPI tasks x 1 OpenMP threads

Minimization stats:
  Stopping criterion = energy tolerance
  Energy initial, next-to-last, final = 
      -1152449.4061379  -1152449.40761818  -1152449.40761818
  Force two-norm initial, final = 0.18233779 4.7984517e-05
  Force max component initial, final = 0.065337052 7.0450864e-06
  Final line search alpha, max atom move = 1.0000000 7.0450864e-06
  Iterations, force evaluations = 197 394

MPI task timing breakdown:
Section |  min time  |  avg time  |  max time  |%varavg| %total
---------------------------------------------------------------
Pair    | 0.60041    | 1.6513     | 2.1421     |  34.5 | 72.20
Neigh   | 0          | 0          | 0          |   0.0 |  0.00
Comm    | 0.038091   | 0.37032    | 1.1225     |  51.6 | 16.19
Output  | 0          | 0          | 0          |   0.0 |  0.00
Modify  | 2.3573e-05 | 0.0032397  | 0.0069162  |   2.7 |  0.14
Other   |            | 0.2621     |            |       | 11.46

Nlocal:        2776.45 ave        3956 max           0 min
Histogram: 8 4 4 0 4 12 8 0 30 34
Nghost:        3879.03 ave        5424 max         232 min
Histogram: 8 0 8 0 16 0 8 8 16 40
Neighs:        79213.5 ave      115316 max           0 min
Histogram: 8 4 4 0 10 6 8 8 24 32

Total # of neighbors = 8238200
Ave neighs/atom = 28.530464
Neighbor list builds = 0
Dangerous builds = 0
The dot product: -2.16070209215033e-08
Setting atom values ...
  1 settings made for x
  1 settings made for y
  1 settings made for z
Setting up cg style minimization ...
  Unit style    : metal
  Current step  : 1348
Per MPI rank memory allocation (min/avg/max) = 5.441 | 5.816 | 6.074 Mbytes
Step PotEng KinEng TotEng v_fx v_fy v_fz 
    1348   -1152449.4            0   -1152449.4  0.014341952   0.04952731 -0.040272939 
    1487   -1152449.4            0   -1152449.4 -7.7113161e-08 7.0244693e-07 7.8775647e-06 
Loop time of 1.59972 on 104 procs for 139 steps with 288751 atoms

99.9% CPU use with 104 MPI tasks x 1 OpenMP threads

Minimization stats:
  Stopping criterion = energy tolerance
  Energy initial, next-to-last, final = 
     -1152449.39388614  -1152449.39536352  -1152449.39536352
  Force two-norm initial, final = 0.1817721 9.6648894e-05
  Force max component initial, final = 0.062484652 8.5561491e-06
  Final line search alpha, max atom move = 1.0000000 8.5561491e-06
  Iterations, force evaluations = 139 278

MPI task timing breakdown:
Section |  min time  |  avg time  |  max time  |%varavg| %total
---------------------------------------------------------------
Pair    | 0.42132    | 1.1713     | 1.5092     |  29.1 | 73.22
Neigh   | 0          | 0          | 0          |   0.0 |  0.00
Comm    | 0.023777   | 0.26227    | 0.79819    |  43.6 | 16.39
Output  | 0          | 0          | 0          |   0.0 |  0.00
Modify  | 1.6472e-05 | 0.0022972  | 0.0049156  |   2.3 |  0.14
Other   |            | 0.1639     |            |       | 10.24

Nlocal:        2776.45 ave        3956 max           0 min
Histogram: 8 4 4 0 4 12 8 0 30 34
Nghost:        3879.03 ave        5424 max         232 min
Histogram: 8 0 8 0 16 0 8 8 16 40
Neighs:        79213.4 ave      115315 max           0 min
Histogram: 8 4 4 0 10 6 8 8 24 32

Total # of neighbors = 8238198
Ave neighs/atom = 28.530457
Neighbor list builds = 0
Dangerous builds = 0
The dot product: -2.23743553419279e-08
Setting atom values ...
  1 settings made for x
  1 settings made for y
  1 settings made for z
Setting up cg style minimization ...
  Unit style    : metal
  Current step  : 1487
Per MPI rank memory allocation (min/avg/max) = 5.441 | 5.816 | 6.074 Mbytes
Step PotEng KinEng TotEng v_fx v_fy v_fz 
    1487   -1152449.4            0   -1152449.4  0.014190319  0.057275207 -0.045425879 
    1641   -1152449.4            0   -1152449.4 -8.048055e-06 -3.4880929e-05 -1.499281e-05 
Loop time of 1.79696 on 104 procs for 154 steps with 288751 atoms

99.9% CPU use with 104 MPI tasks x 1 OpenMP threads

Minimization stats:
  Stopping criterion = energy tolerance
  Energy initial, next-to-last, final = 
     -1152449.38012521  -1152449.38163948  -1152449.38163948
  Force two-norm initial, final = 0.182755 0.00017131796
  Force max component initial, final = 0.05932699 3.4880929e-05
  Final line search alpha, max atom move = 1.0000000 3.4880929e-05
  Iterations, force evaluations = 154 308

MPI task timing breakdown:
Section |  min time  |  avg time  |  max time  |%varavg| %total
---------------------------------------------------------------
Pair    | 0.46596    | 1.2956     | 1.683      |  30.8 | 72.10
Neigh   | 0          | 0          | 0          |   0.0 |  0.00
Comm    | 0.027143   | 0.29336    | 0.88069    |  45.2 | 16.33
Output  | 0          | 0          | 0          |   0.0 |  0.00
Modify  | 1.8181e-05 | 0.0025405  | 0.0054305  |   2.4 |  0.14
Other   |            | 0.2054     |            |       | 11.43

Nlocal:        2776.45 ave        3956 max           0 min
Histogram: 8 4 4 0 4 12 8 0 30 34
Nghost:        3879.03 ave        5424 max         232 min
Histogram: 8 0 8 0 16 0 8 8 16 40
Neighs:        79213.4 ave      115308 max           0 min
Histogram: 8 4 4 0 10 6 8 8 24 32

Total # of neighbors = 8238197
Ave neighs/atom = 28.530454
Neighbor list builds = 0
Dangerous builds = 0
The dot product: -1.60857916530408e-07
Setting atom values ...
  1 settings made for x
  1 settings made for y
  1 settings made for z
Setting up cg style minimization ...
  Unit style    : metal
  Current step  : 1641
Per MPI rank memory allocation (min/avg/max) = 5.441 | 5.816 | 6.074 Mbytes
Step PotEng KinEng TotEng v_fx v_fy v_fz 
    1641   -1152449.4            0   -1152449.4  0.013925514  0.072628178 -0.058817103 
    1815   -1152449.4            0   -1152449.4 3.4547315e-06 1.8797451e-05 -2.7991144e-05 
Loop time of 1.99502 on 104 procs for 174 steps with 288751 atoms

99.9% CPU use with 104 MPI tasks x 1 OpenMP threads

Minimization stats:
  Stopping criterion = energy tolerance
  Energy initial, next-to-last, final = 
     -1152449.36506052  -1152449.36703319  -1152449.36703319
  Force two-norm initial, final = 0.1891322 0.00012559571
  Force max component initial, final = 0.072628178 3.1836767e-05
  Final line search alpha, max atom move = 1.0000000 3.1836767e-05
  Iterations, force evaluations = 174 348

MPI task timing breakdown:
Section |  min time  |  avg time  |  max time  |%varavg| %total
---------------------------------------------------------------
Pair    | 0.52777    | 1.464      | 1.8861     |  32.6 | 73.38
Neigh   | 0          | 0          | 0          |   0.0 |  0.00
Comm    | 0.031753   | 0.32552    | 0.98993    |  48.9 | 16.32
Output  | 0          | 0          | 0          |   0.0 |  0.00
Modify  | 2.0468e-05 | 0.0028672  | 0.0061971  |   2.5 |  0.14
Other   |            | 0.2027     |            |       | 10.16

Nlocal:        2776.45 ave        3956 max           0 min
Histogram: 8 4 4 0 4 12 8 0 30 34
Nghost:        3879.03 ave        5424 max         232 min
Histogram: 8 0 8 0 16 0 8 8 16 40
Neighs:        79213.4 ave      115307 max           0 min
Histogram: 8 4 4 0 10 6 8 8 24 32

Total # of neighbors = 8238193
Ave neighs/atom = 28.530440
Neighbor list builds = 0
Dangerous builds = 0
The dot product: 9.04175426922415e-07
Setting atom values ...
  1 settings made for x
  1 settings made for y
  1 settings made for z
Setting up cg style minimization ...
  Unit style    : metal
  Current step  : 1815
Per MPI rank memory allocation (min/avg/max) = 5.441 | 5.816 | 6.074 Mbytes
Step PotEng KinEng TotEng v_fx v_fy v_fz 
    1815   -1152449.4            0   -1152449.4 0.0024728767   0.13056634  -0.11074823 
    2000   -1152449.4            0   -1152449.4 7.7698289e-06 2.3703186e-05 5.5324583e-05 
    2071   -1152449.4            0   -1152449.4 -1.467878e-07 9.597818e-07 -2.5138038e-06 
Loop time of 2.95693 on 104 procs for 256 steps with 288751 atoms

99.9% CPU use with 104 MPI tasks x 1 OpenMP threads

Minimization stats:
  Stopping criterion = energy tolerance
  Energy initial, next-to-last, final = 
     -1152449.35064679  -1152449.35795635  -1152449.35795635
  Force two-norm initial, final = 0.23272361 1.6454688e-05
  Force max component initial, final = 0.13056634 4.2821850e-06
  Final line search alpha, max atom move = 1.0000000 4.2821850e-06
  Iterations, force evaluations = 256 512

MPI task timing breakdown:
Section |  min time  |  avg time  |  max time  |%varavg| %total
---------------------------------------------------------------
Pair    | 0.779      | 2.1396     | 2.7737     |  39.3 | 72.36
Neigh   | 1.0313e-05 | 0.002945   | 0.0042704  |   2.2 |  0.10
Comm    | 0.045667   | 0.47732    | 1.4546     |  58.8 | 16.14
Output  | 0.00019441 | 0.00019782 | 0.00033693 |   0.0 |  0.01
Modify  | 3.0407e-05 | 0.0042089  | 0.0089718  |   3.1 |  0.14
Other   |            | 0.3327     |            |       | 11.25

Nlocal:        2776.45 ave        3956 max           0 min
Histogram: 8 4 4 0 4 12 8 0 30 34
Nghost:        3879.01 ave        5424 max         232 min
Histogram: 8 0 8 0 16 0 8 8 16 40
Neighs:        79213.4 ave      115281 max           0 min
Histogram: 8 4 4 0 10 6 8 8 24 32

Total # of neighbors = 8238191
Ave neighs/atom = 28.530433
Neighbor list builds = 1
Dangerous builds = 0
The dot product: 1.59764977230939e-07
Setting atom values ...
  1 settings made for x
  1 settings made for y
  1 settings made for z
Setting up cg style minimization ...
  Unit style    : metal
  Current step  : 2071
Per MPI rank memory allocation (min/avg/max) = 5.441 | 5.816 | 6.074 Mbytes
Step PotEng KinEng TotEng v_fx v_fy v_fz 
    2071   -1152449.3            0   -1152449.3  -0.05849031   0.18295616  -0.11639047 
    2279   -1152449.4            0   -1152449.4 -1.5965108e-05 1.5950033e-05 -4.9575552e-05 
Loop time of 2.41812 on 104 procs for 208 steps with 288751 atoms

99.9% CPU use with 104 MPI tasks x 1 OpenMP threads

Minimization stats:
  Stopping criterion = energy tolerance
  Energy initial, next-to-last, final = 
     -1152449.34488691  -1152449.35152006  -1152449.35152006
  Force two-norm initial, final = 0.2649402 0.00016739404
  Force max component initial, final = 0.18295616 5.0455144e-05
  Final line search alpha, max atom move = 1.0000000 5.0455144e-05
  Iterations, force evaluations = 208 416

MPI task timing breakdown:
Section |  min time  |  avg time  |  max time  |%varavg| %total
---------------------------------------------------------------
Pair    | 0.63255    | 1.7492     | 2.2739     |  35.5 | 72.34
Neigh   | 0          | 0          | 0          |   0.0 |  0.00
Comm    | 0.03921    | 0.3942     | 1.1993     |  53.2 | 16.30
Output  | 0          | 0          | 0          |   0.0 |  0.00
Modify  | 2.4528e-05 | 0.0034233  | 0.0073193  |   2.8 |  0.14
Other   |            | 0.2713     |            |       | 11.22

Nlocal:        2776.45 ave        3957 max           0 min
Histogram: 8 4 4 0 4 12 8 4 26 34
Nghost:        3879.01 ave        5424 max         232 min
Histogram: 8 0 8 0 16 0 8 8 16 40
Neighs:        79213.4 ave      115336 max           0 min
Histogram: 8 4 4 0 10 6 8 8 24 32

Total # of neighbors = 8238196
Ave neighs/atom = 28.530450
Neighbor list builds = 0
Dangerous builds = 0
The dot product: 2.19811016939003e-06
Setting atom values ...
  1 settings made for x
  1 settings made for y
  1 settings made for z
Setting up cg style minimization ...
  Unit style    : metal
  Current step  : 2279
Per MPI rank memory allocation (min/avg/max) = 5.441 | 5.816 | 6.074 Mbytes
Step PotEng KinEng TotEng v_fx v_fy v_fz 
    2279   -1152449.3            0   -1152449.3 -0.058394176   0.10633593 -0.056164653 
    2407   -1152449.3            0   -1152449.3 -2.6143537e-05 3.8263938e-06 -6.2333992e-05 
Loop time of 1.48398 on 104 procs for 128 steps with 288751 atoms

99.9% CPU use with 104 MPI tasks x 1 OpenMP threads

Minimization stats:
  Stopping criterion = energy tolerance
  Energy initial, next-to-last, final = 
     -1152449.33983595  -1152449.34337324  -1152449.34337324
  Force two-norm initial, final = 0.19152426 0.00021196713
  Force max component initial, final = 0.10633593 6.2333992e-05
  Final line search alpha, max atom move = 1.0000000 6.2333992e-05
  Iterations, force evaluations = 128 256

MPI task timing breakdown:
Section |  min time  |  avg time  |  max time  |%varavg| %total
---------------------------------------------------------------
Pair    | 0.38697    | 1.0768     | 1.4048     |  28.0 | 72.56
Neigh   | 0          | 0          | 0          |   0.0 |  0.00
Comm    | 0.022472   | 0.24143    | 0.72728    |  41.7 | 16.27
Output  | 0          | 0          | 0          |   0.0 |  0.00
Modify  | 1.5257e-05 | 0.0021105  | 0.0045113  |   2.2 |  0.14
Other   |            | 0.1637     |            |       | 11.03

Nlocal:        2776.45 ave        3958 max           0 min
Histogram: 8 4 4 0 4 12 8 4 26 34
Nghost:        3879.11 ave        5427 max         232 min
Histogram: 8 0 8 0 16 0 8 8 16 40
Neighs:        79213.5 ave      115375 max           0 min
Histogram: 8 4 4 0 10 6 8 8 24 32

Total # of neighbors = 8238202
Ave neighs/atom = 28.530471
Neighbor list builds = 0
Dangerous builds = 0
The dot product: 1.59886574273121e-06
Setting atom values ...
  1 settings made for x
  1 settings made for y
  1 settings made for z
Setting up cg style minimization ...
  Unit style    : metal
  Current step  : 2407
Per MPI rank memory allocation (min/avg/max) = 5.441 | 5.816 | 6.074 Mbytes
Step PotEng KinEng TotEng v_fx v_fy v_fz 
    2407   -1152449.3            0   -1152449.3 -0.036891232  0.041444162 -0.035991678 
    2651   -1152449.3            0   -1152449.3 -1.4520905e-05 1.2824674e-05 -1.7379182e-05 
Loop time of 2.8215 on 104 procs for 244 steps with 288751 atoms

99.9% CPU use with 104 MPI tasks x 1 OpenMP threads

Minimization stats:
  Stopping criterion = energy tolerance
  Energy initial, next-to-last, final = 
     -1152449.33424812  -1152449.34567677  -1152449.34567677
  Force two-norm initial, final = 0.1598843 0.00010983317
  Force max component initial, final = 0.06248827 1.7379182e-05
  Final line search alpha, max atom move = 1.0000000 1.7379182e-05
  Iterations, force evaluations = 244 488

MPI task timing breakdown:
Section |  min time  |  avg time  |  max time  |%varavg| %total
---------------------------------------------------------------
Pair    | 0.7416     | 2.05       | 2.6595     |  38.5 | 72.66
Neigh   | 1.0415e-05 | 0.0029376  | 0.0042783  |   2.2 |  0.10
Comm    | 0.042722   | 0.46091    | 1.4094     |  57.9 | 16.34
Output  | 0          | 0          | 0          |   0.0 |  0.00
Modify  | 2.8752e-05 | 0.004025   | 0.008631   |   3.0 |  0.14
Other   |            | 0.3036     |            |       | 10.76

Nlocal:        2776.45 ave        3958 max           0 min
Histogram: 8 4 4 0 4 12 8 4 26 34
Nghost:        3879.09 ave        5427 max         232 min
Histogram: 8 0 8 0 16 0 8 8 16 40
Neighs:        79213.5 ave      115344 max           0 min
Histogram: 8 4 4 0 10 6 8 8 24 32

Total # of neighbors = 8238202
Ave neighs/atom = 28.530471
Neighbor list builds = 1
Dangerous builds = 0
The dot product: 9.28370811722814e-07
Setting atom values ...
  1 settings made for x
  1 settings made for y
  1 settings made for z
Setting up cg style minimization ...
  Unit style    : metal
  Current step  : 2651
Per MPI rank memory allocation (min/avg/max) = 5.441 | 5.816 | 6.074 Mbytes
Step PotEng KinEng TotEng v_fx v_fy v_fz 
    2651   -1152449.3            0   -1152449.3  0.022726727 0.0038651837  0.036419767 
    2765   -1152449.3            0   -1152449.3 3.0633292e-06 -2.4722694e-06 2.6362237e-06 
Loop time of 1.32243 on 104 procs for 114 steps with 288751 atoms

99.9% CPU use with 104 MPI tasks x 1 OpenMP threads

Minimization stats:
  Stopping criterion = energy tolerance
  Energy initial, next-to-last, final = 
     -1152449.34777586  -1152449.34876033  -1152449.34876033
  Force two-norm initial, final = 0.13142672 0.00011263538
  Force max component initial, final = 0.048257148 3.1653225e-06
  Final line search alpha, max atom move = 1.0000000 3.1653225e-06
  Iterations, force evaluations = 114 228

MPI task timing breakdown:
Section |  min time  |  avg time  |  max time  |%varavg| %total
---------------------------------------------------------------
Pair    | 0.34518    | 0.95546    | 1.2505     |  26.4 | 72.25
Neigh   | 0          | 0          | 0          |   0.0 |  0.00
Comm    | 0.020701   | 0.2142     | 0.64791    |  39.1 | 16.20
Output  | 0          | 0          | 0          |   0.0 |  0.00
Modify  | 1.3577e-05 | 0.0018799  | 0.0039972  |   2.0 |  0.14
Other   |            | 0.1509     |            |       | 11.41

Nlocal:        2776.45 ave        3957 max           0 min
Histogram: 8 4 4 0 4 12 8 2 28 34
Nghost:        3879.01 ave        5424 max         232 min
Histogram: 8 0 8 0 16 0 8 8 16 40
Neighs:        79213.4 ave      115348 max           0 min
Histogram: 8 4 4 0 10 6 8 8 24 32

Total # of neighbors = 8238191
Ave neighs/atom = 28.530433
Neighbor list builds = 0
Dangerous builds = 0
The dot product: 1.65045476837444e-08
Setting atom values ...
  1 settings made for x
  1 settings made for y
  1 settings made for z
Setting up cg style minimization ...
  Unit style    : metal
  Current step  : 2765
Per MPI rank memory allocation (min/avg/max) = 5.441 | 5.816 | 6.074 Mbytes
Step PotEng KinEng TotEng v_fx v_fy v_fz 
    2765   -1152449.3            0   -1152449.3 0.0091060229 0.0064885073   0.01880561 
    2950   -1152449.4            0   -1152449.4 -2.1764497e-05 1.8418674e-05 -1.8763628e-05 
Loop time of 2.11977 on 104 procs for 185 steps with 288751 atoms

99.9% CPU use with 104 MPI tasks x 1 OpenMP threads

Minimization stats:
  Stopping criterion = energy tolerance
  Energy initial, next-to-last, final = 
     -1152449.34988135   -1152449.3507854   -1152449.3507854
  Force two-norm initial, final = 0.12512954 0.00010579778
  Force max component initial, final = 0.047525479 2.9201383e-05
  Final line search alpha, max atom move = 1.0000000 2.9201383e-05
  Iterations, force evaluations = 185 370

MPI task timing breakdown:
Section |  min time  |  avg time  |  max time  |%varavg| %total
---------------------------------------------------------------
Pair    | 0.5603     | 1.5566     | 2.0064     |  33.6 | 73.43
Neigh   | 0          | 0          | 0          |   0.0 |  0.00
Comm    | 0.034226   | 0.34726    | 1.0579     |  50.4 | 16.38
Output  | 0          | 0          | 0          |   0.0 |  0.00
Modify  | 2.1605e-05 | 0.0030464  | 0.0065607  |   2.6 |  0.14
Other   |            | 0.2129     |            |       | 10.04

Nlocal:        2776.45 ave        3957 max           0 min
Histogram: 8 4 4 0 4 12 8 2 28 34
Nghost:        3879.01 ave        5424 max         232 min
Histogram: 8 0 8 0 16 0 8 8 16 40
Neighs:        79213.4 ave      115338 max           0 min
Histogram: 8 4 4 0 10 6 8 8 24 32

Total # of neighbors = 8238193
Ave neighs/atom = 28.530440
Neighbor list builds = 0
Dangerous builds = 0
The dot product: 1.90367368795933e-09
Setting atom values ...
  1 settings made for x
  1 settings made for y
  1 settings made for z
Setting up cg style minimization ...
  Unit style    : metal
  Current step  : 2950
Per MPI rank memory allocation (min/avg/max) = 5.441 | 5.816 | 6.074 Mbytes
Step PotEng KinEng TotEng v_fx v_fy v_fz 
    2950   -1152449.4            0   -1152449.4    0.0100166 0.0065252974  0.020237054 
    3000   -1152449.4            0   -1152449.4 0.00027726248 -9.6999852e-05 0.00034538404 
    3128   -1152449.4            0   -1152449.4 -1.5094391e-05 -1.8918726e-05 -3.7525028e-05 
Loop time of 2.05399 on 104 procs for 178 steps with 288751 atoms

99.9% CPU use with 104 MPI tasks x 1 OpenMP threads

Minimization stats:
  Stopping criterion = energy tolerance
  Energy initial, next-to-last, final = 
     -1152449.35066614  -1152449.35156731  -1152449.35156731
  Force two-norm initial, final = 0.12554565 0.00014920718
  Force max component initial, final = 0.046971173 3.7525028e-05
  Final line search alpha, max atom move = 1.0000000 3.7525028e-05
  Iterations, force evaluations = 178 356

MPI task timing breakdown:
Section |  min time  |  avg time  |  max time  |%varavg| %total
---------------------------------------------------------------
Pair    | 0.53873    | 1.4927     | 1.943      |  33.0 | 72.67
Neigh   | 0          | 0          | 0          |   0.0 |  0.00
Comm    | 0.034682   | 0.3359     | 1.0199     |  49.0 | 16.35
Output  | 0.00014533 | 0.0001524  | 0.0002454  |   0.0 |  0.01
Modify  | 2.3555e-05 | 0.0029313  | 0.006236   |   2.6 |  0.14
Other   |            | 0.2224     |            |       | 10.83

Nlocal:        2776.45 ave        3957 max           0 min
Histogram: 8 4 4 0 4 12 8 2 28 34
Nghost:        3879.01 ave        5424 max         232 min
Histogram: 8 0 8 0 16 0 8 8 16 40
Neighs:        79213.4 ave      115338 max           0 min
Histogram: 8 4 4 0 10 6 8 8 24 32

Total # of neighbors = 8238189
Ave neighs/atom = 28.530426
Neighbor list builds = 0
Dangerous builds = 0
The dot product: -2.48559703485461e-08
Setting atom values ...
  1 settings made for x
  1 settings made for y
  1 settings made for z
Setting up cg style minimization ...
  Unit style    : metal
  Current step  : 3128
Per MPI rank memory allocation (min/avg/max) = 5.441 | 5.816 | 6.074 Mbytes
Step PotEng KinEng TotEng v_fx v_fy v_fz 
    3128   -1152449.4            0   -1152449.4 0.0092876895 0.0065379636  0.019205075 
    3351   -1152449.4            0   -1152449.4 -7.2425294e-06 2.0509417e-06 -9.4206698e-06 
Loop time of 2.56442 on 104 procs for 223 steps with 288751 atoms

99.9% CPU use with 104 MPI tasks x 1 OpenMP threads

Minimization stats:
  Stopping criterion = energy tolerance
  Energy initial, next-to-last, final = 
     -1152449.35013039  -1152449.35102347  -1152449.35102347
  Force two-norm initial, final = 0.12497816 3.0451515e-05
  Force max component initial, final = 0.046327645 9.4206698e-06
  Final line search alpha, max atom move = 1.0000000 9.4206698e-06
  Iterations, force evaluations = 223 446

MPI task timing breakdown:
Section |  min time  |  avg time  |  max time  |%varavg| %total
---------------------------------------------------------------
Pair    | 0.67607    | 1.8776     | 2.4188     |  36.8 | 73.22
Neigh   | 0          | 0          | 0          |   0.0 |  0.00
Comm    | 0.041989   | 0.42107    | 1.2794     |  55.1 | 16.42
Output  | 0          | 0          | 0          |   0.0 |  0.00
Modify  | 2.5786e-05 | 0.0036721  | 0.0078386  |   2.9 |  0.14
Other   |            | 0.2621     |            |       | 10.22

Nlocal:        2776.45 ave        3958 max           0 min
Histogram: 8 4 4 0 4 12 8 2 28 34
Nghost:        3879.01 ave        5424 max         232 min
Histogram: 8 0 8 0 16 0 8 8 16 40
Neighs:        79213.4 ave      115364 max           0 min
Histogram: 8 4 4 0 10 6 8 8 24 32

Total # of neighbors = 8238191
Ave neighs/atom = 28.530433
Neighbor list builds = 0
Dangerous builds = 0
The dot product: -4.18044234885803e-09
Setting atom values ...
  1 settings made for x
  1 settings made for y
  1 settings made for z
Setting up cg style minimization ...
  Unit style    : metal
  Current step  : 3351
Per MPI rank memory allocation (min/avg/max) = 5.441 | 5.816 | 6.074 Mbytes
Step PotEng KinEng TotEng v_fx v_fy v_fz 
    3351   -1152449.3            0   -1152449.3 0.0083539815 0.0064039751  0.017734974 
    3598   -1152449.3            0   -1152449.3 7.4593029e-07  3.22081e-07 1.3886579e-06 
Loop time of 2.83969 on 104 procs for 247 steps with 288751 atoms

99.9% CPU use with 104 MPI tasks x 1 OpenMP threads

Minimization stats:
  Stopping criterion = energy tolerance
  Energy initial, next-to-last, final = 
     -1152449.34824771  -1152449.34912818  -1152449.34912818
  Force two-norm initial, final = 0.1240393 1.0027551e-05
  Force max component initial, final = 0.045687629 1.4512956e-06
  Final line search alpha, max atom move = 1.0000000 1.4512956e-06
  Iterations, force evaluations = 247 494

MPI task timing breakdown:
Section |  min time  |  avg time  |  max time  |%varavg| %total
---------------------------------------------------------------
Pair    | 0.74555    | 2.0743     | 2.6837     |  38.9 | 73.05
Neigh   | 0          | 0          | 0          |   0.0 |  0.00
Comm    | 0.043885   | 0.46267    | 1.4124     |  58.4 | 16.29
Output  | 0          | 0          | 0          |   0.0 |  0.00
Modify  | 2.9496e-05 | 0.0040645  | 0.0086696  |   3.0 |  0.14
Other   |            | 0.2987     |            |       | 10.52

Nlocal:        2776.45 ave        3958 max           0 min
Histogram: 8 4 4 0 4 12 8 2 28 34
Nghost:        3879.03 ave        5424 max         232 min
Histogram: 8 0 8 0 16 0 8 8 16 40
Neighs:        79213.4 ave      115354 max           0 min
Histogram: 8 4 4 0 10 6 8 8 24 32

Total # of neighbors = 8238191
Ave neighs/atom = 28.530433
Neighbor list builds = 0
Dangerous builds = 0
The dot product: 7.32049263415867e-10
Setting atom values ...
  1 settings made for x
  1 settings made for y
  1 settings made for z
Setting up cg style minimization ...
  Unit style    : metal
  Current step  : 3598
Per MPI rank memory allocation (min/avg/max) = 5.441 | 5.816 | 6.074 Mbytes
Step PotEng KinEng TotEng v_fx v_fy v_fz 
    3598   -1152449.3            0   -1152449.3 0.0074209216 0.0059823726  0.016027248 
    3814   -1152449.3            0   -1152449.3 1.5151759e-06 -2.4744617e-06 3.759606e-07 
Loop time of 2.47492 on 104 procs for 216 steps with 288751 atoms

99.9% CPU use with 104 MPI tasks x 1 OpenMP threads

Minimization stats:
  Stopping criterion = energy tolerance
  Energy initial, next-to-last, final = 
     -1152449.34500899  -1152449.34587534  -1152449.34587534
  Force two-norm initial, final = 0.12306353 3.8258961e-05
  Force max component initial, final = 0.044993432 2.9002721e-06
  Final line search alpha, max atom move = 1.0000000 2.9002721e-06
  Iterations, force evaluations = 216 432

MPI task timing breakdown:
Section |  min time  |  avg time  |  max time  |%varavg| %total
---------------------------------------------------------------
Pair    | 0.65135    | 1.8092     | 2.3458     |  36.2 | 73.10
Neigh   | 0          | 0          | 0          |   0.0 |  0.00
Comm    | 0.037703   | 0.40047    | 1.2169     |  54.2 | 16.18
Output  | 0          | 0          | 0          |   0.0 |  0.00
Modify  | 2.5312e-05 | 0.0035491  | 0.0075706  |   2.8 |  0.14
Other   |            | 0.2617     |            |       | 10.57

Nlocal:        2776.45 ave        3958 max           0 min
Histogram: 8 4 4 0 4 12 8 3 27 34
Nghost:        3879.07 ave        5424 max         232 min
Histogram: 8 0 8 0 16 0 8 8 16 40
Neighs:        79213.4 ave      115346 max           0 min
Histogram: 8 4 4 0 10 6 8 8 24 32

Total # of neighbors = 8238190
Ave neighs/atom = 28.530429
Neighbor list builds = 0
Dangerous builds = 0
The dot product: -6.14945361403079e-10
Setting atom values ...
  1 settings made for x
  1 settings made for y
  1 settings made for z
Setting up cg style minimization ...
  Unit style    : metal
  Current step  : 3814
Per MPI rank memory allocation (min/avg/max) = 5.441 | 5.816 | 6.074 Mbytes
Step PotEng KinEng TotEng v_fx v_fy v_fz 
    3814   -1152449.3            0   -1152449.3 0.0066385767 0.0052741341  0.014310274 
    4000   -1152449.3            0   -1152449.3 1.5918917e-05 -1.094226e-05 1.5761626e-05 
    4006   -1152449.3            0   -1152449.3 -1.9843059e-05 1.0617731e-05 -2.202378e-05 
Loop time of 2.19814 on 104 procs for 192 steps with 288751 atoms

99.9% CPU use with 104 MPI tasks x 1 OpenMP threads

Minimization stats:
  Stopping criterion = energy tolerance
  Energy initial, next-to-last, final = 
     -1152449.34040436  -1152449.34125875  -1152449.34125875
  Force two-norm initial, final = 0.12230977 9.3364733e-05
  Force max component initial, final = 0.044291055 2.2023780e-05
  Final line search alpha, max atom move = 1.0000000 2.2023780e-05
  Iterations, force evaluations = 192 384

MPI task timing breakdown:
Section |  min time  |  avg time  |  max time  |%varavg| %total
---------------------------------------------------------------
Pair    | 0.58239    | 1.6062     | 2.0824     |  34.1 | 73.07
Neigh   | 0          | 0          | 0          |   0.0 |  0.00
Comm    | 0.034389   | 0.35729    | 1.0912     |  51.2 | 16.25
Output  | 0.00019485 | 0.00020083 | 0.00033938 |   0.0 |  0.01
Modify  | 2.2981e-05 | 0.0031588  | 0.0067478  |   2.6 |  0.14
Other   |            | 0.2313     |            |       | 10.52

Nlocal:        2776.45 ave        3958 max           0 min
Histogram: 8 4 4 0 4 12 8 4 26 34
Nghost:        3879.07 ave        5424 max         232 min
Histogram: 8 0 8 0 16 0 8 8 16 40
Neighs:        79213.4 ave      115344 max           0 min
Histogram: 8 4 4 0 10 6 8 8 24 32

Total # of neighbors = 8238190
Ave neighs/atom = 28.530429
Neighbor list builds = 0
Dangerous builds = 0
The dot product: -5.12521243370262e-09
Setting atom values ...
  1 settings made for x
  1 settings made for y
  1 settings made for z
Setting up cg style minimization ...
  Unit style    : metal
  Current step  : 4006
Per MPI rank memory allocation (min/avg/max) = 5.441 | 5.816 | 6.074 Mbytes
Step PotEng KinEng TotEng v_fx v_fy v_fz 
    4006   -1152449.3            0   -1152449.3 0.0060580618 0.0042771767   0.01266248 
    4234   -1152449.3            0   -1152449.3 -2.7727096e-06 9.3188804e-07 -3.5158609e-06 
Loop time of 2.62939 on 104 procs for 228 steps with 288751 atoms

99.9% CPU use with 104 MPI tasks x 1 OpenMP threads

Minimization stats:
  Stopping criterion = energy tolerance
  Energy initial, next-to-last, final = 
     -1152449.33441862  -1152449.33526648  -1152449.33526648
  Force two-norm initial, final = 0.12190094 2.2061789e-05
  Force max component initial, final = 0.044154748 3.5158609e-06
  Final line search alpha, max atom move = 1.0000000 3.5158609e-06
  Iterations, force evaluations = 228 456

MPI task timing breakdown:
Section |  min time  |  avg time  |  max time  |%varavg| %total
---------------------------------------------------------------
Pair    | 0.68759    | 1.9169     | 2.4837     |  37.3 | 72.90
Neigh   | 0          | 0          | 0          |   0.0 |  0.00
Comm    | 0.039973   | 0.42936    | 1.3        |  55.8 | 16.33
Output  | 0          | 0          | 0          |   0.0 |  0.00
Modify  | 2.6729e-05 | 0.0037548  | 0.008054   |   2.9 |  0.14
Other   |            | 0.2794     |            |       | 10.63

Nlocal:        2776.45 ave        3958 max           0 min
Histogram: 8 4 4 0 4 12 8 4 26 34
Nghost:        3879.07 ave        5427 max         232 min
Histogram: 8 0 8 0 16 0 8 8 16 40
Neighs:        79213.4 ave      115344 max           0 min
Histogram: 8 4 4 0 10 6 8 8 24 32

Total # of neighbors = 8238192
Ave neighs/atom = 28.530436
Neighbor list builds = 0
Dangerous builds = 0
The dot product: -9.34064667988044e-10
Setting atom values ...
  1 settings made for x
  1 settings made for y
  1 settings made for z
Setting up cg style minimization ...
  Unit style    : metal
  Current step  : 4234
Per MPI rank memory allocation (min/avg/max) = 5.441 | 5.816 | 6.074 Mbytes
Step PotEng KinEng TotEng v_fx v_fy v_fz 
    4234   -1152449.3            0   -1152449.3 0.0057699565  0.002949467  0.011190499 
    4403   -1152449.3            0   -1152449.3 -4.0759225e-05 1.6824396e-05 -4.9269872e-05 
Loop time of 1.95658 on 104 procs for 169 steps with 288751 atoms

99.9% CPU use with 104 MPI tasks x 1 OpenMP threads

Minimization stats:
  Stopping criterion = energy tolerance
  Energy initial, next-to-last, final = 
     -1152449.32703094  -1152449.32787747  -1152449.32787747
  Force two-norm initial, final = 0.12189141 0.00020814625
  Force max component initial, final = 0.043999124 4.9269872e-05
  Final line search alpha, max atom move = 1.0000000 4.9269872e-05
  Iterations, force evaluations = 169 338

MPI task timing breakdown:
Section |  min time  |  avg time  |  max time  |%varavg| %total
---------------------------------------------------------------
Pair    | 0.51192    | 1.4156     | 1.8489     |  32.1 | 72.35
Neigh   | 0          | 0          | 0          |   0.0 |  0.00
Comm    | 0.02981    | 0.31687    | 0.95936    |  47.6 | 16.20
Output  | 0          | 0          | 0          |   0.0 |  0.00
Modify  | 1.9962e-05 | 0.0027892  | 0.0059698  |   2.5 |  0.14
Other   |            | 0.2213     |            |       | 11.31

Nlocal:        2776.45 ave        3959 max           0 min
Histogram: 8 4 4 0 4 12 8 4 26 34
Nghost:        3879.07 ave        5426 max         232 min
Histogram: 8 0 8 0 16 0 8 8 16 40
Neighs:        79213.4 ave      115381 max           0 min
Histogram: 8 4 4 0 10 6 8 8 24 32

Total # of neighbors = 8238189
Ave neighs/atom = 28.530426
Neighbor list builds = 0
Dangerous builds = 0
The dot product: -1.47181283833228e-08
Setting atom values ...
  1 settings made for x
  1 settings made for y
  1 settings made for z
Setting up cg style minimization ...
  Unit style    : metal
  Current step  : 4403
Per MPI rank memory allocation (min/avg/max) = 5.441 | 5.816 | 6.074 Mbytes
Step PotEng KinEng TotEng v_fx v_fy v_fz 
    4403   -1152449.3            0   -1152449.3 0.0057240878 0.0013692722 0.0098840459 
    4585   -1152449.3            0   -1152449.3 -2.1473168e-05 2.0314282e-05 -1.6917316e-05 
Loop time of 2.10428 on 104 procs for 182 steps with 288751 atoms

99.9% CPU use with 104 MPI tasks x 1 OpenMP threads

Minimization stats:
  Stopping criterion = energy tolerance
  Energy initial, next-to-last, final = 
     -1152449.31821061   -1152449.3190618   -1152449.3190618
  Force two-norm initial, final = 0.12221166 0.00011901085
  Force max component initial, final = 0.04385574 2.1473168e-05
  Final line search alpha, max atom move = 1.0000000 2.1473168e-05
  Iterations, force evaluations = 182 364

MPI task timing breakdown:
Section |  min time  |  avg time  |  max time  |%varavg| %total
---------------------------------------------------------------
Pair    | 0.55274    | 1.5364     | 1.9911     |  33.4 | 73.01
Neigh   | 0          | 0          | 0          |   0.0 |  0.00
Comm    | 0.031466   | 0.34671    | 1.0596     |  50.0 | 16.48
Output  | 0          | 0          | 0          |   0.0 |  0.00
Modify  | 2.2004e-05 | 0.0030045  | 0.0064252  |   2.6 |  0.14
Other   |            | 0.2182     |            |       | 10.37

Nlocal:        2776.45 ave        3959 max           0 min
Histogram: 8 4 4 0 4 12 8 4 26 34
Nghost:        3879.09 ave        5425 max         232 min
Histogram: 8 0 8 0 16 0 8 8 16 40
Neighs:        79213.3 ave      115390 max           0 min
Histogram: 8 4 4 0 10 6 8 8 24 32

Total # of neighbors = 8238188
Ave neighs/atom = 28.530422
Neighbor list builds = 0
Dangerous builds = 0
The dot product: -6.16188879007916e-09
Setting atom values ...
  1 settings made for x
  1 settings made for y
  1 settings made for z
Setting up cg style minimization ...
  Unit style    : metal
  Current step  : 4585
Per MPI rank memory allocation (min/avg/max) = 5.441 | 5.816 | 6.074 Mbytes
Step PotEng KinEng TotEng v_fx v_fy v_fz 
    4585   -1152449.3            0   -1152449.3 0.0059982881 -0.00048322033 0.0088488466 
    4766   -1152449.3            0   -1152449.3 2.3850683e-06 -4.4634336e-07 3.3169503e-06 
Loop time of 2.11479 on 104 procs for 181 steps with 288751 atoms

99.9% CPU use with 104 MPI tasks x 1 OpenMP threads

Minimization stats:
  Stopping criterion = energy tolerance
  Energy initial, next-to-last, final = 
     -1152449.30792688  -1152449.30878499  -1152449.30878499
  Force two-norm initial, final = 0.12278666 0.00011934077
  Force max component initial, final = 0.043680606 3.8457505e-06
  Final line search alpha, max atom move = 1.0000000 3.8457505e-06
  Iterations, force evaluations = 181 362

MPI task timing breakdown:
Section |  min time  |  avg time  |  max time  |%varavg| %total
---------------------------------------------------------------
Pair    | 0.55075    | 1.5193     | 1.9832     |  33.1 | 71.84
Neigh   | 0          | 0          | 0          |   0.0 |  0.00
Comm    | 0.030868   | 0.34106    | 1.028      |  49.3 | 16.13
Output  | 0          | 0          | 0          |   0.0 |  0.00
Modify  | 2.1829e-05 | 0.0029794  | 0.0063715  |   2.6 |  0.14
Other   |            | 0.2515     |            |       | 11.89

Nlocal:        2776.45 ave        3959 max           0 min
Histogram: 8 4 4 0 4 12 8 4 26 34
Nghost:        3879.09 ave        5425 max         232 min
Histogram: 8 0 8 0 16 0 8 8 16 40
Neighs:        79213.3 ave      115390 max           0 min
Histogram: 8 4 4 0 10 6 8 8 24 32

Total # of neighbors = 8238188
Ave neighs/atom = 28.530422
Neighbor list builds = 0
Dangerous builds = 0
The dot product: 1.2220582802443e-09
Setting atom values ...
  1 settings made for x
  1 settings made for y
  1 settings made for z
Setting up cg style minimization ...
  Unit style    : metal
  Current step  : 4766
Per MPI rank memory allocation (min/avg/max) = 5.441 | 5.816 | 6.074 Mbytes
Step PotEng KinEng TotEng v_fx v_fy v_fz 
    4766   -1152449.3            0   -1152449.3 0.0066150409 -0.0025410318 0.0081786749 
    4953   -1152449.3            0   -1152449.3 -1.2446209e-06 -7.3578403e-06 -7.7545901e-06 
Loop time of 2.14273 on 104 procs for 187 steps with 288751 atoms

99.9% CPU use with 104 MPI tasks x 1 OpenMP threads

Minimization stats:
  Stopping criterion = energy tolerance
  Energy initial, next-to-last, final = 
     -1152449.29615215  -1152449.29701599  -1152449.29701599
  Force two-norm initial, final = 0.12347001 0.00010552992
  Force max component initial, final = 0.043487812 2.4472659e-05
  Final line search alpha, max atom move = 1.0000000 2.4472659e-05
  Iterations, force evaluations = 187 374

MPI task timing breakdown:
Section |  min time  |  avg time  |  max time  |%varavg| %total
---------------------------------------------------------------
Pair    | 0.56747    | 1.5733     | 2.0296     |  33.8 | 73.42
Neigh   | 0          | 0          | 0          |   0.0 |  0.00
Comm    | 0.032509   | 0.35199    | 1.0697     |  50.5 | 16.43
Output  | 0          | 0          | 0          |   0.0 |  0.00
Modify  | 2.1875e-05 | 0.003075   | 0.006574   |   2.6 |  0.14
Other   |            | 0.2144     |            |       | 10.00

Nlocal:        2776.45 ave        3959 max           0 min
Histogram: 8 4 4 0 4 12 8 4 26 34
Nghost:        3879.07 ave        5425 max         232 min
Histogram: 8 0 8 0 16 0 8 8 16 40
Neighs:        79213.4 ave      115390 max           0 min
Histogram: 8 4 4 0 10 6 8 8 24 32

Total # of neighbors = 8238189
Ave neighs/atom = 28.530426
Neighbor list builds = 0
Dangerous builds = 0
The dot product: -4.73176795420196e-10
Setting atom values ...
  1 settings made for x
  1 settings made for y
  1 settings made for z
Setting up cg style minimization ...
  Unit style    : metal
  Current step  : 4953
Per MPI rank memory allocation (min/avg/max) = 5.441 | 5.816 | 6.074 Mbytes
Step PotEng KinEng TotEng v_fx v_fy v_fz 
    4953   -1152449.3            0   -1152449.3 0.0076461447 -0.0046839418 0.0080859479 
    5000   -1152449.3            0   -1152449.3 8.1260385e-05 -7.4763032e-05 6.6120091e-05 
    5124   -1152449.3            0   -1152449.3 -8.8295736e-06 2.9482424e-05 9.7549545e-06 
Loop time of 1.97344 on 104 procs for 171 steps with 288751 atoms

99.9% CPU use with 104 MPI tasks x 1 OpenMP threads

Minimization stats:
  Stopping criterion = energy tolerance
  Energy initial, next-to-last, final = 
     -1152449.28286859  -1152449.28373349  -1152449.28373349
  Force two-norm initial, final = 0.1241143 0.00017411398
  Force max component initial, final = 0.043321849 2.9482424e-05
  Final line search alpha, max atom move = 1.0000000 2.9482424e-05
  Iterations, force evaluations = 171 342

MPI task timing breakdown:
Section |  min time  |  avg time  |  max time  |%varavg| %total
---------------------------------------------------------------
Pair    | 0.51671    | 1.4354     | 1.8608     |  32.4 | 72.74
Neigh   | 0          | 0          | 0          |   0.0 |  0.00
Comm    | 0.030553   | 0.32244    | 0.98044    |  48.1 | 16.34
Output  | 0.00011929 | 0.000122   | 0.00021706 |   0.0 |  0.01
Modify  | 2.0874e-05 | 0.0028158  | 0.0060193  |   2.5 |  0.14
Other   |            | 0.2126     |            |       | 10.77

Nlocal:        2776.45 ave        3959 max           0 min
Histogram: 8 4 4 0 4 12 8 4 26 34
Nghost:        3879.07 ave        5424 max         232 min
Histogram: 8 0 8 0 16 0 8 8 16 40
Neighs:        79213.3 ave      115389 max           0 min
Histogram: 8 4 4 0 10 6 8 8 24 32

Total # of neighbors = 8238186
Ave neighs/atom = 28.530415
Neighbor list builds = 0
Dangerous builds = 0
The dot product: -1.12710636154389e-08
Setting atom values ...
  1 settings made for x
  1 settings made for y
  1 settings made for z
Setting up cg style minimization ...
  Unit style    : metal
  Current step  : 5124
Per MPI rank memory allocation (min/avg/max) = 5.441 | 5.816 | 6.074 Mbytes
Step PotEng KinEng TotEng v_fx v_fy v_fz 
    5124   -1152449.3            0   -1152449.3 0.0092351227 -0.0066961182  0.008973124 
    5313   -1152449.3            0   -1152449.3 1.7586508e-06 -2.3680986e-05 -1.6051257e-05 
Loop time of 2.17559 on 104 procs for 189 steps with 288751 atoms

99.9% CPU use with 104 MPI tasks x 1 OpenMP threads

Minimization stats:
  Stopping criterion = energy tolerance
  Energy initial, next-to-last, final = 
     -1152449.26807743  -1152449.26893608  -1152449.26893608
  Force two-norm initial, final = 0.12465842 9.9569989e-05
  Force max component initial, final = 0.043097817 2.3680986e-05
  Final line search alpha, max atom move = 1.0000000 2.3680986e-05
  Iterations, force evaluations = 189 378

MPI task timing breakdown:
Section |  min time  |  avg time  |  max time  |%varavg| %total
---------------------------------------------------------------
Pair    | 0.57212    | 1.5893     | 2.0564     |  33.9 | 73.05
Neigh   | 0          | 0          | 0          |   0.0 |  0.00
Comm    | 0.032792   | 0.35362    | 1.0725     |  50.7 | 16.25
Output  | 0          | 0          | 0          |   0.0 |  0.00
Modify  | 2.4228e-05 | 0.0031179  | 0.0066993  |   2.6 |  0.14
Other   |            | 0.2296     |            |       | 10.55

Nlocal:        2776.45 ave        3960 max           0 min
Histogram: 8 4 4 0 4 12 8 4 26 34
Nghost:        3879.11 ave        5425 max         232 min
Histogram: 8 0 8 0 16 0 8 8 16 40
Neighs:        79213.3 ave      115430 max           0 min
Histogram: 8 4 4 0 10 6 8 8 24 32

Total # of neighbors = 8238187
Ave neighs/atom = 28.530419
Neighbor list builds = 0
Dangerous builds = 0
The dot product: 5.07983851029594e-09
Setting atom values ...
  1 settings made for x
  1 settings made for y
  1 settings made for z
Setting up cg style minimization ...
  Unit style    : metal
  Current step  : 5313
Per MPI rank memory allocation (min/avg/max) = 5.441 | 5.816 | 6.074 Mbytes
Step PotEng KinEng TotEng v_fx v_fy v_fz 
    5313   -1152449.3            0   -1152449.3  0.011596512 -0.0085167312  0.011235515 
    5541   -1152449.3            0   -1152449.3 3.3058603e-06 -2.6201722e-06 3.0506184e-06 
Loop time of 2.61789 on 104 procs for 228 steps with 288751 atoms

99.9% CPU use with 104 MPI tasks x 1 OpenMP threads

Minimization stats:
  Stopping criterion = energy tolerance
  Energy initial, next-to-last, final = 
     -1152449.25181282  -1152449.25265717  -1152449.25265717
  Force two-norm initial, final = 0.12528358 2.1331401e-05
  Force max component initial, final = 0.044892669 4.3792153e-06
  Final line search alpha, max atom move = 1.0000000 4.3792153e-06
  Iterations, force evaluations = 228 456

MPI task timing breakdown:
Section |  min time  |  avg time  |  max time  |%varavg| %total
---------------------------------------------------------------
Pair    | 0.68807    | 1.9093     | 2.4794     |  37.3 | 72.93
Neigh   | 0          | 0          | 0          |   0.0 |  0.00
Comm    | 0.03991    | 0.42505    | 1.2978     |  56.0 | 16.24
Output  | 0          | 0          | 0          |   0.0 |  0.00
Modify  | 2.6936e-05 | 0.003754   | 0.008026   |   2.9 |  0.14
Other   |            | 0.2798     |            |       | 10.69

Nlocal:        2776.45 ave        3960 max           0 min
Histogram: 8 4 4 0 4 12 8 4 26 34
Nghost:        3879.14 ave        5425 max         232 min
Histogram: 8 0 8 0 16 0 8 8 16 40
Neighs:        79213.3 ave      115421 max           0 min
Histogram: 8 4 4 0 10 6 8 8 24 32

Total # of neighbors = 8238187
Ave neighs/atom = 28.530419
Neighbor list builds = 0
Dangerous builds = 0
The dot product: 6.97636912972896e-09
Setting atom values ...
  1 settings made for x
  1 settings made for y
  1 settings made for z
Setting up cg style minimization ...
  Unit style    : metal
  Current step  : 5541
Per MPI rank memory allocation (min/avg/max) = 5.441 | 5.816 | 6.074 Mbytes
Step PotEng KinEng TotEng v_fx v_fy v_fz 
    5541   -1152449.2            0   -1152449.2  0.015156384 -0.0098720623  0.015787692 
    5734   -1152449.2            0   -1152449.2 -1.1560763e-05 1.5772585e-06 -1.6760373e-05 
Loop time of 2.21072 on 104 procs for 193 steps with 288751 atoms

99.9% CPU use with 104 MPI tasks x 1 OpenMP threads

Minimization stats:
  Stopping criterion = energy tolerance
  Energy initial, next-to-last, final = 
     -1152449.23417579  -1152449.23501401  -1152449.23501401
  Force two-norm initial, final = 0.1268135 7.8639690e-05
  Force max component initial, final = 0.048150878 1.6760373e-05
  Final line search alpha, max atom move = 1.0000000 1.6760373e-05
  Iterations, force evaluations = 193 386

MPI task timing breakdown:
Section |  min time  |  avg time  |  max time  |%varavg| %total
---------------------------------------------------------------
Pair    | 0.58334    | 1.6191     | 2.091      |  34.2 | 73.24
Neigh   | 0          | 0          | 0          |   0.0 |  0.00
Comm    | 0.035756   | 0.35756    | 1.0917     |  51.6 | 16.17
Output  | 0          | 0          | 0          |   0.0 |  0.00
Modify  | 2.3216e-05 | 0.0031858  | 0.0068116  |   2.7 |  0.14
Other   |            | 0.2309     |            |       | 10.44

Nlocal:        2776.45 ave        3961 max           0 min
Histogram: 8 4 4 0 6 10 8 4 26 34
Nghost:        3879.14 ave        5425 max         232 min
Histogram: 8 0 8 0 16 0 8 8 16 40
Neighs:        79213.3 ave      115444 max           0 min
Histogram: 8 4 4 0 10 6 8 8 24 32

Total # of neighbors = 8238185
Ave neighs/atom = 28.530412
Neighbor list builds = 0
Dangerous builds = 0
The dot product: -4.91782299350541e-08
Setting atom values ...
  1 settings made for x
  1 settings made for y
  1 settings made for z
Setting up cg style minimization ...
  Unit style    : metal
  Current step  : 5734
Per MPI rank memory allocation (min/avg/max) = 5.441 | 5.816 | 6.074 Mbytes
Step PotEng KinEng TotEng v_fx v_fy v_fz 
    5734   -1152449.2            0   -1152449.2  0.020751982 -0.010394395  0.024350444 
    5973   -1152449.2            0   -1152449.2 -1.6977797e-05 -1.1406775e-05 -3.5762239e-05 
Loop time of 2.79756 on 104 procs for 239 steps with 288751 atoms

99.9% CPU use with 104 MPI tasks x 1 OpenMP threads

Minimization stats:
  Stopping criterion = energy tolerance
  Energy initial, next-to-last, final = 
     -1152449.21545752  -1152449.24937751  -1152449.24937751
  Force two-norm initial, final = 0.13203688 0.00016205337
  Force max component initial, final = 0.051375379 3.7748585e-05
  Final line search alpha, max atom move = 1.0000000 3.7748585e-05
  Iterations, force evaluations = 239 478

MPI task timing breakdown:
Section |  min time  |  avg time  |  max time  |%varavg| %total
---------------------------------------------------------------
Pair    | 0.72614    | 2.0064     | 2.6149     |  38.2 | 71.72
Neigh   | 1.0332e-05 | 0.0029668  | 0.0043096  |   2.2 |  0.11
Comm    | 0.041718   | 0.45272    | 1.3504     |  56.1 | 16.18
Output  | 0          | 0          | 0          |   0.0 |  0.00
Modify  | 2.8134e-05 | 0.0039285  | 0.0083875  |   3.0 |  0.14
Other   |            | 0.3316     |            |       | 11.85

Nlocal:        2776.45 ave        3960 max           0 min
Histogram: 8 4 4 0 4 12 8 4 26 34
Nghost:        3879.14 ave        5425 max         232 min
Histogram: 8 0 8 0 16 0 8 8 16 40
Neighs:        79213.3 ave      115436 max           0 min
Histogram: 8 4 4 0 10 6 8 8 24 32

Total # of neighbors = 8238187
Ave neighs/atom = 28.530419
Neighbor list builds = 1
Dangerous builds = 0
The dot product: -3.44864082461105e-06
Setting atom values ...
  1 settings made for x
  1 settings made for y
  1 settings made for z
Setting up cg style minimization ...
  Unit style    : metal
  Current step  : 5973
Per MPI rank memory allocation (min/avg/max) = 5.441 | 5.816 | 6.074 Mbytes
Step PotEng KinEng TotEng v_fx v_fy v_fz 
    5973   -1152449.2            0   -1152449.2  0.029495358 -0.037300275  0.023926927 
    6000   -1152449.2            0   -1152449.2 -0.0014507707 -0.00029465418 -0.0034954445 
    6188   -1152449.2            0   -1152449.2 -1.5074082e-05 -1.0488741e-05 -4.4406311e-05 
Loop time of 2.49002 on 104 procs for 215 steps with 288751 atoms

99.9% CPU use with 104 MPI tasks x 1 OpenMP threads

Minimization stats:
  Stopping criterion = energy tolerance
  Energy initial, next-to-last, final = 
     -1152449.24514008  -1152449.24978562  -1152449.24978562
  Force two-norm initial, final = 0.15312527 0.00018246276
  Force max component initial, final = 0.055878366 4.4406311e-05
  Final line search alpha, max atom move = 1.0000000 4.4406311e-05
  Iterations, force evaluations = 215 430

MPI task timing breakdown:
Section |  min time  |  avg time  |  max time  |%varavg| %total
---------------------------------------------------------------
Pair    | 0.6484     | 1.8113     | 2.3473     |  36.3 | 72.74
Neigh   | 0          | 0          | 0          |   0.0 |  0.00
Comm    | 0.042674   | 0.40601    | 1.2371     |  54.2 | 16.31
Output  | 9.7437e-05 | 0.00010124 | 0.0001824  |   0.0 |  0.00
Modify  | 2.552e-05  | 0.0035502  | 0.0076924  |   2.8 |  0.14
Other   |            | 0.2691     |            |       | 10.81

Nlocal:        2776.45 ave        3959 max           0 min
Histogram: 8 4 4 0 4 12 8 2 28 34
Nghost:        3879.09 ave        5424 max         232 min
Histogram: 8 0 8 0 16 0 8 8 16 40
Neighs:        79213.3 ave      115383 max           0 min
Histogram: 8 4 4 0 10 6 8 8 24 32

Total # of neighbors = 8238184
Ave neighs/atom = 28.530409
Neighbor list builds = 0
Dangerous builds = 0
The dot product: -1.05855653320782e-06
Setting atom values ...
  1 settings made for x
  1 settings made for y
  1 settings made for z
Setting up cg style minimization ...
  Unit style    : metal
  Current step  : 6188
Per MPI rank memory allocation (min/avg/max) = 5.441 | 5.816 | 6.074 Mbytes
Step PotEng KinEng TotEng v_fx v_fy v_fz 
    6188   -1152449.3            0   -1152449.3  0.012401151 -0.036116313 -0.0048718329 
    6313   -1152449.3            0   -1152449.3 9.1030632e-06 4.0401664e-06 2.7233851e-05 
Loop time of 1.44349 on 104 procs for 125 steps with 288751 atoms

99.9% CPU use with 104 MPI tasks x 1 OpenMP threads

Minimization stats:
  Stopping criterion = energy tolerance
  Energy initial, next-to-last, final = 
     -1152449.25138372  -1152449.25295098  -1152449.25295098
  Force two-norm initial, final = 0.15215346 0.00013689111
  Force max component initial, final = 0.055073401 2.8434686e-05
  Final line search alpha, max atom move = 1.0000000 2.8434686e-05
  Iterations, force evaluations = 125 250

MPI task timing breakdown:
Section |  min time  |  avg time  |  max time  |%varavg| %total
---------------------------------------------------------------
Pair    | 0.37793    | 1.0469     | 1.369      |  27.6 | 72.53
Neigh   | 0          | 0          | 0          |   0.0 |  0.00
Comm    | 0.021788   | 0.23422    | 0.71131    |  41.1 | 16.23
Output  | 0          | 0          | 0          |   0.0 |  0.00
Modify  | 1.4758e-05 | 0.0020622  | 0.004404   |   2.1 |  0.14
Other   |            | 0.1603     |            |       | 11.10

Nlocal:        2776.45 ave        3958 max           0 min
Histogram: 8 4 4 0 4 12 8 2 28 34
Nghost:        3879.01 ave        5424 max         232 min
Histogram: 8 0 8 0 16 0 8 8 16 40
Neighs:        79213.3 ave      115371 max           0 min
Histogram: 8 4 4 0 10 6 8 8 24 32

Total # of neighbors = 8238185
Ave neighs/atom = 28.530412
Neighbor list builds = 0
Dangerous builds = 0
The dot product: 1.50489322176815e-07
Setting atom values ...
  1 settings made for x
  1 settings made for y
  1 settings made for z
Setting up cg style minimization ...
  Unit style    : metal
  Current step  : 6313
Per MPI rank memory allocation (min/avg/max) = 5.441 | 5.816 | 6.074 Mbytes
Step PotEng KinEng TotEng v_fx v_fy v_fz 
    6313   -1152449.3            0   -1152449.3   0.01406753 -0.051368877 -0.014970678 
    6516   -1152449.3            0   -1152449.3 4.8310379e-07 5.3220421e-07 1.7993152e-06 
Loop time of 2.36659 on 104 procs for 203 steps with 288751 atoms

99.9% CPU use with 104 MPI tasks x 1 OpenMP threads

Minimization stats:
  Stopping criterion = energy tolerance
  Energy initial, next-to-last, final = 
     -1152449.25494819  -1152449.25614441  -1152449.25614441
  Force two-norm initial, final = 0.15291357 2.1159183e-05
  Force max component initial, final = 0.055616693 1.7993152e-06
  Final line search alpha, max atom move = 1.0000000 1.7993152e-06
  Iterations, force evaluations = 203 406

MPI task timing breakdown:
Section |  min time  |  avg time  |  max time  |%varavg| %total
---------------------------------------------------------------
Pair    | 0.62525    | 1.716      | 2.2148     |  35.0 | 72.51
Neigh   | 0          | 0          | 0          |   0.0 |  0.00
Comm    | 0.044455   | 0.3872     | 1.186      |  52.9 | 16.36
Output  | 0          | 0          | 0          |   0.0 |  0.00
Modify  | 2.6393e-05 | 0.0033412  | 0.0071476  |   2.7 |  0.14
Other   |            | 0.2601     |            |       | 10.99

Nlocal:        2776.45 ave        3958 max           0 min
Histogram: 8 4 4 0 4 12 8 2 28 34
Nghost:        3879.01 ave        5424 max         232 min
Histogram: 8 0 8 0 16 0 8 8 16 40
Neighs:        79213.3 ave      115371 max           0 min
Histogram: 8 4 4 0 10 6 8 8 24 32

Total # of neighbors = 8238182
Ave neighs/atom = 28.530402
Neighbor list builds = 0
Dangerous builds = 0
The dot product: 5.9543412062612e-10
Setting atom values ...
  1 settings made for x
  1 settings made for y
  1 settings made for z
Setting up cg style minimization ...
  Unit style    : metal
  Current step  : 6516
Per MPI rank memory allocation (min/avg/max) = 5.441 | 5.816 | 6.074 Mbytes
Step PotEng KinEng TotEng v_fx v_fy v_fz 
    6516   -1152449.3            0   -1152449.3  0.014268027 -0.060400883 -0.021223727 
    6756   -1152449.3            0   -1152449.3 3.4113722e-07 -9.8166861e-06 -8.6950735e-06 
Loop time of 2.78794 on 104 procs for 240 steps with 288751 atoms

99.9% CPU use with 104 MPI tasks x 1 OpenMP threads

Minimization stats:
  Stopping criterion = energy tolerance
  Energy initial, next-to-last, final = 
     -1152449.25745064  -1152449.30024092  -1152449.30024092
  Force two-norm initial, final = 0.159548 0.00011407553
  Force max component initial, final = 0.060400883 1.2334429e-05
  Final line search alpha, max atom move = 1.0000000 1.2334429e-05
  Iterations, force evaluations = 240 483

MPI task timing breakdown:
Section |  min time  |  avg time  |  max time  |%varavg| %total
---------------------------------------------------------------
Pair    | 0.73171    | 2.0216     | 2.6324     |  38.3 | 72.51
Neigh   | 1.0636e-05 | 0.0029554  | 0.0042988  |   2.2 |  0.11
Comm    | 0.042595   | 0.45188    | 1.3726     |  57.3 | 16.21
Output  | 0          | 0          | 0          |   0.0 |  0.00
Modify  | 2.865e-05  | 0.0039758  | 0.0084976  |   3.0 |  0.14
Other   |            | 0.3075     |            |       | 11.03

Nlocal:        2776.45 ave        3960 max           0 min
Histogram: 8 4 4 0 4 12 8 2 28 34
Nghost:        3879.01 ave        5424 max         232 min
Histogram: 8 0 8 0 16 0 8 8 16 40
Neighs:        79213.4 ave      115438 max           0 min
Histogram: 8 4 4 0 10 6 8 8 24 32

Total # of neighbors = 8238194
Ave neighs/atom = 28.530443
Neighbor list builds = 1
Dangerous builds = 0
The dot product: 9.3513578896069e-07
Setting atom values ...
  1 settings made for x
  1 settings made for y
  1 settings made for z
Setting up cg style minimization ...
  Unit style    : metal
  Current step  : 6756
Per MPI rank memory allocation (min/avg/max) = 5.441 | 5.816 | 6.074 Mbytes
Step PotEng KinEng TotEng v_fx v_fy v_fz 
    6756   -1152449.3            0   -1152449.3 -0.027411343  0.052883518 -0.057593744 
    6946   -1152449.3            0   -1152449.3 -9.9004374e-06 -9.9341422e-06 -3.7276998e-05 
Loop time of 2.17786 on 104 procs for 190 steps with 288751 atoms

99.9% CPU use with 104 MPI tasks x 1 OpenMP threads

Minimization stats:
  Stopping criterion = energy tolerance
  Energy initial, next-to-last, final = 
     -1152449.31122228  -1152449.31338893  -1152449.31338893
  Force two-norm initial, final = 0.16042389 0.00016717871
  Force max component initial, final = 0.057593744 5.1684270e-05
  Final line search alpha, max atom move = 1.0000000 5.1684270e-05
  Iterations, force evaluations = 190 380

MPI task timing breakdown:
Section |  min time  |  avg time  |  max time  |%varavg| %total
---------------------------------------------------------------
Pair    | 0.57306    | 1.5952     | 2.063      |  34.0 | 73.25
Neigh   | 0          | 0          | 0          |   0.0 |  0.00
Comm    | 0.034863   | 0.35559    | 1.0813     |  50.9 | 16.33
Output  | 0          | 0          | 0          |   0.0 |  0.00
Modify  | 2.4343e-05 | 0.0031238  | 0.0066858  |   2.6 |  0.14
Other   |            | 0.2239     |            |       | 10.28

Nlocal:        2776.45 ave        3956 max           0 min
Histogram: 8 4 4 0 4 12 8 2 28 34
Nghost:        3879.09 ave        5424 max         232 min
Histogram: 8 0 8 0 16 0 8 8 16 40
Neighs:        79213.4 ave      115308 max           0 min
Histogram: 8 4 4 0 10 6 8 8 24 32

Total # of neighbors = 8238197
Ave neighs/atom = 28.530454
Neighbor list builds = 0
Dangerous builds = 0
The dot product: 8.34969433550378e-08
Setting atom values ...
  1 settings made for x
  1 settings made for y
  1 settings made for z
Setting up cg style minimization ...
  Unit style    : metal
  Current step  : 6946
Per MPI rank memory allocation (min/avg/max) = 5.441 | 5.816 | 6.074 Mbytes
Step PotEng KinEng TotEng v_fx v_fy v_fz 
    6946   -1152449.3            0   -1152449.3 0.0056408954 -0.070385007 -0.027580144 
    7000   -1152449.3            0   -1152449.3 -4.9826761e-05 -0.000164182 -0.00025880985 
    7090   -1152449.3            0   -1152449.3 -1.2312637e-05 2.4085804e-05 -2.2619087e-05 
Loop time of 1.65814 on 104 procs for 144 steps with 288751 atoms

99.9% CPU use with 104 MPI tasks x 1 OpenMP threads

Minimization stats:
  Stopping criterion = energy tolerance
  Energy initial, next-to-last, final = 
     -1152449.32241415  -1152449.32365837  -1152449.32365837
  Force two-norm initial, final = 0.16168615 0.00021850125
  Force max component initial, final = 0.070385007 3.5544738e-05
  Final line search alpha, max atom move = 1.0000000 3.5544738e-05
  Iterations, force evaluations = 144 288

MPI task timing breakdown:
Section |  min time  |  avg time  |  max time  |%varavg| %total
---------------------------------------------------------------
Pair    | 0.43584    | 1.2081     | 1.5682     |  29.7 | 72.86
Neigh   | 0          | 0          | 0          |   0.0 |  0.00
Comm    | 0.025142   | 0.26916    | 0.82033    |  44.4 | 16.23
Output  | 0.00011064 | 0.00011384 | 0.00020563 |   0.0 |  0.01
Modify  | 1.7179e-05 | 0.0023786  | 0.0050737  |   2.3 |  0.14
Other   |            | 0.1784     |            |       | 10.76

Nlocal:        2776.45 ave        3960 max           0 min
Histogram: 8 4 4 0 4 12 8 2 28 34
Nghost:        3879.03 ave        5424 max         232 min
Histogram: 8 0 8 0 16 0 8 8 16 40
Neighs:        79213.4 ave      115442 max           0 min
Histogram: 8 4 4 0 10 6 8 8 24 32

Total # of neighbors = 8238196
Ave neighs/atom = 28.530450
Neighbor list builds = 0
Dangerous builds = 0
The dot product: -1.45797231397583e-07
Setting atom values ...
  1 settings made for x
  1 settings made for y
  1 settings made for z
Setting up cg style minimization ...
  Unit style    : metal
  Current step  : 7090
Per MPI rank memory allocation (min/avg/max) = 5.441 | 5.816 | 6.074 Mbytes
Step PotEng KinEng TotEng v_fx v_fy v_fz 
    7090   -1152449.3            0   -1152449.3 0.00057296381 -0.054468298 -0.031410547 
    7305   -1152449.3            0   -1152449.3 4.2445456e-07 4.3680692e-06 3.9666691e-06 
Loop time of 2.4839 on 104 procs for 215 steps with 288751 atoms

99.9% CPU use with 104 MPI tasks x 1 OpenMP threads

Minimization stats:
  Stopping criterion = energy tolerance
  Energy initial, next-to-last, final = 
     -1152449.33111013  -1152449.33230121  -1152449.33230121
  Force two-norm initial, final = 0.15695766 3.9608848e-05
  Force max component initial, final = 0.054468298 8.4654741e-06
  Final line search alpha, max atom move = 1.0000000 8.4654741e-06
  Iterations, force evaluations = 215 430

MPI task timing breakdown:
Section |  min time  |  avg time  |  max time  |%varavg| %total
---------------------------------------------------------------
Pair    | 0.65082    | 1.8099     | 2.3358     |  36.3 | 72.86
Neigh   | 0          | 0          | 0          |   0.0 |  0.00
Comm    | 0.041909   | 0.40335    | 1.2249     |  54.2 | 16.24
Output  | 0          | 0          | 0          |   0.0 |  0.00
Modify  | 2.5719e-05 | 0.003543   | 0.0075812  |   2.8 |  0.14
Other   |            | 0.2671     |            |       | 10.75

Nlocal:        2776.45 ave        3960 max           0 min
Histogram: 8 4 4 0 4 12 8 2 28 34
Nghost:        3879.03 ave        5424 max         232 min
Histogram: 8 0 8 0 16 0 8 8 16 40
Neighs:        79213.4 ave      115442 max           0 min
Histogram: 8 4 4 0 10 6 8 8 24 32

Total # of neighbors = 8238197
Ave neighs/atom = 28.530454
Neighbor list builds = 0
Dangerous builds = 0
The dot product: -1.91137136407993e-08
Setting atom values ...
  1 settings made for x
  1 settings made for y
  1 settings made for z
Setting up cg style minimization ...
  Unit style    : metal
  Current step  : 7305
Per MPI rank memory allocation (min/avg/max) = 5.441 | 5.816 | 6.074 Mbytes
Step PotEng KinEng TotEng v_fx v_fy v_fz 
    7305   -1152449.3            0   -1152449.3 0.0012807209 -0.058434264 -0.030777456 
    7486   -1152449.3            0   -1152449.3 -1.3224127e-06 1.4317972e-05 4.4599458e-06 
[...]

Nlocal:        2776.45 ave        3957 max           0 min
Histogram: 8 4 4 0 4 12 8 2 28 34
Nghost:        3879.01 ave        5424 max         232 min
Histogram: 8 0 8 0 16 0 8 8 16 40
Neighs:        79213.4 ave      115338 max           0 min
Histogram: 8 4 4 0 10 6 8 8 24 32

Total # of neighbors = 8238190
Ave neighs/atom = 28.530429
Neighbor list builds = 0
Dangerous builds = 0
The dot product: 9.70997111779512e-09
Setting atom values ...
  1 settings made for x
  1 settings made for y
  1 settings made for z
Setting up cg style minimization ...
  Unit style    : metal
  Current step  : 3564
Per MPI rank memory allocation (min/avg/max) = 5.441 | 5.816 | 6.074 Mbytes
Step PotEng KinEng TotEng v_fx v_fy v_fz 
    3564   -1152449.3            0   -1152449.3 0.0091017918 0.0065355401  0.018934695 
    3747   -1152449.4            0   -1152449.4 6.2170313e-06 -2.8711964e-06 7.2273909e-06 
Loop time of 2.12551 on 104 procs for 183 steps with 288751 atoms

99.9% CPU use with 104 MPI tasks x 1 OpenMP threads

Minimization stats:
  Stopping criterion = energy tolerance
  Energy initial, next-to-last, final = 
     -1152449.34979606  -1152449.35068639  -1152449.35068639
  Force two-norm initial, final = 0.12479799 0.00012061034
  Force max component initial, final = 0.046193819 1.1424457e-05
  Final line search alpha, max atom move = 1.0000000 1.1424457e-05
  Iterations, force evaluations = 183 366

MPI task timing breakdown:
Section |  min time  |  avg time  |  max time  |%varavg| %total
---------------------------------------------------------------
Pair    | 0.55648    | 1.5395     | 1.9995     |  33.5 | 72.43
Neigh   | 0          | 0          | 0          |   0.0 |  0.00
Comm    | 0.030419   | 0.34684    | 1.055      |  49.6 | 16.32
Output  | 0          | 0          | 0          |   0.0 |  0.00
Modify  | 2.1811e-05 | 0.0030196  | 0.0064284  |   2.6 |  0.14
Other   |            | 0.2362     |            |       | 11.11

Nlocal:        2776.45 ave        3958 max           0 min
Histogram: 8 4 4 0 4 12 8 2 28 34
Nghost:        3879.01 ave        5424 max         232 min
Histogram: 8 0 8 0 16 0 8 8 16 40
Neighs:        79213.4 ave      115364 max           0 min
Histogram: 8 4 4 0 10 6 8 8 24 32

Total # of neighbors = 8238192
Ave neighs/atom = 28.530436
Neighbor list builds = 0
Dangerous builds = 0
The dot product: 2.81304127830578e-09
Setting atom values ...
  1 settings made for x
  1 settings made for y
  1 settings made for z
Setting up cg style minimization ...
  Unit style    : metal
  Current step  : 3747
Per MPI rank memory allocation (min/avg/max) = 5.441 | 5.816 | 6.074 Mbytes
Step PotEng KinEng TotEng v_fx v_fy v_fz 
    3747   -1152449.3            0   -1152449.3  0.008129087 0.0063227222   0.01734163 
    3930   -1152449.3            0   -1152449.3 1.3081519e-05 -4.7159048e-07 1.958861e-05 
Loop time of 2.1547 on 104 procs for 183 steps with 288751 atoms

99.9% CPU use with 104 MPI tasks x 1 OpenMP threads

Minimization stats:
  Stopping criterion = energy tolerance
  Energy initial, next-to-last, final = 
     -1152449.34758343  -1152449.34846057  -1152449.34846057
  Force two-norm initial, final = 0.12379639 0.00012435759
  Force max component initial, final = 0.045519701 2.7892692e-05
  Final line search alpha, max atom move = 1.0000000 2.7892692e-05
  Iterations, force evaluations = 183 366

MPI task timing breakdown:
Section |  min time  |  avg time  |  max time  |%varavg| %total
---------------------------------------------------------------
Pair    | 0.5585     | 1.5402     | 2.0173     |  33.5 | 71.48
Neigh   | 0          | 0          | 0          |   0.0 |  0.00
Comm    | 0.031702   | 0.35052    | 1.054      |  48.7 | 16.27
Output  | 0          | 0          | 0          |   0.0 |  0.00
Modify  | 2.1899e-05 | 0.0030124  | 0.0064508  |   2.6 |  0.14
Other   |            | 0.2609     |            |       | 12.11

Nlocal:        2776.45 ave        3958 max           0 min
Histogram: 8 4 4 0 4 12 8 2 28 34
Nghost:        3879.07 ave        5424 max         232 min
Histogram: 8 0 8 0 16 0 8 8 16 40
Neighs:        79213.4 ave      115354 max           0 min
Histogram: 8 4 4 0 10 6 8 8 24 32

Total # of neighbors = 8238192
Ave neighs/atom = 28.530436
Neighbor list builds = 0
Dangerous builds = 0
The dot product: 8.44606347778811e-09
Setting atom values ...
  1 settings made for x
  1 settings made for y
  1 settings made for z
Setting up cg style minimization ...
  Unit style    : metal
  Current step  : 3930
Per MPI rank memory allocation (min/avg/max) = 5.441 | 5.816 | 6.074 Mbytes
Step PotEng KinEng TotEng v_fx v_fy v_fz 
    3930   -1152449.3            0   -1152449.3 0.0072222351 0.0058363632  0.015619489 
    4000   -1152449.3            0   -1152449.3 -9.9436197e-05 9.358515e-05 -7.860185e-05 
    4105   -1152449.3            0   -1152449.3 4.1563922e-05 -2.4557275e-05 4.4277625e-05 
Loop time of 2.02103 on 104 procs for 175 steps with 288751 atoms

99.9% CPU use with 104 MPI tasks x 1 OpenMP threads

Minimization stats:
  Stopping criterion = energy tolerance
  Energy initial, next-to-last, final = 
     -1152449.34401296  -1152449.34487603  -1152449.34487603
  Force two-norm initial, final = 0.12286344 0.00017957754
  Force max component initial, final = 0.044830681 4.8410146e-05
  Final line search alpha, max atom move = 1.0000000 4.8410146e-05
  Iterations, force evaluations = 175 350

MPI task timing breakdown:
Section |  min time  |  avg time  |  max time  |%varavg| %total
---------------------------------------------------------------
Pair    | 0.53302    | 1.4732     | 1.9125     |  32.8 | 72.89
Neigh   | 0          | 0          | 0          |   0.0 |  0.00
Comm    | 0.030523   | 0.33447    | 1.0335     |  48.6 | 16.55
Output  | 0.000105   | 0.0001101  | 0.00023927 |   0.0 |  0.01
Modify  | 2.1272e-05 | 0.0028819  | 0.0061385  |   2.5 |  0.14
Other   |            | 0.2104     |            |       | 10.41

Nlocal:        2776.45 ave        3958 max           0 min
Histogram: 8 4 4 0 4 12 8 3 27 34
Nghost:        3879.07 ave        5424 max         232 min
Histogram: 8 0 8 0 16 0 8 8 16 40
Neighs:        79213.4 ave      115346 max           0 min
Histogram: 8 4 4 0 10 6 8 8 24 32

Total # of neighbors = 8238190
Ave neighs/atom = 28.530429
Neighbor list builds = 0
Dangerous builds = 0
The dot product: 9.68774653932399e-09
Setting atom values ...
  1 settings made for x
  1 settings made for y
  1 settings made for z
Setting up cg style minimization ...
  Unit style    : metal
  Current step  : 4105
Per MPI rank memory allocation (min/avg/max) = 5.441 | 5.816 | 6.074 Mbytes
Step PotEng KinEng TotEng v_fx v_fy v_fz 
    4105   -1152449.3            0   -1152449.3 0.0065183811 0.0050343158    0.0139456 
    4295   -1152449.3            0   -1152449.3 1.3075657e-05 2.6777006e-06 2.2132614e-05 
Loop time of 2.21605 on 104 procs for 190 steps with 288751 atoms

99.9% CPU use with 104 MPI tasks x 1 OpenMP threads

Minimization stats:
  Stopping criterion = energy tolerance
  Energy initial, next-to-last, final = 
     -1152449.33907311  -1152449.33992556  -1152449.33992556
  Force two-norm initial, final = 0.12219844 9.6282829e-05
  Force max component initial, final = 0.044225235 2.2132614e-05
  Final line search alpha, max atom move = 1.0000000 2.2132614e-05
  Iterations, force evaluations = 190 380

MPI task timing breakdown:
Section |  min time  |  avg time  |  max time  |%varavg| %total
---------------------------------------------------------------
Pair    | 0.58111    | 1.5994     | 2.0863     |  34.1 | 72.18
Neigh   | 0          | 0          | 0          |   0.0 |  0.00
Comm    | 0.032527   | 0.36254    | 1.0981     |  50.1 | 16.36
Output  | 0          | 0          | 0          |   0.0 |  0.00
Modify  | 2.3331e-05 | 0.0031281  | 0.0067256  |   2.7 |  0.14
Other   |            | 0.2509     |            |       | 11.32

Nlocal:        2776.45 ave        3958 max           0 min
Histogram: 8 4 4 0 4 12 8 4 26 34
Nghost:        3879.07 ave        5425 max         232 min
Histogram: 8 0 8 0 16 0 8 8 16 40
Neighs:        79213.4 ave      115344 max           0 min
Histogram: 8 4 4 0 10 6 8 8 24 32

Total # of neighbors = 8238191
Ave neighs/atom = 28.530433
Neighbor list builds = 0
Dangerous builds = 0
The dot product: 8.159781202013e-09
Setting atom values ...
  1 settings made for x
  1 settings made for y
  1 settings made for z
Setting up cg style minimization ...
  Unit style    : metal
  Current step  : 4295
Per MPI rank memory allocation (min/avg/max) = 5.441 | 5.816 | 6.074 Mbytes
Step PotEng KinEng TotEng v_fx v_fy v_fz 
    4295   -1152449.3            0   -1152449.3 0.0059883033 0.0039736862  0.012321261 
    4483   -1152449.3            0   -1152449.3 -1.1658982e-05 1.2632405e-06 -1.6884174e-05 
Loop time of 2.21037 on 104 procs for 188 steps with 288751 atoms

99.9% CPU use with 104 MPI tasks x 1 OpenMP threads

Minimization stats:
  Stopping criterion = energy tolerance
  Energy initial, next-to-last, final = 
     -1152449.33274811  -1152449.33359509  -1152449.33359509
  Force two-norm initial, final = 0.12187534 9.8847612e-05
  Force max component initial, final = 0.044099056 1.6884174e-05
  Final line search alpha, max atom move = 1.0000000 1.6884174e-05
  Iterations, force evaluations = 188 376

MPI task timing breakdown:
Section |  min time  |  avg time  |  max time  |%varavg| %total
---------------------------------------------------------------
Pair    | 0.58353    | 1.5867     | 2.0666     |  33.7 | 71.79
Neigh   | 0          | 0          | 0          |   0.0 |  0.00
Comm    | 0.042605   | 0.36089    | 1.0844     |  50.1 | 16.33
Output  | 0          | 0          | 0          |   0.0 |  0.00
Modify  | 2.1903e-05 | 0.0030972  | 0.0066491  |   2.6 |  0.14
Other   |            | 0.2596     |            |       | 11.75

Nlocal:        2776.45 ave        3959 max           0 min
Histogram: 8 4 4 0 4 12 8 4 26 34
Nghost:        3879.07 ave        5427 max         232 min
Histogram: 8 0 8 0 16 0 8 8 16 40
Neighs:        79213.4 ave      115381 max           0 min
Histogram: 8 4 4 0 10 6 8 8 24 32

Total # of neighbors = 8238190
Ave neighs/atom = 28.530429
Neighbor list builds = 0
Dangerous builds = 0
The dot product: -5.1788893018414e-09
Setting atom values ...
  1 settings made for x
  1 settings made for y
  1 settings made for z
Setting up cg style minimization ...
  Unit style    : metal
  Current step  : 4483
Per MPI rank memory allocation (min/avg/max) = 5.441 | 5.816 | 6.074 Mbytes
Step PotEng KinEng TotEng v_fx v_fy v_fz 
    4483   -1152449.3            0   -1152449.3  0.005733406 0.0025853189  0.010850492 
    4686   -1152449.3            0   -1152449.3 -9.2020555e-06 2.701319e-06 -1.199477e-05 
Loop time of 2.35494 on 104 procs for 203 steps with 288751 atoms

99.9% CPU use with 104 MPI tasks x 1 OpenMP threads

Minimization stats:
  Stopping criterion = energy tolerance
  Energy initial, next-to-last, final = 
     -1152449.32501427  -1152449.32586147  -1152449.32586147
  Force two-norm initial, final = 0.12193847 6.8730830e-05
  Force max component initial, final = 0.043974396 1.1994770e-05
  Final line search alpha, max atom move = 1.0000000 1.1994770e-05
  Iterations, force evaluations = 203 406

MPI task timing breakdown:
Section |  min time  |  avg time  |  max time  |%varavg| %total
---------------------------------------------------------------
Pair    | 0.61694    | 1.7052     | 2.2325     |  35.2 | 72.41
Neigh   | 0          | 0          | 0          |   0.0 |  0.00
Comm    | 0.034625   | 0.38485    | 1.1613     |  51.9 | 16.34
Output  | 0          | 0          | 0          |   0.0 |  0.00
Modify  | 2.3872e-05 | 0.0033397  | 0.0072015  |   2.7 |  0.14
Other   |            | 0.2615     |            |       | 11.11

Nlocal:        2776.45 ave        3959 max           0 min
Histogram: 8 4 4 0 4 12 8 4 26 34
Nghost:        3879.07 ave        5426 max         232 min
Histogram: 8 0 8 0 16 0 8 8 16 40
Neighs:        79213.4 ave      115381 max           0 min
Histogram: 8 4 4 0 10 6 8 8 24 32

Total # of neighbors = 8238190
Ave neighs/atom = 28.530429
Neighbor list builds = 0
Dangerous builds = 0
The dot product: -3.49538974478818e-09
Setting atom values ...
  1 settings made for x
  1 settings made for y
  1 settings made for z
Setting up cg style minimization ...
  Unit style    : metal
  Current step  : 4686
Per MPI rank memory allocation (min/avg/max) = 5.441 | 5.816 | 6.074 Mbytes
Step PotEng KinEng TotEng v_fx v_fy v_fz 
    4686   -1152449.3            0   -1152449.3 0.0057878138 0.00092194619 0.0096299372 
    4898   -1152449.3            0   -1152449.3 7.7764518e-07 1.0194729e-06 2.0035132e-06 
Loop time of 2.44962 on 104 procs for 212 steps with 288751 atoms

99.9% CPU use with 104 MPI tasks x 1 OpenMP threads

Minimization stats:
  Stopping criterion = energy tolerance
  Energy initial, next-to-last, final = 
     -1152449.31584004  -1152449.31669274  -1152449.31669274
  Force two-norm initial, final = 0.12234204 4.2053895e-05
  Force max component initial, final = 0.043809066 2.1337312e-06
  Final line search alpha, max atom move = 1.0000000 2.1337312e-06
  Iterations, force evaluations = 212 424

MPI task timing breakdown:
Section |  min time  |  avg time  |  max time  |%varavg| %total
---------------------------------------------------------------
Pair    | 0.6454     | 1.7818     | 2.3196     |  36.0 | 72.74
Neigh   | 0          | 0          | 0          |   0.0 |  0.00
Comm    | 0.035734   | 0.4019     | 1.2159     |  53.5 | 16.41
Output  | 0          | 0          | 0          |   0.0 |  0.00
Modify  | 2.5456e-05 | 0.0034969  | 0.0075065  |   2.8 |  0.14
Other   |            | 0.2625     |            |       | 10.71

Nlocal:        2776.45 ave        3959 max           0 min
Histogram: 8 4 4 0 4 12 8 4 26 34
Nghost:        3879.09 ave        5425 max         232 min
Histogram: 8 0 8 0 16 0 8 8 16 40
Neighs:        79213.3 ave      115390 max           0 min
Histogram: 8 4 4 0 10 6 8 8 24 32

Total # of neighbors = 8238188
Ave neighs/atom = 28.530422
Neighbor list builds = 0
Dangerous builds = 0
The dot product: 5.57307786393513e-10
Setting atom values ...
  1 settings made for x
  1 settings made for y
  1 settings made for z
Setting up cg style minimization ...
  Unit style    : metal
  Current step  : 4898
Per MPI rank memory allocation (min/avg/max) = 5.441 | 5.816 | 6.074 Mbytes
Step PotEng KinEng TotEng v_fx v_fy v_fz 
    4898   -1152449.3            0   -1152449.3 0.0061337542 -0.00098390346 0.0086626359 
    5000   -1152449.3            0   -1152449.3 0.00010948474 2.0587112e-05 0.00018487788 
    5072   -1152449.3            0   -1152449.3 5.3380723e-06 -2.7739197e-06 6.0181402e-06 
Loop time of 2.02244 on 104 procs for 174 steps with 288751 atoms

99.9% CPU use with 104 MPI tasks x 1 OpenMP threads

Minimization stats:
  Stopping criterion = energy tolerance
  Energy initial, next-to-last, final = 
     -1152449.30519502  -1152449.30605482  -1152449.30605482
  Force two-norm initial, final = 0.12295493 0.00016512087
  Force max component initial, final = 0.043625148 2.0397227e-05
  Final line search alpha, max atom move = 1.0000000 2.0397227e-05
  Iterations, force evaluations = 174 348

MPI task timing breakdown:
Section |  min time  |  avg time  |  max time  |%varavg| %total
---------------------------------------------------------------
Pair    | 0.53036    | 1.4626     | 1.9153     |  32.6 | 72.32
Neigh   | 0          | 0          | 0          |   0.0 |  0.00
Comm    | 0.029794   | 0.32925    | 1.0015     |  48.1 | 16.28
Output  | 0.00015788 | 0.00016107 | 0.00030522 |   0.0 |  0.01
Modify  | 2.0761e-05 | 0.0028637  | 0.0061267  |   2.5 |  0.14
Other   |            | 0.2276     |            |       | 11.25

Nlocal:        2776.45 ave        3959 max           0 min
Histogram: 8 4 4 0 4 12 8 4 26 34
Nghost:        3879.07 ave        5425 max         232 min
Histogram: 8 0 8 0 16 0 8 8 16 40
Neighs:        79213.3 ave      115390 max           0 min
Histogram: 8 4 4 0 10 6 8 8 24 32

Total # of neighbors = 8238188
Ave neighs/atom = 28.530422
Neighbor list builds = 0
Dangerous builds = 0
The dot product: 2.8701630611546e-09
Setting atom values ...
  1 settings made for x
  1 settings made for y
  1 settings made for z
Setting up cg style minimization ...
  Unit style    : metal
  Current step  : 5072
Per MPI rank memory allocation (min/avg/max) = 5.441 | 5.816 | 6.074 Mbytes
Step PotEng KinEng TotEng v_fx v_fy v_fz 
    5072   -1152449.3            0   -1152449.3  0.006830235 -0.0030572005  0.008104411 
    5344   -1152449.3            0   -1152449.3 -1.0836955e-07 9.8278001e-08 -8.9104574e-08 
Loop time of 3.1471 on 104 procs for 272 steps with 288751 atoms

99.9% CPU use with 104 MPI tasks x 1 OpenMP threads

Minimization stats:
  Stopping criterion = energy tolerance
  Energy initial, next-to-last, final = 
     -1152449.29305357  -1152449.29391832  -1152449.29391832
  Force two-norm initial, final = 0.12363554 1.8847708e-06
  Force max component initial, final = 0.04345716 2.4951463e-07
  Final line search alpha, max atom move = 1.0000000 2.4951463e-07
  Iterations, force evaluations = 272 544

MPI task timing breakdown:
Section |  min time  |  avg time  |  max time  |%varavg| %total
---------------------------------------------------------------
Pair    | 0.83028    | 2.2867     | 2.9704     |  40.7 | 72.66
Neigh   | 0          | 0          | 0          |   0.0 |  0.00
Comm    | 0.047223   | 0.51815    | 1.5816     |  60.4 | 16.46
Output  | 0          | 0          | 0          |   0.0 |  0.00
Modify  | 3.2426e-05 | 0.0044727  | 0.0096009  |   3.2 |  0.14
Other   |            | 0.3378     |            |       | 10.73

Nlocal:        2776.45 ave        3959 max           0 min
Histogram: 8 4 4 0 4 12 8 4 26 34
Nghost:        3879.07 ave        5425 max         232 min
Histogram: 8 0 8 0 16 0 8 8 16 40
Neighs:        79213.3 ave      115390 max           0 min
Histogram: 8 4 4 0 10 6 8 8 24 32

Total # of neighbors = 8238188
Ave neighs/atom = 28.530422
Neighbor list builds = 0
Dangerous builds = 0
The dot product: -7.83125485819265e-11
Setting up cg style minimization ...
  Unit style    : metal
  Current step  : 5344
Per MPI rank memory allocation (min/avg/max) = 5.441 | 5.816 | 6.074 Mbytes
Step PotEng KinEng TotEng v_fx v_fy v_fz 
    5344   -1152449.3            0   -1152449.3   -0.4965487  -0.25550231   0.32209877 
    5578   -1152449.4            0   -1152449.4 2.3965718e-05 -1.2897766e-05 4.9667665e-05 
Loop time of 2.71763 on 104 procs for 234 steps with 288751 atoms

99.9% CPU use with 104 MPI tasks x 1 OpenMP threads

Minimization stats:
  Stopping criterion = energy tolerance
  Energy initial, next-to-last, final = 
     -1152449.29391832  -1152449.35157332  -1152449.35157332
  Force two-norm initial, final = 0.64466244 0.00017428377
  Force max component initial, final = 0.4965487 4.9667665e-05
  Final line search alpha, max atom move = 1.0000000 4.9667665e-05
  Iterations, force evaluations = 234 468

MPI task timing breakdown:
Section |  min time  |  avg time  |  max time  |%varavg| %total
---------------------------------------------------------------
Pair    | 0.71655    | 1.9694     | 2.5745     |  37.8 | 72.47
Neigh   | 1.0196e-05 | 0.0029685  | 0.0043071  |   2.2 |  0.11
Comm    | 0.040438   | 0.4418     | 1.3515     |  56.0 | 16.26
Output  | 0          | 0          | 0          |   0.0 |  0.00
Modify  | 2.5997e-05 | 0.0025095  | 0.0064433  |   3.2 |  0.09
Other   |            | 0.3009     |            |       | 11.07

Nlocal:        2776.45 ave        3959 max           0 min
Histogram: 8 4 4 0 4 12 8 4 26 34
Nghost:        3879.07 ave        5424 max         232 min
Histogram: 8 0 8 0 16 0 8 8 16 40
Neighs:        79213.4 ave      115389 max           0 min
Histogram: 8 4 4 0 10 6 8 8 24 32

Total # of neighbors = 8238193
Ave neighs/atom = 28.530440
Neighbor list builds = 1
Dangerous builds = 0
