LAMMPS (29 Oct 2020)
OMP_NUM_THREADS environment is not set. Defaulting to 1 thread. (../comm.cpp:94)
  using 1 OpenMP thread(s) per MPI task
########
#
########
variable                delta             equal     0.02 # the step size should be larger otherwise the number of
#the energy minimum sites is smaller
variable                iter_tot          equal     150

label                   loop
variable                seed              loop     310 319 #20 simulations
variable                iteration         loop      ${iter_tot} #The maximum ietration number per random direction
variable                iteration         loop      150 
clear
OMP_NUM_THREADS environment is not set. Defaulting to 1 thread. (../comm.cpp:94)
  using 1 OpenMP thread(s) per MPI task
units                   metal
atom_style              atomic
dimension                   3
boundary                p p p
atom_modify             map array sort 0 0.0

read_data               poslmp_carbon.dat
Reading data file ...
  orthogonal box = (-122.39241 -121.13707 -37.090501) to (122.39241 121.13707 37.090501)
  13 by 4 by 2 MPI processor grid
  reading atoms ...
  288751 atoms
  read_data CPU = 0.417 seconds

variable                zmax     equal    zhi
variable                zmin     equal    zlo

region                  inner   cylinder   z  1.16564  0.67298333  100.0  ${zmin}  ${zmax}  units  box
region                  inner   cylinder   z  1.16564  0.67298333  100.0  -37.0905005093422  ${zmax}  units  box
region                  inner   cylinder   z  1.16564  0.67298333  100.0  -37.0905005093422  37.0905005093422  units  box
group                   inner   region     inner
199981 atoms in group inner
group                   outer   subtract   all  inner
88770 atoms in group outer
group                   carbon  type       2
1 atoms in group carbon

pair_style              eam/alloy
pair_coeff              * * FeC-Becquart2013.eam.txt Fe C
neighbor                0.3 bin
neigh_modify            delay 0 check yes every 1

compute                 force     carbon   reduce  sum  fx fy fz
variable                fx    equal    c_force[1]
variable                fy    equal    c_force[2]
variable                fz    equal    c_force[3]

fix                     force    outer    setforce      0.0 0.0 0.0
thermo_style            custom   step     v_fx v_fy v_fz pe ke etotal
min_style               cg
minimize                1.0e-30 1.0e-30 10000 10000
Neighbor list info ...
  update every 1 steps, delay 0 steps, check yes
  max neighbors/atom: 2000, page size: 100000
  master list distance cutoff = 5.6
  ghost atom cutoff = 5.6
  binsize = 2.8, bins = 88 87 27
  1 neighbor lists, perpetual/occasional/extra = 1 0 0
  (1) pair eam/alloy, perpetual
      attributes: half, newton on
      pair build: half/bin/atomonly/newton
      stencil: half/bin/3d/newton
      bin: standard
Per MPI rank memory allocation (min/avg/max) = 5.441 | 5.816 | 6.074 Mbytes
Step v_fx v_fy v_fz PotEng KinEng TotEng 
       0    0.2387579   0.60120358  -0.51025504   -1152447.8            0   -1152447.8 
     158 9.3726748e-06 -2.0697925e-05 3.213658e-05   -1152449.5            0   -1152449.5 
Loop time of 1.87513 on 104 procs for 158 steps with 288751 atoms

99.8% CPU use with 104 MPI tasks x 1 OpenMP threads

Minimization stats:
  Stopping criterion = energy tolerance
  Energy initial, next-to-last, final = 
     -1152447.84237758  -1152449.45035271  -1152449.45035271
  Force two-norm initial, final = 9.8178672 0.00013634226
  Force max component initial, final = 4.6155160 3.2136580e-05
  Final line search alpha, max atom move = 1.0000000 3.2136580e-05
  Iterations, force evaluations = 158 315

MPI task timing breakdown:
Section |  min time  |  avg time  |  max time  |%varavg| %total
---------------------------------------------------------------
Pair    | 0.49011    | 1.3289     | 1.7369     |  30.8 | 70.87
Neigh   | 2.1335e-05 | 0.0058547  | 0.0085349  |   3.2 |  0.31
Comm    | 0.029647   | 0.30379    | 0.88956    |  44.8 | 16.20
Output  | 0          | 0          | 0          |   0.0 |  0.00
Modify  | 1.6527e-05 | 0.0017064  | 0.0043163  |   2.6 |  0.09
Other   |            | 0.2349     |            |       | 12.53

Nlocal:        2776.45 ave        3961 max           0 min
Histogram: 8 4 4 0 6 10 8 2 28 34
Nghost:        3879.01 ave        5424 max         232 min
Histogram: 8 0 8 0 16 0 8 8 16 40
Neighs:        79213.7 ave      115455 max           0 min
Histogram: 8 4 4 0 10 6 8 8 24 32

Total # of neighbors = 8238222
Ave neighs/atom = 28.530540
Neighbor list builds = 2
Dangerous builds = 0
#write_data              minimize.dat
#quit

variable                fx_0  equal    ${fx}
variable                fx_0  equal    9.37267484549253e-06
variable                fy_0  equal    ${fy}
variable                fy_0  equal    -2.06979254009365e-05
variable                fz_0  equal    ${fz}
variable                fz_0  equal    3.21365797748552e-05

variable                i     equal    288751

variable                x0    equal    x[v_i]
variable                y0    equal    y[v_i]
variable                z0    equal    z[v_i]

variable                x     equal    x[v_i]+v_delta*random(-1.0,1.0,${seed})
variable                x     equal    x[v_i]+v_delta*random(-1.0,1.0,310)
variable                y     equal    y[v_i]+v_delta*random(-1.0,1.0,${seed})
variable                y     equal    y[v_i]+v_delta*random(-1.0,1.0,310)
variable                z     equal    z[v_i]+v_delta*random(-1.0,1.0,${seed})
variable                z     equal    z[v_i]+v_delta*random(-1.0,1.0,310)
variable                x_0    equal     ${x0}
variable                x_0    equal     0.594465684860909
variable                y_0    equal     ${y0}
variable                y_0    equal     -1.01611246115032
variable                z_0    equal     ${z0}
variable                z_0    equal     -12.9485390464171
variable                x_1    equal     $x
variable                x_1    equal     0.587256889313424
variable                y_1    equal     $y
variable                y_1    equal     -1.02534349447551
variable                z_1    equal     $z
variable                z_1    equal     -12.945647803913

set                atom        $i    x  ${x_1}  y  ${y_1}  z  ${z_1}
set                atom        288751    x  ${x_1}  y  ${y_1}  z  ${z_1}
set                atom        288751    x  0.587256889313424  y  ${y_1}  z  ${z_1}
set                atom        288751    x  0.587256889313424  y  -1.02534349447551  z  ${z_1}
set                atom        288751    x  0.587256889313424  y  -1.02534349447551  z  -12.945647803913
Setting atom values ...
  1 settings made for x
  1 settings made for y
  1 settings made for z
variable           vector_x          equal     ${x_1}-${x_0}
variable           vector_x          equal     0.587256889313424-${x_0}
variable           vector_x          equal     0.587256889313424-0.594465684860909
variable           vector_y          equal     ${y_1}-${y_0}
variable           vector_y          equal     -1.02534349447551-${y_0}
variable           vector_y          equal     -1.02534349447551--1.01611246115032
variable           vector_z          equal     ${z_1}-${z_0}
variable           vector_z          equal     -12.945647803913-${z_0}
variable           vector_z          equal     -12.945647803913--12.9485390464171

#dump               1     all   custom   1000   dump_minimize.atom.* id type x y z
#dump_modify        1     element  Fe C
thermo_style       custom   step  pe ke etotal v_fx v_fy v_fz
thermo             1000

fix                hold    carbon   planeforce   ${vector_x}  ${vector_y}  ${vector_z}
fix                hold    carbon   planeforce   -0.00720879554748499  ${vector_y}  ${vector_z}
fix                hold    carbon   planeforce   -0.00720879554748499  -0.00923103332518993  ${vector_z}
fix                hold    carbon   planeforce   -0.00720879554748499  -0.00923103332518993  0.00289124250410033
min_style          cg
minimize           1.0e-30 1.0e-30 10000 10000
Per MPI rank memory allocation (min/avg/max) = 5.441 | 5.816 | 6.074 Mbytes
Step PotEng KinEng TotEng v_fx v_fy v_fz 
     158   -1152449.4            0   -1152449.4 -0.017386931 0.0075649733 -0.019198083 
     278   -1152449.5            0   -1152449.5 1.5615596e-06 -1.0463206e-05  -2.9513e-05 
Loop time of 1.44056 on 104 procs for 120 steps with 288751 atoms

99.9% CPU use with 104 MPI tasks x 1 OpenMP threads

Minimization stats:
  Stopping criterion = energy tolerance
  Energy initial, next-to-last, final = 
      -1152449.4495376  -1152449.45002978  -1152449.45002978
  Force two-norm initial, final = 0.10016663 0.00016845107
  Force max component initial, final = 0.050913861 2.9513000e-05
  Final line search alpha, max atom move = 1.0000000 2.9513000e-05
  Iterations, force evaluations = 120 240

MPI task timing breakdown:
Section |  min time  |  avg time  |  max time  |%varavg| %total
---------------------------------------------------------------
Pair    | 0.36503    | 1.0184     | 1.3325     |  27.3 | 70.70
Neigh   | 0          | 0          | 0          |   0.0 |  0.00
Comm    | 0.021822   | 0.2335     | 0.68233    |  39.2 | 16.21
Output  | 0          | 0          | 0          |   0.0 |  0.00
Modify  | 1.5166e-05 | 0.0019977  | 0.0041893  |   2.1 |  0.14
Other   |            | 0.1866     |            |       | 12.95

Nlocal:        2776.45 ave        3960 max           0 min
Histogram: 8 4 4 0 4 12 8 2 28 34
Nghost:        3879.01 ave        5424 max         232 min
Histogram: 8 0 8 0 16 0 8 8 16 40
Neighs:        79213.4 ave      115434 max           0 min
Histogram: 8 4 4 0 10 6 8 8 24 32

Total # of neighbors = 8238197
Ave neighs/atom = 28.530454
Neighbor list builds = 0
Dangerous builds = 0
unfix              hold

variable           new_x         equal     ${x0}-${x_0}
variable           new_x         equal     0.58663884166657-${x_0}
variable           new_x         equal     0.58663884166657-0.594465684860909
variable           new_y         equal     ${y0}-${y_0}
variable           new_y         equal     -1.02514241013547-${y_0}
variable           new_y         equal     -1.02514241013547--1.01611246115032
variable           new_z         equal     ${z0}-${z_0}
variable           new_z         equal     -12.946546781732-${z_0}
variable           new_z         equal     -12.946546781732--12.9485390464171

label iteration
variable           norm          equal     sqrt(${new_x}^2+${new_y}^2+${new_z}^2)
variable           norm          equal     sqrt(-0.00782684319433902^2+${new_y}^2+${new_z}^2)
variable           norm          equal     sqrt(-0.00782684319433902^2+-0.00902994898514997^2+${new_z}^2)
variable           norm          equal     sqrt(-0.00782684319433902^2+-0.00902994898514997^2+0.00199226468510005^2)
variable           unit_x        equal     ${new_x}/${norm}
variable           unit_x        equal     -0.00782684319433902/${norm}
variable           unit_x        equal     -0.00782684319433902/0.0121148079488979
variable           unit_y        equal     ${new_y}/${norm}
variable           unit_y        equal     -0.00902994898514997/${norm}
variable           unit_y        equal     -0.00902994898514997/0.0121148079488979
variable           unit_z        equal     ${new_z}/${norm}
variable           unit_z        equal     0.00199226468510005/${norm}
variable           unit_z        equal     0.00199226468510005/0.0121148079488979
variable           x_new         equal     ${x0}+${delta}*${unit_x}
variable           x_new         equal     0.58663884166657+${delta}*${unit_x}
variable           x_new         equal     0.58663884166657+0.02*${unit_x}
variable           x_new         equal     0.58663884166657+0.02*-0.646055903432711
variable           y_new         equal     ${y0}+${delta}*${unit_y}
variable           y_new         equal     -1.02514241013547+${delta}*${unit_y}
variable           y_new         equal     -1.02514241013547+0.02*${unit_y}
variable           y_new         equal     -1.02514241013547+0.02*-0.745364600350222
variable           z_new         equal     ${z0}+${delta}*${unit_z}
variable           z_new         equal     -12.946546781732+${delta}*${unit_z}
variable           z_new         equal     -12.946546781732+0.02*${unit_z}
variable           z_new         equal     -12.946546781732+0.02*0.164448722051866

set                atom          $i    x  ${x_new}  y  ${y_new}  z   ${z_new}
set                atom          288751    x  ${x_new}  y  ${y_new}  z   ${z_new}
set                atom          288751    x  0.573717723597916  y  ${y_new}  z   ${z_new}
set                atom          288751    x  0.573717723597916  y  -1.04004970214247  z   ${z_new}
set                atom          288751    x  0.573717723597916  y  -1.04004970214247  z   -12.943257807291
Setting atom values ...
  1 settings made for x
  1 settings made for y
  1 settings made for z

fix                hold    carbon   planeforce   ${new_x}  ${new_y}  ${new_z}
fix                hold    carbon   planeforce   -0.00782684319433902  ${new_y}  ${new_z}
fix                hold    carbon   planeforce   -0.00782684319433902  -0.00902994898514997  ${new_z}
fix                hold    carbon   planeforce   -0.00782684319433902  -0.00902994898514997  0.00199226468510005
min_style          cg
minimize           1.0e-30 1.0e-30 10000 10000
Per MPI rank memory allocation (min/avg/max) = 5.441 | 5.816 | 6.074 Mbytes
Step PotEng KinEng TotEng v_fx v_fy v_fz 
     278   -1152449.4            0   -1152449.4 -0.025106895  0.016337335 -0.024586305 
     461   -1152449.4            0   -1152449.4 -1.7729683e-05 1.3192147e-05 -9.8596498e-06 
Loop time of 2.17904 on 104 procs for 183 steps with 288751 atoms

99.9% CPU use with 104 MPI tasks x 1 OpenMP threads

Minimization stats:
  Stopping criterion = energy tolerance
  Energy initial, next-to-last, final = 
     -1152449.44684061  -1152449.44812667  -1152449.44812667
  Force two-norm initial, final = 0.16024488 8.6329733e-05
  Force max component initial, final = 0.090287539 2.0601030e-05
  Final line search alpha, max atom move = 1.0000000 2.0601030e-05
  Iterations, force evaluations = 183 366

MPI task timing breakdown:
Section |  min time  |  avg time  |  max time  |%varavg| %total
---------------------------------------------------------------
Pair    | 0.56086    | 1.5415     | 2.0289     |  33.4 | 70.74
Neigh   | 0          | 0          | 0          |   0.0 |  0.00
Comm    | 0.031897   | 0.35345    | 1.0402     |  48.3 | 16.22
Output  | 0          | 0          | 0          |   0.0 |  0.00
Modify  | 2.0681e-05 | 0.0030267  | 0.006409   |   2.6 |  0.14
Other   |            | 0.281      |            |       | 12.90

Nlocal:        2776.45 ave        3960 max           0 min
Histogram: 8 4 4 0 4 12 8 2 28 34
Nghost:        3879.01 ave        5424 max         232 min
Histogram: 8 0 8 0 16 0 8 8 16 40
Neighs:        79213.4 ave      115434 max           0 min
Histogram: 8 4 4 0 10 6 8 8 24 32

Total # of neighbors = 8238196
Ave neighs/atom = 28.530450
Neighbor list builds = 0
Dangerous builds = 0
unfix              hold

variable           new_x         delete
variable           new_y         delete
variable           new_z         delete
variable           dot           delete
variable           new_x         equal     ${x0}-${x_0}
variable           new_x         equal     0.572461399191755-${x_0}
variable           new_x         equal     0.572461399191755-0.594465684860909
variable           new_y         equal     ${y0}-${y_0}
variable           new_y         equal     -1.03929030704837-${y_0}
variable           new_y         equal     -1.03929030704837--1.01611246115032
variable           new_z         equal     ${z0}-${z_0}
variable           new_z         equal     -12.9447514618195-${z_0}
variable           new_z         equal     -12.9447514618195--12.9485390464171

variable           dot      equal     ${fx}*${new_x}+${fy}*${new_y}+${fz}*${new_z}
variable           dot      equal     -1.77296827941293e-05*${new_x}+${fy}*${new_y}+${fz}*${new_z}
variable           dot      equal     -1.77296827941293e-05*-0.022004285669154+${fy}*${new_y}+${fz}*${new_z}
variable           dot      equal     -1.77296827941293e-05*-0.022004285669154+1.31921470660898e-05*${new_y}+${fz}*${new_z}
variable           dot      equal     -1.77296827941293e-05*-0.022004285669154+1.31921470660898e-05*-0.0231778458980501+${fz}*${new_z}
variable           dot      equal     -1.77296827941293e-05*-0.022004285669154+1.31921470660898e-05*-0.0231778458980501+-9.85964979979377e-06*${new_z}
variable           dot      equal     -1.77296827941293e-05*-0.022004285669154+1.31921470660898e-05*-0.0231778458980501+-9.85964979979377e-06*0.00378758459759965
print              "The dot product: ${dot}"
The dot product: 4.70191955438372e-08

if "(${dot} >= 0.0) && (${dot} < 1.0e-10)" then "jump TaR.in relaxation" elif "(${dot} < 0.0) && (${dot} > -1.0e-10)" "jump TaR.in relaxation" elif "(${iteration} == ${iter_tot}) && (${seed} < 319)" "print 'The iteration number is maximum!'" "next seed" "variable iteration delete" "jump TaR.in loop" elif "(${iteration} == ${iter_tot}) && (${seed} == 319)" "quit" else    "next iteration"    "jump TaR.in iteration"
next iteration
jump TaR.in iteration
variable           norm          equal     sqrt(${new_x}^2+${new_y}^2+${new_z}^2)
variable           norm          equal     sqrt(-0.022004285669154^2+${new_y}^2+${new_z}^2)
variable           norm          equal     sqrt(-0.022004285669154^2+-0.0231778458980501^2+${new_z}^2)
variable           norm          equal     sqrt(-0.022004285669154^2+-0.0231778458980501^2+0.00378758459759965^2)
variable           unit_x        equal     ${new_x}/${norm}
variable           unit_x        equal     -0.022004285669154/${norm}
variable           unit_x        equal     -0.022004285669154/0.0321830223156165
variable           unit_y        equal     ${new_y}/${norm}
variable           unit_y        equal     -0.0231778458980501/${norm}
variable           unit_y        equal     -0.0231778458980501/0.0321830223156165
variable           unit_z        equal     ${new_z}/${norm}
variable           unit_z        equal     0.00378758459759965/${norm}
variable           unit_z        equal     0.00378758459759965/0.0321830223156165
variable           x_new         equal     ${x0}+${delta}*${unit_x}
variable           x_new         equal     0.572461399191755+${delta}*${unit_x}
variable           x_new         equal     0.572461399191755+0.02*${unit_x}
variable           x_new         equal     0.572461399191755+0.02*-0.68372340712316
variable           y_new         equal     ${y0}+${delta}*${unit_y}
variable           y_new         equal     -1.03929030704837+${delta}*${unit_y}
variable           y_new         equal     -1.03929030704837+0.02*${unit_y}
variable           y_new         equal     -1.03929030704837+0.02*-0.720188603504876
variable           z_new         equal     ${z0}+${delta}*${unit_z}
variable           z_new         equal     -12.9447514618195+${delta}*${unit_z}
variable           z_new         equal     -12.9447514618195+0.02*${unit_z}
variable           z_new         equal     -12.9447514618195+0.02*0.117688903187994

set                atom          $i    x  ${x_new}  y  ${y_new}  z   ${z_new}
set                atom          288751    x  ${x_new}  y  ${y_new}  z   ${z_new}
set                atom          288751    x  0.558786931049292  y  ${y_new}  z   ${z_new}
set                atom          288751    x  0.558786931049292  y  -1.05369407911847  z   ${z_new}
set                atom          288751    x  0.558786931049292  y  -1.05369407911847  z   -12.9423976837557
Setting atom values ...
  1 settings made for x
  1 settings made for y
  1 settings made for z

fix                hold    carbon   planeforce   ${new_x}  ${new_y}  ${new_z}
fix                hold    carbon   planeforce   -0.022004285669154  ${new_y}  ${new_z}
fix                hold    carbon   planeforce   -0.022004285669154  -0.0231778458980501  ${new_z}
fix                hold    carbon   planeforce   -0.022004285669154  -0.0231778458980501  0.00378758459759965
min_style          cg
minimize           1.0e-30 1.0e-30 10000 10000
Per MPI rank memory allocation (min/avg/max) = 5.441 | 5.816 | 6.074 Mbytes
Step PotEng KinEng TotEng v_fx v_fy v_fz 
     461   -1152449.4            0   -1152449.4 -0.021962292  0.018276215 -0.015751793 
     616   -1152449.4            0   -1152449.4 8.0053866e-06 -6.3410962e-06 7.7040822e-06 
Loop time of 1.86179 on 104 procs for 155 steps with 288751 atoms

99.9% CPU use with 104 MPI tasks x 1 OpenMP threads

Minimization stats:
  Stopping criterion = energy tolerance
  Energy initial, next-to-last, final = 
     -1152449.44335705  -1152449.44460536  -1152449.44460536
  Force two-norm initial, final = 0.1562147 3.4987963e-05
  Force max component initial, final = 0.0947928 8.0053866e-06
  Final line search alpha, max atom move = 1.0000000 8.0053866e-06
  Iterations, force evaluations = 155 310

MPI task timing breakdown:
Section |  min time  |  avg time  |  max time  |%varavg| %total
---------------------------------------------------------------
Pair    | 0.4941     | 1.3222     | 1.7148     |  30.4 | 71.02
Neigh   | 0          | 0          | 0          |   0.0 |  0.00
Comm    | 0.02881    | 0.30377    | 0.91968    |  44.7 | 16.32
Output  | 0          | 0          | 0          |   0.0 |  0.00
Modify  | 1.8885e-05 | 0.0025709  | 0.0054101  |   2.4 |  0.14
Other   |            | 0.2333     |            |       | 12.53

Nlocal:        2776.45 ave        3959 max           0 min
Histogram: 8 4 4 0 4 12 8 2 28 34
Nghost:        3879.01 ave        5424 max         232 min
Histogram: 8 0 8 0 16 0 8 8 16 40
Neighs:        79213.4 ave      115393 max           0 min
Histogram: 8 4 4 0 10 6 8 8 24 32

Total # of neighbors = 8238195
Ave neighs/atom = 28.530447
Neighbor list builds = 0
Dangerous builds = 0
unfix              hold

variable           new_x         delete
variable           new_y         delete
variable           new_z         delete
variable           dot           delete
variable           new_x         equal     ${x0}-${x_0}
variable           new_x         equal     0.557334173645236-${x_0}
variable           new_x         equal     0.557334173645236-0.594465684860909
variable           new_y         equal     ${y0}-${y_0}
variable           new_y         equal     -1.05245981359344-${y_0}
variable           new_y         equal     -1.05245981359344--1.01611246115032
variable           new_z         equal     ${z0}-${z_0}
variable           new_z         equal     -12.9432846006559-${z_0}
variable           new_z         equal     -12.9432846006559--12.9485390464171

variable           dot      equal     ${fx}*${new_x}+${fy}*${new_y}+${fz}*${new_z}
variable           dot      equal     8.00538662711861e-06*${new_x}+${fy}*${new_y}+${fz}*${new_z}
variable           dot      equal     8.00538662711861e-06*-0.037131511215673+${fy}*${new_y}+${fz}*${new_z}
variable           dot      equal     8.00538662711861e-06*-0.037131511215673+-6.34109622019428e-06*${new_y}+${fz}*${new_z}
variable           dot      equal     8.00538662711861e-06*-0.037131511215673+-6.34109622019428e-06*-0.0363473524431199+${fz}*${new_z}
variable           dot      equal     8.00538662711861e-06*-0.037131511215673+-6.34109622019428e-06*-0.0363473524431199+7.70408223676086e-06*${new_z}
variable           dot      equal     8.00538662711861e-06*-0.037131511215673+-6.34109622019428e-06*-0.0363473524431199+7.70408223676086e-06*0.00525444576119938
print              "The dot product: ${dot}"
The dot product: -2.62893618866368e-08

if "(${dot} >= 0.0) && (${dot} < 1.0e-10)" then "jump TaR.in relaxation" elif "(${dot} < 0.0) && (${dot} > -1.0e-10)" "jump TaR.in relaxation" elif "(${iteration} == ${iter_tot}) && (${seed} < 319)" "print 'The iteration number is maximum!'" "next seed" "variable iteration delete" "jump TaR.in loop" elif "(${iteration} == ${iter_tot}) && (${seed} == 319)" "quit" else    "next iteration"    "jump TaR.in iteration"
next iteration
jump TaR.in iteration
variable           norm          equal     sqrt(${new_x}^2+${new_y}^2+${new_z}^2)
variable           norm          equal     sqrt(-0.037131511215673^2+${new_y}^2+${new_z}^2)
variable           norm          equal     sqrt(-0.037131511215673^2+-0.0363473524431199^2+${new_z}^2)
variable           norm          equal     sqrt(-0.037131511215673^2+-0.0363473524431199^2+0.00525444576119938^2)
variable           unit_x        equal     ${new_x}/${norm}
variable           unit_x        equal     -0.037131511215673/${norm}
variable           unit_x        equal     -0.037131511215673/0.052225361224614
variable           unit_y        equal     ${new_y}/${norm}
variable           unit_y        equal     -0.0363473524431199/${norm}
variable           unit_y        equal     -0.0363473524431199/0.052225361224614
variable           unit_z        equal     ${new_z}/${norm}
variable           unit_z        equal     0.00525444576119938/${norm}
variable           unit_z        equal     0.00525444576119938/0.052225361224614
variable           x_new         equal     ${x0}+${delta}*${unit_x}
variable           x_new         equal     0.557334173645236+${delta}*${unit_x}
variable           x_new         equal     0.557334173645236+0.02*${unit_x}
variable           x_new         equal     0.557334173645236+0.02*-0.710986201818223
variable           y_new         equal     ${y0}+${delta}*${unit_y}
variable           y_new         equal     -1.05245981359344+${delta}*${unit_y}
variable           y_new         equal     -1.05245981359344+0.02*${unit_y}
variable           y_new         equal     -1.05245981359344+0.02*-0.695971298059481
variable           z_new         equal     ${z0}+${delta}*${unit_z}
variable           z_new         equal     -12.9432846006559+${delta}*${unit_z}
variable           z_new         equal     -12.9432846006559+0.02*${unit_z}
variable           z_new         equal     -12.9432846006559+0.02*0.100610998909146

set                atom          $i    x  ${x_new}  y  ${y_new}  z   ${z_new}
set                atom          288751    x  ${x_new}  y  ${y_new}  z   ${z_new}
set                atom          288751    x  0.543114449608871  y  ${y_new}  z   ${z_new}
set                atom          288751    x  0.543114449608871  y  -1.06637923955463  z   ${z_new}
set                atom          288751    x  0.543114449608871  y  -1.06637923955463  z   -12.9412723806777
Setting atom values ...
  1 settings made for x
  1 settings made for y
  1 settings made for z

fix                hold    carbon   planeforce   ${new_x}  ${new_y}  ${new_z}
fix                hold    carbon   planeforce   -0.037131511215673  ${new_y}  ${new_z}
fix                hold    carbon   planeforce   -0.037131511215673  -0.0363473524431199  ${new_z}
fix                hold    carbon   planeforce   -0.037131511215673  -0.0363473524431199  0.00525444576119938
min_style          cg
minimize           1.0e-30 1.0e-30 10000 10000
Per MPI rank memory allocation (min/avg/max) = 5.441 | 5.816 | 6.074 Mbytes
Step PotEng KinEng TotEng v_fx v_fy v_fz 
     616   -1152449.4            0   -1152449.4 -0.019176468  0.018408105 -0.0081769594 
     736   -1152449.4            0   -1152449.4 -1.7469526e-05 1.7886468e-05 2.7706549e-07 
Loop time of 1.4135 on 104 procs for 120 steps with 288751 atoms

99.9% CPU use with 104 MPI tasks x 1 OpenMP threads

Minimization stats:
  Stopping criterion = energy tolerance
  Energy initial, next-to-last, final = 
     -1152449.43830551  -1152449.43953301  -1152449.43953301
  Force two-norm initial, final = 0.15368874 0.00014123842
  Force max component initial, final = 0.098443629 2.3713564e-05
  Final line search alpha, max atom move = 1.0000000 2.3713564e-05
  Iterations, force evaluations = 120 240

MPI task timing breakdown:
Section |  min time  |  avg time  |  max time  |%varavg| %total
---------------------------------------------------------------
Pair    | 0.3652     | 1.0083     | 1.324      |  27.1 | 71.33
Neigh   | 0          | 0          | 0          |   0.0 |  0.00
Comm    | 0.020256   | 0.22807    | 0.67781    |  39.5 | 16.13
Output  | 0          | 0          | 0          |   0.0 |  0.00
Modify  | 1.3927e-05 | 0.0019917  | 0.0042158  |   2.1 |  0.14
Other   |            | 0.1751     |            |       | 12.39

Nlocal:        2776.45 ave        3959 max           0 min
Histogram: 8 4 4 0 4 12 8 2 28 34
Nghost:        3879.01 ave        5424 max         232 min
Histogram: 8 0 8 0 16 0 8 8 16 40
Neighs:        79213.4 ave      115393 max           0 min
Histogram: 8 4 4 0 10 6 8 8 24 32

Total # of neighbors = 8238194
Ave neighs/atom = 28.530443
Neighbor list builds = 0
Dangerous builds = 0
unfix              hold

variable           new_x         delete
variable           new_y         delete
variable           new_z         delete
variable           dot           delete
variable           new_x         equal     ${x0}-${x_0}
variable           new_x         equal     0.541705439765877-${x_0}
variable           new_x         equal     0.541705439765877-0.594465684860909
variable           new_y         equal     ${y0}-${y_0}
variable           new_y         equal     -1.06494004506947-${y_0}
variable           new_y         equal     -1.06494004506947--1.01611246115032
variable           new_z         equal     ${z0}-${z_0}
variable           new_z         equal     -12.9412738566852-${z_0}
variable           new_z         equal     -12.9412738566852--12.9485390464171

variable           dot      equal     ${fx}*${new_x}+${fy}*${new_y}+${fz}*${new_z}
variable           dot      equal     -1.74695264352306e-05*${new_x}+${fy}*${new_y}+${fz}*${new_z}
variable           dot      equal     -1.74695264352306e-05*-0.052760245095032+${fy}*${new_y}+${fz}*${new_z}
variable           dot      equal     -1.74695264352306e-05*-0.052760245095032+1.78864676149233e-05*${new_y}+${fz}*${new_z}
variable           dot      equal     -1.74695264352306e-05*-0.052760245095032+1.78864676149233e-05*-0.0488275839191499+${fz}*${new_z}
variable           dot      equal     -1.74695264352306e-05*-0.052760245095032+1.78864676149233e-05*-0.0488275839191499+2.77065492284625e-07*${new_z}
variable           dot      equal     -1.74695264352306e-05*-0.052760245095032+1.78864676149233e-05*-0.0488275839191499+2.77065492284625e-07*0.00726518973189982
print              "The dot product: ${dot}"
The dot product: 5.03564313016928e-08

if "(${dot} >= 0.0) && (${dot} < 1.0e-10)" then "jump TaR.in relaxation" elif "(${dot} < 0.0) && (${dot} > -1.0e-10)" "jump TaR.in relaxation" elif "(${iteration} == ${iter_tot}) && (${seed} < 319)" "print 'The iteration number is maximum!'" "next seed" "variable iteration delete" "jump TaR.in loop" elif "(${iteration} == ${iter_tot}) && (${seed} == 319)" "quit" else    "next iteration"    "jump TaR.in iteration"
next iteration
jump TaR.in iteration
variable           norm          equal     sqrt(${new_x}^2+${new_y}^2+${new_z}^2)
variable           norm          equal     sqrt(-0.052760245095032^2+${new_y}^2+${new_z}^2)
variable           norm          equal     sqrt(-0.052760245095032^2+-0.0488275839191499^2+${new_z}^2)
variable           norm          equal     sqrt(-0.052760245095032^2+-0.0488275839191499^2+0.00726518973189982^2)
variable           unit_x        equal     ${new_x}/${norm}
variable           unit_x        equal     -0.052760245095032/${norm}
variable           unit_x        equal     -0.052760245095032/0.0722534386428077
variable           unit_y        equal     ${new_y}/${norm}
variable           unit_y        equal     -0.0488275839191499/${norm}
variable           unit_y        equal     -0.0488275839191499/0.0722534386428077
variable           unit_z        equal     ${new_z}/${norm}
variable           unit_z        equal     0.00726518973189982/${norm}
variable           unit_z        equal     0.00726518973189982/0.0722534386428077
variable           x_new         equal     ${x0}+${delta}*${unit_x}
variable           x_new         equal     0.541705439765877+${delta}*${unit_x}
variable           x_new         equal     0.541705439765877+0.02*${unit_x}
variable           x_new         equal     0.541705439765877+0.02*-0.730210853435747
variable           y_new         equal     ${y0}+${delta}*${unit_y}
variable           y_new         equal     -1.06494004506947+${delta}*${unit_y}
variable           y_new         equal     -1.06494004506947+0.02*${unit_y}
variable           y_new         equal     -1.06494004506947+0.02*-0.675782147345735
variable           z_new         equal     ${z0}+${delta}*${unit_z}
variable           z_new         equal     -12.9412738566852+${delta}*${unit_z}
variable           z_new         equal     -12.9412738566852+0.02*${unit_z}
variable           z_new         equal     -12.9412738566852+0.02*0.100551473651185

set                atom          $i    x  ${x_new}  y  ${y_new}  z   ${z_new}
set                atom          288751    x  ${x_new}  y  ${y_new}  z   ${z_new}
set                atom          288751    x  0.527101222697162  y  ${y_new}  z   ${z_new}
set                atom          288751    x  0.527101222697162  y  -1.07845568801638  z   ${z_new}
set                atom          288751    x  0.527101222697162  y  -1.07845568801638  z   -12.9392628272122
Setting atom values ...
  1 settings made for x
  1 settings made for y
  1 settings made for z

fix                hold    carbon   planeforce   ${new_x}  ${new_y}  ${new_z}
fix                hold    carbon   planeforce   -0.052760245095032  ${new_y}  ${new_z}
fix                hold    carbon   planeforce   -0.052760245095032  -0.0488275839191499  ${new_z}
fix                hold    carbon   planeforce   -0.052760245095032  -0.0488275839191499  0.00726518973189982
min_style          cg
minimize           1.0e-30 1.0e-30 10000 10000
Per MPI rank memory allocation (min/avg/max) = 5.441 | 5.816 | 6.074 Mbytes
Step PotEng KinEng TotEng v_fx v_fy v_fz 
     736   -1152449.4            0   -1152449.4 -0.019021163  0.020174095 -0.0025476109 
     853   -1152449.4            0   -1152449.4 3.2565229e-05 -2.8756033e-05 4.3228301e-05 
Loop time of 1.39051 on 104 procs for 117 steps with 288751 atoms

99.9% CPU use with 104 MPI tasks x 1 OpenMP threads

Minimization stats:
  Stopping criterion = energy tolerance
  Energy initial, next-to-last, final = 
     -1152449.43172355  -1152449.43293564  -1152449.43293564
  Force two-norm initial, final = 0.15256437 0.00018922071
  Force max component initial, final = 0.10152174 4.3228301e-05
  Final line search alpha, max atom move = 1.0000000 4.3228301e-05
  Iterations, force evaluations = 117 234

MPI task timing breakdown:
Section |  min time  |  avg time  |  max time  |%varavg| %total
---------------------------------------------------------------
Pair    | 0.3582     | 0.99163    | 1.2927     |  26.8 | 71.31
Neigh   | 0          | 0          | 0          |   0.0 |  0.00
Comm    | 0.019879   | 0.22597    | 0.67309    |  39.0 | 16.25
Output  | 0          | 0          | 0          |   0.0 |  0.00
Modify  | 1.3479e-05 | 0.0019441  | 0.0041083  |   2.1 |  0.14
Other   |            | 0.171      |            |       | 12.30

Nlocal:        2776.45 ave        3959 max           0 min
Histogram: 8 4 4 0 4 12 8 2 28 34
Nghost:        3879.01 ave        5424 max         232 min
Histogram: 8 0 8 0 16 0 8 8 16 40
Neighs:        79213.4 ave      115393 max           0 min
Histogram: 8 4 4 0 10 6 8 8 24 32

Total # of neighbors = 8238192
Ave neighs/atom = 28.530436
Neighbor list builds = 0
Dangerous builds = 0
unfix              hold

variable           new_x         delete
variable           new_y         delete
variable           new_z         delete
variable           dot           delete
variable           new_x         equal     ${x0}-${x_0}
variable           new_x         equal     0.525416695738707-${x_0}
variable           new_x         equal     0.525416695738707-0.594465684860909
variable           new_y         equal     ${y0}-${y_0}
variable           new_y         equal     -1.07652692947871-${y_0}
variable           new_y         equal     -1.07652692947871--1.01611246115032
variable           new_z         equal     ${z0}-${z_0}
variable           new_z         equal     -12.9385332434908-${z_0}
variable           new_z         equal     -12.9385332434908--12.9485390464171

variable           dot      equal     ${fx}*${new_x}+${fy}*${new_y}+${fz}*${new_z}
variable           dot      equal     3.25652285613719e-05*${new_x}+${fy}*${new_y}+${fz}*${new_z}
variable           dot      equal     3.25652285613719e-05*-0.069048989122202+${fy}*${new_y}+${fz}*${new_z}
variable           dot      equal     3.25652285613719e-05*-0.069048989122202+-2.87560333608427e-05*${new_y}+${fz}*${new_z}
variable           dot      equal     3.25652285613719e-05*-0.069048989122202+-2.87560333608427e-05*-0.06041446832839+${fz}*${new_z}
variable           dot      equal     3.25652285613719e-05*-0.069048989122202+-2.87560333608427e-05*-0.06041446832839+4.32283009748191e-05*${new_z}
variable           dot      equal     3.25652285613719e-05*-0.069048989122202+-2.87560333608427e-05*-0.06041446832839+4.32283009748191e-05*0.0100058029262993
print              "The dot product: ${dot}"
The dot product: -7.87817855746406e-08

if "(${dot} >= 0.0) && (${dot} < 1.0e-10)" then "jump TaR.in relaxation" elif "(${dot} < 0.0) && (${dot} > -1.0e-10)" "jump TaR.in relaxation" elif "(${iteration} == ${iter_tot}) && (${seed} < 319)" "print 'The iteration number is maximum!'" "next seed" "variable iteration delete" "jump TaR.in loop" elif "(${iteration} == ${iter_tot}) && (${seed} == 319)" "quit" else    "next iteration"    "jump TaR.in iteration"
next iteration
jump TaR.in iteration
variable           norm          equal     sqrt(${new_x}^2+${new_y}^2+${new_z}^2)
variable           norm          equal     sqrt(-0.069048989122202^2+${new_y}^2+${new_z}^2)
variable           norm          equal     sqrt(-0.069048989122202^2+-0.06041446832839^2+${new_z}^2)
variable           norm          equal     sqrt(-0.069048989122202^2+-0.06041446832839^2+0.0100058029262993^2)
variable           unit_x        equal     ${new_x}/${norm}
variable           unit_x        equal     -0.069048989122202/${norm}
variable           unit_x        equal     -0.069048989122202/0.0922918575736774
variable           unit_y        equal     ${new_y}/${norm}
variable           unit_y        equal     -0.06041446832839/${norm}
variable           unit_y        equal     -0.06041446832839/0.0922918575736774
variable           unit_z        equal     ${new_z}/${norm}
variable           unit_z        equal     0.0100058029262993/${norm}
variable           unit_z        equal     0.0100058029262993/0.0922918575736774
variable           x_new         equal     ${x0}+${delta}*${unit_x}
variable           x_new         equal     0.525416695738707+${delta}*${unit_x}
variable           x_new         equal     0.525416695738707+0.02*${unit_x}
variable           x_new         equal     0.525416695738707+0.02*-0.74815905690358
variable           y_new         equal     ${y0}+${delta}*${unit_y}
variable           y_new         equal     -1.07652692947871+${delta}*${unit_y}
variable           y_new         equal     -1.07652692947871+0.02*${unit_y}
variable           y_new         equal     -1.07652692947871+0.02*-0.654602365979692
variable           z_new         equal     ${z0}+${delta}*${unit_z}
variable           z_new         equal     -12.9385332434908+${delta}*${unit_z}
variable           z_new         equal     -12.9385332434908+0.02*${unit_z}
variable           z_new         equal     -12.9385332434908+0.02*0.108414796162398

set                atom          $i    x  ${x_new}  y  ${y_new}  z   ${z_new}
set                atom          288751    x  ${x_new}  y  ${y_new}  z   ${z_new}
set                atom          288751    x  0.510453514600635  y  ${y_new}  z   ${z_new}
set                atom          288751    x  0.510453514600635  y  -1.0896189767983  z   ${z_new}
set                atom          288751    x  0.510453514600635  y  -1.0896189767983  z   -12.9363649475676
Setting atom values ...
  1 settings made for x
  1 settings made for y
  1 settings made for z

fix                hold    carbon   planeforce   ${new_x}  ${new_y}  ${new_z}
fix                hold    carbon   planeforce   -0.069048989122202  ${new_y}  ${new_z}
fix                hold    carbon   planeforce   -0.069048989122202  -0.06041446832839  ${new_z}
fix                hold    carbon   planeforce   -0.069048989122202  -0.06041446832839  0.0100058029262993
min_style          cg
minimize           1.0e-30 1.0e-30 10000 10000
Per MPI rank memory allocation (min/avg/max) = 5.441 | 5.816 | 6.074 Mbytes
Step PotEng KinEng TotEng v_fx v_fy v_fz 
     853   -1152449.4            0   -1152449.4 -0.020635825  0.023904974 0.0019312236 
    1000   -1152449.4            0   -1152449.4 8.7781045e-06 -9.803725e-06 1.3824388e-06 
    1009   -1152449.4            0   -1152449.4 1.1620316e-05 -1.8833313e-05 -3.3523896e-05 
Loop time of 1.83741 on 104 procs for 156 steps with 288751 atoms

99.9% CPU use with 104 MPI tasks x 1 OpenMP threads

Minimization stats:
  Stopping criterion = energy tolerance
  Energy initial, next-to-last, final = 
     -1152449.42366301   -1152449.4248759   -1152449.4248759
  Force two-norm initial, final = 0.15254216 0.00017136922
  Force max component initial, final = 0.10436474 3.3523896e-05
  Final line search alpha, max atom move = 1.0000000 3.3523896e-05
  Iterations, force evaluations = 156 312

MPI task timing breakdown:
Section |  min time  |  avg time  |  max time  |%varavg| %total
---------------------------------------------------------------
Pair    | 0.47313    | 1.3115     | 1.7183     |  31.0 | 71.38
Neigh   | 0          | 0          | 0          |   0.0 |  0.00
Comm    | 0.027902   | 0.29751    | 0.88303    |  44.9 | 16.19
Output  | 0.00032423 | 0.00032914 | 0.00047974 |   0.0 |  0.02
Modify  | 1.7913e-05 | 0.0025889  | 0.0054765  |   2.4 |  0.14
Other   |            | 0.2255     |            |       | 12.27

Nlocal:        2776.45 ave        3958 max           0 min
Histogram: 8 4 4 0 4 12 8 2 28 34
Nghost:        3879.01 ave        5424 max         232 min
Histogram: 8 0 8 0 16 0 8 8 16 40
Neighs:        79213.4 ave      115356 max           0 min
Histogram: 8 4 4 0 10 6 8 8 24 32

Total # of neighbors = 8238190
Ave neighs/atom = 28.530429
Neighbor list builds = 0
Dangerous builds = 0
unfix              hold

variable           new_x         delete
variable           new_y         delete
variable           new_z         delete
variable           dot           delete
variable           new_x         equal     ${x0}-${x_0}
variable           new_x         equal     0.507893899202706-${x_0}
variable           new_x         equal     0.507893899202706-0.594465684860909
variable           new_y         equal     ${y0}-${y_0}
variable           new_y         equal     -1.0864687022222-${y_0}
variable           new_y         equal     -1.0864687022222--1.01611246115032
variable           new_z         equal     ${z0}-${z_0}
variable           new_z         equal     -12.9350074045567-${z_0}
variable           new_z         equal     -12.9350074045567--12.9485390464171

variable           dot      equal     ${fx}*${new_x}+${fy}*${new_y}+${fz}*${new_z}
variable           dot      equal     1.16203158859911e-05*${new_x}+${fy}*${new_y}+${fz}*${new_z}
variable           dot      equal     1.16203158859911e-05*-0.086571785658203+${fy}*${new_y}+${fz}*${new_z}
variable           dot      equal     1.16203158859911e-05*-0.086571785658203+-1.88333125652876e-05*${new_y}+${fz}*${new_z}
variable           dot      equal     1.16203158859911e-05*-0.086571785658203+-1.88333125652876e-05*-0.0703562410718799+${fz}*${new_z}
variable           dot      equal     1.16203158859911e-05*-0.086571785658203+-1.88333125652876e-05*-0.0703562410718799+-3.35238963595238e-05*${new_z}
variable           dot      equal     1.16203158859911e-05*-0.086571785658203+-1.88333125652876e-05*-0.0703562410718799+-3.35238963595238e-05*0.0135316418603999
print              "The dot product: ${dot}"
The dot product: -1.34583776439434e-07

if "(${dot} >= 0.0) && (${dot} < 1.0e-10)" then "jump TaR.in relaxation" elif "(${dot} < 0.0) && (${dot} > -1.0e-10)" "jump TaR.in relaxation" elif "(${iteration} == ${iter_tot}) && (${seed} < 319)" "print 'The iteration number is maximum!'" "next seed" "variable iteration delete" "jump TaR.in loop" elif "(${iteration} == ${iter_tot}) && (${seed} == 319)" "quit" else    "next iteration"    "jump TaR.in iteration"
next iteration
jump TaR.in iteration
variable           norm          equal     sqrt(${new_x}^2+${new_y}^2+${new_z}^2)
variable           norm          equal     sqrt(-0.086571785658203^2+${new_y}^2+${new_z}^2)
variable           norm          equal     sqrt(-0.086571785658203^2+-0.0703562410718799^2+${new_z}^2)
variable           norm          equal     sqrt(-0.086571785658203^2+-0.0703562410718799^2+0.0135316418603999^2)
variable           unit_x        equal     ${new_x}/${norm}
variable           unit_x        equal     -0.086571785658203/${norm}
variable           unit_x        equal     -0.086571785658203/0.112373395700461
variable           unit_y        equal     ${new_y}/${norm}
variable           unit_y        equal     -0.0703562410718799/${norm}
variable           unit_y        equal     -0.0703562410718799/0.112373395700461
variable           unit_z        equal     ${new_z}/${norm}
variable           unit_z        equal     0.0135316418603999/${norm}
variable           unit_z        equal     0.0135316418603999/0.112373395700461
variable           x_new         equal     ${x0}+${delta}*${unit_x}
variable           x_new         equal     0.507893899202706+${delta}*${unit_x}
variable           x_new         equal     0.507893899202706+0.02*${unit_x}
variable           x_new         equal     0.507893899202706+0.02*-0.770393963077934
variable           y_new         equal     ${y0}+${delta}*${unit_y}
variable           y_new         equal     -1.0864687022222+${delta}*${unit_y}
variable           y_new         equal     -1.0864687022222+0.02*${unit_y}
variable           y_new         equal     -1.0864687022222+0.02*-0.626093397225615
variable           z_new         equal     ${z0}+${delta}*${unit_z}
variable           z_new         equal     -12.9350074045567+${delta}*${unit_z}
variable           z_new         equal     -12.9350074045567+0.02*${unit_z}
variable           z_new         equal     -12.9350074045567+0.02*0.120416774593779

set                atom          $i    x  ${x_new}  y  ${y_new}  z   ${z_new}
set                atom          288751    x  ${x_new}  y  ${y_new}  z   ${z_new}
set                atom          288751    x  0.492486019941147  y  ${y_new}  z   ${z_new}
set                atom          288751    x  0.492486019941147  y  -1.09899057016671  z   ${z_new}
set                atom          288751    x  0.492486019941147  y  -1.09899057016671  z   -12.9325990690648
Setting atom values ...
  1 settings made for x
  1 settings made for y
  1 settings made for z

fix                hold    carbon   planeforce   ${new_x}  ${new_y}  ${new_z}
fix                hold    carbon   planeforce   -0.086571785658203  ${new_y}  ${new_z}
fix                hold    carbon   planeforce   -0.086571785658203  -0.0703562410718799  ${new_z}
fix                hold    carbon   planeforce   -0.086571785658203  -0.0703562410718799  0.0135316418603999
min_style          cg
minimize           1.0e-30 1.0e-30 10000 10000
Per MPI rank memory allocation (min/avg/max) = 5.441 | 5.816 | 6.074 Mbytes
Step PotEng KinEng TotEng v_fx v_fy v_fz 
    1009   -1152449.4            0   -1152449.4 -0.024366281  0.031055786 0.0055821699 
    1164   -1152449.4            0   -1152449.4 1.3582615e-05 -1.3261222e-05 1.7947673e-05 
Loop time of 1.82716 on 104 procs for 155 steps with 288751 atoms

99.9% CPU use with 104 MPI tasks x 1 OpenMP threads

Minimization stats:
  Stopping criterion = energy tolerance
  Energy initial, next-to-last, final = 
     -1152449.41422814  -1152449.41548431  -1152449.41548431
  Force two-norm initial, final = 0.15404529 0.00018065979
  Force max component initial, final = 0.1070894 2.4344695e-05
  Final line search alpha, max atom move = 1.0000000 2.4344695e-05
  Iterations, force evaluations = 155 310

MPI task timing breakdown:
Section |  min time  |  avg time  |  max time  |%varavg| %total
---------------------------------------------------------------
Pair    | 0.46861    | 1.3073     | 1.705      |  30.8 | 71.55
Neigh   | 0          | 0          | 0          |   0.0 |  0.00
Comm    | 0.02731    | 0.29459    | 0.88718    |  45.4 | 16.12
Output  | 0          | 0          | 0          |   0.0 |  0.00
Modify  | 1.7907e-05 | 0.0025644  | 0.005443   |   2.4 |  0.14
Other   |            | 0.2227     |            |       | 12.19

Nlocal:        2776.45 ave        3957 max           0 min
Histogram: 8 4 4 0 4 12 8 2 28 34
Nghost:        3879.01 ave        5424 max         232 min
Histogram: 8 0 8 0 16 0 8 8 16 40
Neighs:        79213.4 ave      115337 max           0 min
Histogram: 8 4 4 0 10 6 8 8 24 32

Total # of neighbors = 8238191
Ave neighs/atom = 28.530433
Neighbor list builds = 0
Dangerous builds = 0
unfix              hold

variable           new_x         delete
variable           new_y         delete
variable           new_z         delete
variable           dot           delete
variable           new_x         equal     ${x0}-${x_0}
variable           new_x         equal     0.488243429788903-${x_0}
variable           new_x         equal     0.488243429788903-0.594465684860909
variable           new_y         equal     ${y0}-${y_0}
variable           new_y         equal     -1.09341884685884-${y_0}
variable           new_y         equal     -1.09341884685884--1.01611246115032
variable           new_z         equal     ${z0}-${z_0}
variable           new_z         equal     -12.9307724686279-${z_0}
variable           new_z         equal     -12.9307724686279--12.9485390464171

variable           dot      equal     ${fx}*${new_x}+${fy}*${new_y}+${fz}*${new_z}
variable           dot      equal     1.35826146810422e-05*${new_x}+${fy}*${new_y}+${fz}*${new_z}
variable           dot      equal     1.35826146810422e-05*-0.106222255072006+${fy}*${new_y}+${fz}*${new_z}
variable           dot      equal     1.35826146810422e-05*-0.106222255072006+-1.32612219699121e-05*${new_y}+${fz}*${new_z}
variable           dot      equal     1.35826146810422e-05*-0.106222255072006+-1.32612219699121e-05*-0.0773063857085199+${fz}*${new_z}
variable           dot      equal     1.35826146810422e-05*-0.106222255072006+-1.32612219699121e-05*-0.0773063857085199+1.79476725377109e-05*${new_z}
variable           dot      equal     1.35826146810422e-05*-0.106222255072006+-1.32612219699121e-05*-0.0773063857085199+1.79476725377109e-05*0.0177665777891995
print              "The dot product: ${dot}"
The dot product: -9.87301003457949e-08

if "(${dot} >= 0.0) && (${dot} < 1.0e-10)" then "jump TaR.in relaxation" elif "(${dot} < 0.0) && (${dot} > -1.0e-10)" "jump TaR.in relaxation" elif "(${iteration} == ${iter_tot}) && (${seed} < 319)" "print 'The iteration number is maximum!'" "next seed" "variable iteration delete" "jump TaR.in loop" elif "(${iteration} == ${iter_tot}) && (${seed} == 319)" "quit" else    "next iteration"    "jump TaR.in iteration"
next iteration
jump TaR.in iteration
variable           norm          equal     sqrt(${new_x}^2+${new_y}^2+${new_z}^2)
variable           norm          equal     sqrt(-0.106222255072006^2+${new_y}^2+${new_z}^2)
variable           norm          equal     sqrt(-0.106222255072006^2+-0.0773063857085199^2+${new_z}^2)
variable           norm          equal     sqrt(-0.106222255072006^2+-0.0773063857085199^2+0.0177665777891995^2)
variable           unit_x        equal     ${new_x}/${norm}
variable           unit_x        equal     -0.106222255072006/${norm}
variable           unit_x        equal     -0.106222255072006/0.13257109802003
variable           unit_y        equal     ${new_y}/${norm}
variable           unit_y        equal     -0.0773063857085199/${norm}
variable           unit_y        equal     -0.0773063857085199/0.13257109802003
variable           unit_z        equal     ${new_z}/${norm}
variable           unit_z        equal     0.0177665777891995/${norm}
variable           unit_z        equal     0.0177665777891995/0.13257109802003
variable           x_new         equal     ${x0}+${delta}*${unit_x}
variable           x_new         equal     0.488243429788903+${delta}*${unit_x}
variable           x_new         equal     0.488243429788903+0.02*${unit_x}
variable           x_new         equal     0.488243429788903+0.02*-0.801247456334389
variable           y_new         equal     ${y0}+${delta}*${unit_y}
variable           y_new         equal     -1.09341884685884+${delta}*${unit_y}
variable           y_new         equal     -1.09341884685884+0.02*${unit_y}
variable           y_new         equal     -1.09341884685884+0.02*-0.583131518582125
variable           z_new         equal     ${z0}+${delta}*${unit_z}
variable           z_new         equal     -12.9307724686279+${delta}*${unit_z}
variable           z_new         equal     -12.9307724686279+0.02*${unit_z}
variable           z_new         equal     -12.9307724686279+0.02*0.134015468337715

set                atom          $i    x  ${x_new}  y  ${y_new}  z   ${z_new}
set                atom          288751    x  ${x_new}  y  ${y_new}  z   ${z_new}
set                atom          288751    x  0.472218480662215  y  ${y_new}  z   ${z_new}
set                atom          288751    x  0.472218480662215  y  -1.10508147723048  z   ${z_new}
set                atom          288751    x  0.472218480662215  y  -1.10508147723048  z   -12.9280921592611
Setting atom values ...
  1 settings made for x
  1 settings made for y
  1 settings made for z

fix                hold    carbon   planeforce   ${new_x}  ${new_y}  ${new_z}
fix                hold    carbon   planeforce   -0.106222255072006  ${new_y}  ${new_z}
fix                hold    carbon   planeforce   -0.106222255072006  -0.0773063857085199  ${new_z}
fix                hold    carbon   planeforce   -0.106222255072006  -0.0773063857085199  0.0177665777891995
min_style          cg
minimize           1.0e-30 1.0e-30 10000 10000
Per MPI rank memory allocation (min/avg/max) = 5.441 | 5.816 | 6.074 Mbytes
Step PotEng KinEng TotEng v_fx v_fy v_fz 
    1164   -1152449.4            0   -1152449.4 -0.026528723  0.038287675 0.0079892121 
    1306   -1152449.4            0   -1152449.4 -1.6092181e-05 1.7396258e-05 -2.0516385e-05 
Loop time of 1.657 on 104 procs for 142 steps with 288751 atoms

99.9% CPU use with 104 MPI tasks x 1 OpenMP threads

Minimization stats:
  Stopping criterion = energy tolerance
  Energy initial, next-to-last, final = 
     -1152449.40356122  -1152449.40487744  -1152449.40487744
  Force two-norm initial, final = 0.15575933 0.00019808961
  Force max component initial, final = 0.10971727 2.6645397e-05
  Final line search alpha, max atom move = 1.0000000 2.6645397e-05
  Iterations, force evaluations = 142 284

MPI task timing breakdown:
Section |  min time  |  avg time  |  max time  |%varavg| %total
---------------------------------------------------------------
Pair    | 0.42967    | 1.194      | 1.5582     |  29.5 | 72.06
Neigh   | 0          | 0          | 0          |   0.0 |  0.00
Comm    | 0.026001   | 0.26885    | 0.80282    |  43.4 | 16.23
Output  | 0          | 0          | 0          |   0.0 |  0.00
Modify  | 1.8167e-05 | 0.0023518  | 0.0049546  |   2.3 |  0.14
Other   |            | 0.1918     |            |       | 11.57

Nlocal:        2776.45 ave        3956 max           0 min
Histogram: 8 4 4 0 4 12 8 2 28 34
Nghost:        3879.01 ave        5424 max         232 min
Histogram: 8 0 8 0 16 0 8 8 16 40
Neighs:        79213.4 ave      115312 max           0 min
Histogram: 8 4 4 0 10 6 8 8 24 32

Total # of neighbors = 8238192
Ave neighs/atom = 28.530436
Neighbor list builds = 0
Dangerous builds = 0
unfix              hold

variable           new_x         delete
variable           new_y         delete
variable           new_z         delete
variable           dot           delete
variable           new_x         equal     ${x0}-${x_0}
variable           new_x         equal     0.466955776202598-${x_0}
variable           new_x         equal     0.466955776202598-0.594465684860909
variable           new_y         equal     ${y0}-${y_0}
variable           new_y         equal     -1.09740977097819-${y_0}
variable           new_y         equal     -1.09740977097819--1.01611246115032
variable           new_z         equal     ${z0}-${z_0}
variable           new_z         equal     -12.9261753271337-${z_0}
variable           new_z         equal     -12.9261753271337--12.9485390464171

variable           dot      equal     ${fx}*${new_x}+${fy}*${new_y}+${fz}*${new_z}
variable           dot      equal     -1.60921810514192e-05*${new_x}+${fy}*${new_y}+${fz}*${new_z}
variable           dot      equal     -1.60921810514192e-05*-0.127509908658311+${fy}*${new_y}+${fz}*${new_z}
variable           dot      equal     -1.60921810514192e-05*-0.127509908658311+1.73962577532958e-05*${new_y}+${fz}*${new_z}
variable           dot      equal     -1.60921810514192e-05*-0.127509908658311+1.73962577532958e-05*-0.08129730982787+${fz}*${new_z}
variable           dot      equal     -1.60921810514192e-05*-0.127509908658311+1.73962577532958e-05*-0.08129730982787+-2.05163849158211e-05*${new_z}
variable           dot      equal     -1.60921810514192e-05*-0.127509908658311+1.73962577532958e-05*-0.08129730982787+-2.05163849158211e-05*0.0223637192833994
print              "The dot product: ${dot}"
The dot product: 1.78820906596698e-07

if "(${dot} >= 0.0) && (${dot} < 1.0e-10)" then "jump TaR.in relaxation" elif "(${dot} < 0.0) && (${dot} > -1.0e-10)" "jump TaR.in relaxation" elif "(${iteration} == ${iter_tot}) && (${seed} < 319)" "print 'The iteration number is maximum!'" "next seed" "variable iteration delete" "jump TaR.in loop" elif "(${iteration} == ${iter_tot}) && (${seed} == 319)" "quit" else    "next iteration"    "jump TaR.in iteration"
next iteration
jump TaR.in iteration
variable           norm          equal     sqrt(${new_x}^2+${new_y}^2+${new_z}^2)
variable           norm          equal     sqrt(-0.127509908658311^2+${new_y}^2+${new_z}^2)
variable           norm          equal     sqrt(-0.127509908658311^2+-0.08129730982787^2+${new_z}^2)
variable           norm          equal     sqrt(-0.127509908658311^2+-0.08129730982787^2+0.0223637192833994^2)
variable           unit_x        equal     ${new_x}/${norm}
variable           unit_x        equal     -0.127509908658311/${norm}
variable           unit_x        equal     -0.127509908658311/0.152866495123968
variable           unit_y        equal     ${new_y}/${norm}
variable           unit_y        equal     -0.08129730982787/${norm}
variable           unit_y        equal     -0.08129730982787/0.152866495123968
variable           unit_z        equal     ${new_z}/${norm}
variable           unit_z        equal     0.0223637192833994/${norm}
variable           unit_z        equal     0.0223637192833994/0.152866495123968
variable           x_new         equal     ${x0}+${delta}*${unit_x}
variable           x_new         equal     0.466955776202598+${delta}*${unit_x}
variable           x_new         equal     0.466955776202598+0.02*${unit_x}
variable           x_new         equal     0.466955776202598+0.02*-0.834125938158693
variable           y_new         equal     ${y0}+${delta}*${unit_y}
variable           y_new         equal     -1.09740977097819+${delta}*${unit_y}
variable           y_new         equal     -1.09740977097819+0.02*${unit_y}
variable           y_new         equal     -1.09740977097819+0.02*-0.531819021309683
variable           z_new         equal     ${z0}+${delta}*${unit_z}
variable           z_new         equal     -12.9261753271337+${delta}*${unit_z}
variable           z_new         equal     -12.9261753271337+0.02*${unit_z}
variable           z_new         equal     -12.9261753271337+0.02*0.146295754771269

set                atom          $i    x  ${x_new}  y  ${y_new}  z   ${z_new}
set                atom          288751    x  ${x_new}  y  ${y_new}  z   ${z_new}
set                atom          288751    x  0.450273257439424  y  ${y_new}  z   ${z_new}
set                atom          288751    x  0.450273257439424  y  -1.10804615140438  z   ${z_new}
set                atom          288751    x  0.450273257439424  y  -1.10804615140438  z   -12.9232494120383
Setting atom values ...
  1 settings made for x
  1 settings made for y
  1 settings made for z

fix                hold    carbon   planeforce   ${new_x}  ${new_y}  ${new_z}
fix                hold    carbon   planeforce   -0.127509908658311  ${new_y}  ${new_z}
fix                hold    carbon   planeforce   -0.127509908658311  -0.08129730982787  ${new_z}
fix                hold    carbon   planeforce   -0.127509908658311  -0.08129730982787  0.0223637192833994
min_style          cg
minimize           1.0e-30 1.0e-30 10000 10000
Per MPI rank memory allocation (min/avg/max) = 5.441 | 5.816 | 6.074 Mbytes
Step PotEng KinEng TotEng v_fx v_fy v_fz 
    1306   -1152449.4            0   -1152449.4 -0.025327794  0.042091375 0.0086019165 
    1444   -1152449.4            0   -1152449.4 -5.0069182e-07 -1.643446e-05 -6.2597842e-05 
Loop time of 1.63164 on 104 procs for 138 steps with 288751 atoms

99.9% CPU use with 104 MPI tasks x 1 OpenMP threads

Minimization stats:
  Stopping criterion = energy tolerance
  Energy initial, next-to-last, final = 
      -1152449.3917126  -1152449.39306677  -1152449.39306677
  Force two-norm initial, final = 0.15665129 0.0002293948
  Force max component initial, final = 0.11187584 6.2597842e-05
  Final line search alpha, max atom move = 1.0000000 6.2597842e-05
  Iterations, force evaluations = 138 276

MPI task timing breakdown:
Section |  min time  |  avg time  |  max time  |%varavg| %total
---------------------------------------------------------------
Pair    | 0.42096    | 1.1686     | 1.5248     |  29.1 | 71.62
Neigh   | 0          | 0          | 0          |   0.0 |  0.00
Comm    | 0.024592   | 0.26713    | 0.79493    |  42.4 | 16.37
Output  | 0          | 0          | 0          |   0.0 |  0.00
Modify  | 1.794e-05  | 0.0022889  | 0.0048321  |   2.2 |  0.14
Other   |            | 0.1936     |            |       | 11.87

Nlocal:        2776.45 ave        3955 max           0 min
Histogram: 8 4 4 0 4 12 8 2 28 34
Nghost:        3879.01 ave        5424 max         232 min
Histogram: 8 0 8 0 16 0 8 8 16 40
Neighs:        79213.4 ave      115277 max           0 min
Histogram: 8 4 4 0 10 6 8 8 24 32

Total # of neighbors = 8238191
Ave neighs/atom = 28.530433
Neighbor list builds = 0
Dangerous builds = 0
unfix              hold

variable           new_x         delete
variable           new_y         delete
variable           new_z         delete
variable           dot           delete
variable           new_x         equal     ${x0}-${x_0}
variable           new_x         equal     0.444850556693344-${x_0}
variable           new_x         equal     0.444850556693344-0.594465684860909
variable           new_y         equal     ${y0}-${y_0}
variable           new_y         equal     -1.09907903310723-${y_0}
variable           new_y         equal     -1.09907903310723--1.01611246115032
variable           new_z         equal     ${z0}-${z_0}
variable           new_z         equal     -12.9215701512152-${z_0}
variable           new_z         equal     -12.9215701512152--12.9485390464171

variable           dot      equal     ${fx}*${new_x}+${fy}*${new_y}+${fz}*${new_z}
variable           dot      equal     -5.00691821150911e-07*${new_x}+${fy}*${new_y}+${fz}*${new_z}
variable           dot      equal     -5.00691821150911e-07*-0.149615128167565+${fy}*${new_y}+${fz}*${new_z}
variable           dot      equal     -5.00691821150911e-07*-0.149615128167565+-1.64344602385719e-05*${new_y}+${fz}*${new_z}
variable           dot      equal     -5.00691821150911e-07*-0.149615128167565+-1.64344602385719e-05*-0.0829665719569099+${fz}*${new_z}
variable           dot      equal     -5.00691821150911e-07*-0.149615128167565+-1.64344602385719e-05*-0.0829665719569099+-6.25978423582711e-05*${new_z}
variable           dot      equal     -5.00691821150911e-07*-0.149615128167565+-1.64344602385719e-05*-0.0829665719569099+-6.25978423582711e-05*0.0269688952019003
print              "The dot product: ${dot}"
The dot product: -2.49772751474894e-07

if "(${dot} >= 0.0) && (${dot} < 1.0e-10)" then "jump TaR.in relaxation" elif "(${dot} < 0.0) && (${dot} > -1.0e-10)" "jump TaR.in relaxation" elif "(${iteration} == ${iter_tot}) && (${seed} < 319)" "print 'The iteration number is maximum!'" "next seed" "variable iteration delete" "jump TaR.in loop" elif "(${iteration} == ${iter_tot}) && (${seed} == 319)" "quit" else    "next iteration"    "jump TaR.in iteration"
next iteration
jump TaR.in iteration
variable           norm          equal     sqrt(${new_x}^2+${new_y}^2+${new_z}^2)
variable           norm          equal     sqrt(-0.149615128167565^2+${new_y}^2+${new_z}^2)
variable           norm          equal     sqrt(-0.149615128167565^2+-0.0829665719569099^2+${new_z}^2)
variable           norm          equal     sqrt(-0.149615128167565^2+-0.0829665719569099^2+0.0269688952019003^2)
variable           unit_x        equal     ${new_x}/${norm}
variable           unit_x        equal     -0.149615128167565/${norm}
variable           unit_x        equal     -0.149615128167565/0.173191974257727
variable           unit_y        equal     ${new_y}/${norm}
variable           unit_y        equal     -0.0829665719569099/${norm}
variable           unit_y        equal     -0.0829665719569099/0.173191974257727
variable           unit_z        equal     ${new_z}/${norm}
variable           unit_z        equal     0.0269688952019003/${norm}
variable           unit_z        equal     0.0269688952019003/0.173191974257727
variable           x_new         equal     ${x0}+${delta}*${unit_x}
variable           x_new         equal     0.444850556693344+${delta}*${unit_x}
variable           x_new         equal     0.444850556693344+0.02*${unit_x}
variable           x_new         equal     0.444850556693344+0.02*-0.863868714522087
variable           y_new         equal     ${y0}+${delta}*${unit_y}
variable           y_new         equal     -1.09907903310723+${delta}*${unit_y}
variable           y_new         equal     -1.09907903310723+0.02*${unit_y}
variable           y_new         equal     -1.09907903310723+0.02*-0.479043975983826
variable           z_new         equal     ${z0}+${delta}*${unit_z}
variable           z_new         equal     -12.9215701512152+${delta}*${unit_z}
variable           z_new         equal     -12.9215701512152+0.02*${unit_z}
variable           z_new         equal     -12.9215701512152+0.02*0.155716772197353

set                atom          $i    x  ${x_new}  y  ${y_new}  z   ${z_new}
set                atom          288751    x  ${x_new}  y  ${y_new}  z   ${z_new}
set                atom          288751    x  0.427573182402902  y  ${y_new}  z   ${z_new}
set                atom          288751    x  0.427573182402902  y  -1.10865991262691  z   ${z_new}
set                atom          288751    x  0.427573182402902  y  -1.10865991262691  z   -12.9184558157713
Setting atom values ...
  1 settings made for x
  1 settings made for y
  1 settings made for z

fix                hold    carbon   planeforce   ${new_x}  ${new_y}  ${new_z}
fix                hold    carbon   planeforce   -0.149615128167565  ${new_y}  ${new_z}
fix                hold    carbon   planeforce   -0.149615128167565  -0.0829665719569099  ${new_z}
fix                hold    carbon   planeforce   -0.149615128167565  -0.0829665719569099  0.0269688952019003
min_style          cg
minimize           1.0e-30 1.0e-30 10000 10000
Per MPI rank memory allocation (min/avg/max) = 5.441 | 5.816 | 6.074 Mbytes
Step PotEng KinEng TotEng v_fx v_fy v_fz 
    1444   -1152449.4            0   -1152449.4  -0.02179103  0.041940258 0.0081342473 
    1618   -1152449.4            0   -1152449.4 -9.1138798e-06 1.042349e-05 -1.8494381e-05 
Loop time of 2.06342 on 104 procs for 174 steps with 288751 atoms

99.9% CPU use with 104 MPI tasks x 1 OpenMP threads

Minimization stats:
  Stopping criterion = energy tolerance
  Energy initial, next-to-last, final = 
     -1152449.37865715  -1152449.38000839  -1152449.38000839
  Force two-norm initial, final = 0.15666683 0.00013968416
  Force max component initial, final = 0.1133672 2.3212207e-05
  Final line search alpha, max atom move = 1.0000000 2.3212207e-05
  Iterations, force evaluations = 174 348

MPI task timing breakdown:
Section |  min time  |  avg time  |  max time  |%varavg| %total
---------------------------------------------------------------
Pair    | 0.52666    | 1.4654     | 1.9292     |  32.8 | 71.02
Neigh   | 0          | 0          | 0          |   0.0 |  0.00
Comm    | 0.029907   | 0.33404    | 0.98561    |  47.4 | 16.19
Output  | 0          | 0          | 0          |   0.0 |  0.00
Modify  | 1.9665e-05 | 0.0028827  | 0.0060927  |   2.5 |  0.14
Other   |            | 0.2611     |            |       | 12.65

Nlocal:        2776.45 ave        3955 max           0 min
Histogram: 8 4 4 0 4 12 8 2 28 34
Nghost:        3879.05 ave        5424 max         232 min
Histogram: 8 0 8 0 16 0 8 8 16 40
Neighs:        79213.4 ave      115277 max           0 min
Histogram: 8 4 4 0 10 6 8 8 24 32

Total # of neighbors = 8238192
Ave neighs/atom = 28.530436
Neighbor list builds = 0
Dangerous builds = 0
unfix              hold

variable           new_x         delete
variable           new_y         delete
variable           new_z         delete
variable           dot           delete
variable           new_x         equal     ${x0}-${x_0}
variable           new_x         equal     0.42261546706551-${x_0}
variable           new_x         equal     0.42261546706551-0.594465684860909
variable           new_y         equal     ${y0}-${y_0}
variable           new_y         equal     -1.09927294619393-${y_0}
variable           new_y         equal     -1.09927294619393--1.01611246115032
variable           new_z         equal     ${z0}-${z_0}
variable           new_z         equal     -12.9170818176855-${z_0}
variable           new_z         equal     -12.9170818176855--12.9485390464171

variable           dot      equal     ${fx}*${new_x}+${fy}*${new_y}+${fz}*${new_z}
variable           dot      equal     -9.11387978257394e-06*${new_x}+${fy}*${new_y}+${fz}*${new_z}
variable           dot      equal     -9.11387978257394e-06*-0.171850217795399+${fy}*${new_y}+${fz}*${new_z}
variable           dot      equal     -9.11387978257394e-06*-0.171850217795399+1.0423490356488e-05*${new_y}+${fz}*${new_z}
variable           dot      equal     -9.11387978257394e-06*-0.171850217795399+1.0423490356488e-05*-0.0831604850436098+${fz}*${new_z}
variable           dot      equal     -9.11387978257394e-06*-0.171850217795399+1.0423490356488e-05*-0.0831604850436098+-1.84943812256734e-05*${new_z}
variable           dot      equal     -9.11387978257394e-06*-0.171850217795399+1.0423490356488e-05*-0.0831604850436098+-1.84943812256734e-05*0.0314572287316004
print              "The dot product: ${dot}"
The dot product: 1.17617731238059e-07

if "(${dot} >= 0.0) && (${dot} < 1.0e-10)" then "jump TaR.in relaxation" elif "(${dot} < 0.0) && (${dot} > -1.0e-10)" "jump TaR.in relaxation" elif "(${iteration} == ${iter_tot}) && (${seed} < 319)" "print 'The iteration number is maximum!'" "next seed" "variable iteration delete" "jump TaR.in loop" elif "(${iteration} == ${iter_tot}) && (${seed} == 319)" "quit" else    "next iteration"    "jump TaR.in iteration"
next iteration
jump TaR.in iteration
variable           norm          equal     sqrt(${new_x}^2+${new_y}^2+${new_z}^2)
variable           norm          equal     sqrt(-0.171850217795399^2+${new_y}^2+${new_z}^2)
variable           norm          equal     sqrt(-0.171850217795399^2+-0.0831604850436098^2+${new_z}^2)
variable           norm          equal     sqrt(-0.171850217795399^2+-0.0831604850436098^2+0.0314572287316004^2)
variable           unit_x        equal     ${new_x}/${norm}
variable           unit_x        equal     -0.171850217795399/${norm}
variable           unit_x        equal     -0.171850217795399/0.19348829646386
variable           unit_y        equal     ${new_y}/${norm}
variable           unit_y        equal     -0.0831604850436098/${norm}
variable           unit_y        equal     -0.0831604850436098/0.19348829646386
variable           unit_z        equal     ${new_z}/${norm}
variable           unit_z        equal     0.0314572287316004/${norm}
variable           unit_z        equal     0.0314572287316004/0.19348829646386
variable           x_new         equal     ${x0}+${delta}*${unit_x}
variable           x_new         equal     0.42261546706551+${delta}*${unit_x}
variable           x_new         equal     0.42261546706551+0.02*${unit_x}
variable           x_new         equal     0.42261546706551+0.02*-0.888168540093056
variable           y_new         equal     ${y0}+${delta}*${unit_y}
variable           y_new         equal     -1.09927294619393+${delta}*${unit_y}
variable           y_new         equal     -1.09927294619393+0.02*${unit_y}
variable           y_new         equal     -1.09927294619393+0.02*-0.429795944061881
variable           z_new         equal     ${z0}+${delta}*${unit_z}
variable           z_new         equal     -12.9170818176855+${delta}*${unit_z}
variable           z_new         equal     -12.9170818176855+0.02*${unit_z}
variable           z_new         equal     -12.9170818176855+0.02*0.162579490886551

set                atom          $i    x  ${x_new}  y  ${y_new}  z   ${z_new}
set                atom          288751    x  ${x_new}  y  ${y_new}  z   ${z_new}
set                atom          288751    x  0.404852096263649  y  ${y_new}  z   ${z_new}
set                atom          288751    x  0.404852096263649  y  -1.10786886507517  z   ${z_new}
set                atom          288751    x  0.404852096263649  y  -1.10786886507517  z   -12.9138302278678
Setting atom values ...
  1 settings made for x
  1 settings made for y
  1 settings made for z

fix                hold    carbon   planeforce   ${new_x}  ${new_y}  ${new_z}
fix                hold    carbon   planeforce   -0.171850217795399  ${new_y}  ${new_z}
fix                hold    carbon   planeforce   -0.171850217795399  -0.0831604850436098  ${new_z}
fix                hold    carbon   planeforce   -0.171850217795399  -0.0831604850436098  0.0314572287316004
min_style          cg
minimize           1.0e-30 1.0e-30 10000 10000
Per MPI rank memory allocation (min/avg/max) = 5.441 | 5.816 | 6.074 Mbytes
Step PotEng KinEng TotEng v_fx v_fy v_fz 
    1618   -1152449.4            0   -1152449.4 -0.017374066  0.038783907 0.0076151469 
    1767   -1152449.4            0   -1152449.4 1.2852972e-05 -1.9254437e-05 1.9314407e-05 
Loop time of 1.75951 on 104 procs for 149 steps with 288751 atoms

99.9% CPU use with 104 MPI tasks x 1 OpenMP threads

Minimization stats:
  Stopping criterion = energy tolerance
  Energy initial, next-to-last, final = 
     -1152449.36431758  -1152449.36563928  -1152449.36563928
  Force two-norm initial, final = 0.15629877 0.00018420613
  Force max component initial, final = 0.11433191 1.9314407e-05
  Final line search alpha, max atom move = 1.0000000 1.9314407e-05
  Iterations, force evaluations = 149 298

MPI task timing breakdown:
Section |  min time  |  avg time  |  max time  |%varavg| %total
---------------------------------------------------------------
Pair    | 0.45209    | 1.257      | 1.6409     |  30.3 | 71.44
Neigh   | 0          | 0          | 0          |   0.0 |  0.00
Comm    | 0.027312   | 0.28571    | 0.85057    |  44.4 | 16.24
Output  | 0          | 0          | 0          |   0.0 |  0.00
Modify  | 1.8061e-05 | 0.0024737  | 0.0052325  |   2.3 |  0.14
Other   |            | 0.2143     |            |       | 12.18

Nlocal:        2776.45 ave        3956 max           0 min
Histogram: 8 4 4 0 4 12 8 2 28 34
Nghost:        3879.09 ave        5424 max         232 min
Histogram: 8 0 8 0 16 0 8 8 16 40
Neighs:        79213.4 ave      115312 max           0 min
Histogram: 8 4 4 0 10 6 8 8 24 32

Total # of neighbors = 8238193
Ave neighs/atom = 28.530440
Neighbor list builds = 0
Dangerous builds = 0
unfix              hold

variable           new_x         delete
variable           new_y         delete
variable           new_z         delete
variable           dot           delete
variable           new_x         equal     ${x0}-${x_0}
variable           new_x         equal     0.400654825020702-${x_0}
variable           new_x         equal     0.400654825020702-0.594465684860909
variable           new_y         equal     ${y0}-${y_0}
variable           new_y         equal     -1.09881267814289-${y_0}
variable           new_y         equal     -1.09881267814289--1.01611246115032
variable           new_z         equal     ${z0}-${z_0}
variable           new_z         equal     -12.9128188571284-${z_0}
variable           new_z         equal     -12.9128188571284--12.9485390464171

variable           dot      equal     ${fx}*${new_x}+${fy}*${new_y}+${fz}*${new_z}
variable           dot      equal     1.28529720173599e-05*${new_x}+${fy}*${new_y}+${fz}*${new_z}
variable           dot      equal     1.28529720173599e-05*-0.193810859840207+${fy}*${new_y}+${fz}*${new_z}
variable           dot      equal     1.28529720173599e-05*-0.193810859840207+-1.92544369311752e-05*${new_y}+${fz}*${new_z}
variable           dot      equal     1.28529720173599e-05*-0.193810859840207+-1.92544369311752e-05*-0.0827002169925699+${fz}*${new_z}
variable           dot      equal     1.28529720173599e-05*-0.193810859840207+-1.92544369311752e-05*-0.0827002169925699+1.93144072299345e-05*${new_z}
variable           dot      equal     1.28529720173599e-05*-0.193810859840207+-1.92544369311752e-05*-0.0827002169925699+1.93144072299345e-05*0.0357201892886998
print              "The dot product: ${dot}"
The dot product: -2.0878516365641e-07

if "(${dot} >= 0.0) && (${dot} < 1.0e-10)" then "jump TaR.in relaxation" elif "(${dot} < 0.0) && (${dot} > -1.0e-10)" "jump TaR.in relaxation" elif "(${iteration} == ${iter_tot}) && (${seed} < 319)" "print 'The iteration number is maximum!'" "next seed" "variable iteration delete" "jump TaR.in loop" elif "(${iteration} == ${iter_tot}) && (${seed} == 319)" "quit" else    "next iteration"    "jump TaR.in iteration"
next iteration
jump TaR.in iteration
variable           norm          equal     sqrt(${new_x}^2+${new_y}^2+${new_z}^2)
variable           norm          equal     sqrt(-0.193810859840207^2+${new_y}^2+${new_z}^2)
variable           norm          equal     sqrt(-0.193810859840207^2+-0.0827002169925699^2+${new_z}^2)
variable           norm          equal     sqrt(-0.193810859840207^2+-0.0827002169925699^2+0.0357201892886998^2)
variable           unit_x        equal     ${new_x}/${norm}
variable           unit_x        equal     -0.193810859840207/${norm}
variable           unit_x        equal     -0.193810859840207/0.21372390415075
variable           unit_y        equal     ${new_y}/${norm}
[...]
fix                hold    carbon   planeforce   -0.677091206808979  0.624035496705993  ${new_z}
fix                hold    carbon   planeforce   -0.677091206808979  0.624035496705993  0.5808005319688
min_style          cg
minimize           1.0e-30 1.0e-30 10000 10000
Per MPI rank memory allocation (min/avg/max) = 5.441 | 5.816 | 6.074 Mbytes
Step PotEng KinEng TotEng v_fx v_fy v_fz 
   10616   -1152448.5            0   -1152448.5 -0.042273433  0.011959362 -0.062131548 
   10884   -1152448.5            0   -1152448.5 -9.6119874e-08 6.9627083e-08 -1.8686569e-07 
Loop time of 3.14236 on 104 procs for 268 steps with 288751 atoms

99.9% CPU use with 104 MPI tasks x 1 OpenMP threads

Minimization stats:
  Stopping criterion = energy tolerance
  Energy initial, next-to-last, final = 
     -1152448.51610345   -1152448.5173236   -1152448.5173236
  Force two-norm initial, final = 0.14860244 4.8325742e-06
  Force max component initial, final = 0.083446497 1.8686569e-07
  Final line search alpha, max atom move = 1.0000000 1.8686569e-07
  Iterations, force evaluations = 268 536

MPI task timing breakdown:
Section |  min time  |  avg time  |  max time  |%varavg| %total
---------------------------------------------------------------
Pair    | 0.80307    | 2.2507     | 2.9574     |  40.7 | 71.62
Neigh   | 0          | 0          | 0          |   0.0 |  0.00
Comm    | 0.047078   | 0.51714    | 1.5256     |  58.5 | 16.46
Output  | 0          | 0          | 0          |   0.0 |  0.00
Modify  | 3.2219e-05 | 0.0044249  | 0.0094787  |   3.1 |  0.14
Other   |            | 0.3701     |            |       | 11.78

Nlocal:        2776.45 ave        3956 max           0 min
Histogram: 8 4 4 0 4 12 8 0 30 34
Nghost:        3879.12 ave        5423 max         232 min
Histogram: 8 0 8 0 16 0 8 8 16 40
Neighs:        79213.5 ave      115268 max           0 min
Histogram: 8 4 4 0 10 6 8 8 24 32

Total # of neighbors = 8238205
Ave neighs/atom = 28.530481
Neighbor list builds = 0
Dangerous builds = 0
unfix              hold

variable           new_x         delete
variable           new_y         delete
variable           new_z         delete
variable           dot           delete
variable           new_x         equal     ${x0}-${x_0}
variable           new_x         equal     -0.096756139249608-${x_0}
variable           new_x         equal     -0.096756139249608-0.594465684860909
variable           new_y         equal     ${y0}-${y_0}
variable           new_y         equal     -0.381822758404234-${y_0}
variable           new_y         equal     -0.381822758404234--1.01611246115032
variable           new_z         equal     ${z0}-${z_0}
variable           new_z         equal     -12.3577407758534-${z_0}
variable           new_z         equal     -12.3577407758534--12.9485390464171

variable           dot      equal     ${fx}*${new_x}+${fy}*${new_y}+${fz}*${new_z}
variable           dot      equal     -9.61198740035419e-08*${new_x}+${fy}*${new_y}+${fz}*${new_z}
variable           dot      equal     -9.61198740035419e-08*-0.691221824110517+${fy}*${new_y}+${fz}*${new_z}
variable           dot      equal     -9.61198740035419e-08*-0.691221824110517+6.9627082920688e-08*${new_y}+${fz}*${new_z}
variable           dot      equal     -9.61198740035419e-08*-0.691221824110517+6.9627082920688e-08*0.634289702746086+${fz}*${new_z}
variable           dot      equal     -9.61198740035419e-08*-0.691221824110517+6.9627082920688e-08*0.634289702746086+-1.86865691212921e-07*${new_z}
variable           dot      equal     -9.61198740035419e-08*-0.691221824110517+6.9627082920688e-08*0.634289702746086+-1.86865691212921e-07*0.590798270563699
print              "The dot product: ${dot}"
The dot product: 2.03969174557648e-10

if "(${dot} >= 0.0) && (${dot} < 1.0e-10)" then "jump TaR.in relaxation" elif "(${dot} < 0.0) && (${dot} > -1.0e-10)" "jump TaR.in relaxation" elif "(${iteration} == ${iter_tot}) && (${seed} < 319)" "print 'The iteration number is maximum!'" "next seed" "variable iteration delete" "jump TaR.in loop" elif "(${iteration} == ${iter_tot}) && (${seed} == 319)" "quit" else    "next iteration"    "jump TaR.in iteration"
next iteration
jump TaR.in iteration
variable           norm          equal     sqrt(${new_x}^2+${new_y}^2+${new_z}^2)
variable           norm          equal     sqrt(-0.691221824110517^2+${new_y}^2+${new_z}^2)
variable           norm          equal     sqrt(-0.691221824110517^2+0.634289702746086^2+${new_z}^2)
variable           norm          equal     sqrt(-0.691221824110517^2+0.634289702746086^2+0.590798270563699^2)
variable           unit_x        equal     ${new_x}/${norm}
variable           unit_x        equal     -0.691221824110517/${norm}
variable           unit_x        equal     -0.691221824110517/1.1086720135538
variable           unit_y        equal     ${new_y}/${norm}
variable           unit_y        equal     0.634289702746086/${norm}
variable           unit_y        equal     0.634289702746086/1.1086720135538
variable           unit_z        equal     ${new_z}/${norm}
variable           unit_z        equal     0.590798270563699/${norm}
variable           unit_z        equal     0.590798270563699/1.1086720135538
variable           x_new         equal     ${x0}+${delta}*${unit_x}
variable           x_new         equal     -0.096756139249608+${delta}*${unit_x}
variable           x_new         equal     -0.096756139249608+0.02*${unit_x}
variable           x_new         equal     -0.096756139249608+0.02*-0.62346827164405
variable           y_new         equal     ${y0}+${delta}*${unit_y}
variable           y_new         equal     -0.381822758404234+${delta}*${unit_y}
variable           y_new         equal     -0.381822758404234+0.02*${unit_y}
variable           y_new         equal     -0.381822758404234+0.02*0.572116635931756
variable           z_new         equal     ${z0}+${delta}*${unit_z}
variable           z_new         equal     -12.3577407758534+${delta}*${unit_z}
variable           z_new         equal     -12.3577407758534+0.02*${unit_z}
variable           z_new         equal     -12.3577407758534+0.02*0.53288823325658

set                atom          $i    x  ${x_new}  y  ${y_new}  z   ${z_new}
set                atom          288751    x  ${x_new}  y  ${y_new}  z   ${z_new}
set                atom          288751    x  -0.109225504682489  y  ${y_new}  z   ${z_new}
set                atom          288751    x  -0.109225504682489  y  -0.370380425685599  z   ${z_new}
set                atom          288751    x  -0.109225504682489  y  -0.370380425685599  z   -12.3470830111883
Setting atom values ...
  1 settings made for x
  1 settings made for y
  1 settings made for z

fix                hold    carbon   planeforce   ${new_x}  ${new_y}  ${new_z}
fix                hold    carbon   planeforce   -0.691221824110517  ${new_y}  ${new_z}
fix                hold    carbon   planeforce   -0.691221824110517  0.634289702746086  ${new_z}
fix                hold    carbon   planeforce   -0.691221824110517  0.634289702746086  0.590798270563699
min_style          cg
minimize           1.0e-30 1.0e-30 10000 10000
Per MPI rank memory allocation (min/avg/max) = 5.441 | 5.816 | 6.074 Mbytes
Step PotEng KinEng TotEng v_fx v_fy v_fz 
   10884   -1152448.5            0   -1152448.5 -0.042082503  0.010426465 -0.060429668 
   11000   -1152448.5            0   -1152448.5 -8.6324307e-06 5.146743e-06 -1.5625385e-05 
   11093   -1152448.5            0   -1152448.5 -1.0859796e-06 7.0350327e-07 -2.0258653e-06 
Loop time of 2.45489 on 104 procs for 209 steps with 288751 atoms

99.9% CPU use with 104 MPI tasks x 1 OpenMP threads

Minimization stats:
  Stopping criterion = energy tolerance
  Energy initial, next-to-last, final = 
     -1152448.50461819   -1152448.5058194   -1152448.5058194
  Force two-norm initial, final = 0.14650552 3.4966037e-05
  Force max component initial, final = 0.082896667 2.0258653e-06
  Final line search alpha, max atom move = 1.0000000 2.0258653e-06
  Iterations, force evaluations = 209 418

MPI task timing breakdown:
Section |  min time  |  avg time  |  max time  |%varavg| %total
---------------------------------------------------------------
Pair    | 0.62504    | 1.7561     | 2.3097     |  35.9 | 71.54
Neigh   | 0          | 0          | 0          |   0.0 |  0.00
Comm    | 0.037099   | 0.39912    | 1.1735     |  52.2 | 16.26
Output  | 0.00016302 | 0.00016647 | 0.00036065 |   0.0 |  0.01
Modify  | 2.5474e-05 | 0.003457   | 0.0073233  |   2.8 |  0.14
Other   |            | 0.296      |            |       | 12.06

Nlocal:        2776.45 ave        3956 max           0 min
Histogram: 8 4 4 0 4 12 8 0 30 34
Nghost:        3879.12 ave        5423 max         232 min
Histogram: 8 0 8 0 16 0 8 8 16 40
Neighs:        79213.5 ave      115254 max           0 min
Histogram: 8 4 4 0 10 6 8 8 24 32

Total # of neighbors = 8238205
Ave neighs/atom = 28.530481
Neighbor list builds = 0
Dangerous builds = 0
unfix              hold

variable           new_x         delete
variable           new_y         delete
variable           new_z         delete
variable           dot           delete
variable           new_x         equal     ${x0}-${x_0}
variable           new_x         equal     -0.111112312310992-${x_0}
variable           new_x         equal     -0.111112312310992-0.594465684860909
variable           new_y         equal     ${y0}-${y_0}
variable           new_y         equal     -0.371953390857184-${y_0}
variable           new_y         equal     -0.371953390857184--1.01611246115032
variable           new_z         equal     ${z0}-${z_0}
variable           new_z         equal     -12.3476017787862-${z_0}
variable           new_z         equal     -12.3476017787862--12.9485390464171

variable           dot      equal     ${fx}*${new_x}+${fy}*${new_y}+${fz}*${new_z}
variable           dot      equal     -1.08597964749848e-06*${new_x}+${fy}*${new_y}+${fz}*${new_z}
variable           dot      equal     -1.08597964749848e-06*-0.705577997171901+${fy}*${new_y}+${fz}*${new_z}
variable           dot      equal     -1.08597964749848e-06*-0.705577997171901+7.03503273413806e-07*${new_y}+${fz}*${new_z}
variable           dot      equal     -1.08597964749848e-06*-0.705577997171901+7.03503273413806e-07*0.644159070293136+${fz}*${new_z}
variable           dot      equal     -1.08597964749848e-06*-0.705577997171901+7.03503273413806e-07*0.644159070293136+-2.02586529922534e-06*${new_z}
variable           dot      equal     -1.08597964749848e-06*-0.705577997171901+7.03503273413806e-07*0.644159070293136+-2.02586529922534e-06*0.600937267630901
print              "The dot product: ${dot}"
The dot product: 1.99340169710603e-09

if "(${dot} >= 0.0) && (${dot} < 1.0e-10)" then "jump TaR.in relaxation" elif "(${dot} < 0.0) && (${dot} > -1.0e-10)" "jump TaR.in relaxation" elif "(${iteration} == ${iter_tot}) && (${seed} < 319)" "print 'The iteration number is maximum!'" "next seed" "variable iteration delete" "jump TaR.in loop" elif "(${iteration} == ${iter_tot}) && (${seed} == 319)" "quit" else    "next iteration"    "jump TaR.in iteration"
next iteration
jump TaR.in iteration
variable           norm          equal     sqrt(${new_x}^2+${new_y}^2+${new_z}^2)
variable           norm          equal     sqrt(-0.705577997171901^2+${new_y}^2+${new_z}^2)
variable           norm          equal     sqrt(-0.705577997171901^2+0.644159070293136^2+${new_z}^2)
variable           norm          equal     sqrt(-0.705577997171901^2+0.644159070293136^2+0.600937267630901^2)
variable           unit_x        equal     ${new_x}/${norm}
variable           unit_x        equal     -0.705577997171901/${norm}
variable           unit_x        equal     -0.705577997171901/1.12867480593913
variable           unit_y        equal     ${new_y}/${norm}
variable           unit_y        equal     0.644159070293136/${norm}
variable           unit_y        equal     0.644159070293136/1.12867480593913
variable           unit_z        equal     ${new_z}/${norm}
variable           unit_z        equal     0.600937267630901/${norm}
variable           unit_z        equal     0.600937267630901/1.12867480593913
variable           x_new         equal     ${x0}+${delta}*${unit_x}
variable           x_new         equal     -0.111112312310992+${delta}*${unit_x}
variable           x_new         equal     -0.111112312310992+0.02*${unit_x}
variable           x_new         equal     -0.111112312310992+0.02*-0.625138430891806
variable           y_new         equal     ${y0}+${delta}*${unit_y}
variable           y_new         equal     -0.371953390857184+${delta}*${unit_y}
variable           y_new         equal     -0.371953390857184+0.02*${unit_y}
variable           y_new         equal     -0.371953390857184+0.02*0.570721581542838
variable           z_new         equal     ${z0}+${delta}*${unit_z}
variable           z_new         equal     -12.3476017787862+${delta}*${unit_z}
variable           z_new         equal     -12.3476017787862+0.02*${unit_z}
variable           z_new         equal     -12.3476017787862+0.02*0.532427289480323

set                atom          $i    x  ${x_new}  y  ${y_new}  z   ${z_new}
set                atom          288751    x  ${x_new}  y  ${y_new}  z   ${z_new}
set                atom          288751    x  -0.123615080928828  y  ${y_new}  z   ${z_new}
set                atom          288751    x  -0.123615080928828  y  -0.360538959226327  z   ${z_new}
set                atom          288751    x  -0.123615080928828  y  -0.360538959226327  z   -12.3369532329966
Setting atom values ...
  1 settings made for x
  1 settings made for y
  1 settings made for z

fix                hold    carbon   planeforce   ${new_x}  ${new_y}  ${new_z}
fix                hold    carbon   planeforce   -0.705577997171901  ${new_y}  ${new_z}
fix                hold    carbon   planeforce   -0.705577997171901  0.644159070293136  ${new_z}
fix                hold    carbon   planeforce   -0.705577997171901  0.644159070293136  0.600937267630901
min_style          cg
minimize           1.0e-30 1.0e-30 10000 10000
Per MPI rank memory allocation (min/avg/max) = 5.441 | 5.816 | 6.074 Mbytes
Step PotEng KinEng TotEng v_fx v_fy v_fz 
   11093   -1152448.5            0   -1152448.5 -0.041853576 0.0086269129   -0.0583889 
   11359   -1152448.5            0   -1152448.5 -1.8785275e-06 -7.6292195e-08 -2.1238546e-06 
Loop time of 3.1127 on 104 procs for 266 steps with 288751 atoms

99.9% CPU use with 104 MPI tasks x 1 OpenMP threads

Minimization stats:
  Stopping criterion = energy tolerance
  Energy initial, next-to-last, final = 
     -1152448.49153719  -1152448.49277256  -1152448.49277256
  Force two-norm initial, final = 0.14460603 0.00022330133
  Force max component initial, final = 0.082372233 8.4601802e-06
  Final line search alpha, max atom move = 1.0000000 8.4601802e-06
  Iterations, force evaluations = 266 532

MPI task timing breakdown:
Section |  min time  |  avg time  |  max time  |%varavg| %total
---------------------------------------------------------------
Pair    | 0.79684    | 2.2342     | 2.9239     |  40.5 | 71.78
Neigh   | 0          | 0          | 0          |   0.0 |  0.00
Comm    | 0.047012   | 0.50587    | 1.4995     |  58.9 | 16.25
Output  | 0          | 0          | 0          |   0.0 |  0.00
Modify  | 3.1787e-05 | 0.0043889  | 0.0093203  |   3.1 |  0.14
Other   |            | 0.3682     |            |       | 11.83

Nlocal:        2776.45 ave        3956 max           0 min
Histogram: 8 4 4 0 4 12 8 0 30 34
Nghost:        3879.17 ave        5424 max         232 min
Histogram: 8 0 8 0 16 0 8 8 16 40
Neighs:        79213.5 ave      115246 max           0 min
Histogram: 8 4 4 0 10 6 8 8 24 32

Total # of neighbors = 8238201
Ave neighs/atom = 28.530467
Neighbor list builds = 0
Dangerous builds = 0
unfix              hold

variable           new_x         delete
variable           new_y         delete
variable           new_z         delete
variable           dot           delete
variable           new_x         equal     ${x0}-${x_0}
variable           new_x         equal     -0.124628334411337-${x_0}
variable           new_x         equal     -0.124628334411337-0.594465684860909
variable           new_y         equal     ${y0}-${y_0}
variable           new_y         equal     -0.362589180914919-${y_0}
variable           new_y         equal     -0.362589180914919--1.01611246115032
variable           new_z         equal     ${z0}-${z_0}
variable           new_z         equal     -12.3359452417033-${z_0}
variable           new_z         equal     -12.3359452417033--12.9485390464171

variable           dot      equal     ${fx}*${new_x}+${fy}*${new_y}+${fz}*${new_z}
variable           dot      equal     -1.87852748958708e-06*${new_x}+${fy}*${new_y}+${fz}*${new_z}
variable           dot      equal     -1.87852748958708e-06*-0.719094019272246+${fy}*${new_y}+${fz}*${new_z}
variable           dot      equal     -1.87852748958708e-06*-0.719094019272246+-7.62921950082866e-08*${new_y}+${fz}*${new_z}
variable           dot      equal     -1.87852748958708e-06*-0.719094019272246+-7.62921950082866e-08*0.653523280235401+${fz}*${new_z}
variable           dot      equal     -1.87852748958708e-06*-0.719094019272246+-7.62921950082866e-08*0.653523280235401+-2.12385455735296e-06*${new_z}
variable           dot      equal     -1.87852748958708e-06*-0.719094019272246+-7.62921950082866e-08*0.653523280235401+-2.12385455735296e-06*0.6125938047138
print              "The dot product: ${dot}"
The dot product: -8.09866851919119e-11

if "(${dot} >= 0.0) && (${dot} < 1.0e-10)" then "jump TaR.in relaxation" elif "(${dot} < 0.0) && (${dot} > -1.0e-10)" "jump TaR.in relaxation" elif "(${iteration} == ${iter_tot}) && (${seed} < 319)" "print 'The iteration number is maximum!'" "next seed" "variable iteration delete" "jump TaR.in loop" elif "(${iteration} == ${iter_tot}) && (${seed} == 319)" "quit" else    "next iteration"    "jump TaR.in iteration"
jump TaR.in relaxation
#full relaxation
min_style          cg
minimize           1.0e-30 1.0e-30 10000 10000
Per MPI rank memory allocation (min/avg/max) = 5.441 | 5.816 | 6.074 Mbytes
Step PotEng KinEng TotEng v_fx v_fy v_fz 
   11359   -1152448.5            0   -1152448.5   0.43072076  -0.39322931  -0.36684645 
   11781   -1152448.6            0   -1152448.6 -1.1247012e-07 2.7990014e-07 -1.4137012e-06 
Loop time of 4.91113 on 104 procs for 422 steps with 288751 atoms

99.9% CPU use with 104 MPI tasks x 1 OpenMP threads

Minimization stats:
  Stopping criterion = energy tolerance
  Energy initial, next-to-last, final = 
     -1152448.49277256  -1152448.55525044  -1152448.55525044
  Force two-norm initial, final = 0.68900366 1.7091192e-05
  Force max component initial, final = 0.43072076 1.4137012e-06
  Final line search alpha, max atom move = 1.0000000 1.4137012e-06
  Iterations, force evaluations = 422 844

MPI task timing breakdown:
Section |  min time  |  avg time  |  max time  |%varavg| %total
---------------------------------------------------------------
Pair    | 1.2674     | 3.5438     | 4.6194     |  50.9 | 72.16
Neigh   | 2.2294e-05 | 0.0058613  | 0.0085172  |   3.2 |  0.12
Comm    | 0.071921   | 0.80372    | 2.4089     |  74.4 | 16.37
Output  | 0          | 0          | 0          |   0.0 |  0.00
Modify  | 4.7358e-05 | 0.0045323  | 0.011566   |   4.2 |  0.09
Other   |            | 0.5532     |            |       | 11.26

Nlocal:        2776.45 ave        3956 max           0 min
Histogram: 8 4 4 0 4 12 8 0 30 34
Nghost:        3879.17 ave        5424 max         232 min
Histogram: 8 0 8 0 16 0 8 8 16 40
Neighs:        79213.6 ave      115253 max           0 min
Histogram: 8 4 4 0 10 6 8 8 24 32

Total # of neighbors = 8238210
Ave neighs/atom = 28.530499
Neighbor list builds = 2
Dangerous builds = 1
print              "${x0} ${y0} ${z0}" append info.dat screen no

if "${seed} < 319" then "next seed" "variable iteration delete" "jump TaR.in loop" else "quit"
quit
