LAMMPS (29 Oct 2020)
OMP_NUM_THREADS environment is not set. Defaulting to 1 thread. (../comm.cpp:94)
  using 1 OpenMP thread(s) per MPI task
OMP_NUM_THREADS environment is not set. Defaulting to 1 thread. (../comm.cpp:94)
  using 1 OpenMP thread(s) per MPI task
Reading data file ...
  orthogonal box = (-122.39241 -121.13707 -37.090501) to (122.39241 121.13707 37.090501)
  13 by 4 by 2 MPI processor grid
  reading atoms ...
  288751 atoms
  read_data CPU = 0.388 seconds
199981 atoms in group inner
88770 atoms in group outer
1 atoms in group carbon
Neighbor list info ...
  update every 1 steps, delay 0 steps, check yes
  max neighbors/atom: 2000, page size: 100000
  master list distance cutoff = 5.6
  ghost atom cutoff = 5.6
  binsize = 2.8, bins = 88 87 27
  1 neighbor lists, perpetual/occasional/extra = 1 0 0
  (1) pair eam/alloy, perpetual
      attributes: half, newton on
      pair build: half/bin/atomonly/newton
      stencil: half/bin/3d/newton
      bin: standard
Setting up cg style minimization ...
  Unit style    : metal
  Current step  : 0
Per MPI rank memory allocation (min/avg/max) = 5.441 | 5.816 | 6.074 Mbytes
Step v_fx v_fy v_fz PotEng KinEng TotEng 
       0    13.608598   -22.003262    7.7638997   -1152441.9            0   -1152441.9 
     245 1.0064465e-05 -1.3851635e-05 1.7688576e-05     -1152449            0     -1152449 
Loop time of 2.94674 on 104 procs for 245 steps with 288751 atoms

99.8% CPU use with 104 MPI tasks x 1 OpenMP threads

Minimization stats:
  Stopping criterion = energy tolerance
  Energy initial, next-to-last, final = 
     -1152441.92707797  -1152448.97218772  -1152448.97218772
  Force two-norm initial, final = 44.449069 0.00010601667
  Force max component initial, final = 28.885124 2.5628025e-05
  Final line search alpha, max atom move = 1.0000000 2.5628025e-05
  Iterations, force evaluations = 245 486

MPI task timing breakdown:
Section |  min time  |  avg time  |  max time  |%varavg| %total
---------------------------------------------------------------
Pair    | 0.78366    | 2.0629     | 2.6773     |  37.8 | 70.00
Neigh   | 9.3372e-05 | 0.026324   | 0.03807    |   6.7 |  0.89
Comm    | 0.049465   | 0.47648    | 1.387      |  55.3 | 16.17
Output  | 0          | 0          | 0          |   0.0 |  0.00
Modify  | 2.7995e-05 | 0.0026344  | 0.0067721  |   3.2 |  0.09
Other   |            | 0.3784     |            |       | 12.84

Nlocal:        2776.45 ave        3947 max           0 min
Histogram: 8 4 4 0 4 12 8 0 28 36
Nghost:        3879.08 ave        5425 max         232 min
Histogram: 8 0 8 0 16 0 8 8 16 40
Neighs:        79213.6 ave      114990 max           0 min
Histogram: 8 4 4 0 10 6 8 8 23 33

Total # of neighbors = 8238210
Ave neighs/atom = 28.530499
Neighbor list builds = 9
Dangerous builds = 0
Setting atom values ...
  1 settings made for x
  1 settings made for y
  1 settings made for z
Setting up cg style minimization ...
  Unit style    : metal
  Current step  : 245
Per MPI rank memory allocation (min/avg/max) = 5.441 | 5.816 | 6.074 Mbytes
Step PotEng KinEng TotEng v_fx v_fy v_fz 
     245     -1152449            0     -1152449  -0.02016077  0.013758683 -0.0063391475 
     381     -1152449            0     -1152449 1.1286835e-05 -4.4399157e-06 1.3966131e-05 
Loop time of 1.6332 on 104 procs for 136 steps with 288751 atoms

99.9% CPU use with 104 MPI tasks x 1 OpenMP threads

Minimization stats:
  Stopping criterion = energy tolerance
  Energy initial, next-to-last, final = 
     -1152448.97146825  -1152448.97193531  -1152448.97193531
  Force two-norm initial, final = 0.097716319 8.3704718e-05
  Force max component initial, final = 0.047714005 1.5776642e-05
  Final line search alpha, max atom move = 1.0000000 1.5776642e-05
  Iterations, force evaluations = 136 272

MPI task timing breakdown:
Section |  min time  |  avg time  |  max time  |%varavg| %total
---------------------------------------------------------------
Pair    | 0.41845    | 1.1568     | 1.5133     |  29.0 | 70.83
Neigh   | 0          | 0          | 0          |   0.0 |  0.00
Comm    | 0.031138   | 0.27055    | 0.78749    |  41.3 | 16.57
Output  | 0          | 0          | 0          |   0.0 |  0.00
Modify  | 1.7747e-05 | 0.0022618  | 0.0052152  |   2.3 |  0.14
Other   |            | 0.2036     |            |       | 12.46

Nlocal:        2776.45 ave        3946 max           0 min
Histogram: 8 4 4 0 4 12 8 1 26 37
Nghost:        3879.13 ave        5426 max         232 min
Histogram: 8 0 8 0 16 0 8 8 16 40
Neighs:        79213.5 ave      114963 max           0 min
Histogram: 8 4 4 0 10 6 8 8 23 33

Total # of neighbors = 8238205
Ave neighs/atom = 28.530481
Neighbor list builds = 0
Dangerous builds = 0
Setting atom values ...
  1 settings made for x
  1 settings made for y
  1 settings made for z
Setting up cg style minimization ...
  Unit style    : metal
  Current step  : 381
Per MPI rank memory allocation (min/avg/max) = 5.441 | 5.816 | 6.074 Mbytes
Step PotEng KinEng TotEng v_fx v_fy v_fz 
     381     -1152449            0     -1152449 -0.038524923  0.027973917 -0.0097651431 
     553     -1152449            0     -1152449 -2.9707664e-05 1.2037444e-05 -2.5668482e-05 
Loop time of 2.07327 on 104 procs for 172 steps with 288751 atoms

99.8% CPU use with 104 MPI tasks x 1 OpenMP threads

Minimization stats:
  Stopping criterion = energy tolerance
  Energy initial, next-to-last, final = 
     -1152448.96913597  -1152448.97060733  -1152448.97060733
  Force two-norm initial, final = 0.16546187 0.00020691434
  Force max component initial, final = 0.077511923 2.9707664e-05
  Final line search alpha, max atom move = 1.0000000 2.9707664e-05
  Iterations, force evaluations = 172 344

MPI task timing breakdown:
Section |  min time  |  avg time  |  max time  |%varavg| %total
---------------------------------------------------------------
Pair    | 0.52296    | 1.4531     | 1.9031     |  32.8 | 70.08
Neigh   | 0          | 0          | 0          |   0.0 |  0.00
Comm    | 0.032549   | 0.33689    | 0.98654    |  46.3 | 16.25
Output  | 0          | 0          | 0          |   0.0 |  0.00
Modify  | 2.1231e-05 | 0.0028533  | 0.0061041  |   2.5 |  0.14
Other   |            | 0.2805     |            |       | 13.53

Nlocal:        2776.45 ave        3946 max           0 min
Histogram: 8 4 4 0 4 12 8 1 27 36
Nghost:        3879.13 ave        5426 max         232 min
Histogram: 8 0 8 0 16 0 8 8 16 40
Neighs:        79213.5 ave      114963 max           0 min
Histogram: 8 4 4 0 10 6 8 8 23 33

Total # of neighbors = 8238205
Ave neighs/atom = 28.530481
Neighbor list builds = 0
Dangerous builds = 0
The dot product: -3.34838253032077e-07
Setting atom values ...
  1 settings made for x
  1 settings made for y
  1 settings made for z
Setting up cg style minimization ...
  Unit style    : metal
  Current step  : 553
Per MPI rank memory allocation (min/avg/max) = 5.441 | 5.816 | 6.074 Mbytes
Step PotEng KinEng TotEng v_fx v_fy v_fz 
     553     -1152449            0     -1152449 -0.044155905  0.044658048  0.003141784 
     744     -1152449            0     -1152449 3.3161984e-05 -1.561632e-05 1.1421486e-05 
Loop time of 2.24407 on 104 procs for 191 steps with 288751 atoms

99.9% CPU use with 104 MPI tasks x 1 OpenMP threads

Minimization stats:
  Stopping criterion = energy tolerance
  Energy initial, next-to-last, final = 
     -1152448.96671638  -1152448.96884994  -1152448.96884994
  Force two-norm initial, final = 0.1811761 0.00022326859
  Force max component initial, final = 0.062443109 6.4651158e-05
  Final line search alpha, max atom move = 1.0000000 6.4651158e-05
  Iterations, force evaluations = 191 382

MPI task timing breakdown:
Section |  min time  |  avg time  |  max time  |%varavg| %total
---------------------------------------------------------------
Pair    | 0.58261    | 1.6166     | 2.0951     |  34.3 | 72.04
Neigh   | 0          | 0          | 0          |   0.0 |  0.00
Comm    | 0.046332   | 0.36904    | 1.0921     |  50.0 | 16.45
Output  | 0          | 0          | 0          |   0.0 |  0.00
Modify  | 2.4965e-05 | 0.0031606  | 0.0068141  |   2.7 |  0.14
Other   |            | 0.2552     |            |       | 11.37

Nlocal:        2776.45 ave        3945 max           0 min
Histogram: 8 4 4 0 4 12 8 1 27 36
Nghost:        3879.12 ave        5425 max         232 min
Histogram: 8 0 8 0 16 0 8 8 16 40
Neighs:        79213.5 ave      114922 max           0 min
Histogram: 8 4 4 0 10 6 8 8 22 34

Total # of neighbors = 8238202
Ave neighs/atom = 28.530471
Neighbor list builds = 0
Dangerous builds = 0
The dot product: 3.40701357739344e-07
Setting atom values ...
  1 settings made for x
  1 settings made for y
  1 settings made for z
Setting up cg style minimization ...
  Unit style    : metal
  Current step  : 744
Per MPI rank memory allocation (min/avg/max) = 5.441 | 5.816 | 6.074 Mbytes
Step PotEng KinEng TotEng v_fx v_fy v_fz 
     744     -1152449            0     -1152449 -0.044360555  0.050818474 0.0045045064 
     907     -1152449            0     -1152449 -1.5114022e-05 1.0693507e-05 -9.1514079e-07 
Loop time of 1.92095 on 104 procs for 163 steps with 288751 atoms

99.9% CPU use with 104 MPI tasks x 1 OpenMP threads

Minimization stats:
  Stopping criterion = energy tolerance
  Energy initial, next-to-last, final = 
     -1152448.96430189  -1152448.96739594  -1152448.96739594
  Force two-norm initial, final = 0.19418236 0.00014871882
  Force max component initial, final = 0.073314654 3.1936141e-05
  Final line search alpha, max atom move = 1.0000000 3.1936141e-05
  Iterations, force evaluations = 163 326

MPI task timing breakdown:
Section |  min time  |  avg time  |  max time  |%varavg| %total
---------------------------------------------------------------
Pair    | 0.49435    | 1.3721     | 1.7903     |  31.7 | 71.43
Neigh   | 0          | 0          | 0          |   0.0 |  0.00
Comm    | 0.030521   | 0.31375    | 0.92464    |  45.6 | 16.33
Output  | 0          | 0          | 0          |   0.0 |  0.00
Modify  | 2.0194e-05 | 0.0026924  | 0.0057421  |   2.4 |  0.14
Other   |            | 0.2324     |            |       | 12.10

Nlocal:        2776.45 ave        3947 max           0 min
Histogram: 8 4 4 0 4 12 8 1 27 36
Nghost:        3879.12 ave        5425 max         232 min
Histogram: 8 0 8 0 16 0 8 8 16 40
Neighs:        79213.5 ave      114967 max           0 min
Histogram: 8 4 4 0 10 6 8 8 24 32

Total # of neighbors = 8238205
Ave neighs/atom = 28.530481
Neighbor list builds = 0
Dangerous builds = 0
The dot product: -2.20851745961247e-07
Setting atom values ...
  1 settings made for x
  1 settings made for y
  1 settings made for z
Setting up cg style minimization ...
  Unit style    : metal
  Current step  : 907
Per MPI rank memory allocation (min/avg/max) = 5.441 | 5.816 | 6.074 Mbytes
Step PotEng KinEng TotEng v_fx v_fy v_fz 
     907     -1152449            0     -1152449 -0.042593283  0.041605429 0.0078954065 
    1000     -1152449            0     -1152449 0.0001217369 -0.00013592202 -2.6480563e-05 
    1048     -1152449            0     -1152449 2.0271961e-06 -1.8250596e-06 -3.400752e-07 
Loop time of 1.67077 on 104 procs for 141 steps with 288751 atoms

99.9% CPU use with 104 MPI tasks x 1 OpenMP threads

Minimization stats:
  Stopping criterion = energy tolerance
  Energy initial, next-to-last, final = 
     -1152448.96305953  -1152448.96570727  -1152448.96570727
  Force two-norm initial, final = 0.20467669 0.00018440469
  Force max component initial, final = 0.085261673 4.9362641e-05
  Final line search alpha, max atom move = 1.0000000 4.9362641e-05
  Iterations, force evaluations = 141 282

MPI task timing breakdown:
Section |  min time  |  avg time  |  max time  |%varavg| %total
---------------------------------------------------------------
Pair    | 0.43116    | 1.1931     | 1.5525     |  29.4 | 71.41
Neigh   | 0          | 0          | 0          |   0.0 |  0.00
Comm    | 0.029769   | 0.27245    | 0.80182    |  42.7 | 16.31
Output  | 0.00024818 | 0.0002562  | 0.00039314 |   0.0 |  0.02
Modify  | 1.7468e-05 | 0.0023451  | 0.0057663  |   2.3 |  0.14
Other   |            | 0.2026     |            |       | 12.13

Nlocal:        2776.45 ave        3949 max           0 min
Histogram: 8 4 4 0 4 12 8 1 27 36
Nghost:        3879.10 ave        5425 max         232 min
Histogram: 8 0 8 0 16 0 8 8 16 40
Neighs:        79213.6 ave      115062 max           0 min
Histogram: 8 4 4 0 10 6 8 8 24 32

Total # of neighbors = 8238216
Ave neighs/atom = 28.530519
Neighbor list builds = 0
Dangerous builds = 0
The dot product: 1.69955334378525e-08
Setting atom values ...
  1 settings made for x
  1 settings made for y
  1 settings made for z
Setting up cg style minimization ...
  Unit style    : metal
  Current step  : 1048
Per MPI rank memory allocation (min/avg/max) = 5.441 | 5.816 | 6.074 Mbytes
Step PotEng KinEng TotEng v_fx v_fy v_fz 
    1048     -1152449            0     -1152449 -0.050230097  0.035762467  0.010621768 
    1215     -1152449            0     -1152449 3.8597222e-06 -3.101533e-06 -8.9213192e-07 
Loop time of 1.95132 on 104 procs for 167 steps with 288751 atoms

99.9% CPU use with 104 MPI tasks x 1 OpenMP threads

Minimization stats:
  Stopping criterion = energy tolerance
  Energy initial, next-to-last, final = 
     -1152448.96116835  -1152448.96430261  -1152448.96430261
  Force two-norm initial, final = 0.21060094 0.00026825559
  Force max component initial, final = 0.090410676 6.2119560e-05
  Final line search alpha, max atom move = 1.0000000 6.2119560e-05
  Iterations, force evaluations = 167 334

MPI task timing breakdown:
Section |  min time  |  avg time  |  max time  |%varavg| %total
---------------------------------------------------------------
Pair    | 0.50656    | 1.4042     | 1.8335     |  32.1 | 71.96
Neigh   | 0          | 0          | 0          |   0.0 |  0.00
Comm    | 0.029543   | 0.31767    | 0.94546    |  46.9 | 16.28
Output  | 0          | 0          | 0          |   0.0 |  0.00
Modify  | 2.1856e-05 | 0.0027608  | 0.005893   |   2.5 |  0.14
Other   |            | 0.2267     |            |       | 11.62

Nlocal:        2776.45 ave        3950 max           0 min
Histogram: 8 4 4 0 4 12 8 1 27 36
Nghost:        3879.11 ave        5425 max         232 min
Histogram: 8 0 8 0 16 0 8 8 16 40
Neighs:        79213.6 ave      115101 max           0 min
Histogram: 8 4 4 0 10 6 8 8 24 32

Total # of neighbors = 8238213
Ave neighs/atom = 28.530509
Neighbor list builds = 0
Dangerous builds = 0
The dot product: 3.26961463448731e-08
Setting atom values ...
  1 settings made for x
  1 settings made for y
  1 settings made for z
Setting up cg style minimization ...
  Unit style    : metal
  Current step  : 1215
Per MPI rank memory allocation (min/avg/max) = 5.441 | 5.816 | 6.074 Mbytes
Step PotEng KinEng TotEng v_fx v_fy v_fz 
    1215     -1152449            0     -1152449 -0.053131679  0.033765099  0.013920516 
    1392     -1152449            0     -1152449 2.319163e-05 -3.2717483e-05 -1.0446008e-05 
Loop time of 2.11097 on 104 procs for 177 steps with 288751 atoms

99.9% CPU use with 104 MPI tasks x 1 OpenMP threads

Minimization stats:
  Stopping criterion = energy tolerance
  Energy initial, next-to-last, final = 
      -1152448.9601379  -1152448.96271846  -1152448.96271846
  Force two-norm initial, final = 0.21597118 0.00019172627
  Force max component initial, final = 0.095079979 5.8368538e-05
  Final line search alpha, max atom move = 1.0000000 5.8368538e-05
  Iterations, force evaluations = 177 354

MPI task timing breakdown:
Section |  min time  |  avg time  |  max time  |%varavg| %total
---------------------------------------------------------------
Pair    | 0.54024    | 1.4979     | 1.947      |  32.8 | 70.96
Neigh   | 0          | 0          | 0          |   0.0 |  0.00
Comm    | 0.036565   | 0.34396    | 1.0184     |  47.9 | 16.29
Output  | 0          | 0          | 0          |   0.0 |  0.00
Modify  | 2.1735e-05 | 0.0029279  | 0.0063361  |   2.6 |  0.14
Other   |            | 0.2661     |            |       | 12.61

Nlocal:        2776.45 ave        3952 max           0 min
Histogram: 8 4 4 0 4 12 8 0 30 34
Nghost:        3879.11 ave        5425 max         232 min
Histogram: 8 0 8 0 16 0 8 8 16 40
Neighs:        79213.6 ave      115184 max           0 min
Histogram: 8 4 4 0 10 6 8 8 24 32

Total # of neighbors = 8238212
Ave neighs/atom = 28.530506
Neighbor list builds = 0
Dangerous builds = 0
The dot product: -1.05591734969034e-07
Setting atom values ...
  1 settings made for x
  1 settings made for y
  1 settings made for z
Setting up cg style minimization ...
  Unit style    : metal
  Current step  : 1392
Per MPI rank memory allocation (min/avg/max) = 5.441 | 5.816 | 6.074 Mbytes
Step PotEng KinEng TotEng v_fx v_fy v_fz 
    1392     -1152449            0     -1152449 -0.060068637  0.038762935  0.014491124 
    1566     -1152449            0     -1152449 -2.2087345e-05 3.0471263e-05 9.0617968e-06 
Loop time of 2.0429 on 104 procs for 174 steps with 288751 atoms

99.9% CPU use with 104 MPI tasks x 1 OpenMP threads

Minimization stats:
  Stopping criterion = energy tolerance
  Energy initial, next-to-last, final = 
     -1152448.95800064  -1152448.96047769  -1152448.96047769
  Force two-norm initial, final = 0.21743386 0.00023748827
  Force max component initial, final = 0.094328564 4.3529474e-05
  Final line search alpha, max atom move = 1.0000000 4.3529474e-05
  Iterations, force evaluations = 174 348

MPI task timing breakdown:
Section |  min time  |  avg time  |  max time  |%varavg| %total
---------------------------------------------------------------
Pair    | 0.52559    | 1.4639     | 1.913      |  32.8 | 71.66
Neigh   | 0          | 0          | 0          |   0.0 |  0.00
Comm    | 0.030855   | 0.33331    | 0.98546    |  47.5 | 16.32
Output  | 0          | 0          | 0          |   0.0 |  0.00
Modify  | 2.1105e-05 | 0.0028835  | 0.0061305  |   2.5 |  0.14
Other   |            | 0.2428     |            |       | 11.89

Nlocal:        2776.45 ave        3953 max           0 min
Histogram: 8 4 4 0 4 12 8 0 30 34
Nghost:        3879.11 ave        5425 max         232 min
Histogram: 8 0 8 0 16 0 8 8 16 40
Neighs:        79213.6 ave      115221 max           0 min
Histogram: 8 4 4 0 10 6 8 8 24 32

Total # of neighbors = 8238210
Ave neighs/atom = 28.530499
Neighbor list builds = 0
Dangerous builds = 0
The dot product: 2.12738953037482e-07
Setting atom values ...
  1 settings made for x
  1 settings made for y
  1 settings made for z
Setting up cg style minimization ...
  Unit style    : metal
  Current step  : 1566
Per MPI rank memory allocation (min/avg/max) = 5.441 | 5.816 | 6.074 Mbytes
Step PotEng KinEng TotEng v_fx v_fy v_fz 
    1566     -1152449            0     -1152449 -0.065584578  0.043184408  0.013167604 
    1721     -1152449            0     -1152449 -9.3889795e-06 1.333443e-05 3.3608846e-06 
Loop time of 1.82392 on 104 procs for 155 steps with 288751 atoms

99.9% CPU use with 104 MPI tasks x 1 OpenMP threads

Minimization stats:
  Stopping criterion = energy tolerance
  Energy initial, next-to-last, final = 
     -1152448.95519635   -1152448.9578093   -1152448.9578093
  Force two-norm initial, final = 0.2172131 0.00015376606
  Force max component initial, final = 0.091902847 3.0181523e-05
  Final line search alpha, max atom move = 1.0000000 3.0181523e-05
  Iterations, force evaluations = 155 310

MPI task timing breakdown:
Section |  min time  |  avg time  |  max time  |%varavg| %total
---------------------------------------------------------------
Pair    | 0.47128    | 1.3113     | 1.7065     |  30.9 | 71.90
Neigh   | 0          | 0          | 0          |   0.0 |  0.00
Comm    | 0.029533   | 0.29863    | 0.87709    |  45.0 | 16.37
Output  | 0          | 0          | 0          |   0.0 |  0.00
Modify  | 1.8982e-05 | 0.0025677  | 0.0055364  |   2.4 |  0.14
Other   |            | 0.2114     |            |       | 11.59

Nlocal:        2776.45 ave        3954 max           0 min
Histogram: 8 4 4 0 4 12 8 0 30 34
Nghost:        3879.05 ave        5424 max         232 min
Histogram: 8 0 8 0 16 0 8 8 16 40
Neighs:        79213.5 ave      115254 max           0 min
Histogram: 8 4 4 0 10 6 8 8 24 32

Total # of neighbors = 8238205
Ave neighs/atom = 28.530481
Neighbor list builds = 0
Dangerous builds = 0
The dot product: 7.58157257977252e-08
Setting atom values ...
  1 settings made for x
  1 settings made for y
  1 settings made for z
Setting up cg style minimization ...
  Unit style    : metal
  Current step  : 1721
Per MPI rank memory allocation (min/avg/max) = 5.441 | 5.816 | 6.074 Mbytes
Step PotEng KinEng TotEng v_fx v_fy v_fz 
    1721     -1152449            0     -1152449   -0.0685539    0.0446828  0.011380264 
    1875     -1152449            0     -1152449 1.782351e-05 -2.6903328e-05 -5.8800728e-06 
Loop time of 1.81352 on 104 procs for 154 steps with 288751 atoms

99.9% CPU use with 104 MPI tasks x 1 OpenMP threads

Minimization stats:
  Stopping criterion = energy tolerance
  Energy initial, next-to-last, final = 
     -1152448.95221554  -1152448.95451127  -1152448.95451127
  Force two-norm initial, final = 0.21623554 0.00029750406
  Force max component initial, final = 0.089864119 6.4287136e-05
  Final line search alpha, max atom move = 1.0000000 6.4287136e-05
  Iterations, force evaluations = 154 308

MPI task timing breakdown:
Section |  min time  |  avg time  |  max time  |%varavg| %total
---------------------------------------------------------------
Pair    | 0.46767    | 1.2995     | 1.7004     |  30.9 | 71.66
Neigh   | 0          | 0          | 0          |   0.0 |  0.00
Comm    | 0.028304   | 0.29685    | 0.87848    |  44.8 | 16.37
Output  | 0          | 0          | 0          |   0.0 |  0.00
Modify  | 1.8946e-05 | 0.0025479  | 0.0055176  |   2.4 |  0.14
Other   |            | 0.2146     |            |       | 11.84

Nlocal:        2776.45 ave        3956 max           0 min
Histogram: 8 4 4 0 4 12 8 0 30 34
Nghost:        3879.02 ave        5424 max         232 min
Histogram: 8 0 8 0 16 0 8 8 16 40
Neighs:        79213.5 ave      115315 max           0 min
Histogram: 8 4 4 0 10 6 8 8 24 32

Total # of neighbors = 8238202
Ave neighs/atom = 28.530471
Neighbor list builds = 0
Dangerous builds = 0
The dot product: -2.1398436615936e-07
Setting atom values ...
  1 settings made for x
  1 settings made for y
  1 settings made for z
Setting up cg style minimization ...
  Unit style    : metal
  Current step  : 1875
Per MPI rank memory allocation (min/avg/max) = 5.441 | 5.816 | 6.074 Mbytes
Step PotEng KinEng TotEng v_fx v_fy v_fz 
    1875   -1152448.9            0   -1152448.9 -0.072741253  0.048007217 0.0091240883 
    2000     -1152449            0     -1152449 -1.9026843e-06 6.5114148e-06 1.1317288e-06 
    2042     -1152449            0     -1152449 -7.1741273e-06 1.0756103e-05 1.9230451e-06 
Loop time of 1.95732 on 104 procs for 167 steps with 288751 atoms

99.9% CPU use with 104 MPI tasks x 1 OpenMP threads

Minimization stats:
  Stopping criterion = energy tolerance
  Energy initial, next-to-last, final = 
     -1152448.94818653  -1152448.95042174  -1152448.95042174
  Force two-norm initial, final = 0.21521849 0.00017361559
  Force max component initial, final = 0.086767939 3.0837600e-05
  Final line search alpha, max atom move = 1.0000000 3.0837600e-05
  Iterations, force evaluations = 167 334

MPI task timing breakdown:
Section |  min time  |  avg time  |  max time  |%varavg| %total
---------------------------------------------------------------
Pair    | 0.50642    | 1.4086     | 1.841      |  32.0 | 71.96
Neigh   | 0          | 0          | 0          |   0.0 |  0.00
Comm    | 0.02966    | 0.32539    | 0.95813    |  46.5 | 16.62
Output  | 0.00027333 | 0.00028215 | 0.00042052 |   0.0 |  0.01
Modify  | 2.1431e-05 | 0.0027627  | 0.0059386  |   2.5 |  0.14
Other   |            | 0.2203     |            |       | 11.26

Nlocal:        2776.45 ave        3957 max           0 min
Histogram: 8 4 4 0 4 12 8 2 28 34
Nghost:        3879.03 ave        5424 max         232 min
Histogram: 8 0 8 0 16 0 8 8 16 40
Neighs:        79213.5 ave      115338 max           0 min
Histogram: 8 4 4 0 10 6 8 8 24 32

Total # of neighbors = 8238200
Ave neighs/atom = 28.530464
Neighbor list builds = 0
Dangerous builds = 0
The dot product: 1.03095287987847e-07
Setting atom values ...
  1 settings made for x
  1 settings made for y
  1 settings made for z
Setting up cg style minimization ...
  Unit style    : metal
  Current step  : 2042
Per MPI rank memory allocation (min/avg/max) = 5.441 | 5.816 | 6.074 Mbytes
Step PotEng KinEng TotEng v_fx v_fy v_fz 
    2042   -1152448.9            0   -1152448.9 -0.075804758  0.051013775  0.006249812 
    2205   -1152448.9            0   -1152448.9 2.0014724e-05 -2.5040287e-05 -3.3359413e-06 
Loop time of 1.92428 on 104 procs for 163 steps with 288751 atoms

99.9% CPU use with 104 MPI tasks x 1 OpenMP threads

Minimization stats:
  Stopping criterion = energy tolerance
  Energy initial, next-to-last, final = 
     -1152448.94339333  -1152448.94559314  -1152448.94559314
  Force two-norm initial, final = 0.21356915 0.00018857966
  Force max component initial, final = 0.083133986 3.1370325e-05
  Final line search alpha, max atom move = 1.0000000 3.1370325e-05
  Iterations, force evaluations = 163 326

MPI task timing breakdown:
Section |  min time  |  avg time  |  max time  |%varavg| %total
---------------------------------------------------------------
Pair    | 0.49331    | 1.3707     | 1.796      |  31.7 | 71.23
Neigh   | 0          | 0          | 0          |   0.0 |  0.00
Comm    | 0.03019    | 0.31261    | 0.91915    |  45.9 | 16.25
Output  | 0          | 0          | 0          |   0.0 |  0.00
Modify  | 2.0377e-05 | 0.0026901  | 0.0057402  |   2.4 |  0.14
Other   |            | 0.2383     |            |       | 12.38

Nlocal:        2776.45 ave        3957 max           0 min
Histogram: 8 4 4 0 4 12 8 2 28 34
Nghost:        3879.03 ave        5424 max         232 min
Histogram: 8 0 8 0 16 0 8 8 16 40
Neighs:        79213.5 ave      115345 max           0 min
Histogram: 8 4 4 0 10 6 8 8 24 32

Total # of neighbors = 8238209
Ave neighs/atom = 28.530495
Neighbor list builds = 0
Dangerous builds = 0
The dot product: -2.7501352199783e-07
Setting atom values ...
  1 settings made for x
  1 settings made for y
  1 settings made for z
Setting up cg style minimization ...
  Unit style    : metal
  Current step  : 2205
Per MPI rank memory allocation (min/avg/max) = 5.441 | 5.816 | 6.074 Mbytes
Step PotEng KinEng TotEng v_fx v_fy v_fz 
    2205   -1152448.9            0   -1152448.9 -0.077639901  0.052670004  0.003071575 
    2392   -1152448.9            0   -1152448.9 -1.2702192e-05 1.6562765e-05 1.474511e-06 
Loop time of 2.18373 on 104 procs for 187 steps with 288751 atoms

99.9% CPU use with 104 MPI tasks x 1 OpenMP threads

Minimization stats:
  Stopping criterion = energy tolerance
  Energy initial, next-to-last, final = 
     -1152448.93789593  -1152448.93997616  -1152448.93997616
  Force two-norm initial, final = 0.21130844 9.2529276e-05
  Force max component initial, final = 0.079064651 2.9643475e-05
  Final line search alpha, max atom move = 1.0000000 2.9643475e-05
  Iterations, force evaluations = 187 374

MPI task timing breakdown:
Section |  min time  |  avg time  |  max time  |%varavg| %total
---------------------------------------------------------------
Pair    | 0.56549    | 1.5752     | 2.0537     |  33.9 | 72.13
Neigh   | 0          | 0          | 0          |   0.0 |  0.00
Comm    | 0.036581   | 0.35753    | 1.0592     |  49.5 | 16.37
Output  | 0          | 0          | 0          |   0.0 |  0.00
Modify  | 2.2806e-05 | 0.0030819  | 0.0065926  |   2.6 |  0.14
Other   |            | 0.2479     |            |       | 11.35

Nlocal:        2776.45 ave        3957 max           0 min
Histogram: 8 4 4 0 4 12 8 2 28 34
Nghost:        3879.03 ave        5424 max         232 min
Histogram: 8 0 8 0 16 0 8 8 16 40
Neighs:        79213.5 ave      115343 max           0 min
Histogram: 8 4 4 0 10 6 8 8 24 32

Total # of neighbors = 8238203
Ave neighs/atom = 28.530474
Neighbor list builds = 0
Dangerous builds = 0
The dot product: 1.56584002817017e-07
Setting atom values ...
  1 settings made for x
  1 settings made for y
  1 settings made for z
Setting up cg style minimization ...
  Unit style    : metal
  Current step  : 2392
Per MPI rank memory allocation (min/avg/max) = 5.441 | 5.816 | 6.074 Mbytes
Step PotEng KinEng TotEng v_fx v_fy v_fz 
    2392   -1152448.9            0   -1152448.9 -0.078491656  0.052069315 8.7238287e-05 
    2549   -1152448.9            0   -1152448.9 -4.2504141e-05 5.4181524e-05 2.7945474e-06 
Loop time of 1.82744 on 104 procs for 157 steps with 288751 atoms

99.9% CPU use with 104 MPI tasks x 1 OpenMP threads

Minimization stats:
  Stopping criterion = energy tolerance
  Energy initial, next-to-last, final = 
     -1152448.93152679  -1152448.93351987  -1152448.93351987
  Force two-norm initial, final = 0.20901907 0.00020642242
  Force max component initial, final = 0.078491656 5.8058858e-05
  Final line search alpha, max atom move = 1.0000000 5.8058858e-05
  Iterations, force evaluations = 157 314

MPI task timing breakdown:
Section |  min time  |  avg time  |  max time  |%varavg| %total
---------------------------------------------------------------
Pair    | 0.47512    | 1.3191     | 1.7203     |  31.1 | 72.18
Neigh   | 0          | 0          | 0          |   0.0 |  0.00
Comm    | 0.027201   | 0.29866    | 0.89156    |  45.5 | 16.34
Output  | 0          | 0          | 0          |   0.0 |  0.00
Modify  | 1.9334e-05 | 0.0025935  | 0.005638   |   2.4 |  0.14
Other   |            | 0.2071     |            |       | 11.33

Nlocal:        2776.45 ave        3958 max           0 min
Histogram: 8 4 4 0 4 12 8 2 28 34
Nghost:        3879.03 ave        5424 max         232 min
Histogram: 8 0 8 0 16 0 8 8 16 40
Neighs:        79213.5 ave      115374 max           0 min
Histogram: 8 4 4 0 10 6 8 8 24 32

Total # of neighbors = 8238201
Ave neighs/atom = 28.530467
Neighbor list builds = 0
Dangerous builds = 0
The dot product: 4.6317419797459e-07
Setting atom values ...
  1 settings made for x
  1 settings made for y
  1 settings made for z
Setting up cg style minimization ...
  Unit style    : metal
  Current step  : 2549
Per MPI rank memory allocation (min/avg/max) = 5.441 | 5.816 | 6.074 Mbytes
Step PotEng KinEng TotEng v_fx v_fy v_fz 
    2549   -1152448.9            0   -1152448.9 -0.073979274  0.053778759 -0.0018239291 
    2720   -1152448.9            0   -1152448.9 -7.8874999e-06 1.1868667e-05 3.8308961e-07 
Loop time of 2.0017 on 104 procs for 171 steps with 288751 atoms

99.9% CPU use with 104 MPI tasks x 1 OpenMP threads

Minimization stats:
  Stopping criterion = energy tolerance
  Energy initial, next-to-last, final = 
     -1152448.92419225   -1152448.9260908   -1152448.9260908
  Force two-norm initial, final = 0.2055452 0.00011485155
  Force max component initial, final = 0.078615982 2.3673936e-05
  Final line search alpha, max atom move = 1.0000000 2.3673936e-05
  Iterations, force evaluations = 171 342

MPI task timing breakdown:
Section |  min time  |  avg time  |  max time  |%varavg| %total
---------------------------------------------------------------
Pair    | 0.5194     | 1.4445     | 1.8732     |  32.4 | 72.16
Neigh   | 0          | 0          | 0          |   0.0 |  0.00
Comm    | 0.034504   | 0.32731    | 0.97637    |  47.7 | 16.35
Output  | 0          | 0          | 0          |   0.0 |  0.00
Modify  | 2.1013e-05 | 0.0028244  | 0.0060487  |   2.5 |  0.14
Other   |            | 0.227      |            |       | 11.34

Nlocal:        2776.45 ave        3958 max           0 min
Histogram: 8 4 4 0 4 12 8 2 28 34
Nghost:        3879.03 ave        5424 max         232 min
Histogram: 8 0 8 0 16 0 8 8 16 40
Neighs:        79213.5 ave      115374 max           0 min
Histogram: 8 4 4 0 10 6 8 8 24 32

Total # of neighbors = 8238199
Ave neighs/atom = 28.530461
Neighbor list builds = 0
Dangerous builds = 0
The dot product: 8.0824260887233e-08
Setting atom values ...
  1 settings made for x
  1 settings made for y
  1 settings made for z
Setting up cg style minimization ...
  Unit style    : metal
  Current step  : 2720
Per MPI rank memory allocation (min/avg/max) = 5.441 | 5.816 | 6.074 Mbytes
Step PotEng KinEng TotEng v_fx v_fy v_fz 
    2720   -1152448.9            0   -1152448.9 -0.064871054  0.058181372 -0.0023472164 
    2878   -1152448.9            0   -1152448.9 -5.4463525e-06 3.9504293e-06 -2.748738e-07 
Loop time of 1.85003 on 104 procs for 158 steps with 288751 atoms

99.9% CPU use with 104 MPI tasks x 1 OpenMP threads

Minimization stats:
  Stopping criterion = energy tolerance
  Energy initial, next-to-last, final = 
     -1152448.91556579   -1152448.9174371   -1152448.9174371
  Force two-norm initial, final = 0.20228159 0.00017536975
  Force max component initial, final = 0.080485407 1.3821899e-05
  Final line search alpha, max atom move = 1.0000000 1.3821899e-05
  Iterations, force evaluations = 158 316

MPI task timing breakdown:
Section |  min time  |  avg time  |  max time  |%varavg| %total
---------------------------------------------------------------
Pair    | 0.47791    | 1.3283     | 1.7364     |  31.2 | 71.80
Neigh   | 0          | 0          | 0          |   0.0 |  0.00
Comm    | 0.028455   | 0.3015     | 0.893      |  45.4 | 16.30
Output  | 0          | 0          | 0          |   0.0 |  0.00
Modify  | 1.9709e-05 | 0.0026109  | 0.0055688  |   2.4 |  0.14
Other   |            | 0.2176     |            |       | 11.76

Nlocal:        2776.45 ave        3958 max           0 min
Histogram: 8 4 4 0 4 12 8 2 28 34
Nghost:        3879.09 ave        5424 max         232 min
Histogram: 8 0 8 0 16 0 8 8 16 40
Neighs:        79213.4 ave      115374 max           0 min
Histogram: 8 4 4 0 10 6 8 8 24 32

Total # of neighbors = 8238198
Ave neighs/atom = 28.530457
Neighbor list builds = 0
Dangerous builds = 0
The dot product: 3.27546251020396e-08
Setting atom values ...
  1 settings made for x
  1 settings made for y
  1 settings made for z
Setting up cg style minimization ...
  Unit style    : metal
  Current step  : 2878
Per MPI rank memory allocation (min/avg/max) = 5.441 | 5.816 | 6.074 Mbytes
Step PotEng KinEng TotEng v_fx v_fy v_fz 
    2878   -1152448.9            0   -1152448.9 -0.059363647  0.060916037 -0.002826891 
    3000   -1152448.9            0   -1152448.9 0.00013233047 -0.00014178421 5.8703603e-06 
    3023   -1152448.9            0   -1152448.9 7.8059698e-06 -9.7186783e-06 2.4879002e-07 
Loop time of 1.70389 on 104 procs for 145 steps with 288751 atoms

99.9% CPU use with 104 MPI tasks x 1 OpenMP threads

Minimization stats:
  Stopping criterion = energy tolerance
  Energy initial, next-to-last, final = 
      -1152448.9055691  -1152448.90743347  -1152448.90743347
  Force two-norm initial, final = 0.20062441 0.00029282115
  Force max component initial, final = 0.082269581 1.8804822e-05
  Final line search alpha, max atom move = 1.0000000 1.8804822e-05
  Iterations, force evaluations = 145 290

MPI task timing breakdown:
Section |  min time  |  avg time  |  max time  |%varavg| %total
---------------------------------------------------------------
Pair    | 0.43977    | 1.2258     | 1.5957     |  29.9 | 71.94
Neigh   | 0          | 0          | 0          |   0.0 |  0.00
Comm    | 0.031519   | 0.27896    | 0.8313     |  43.9 | 16.37
Output  | 0.00014941 | 0.00015736 | 0.00029015 |   0.0 |  0.01
Modify  | 1.8874e-05 | 0.0023961  | 0.0051596  |   2.3 |  0.14
Other   |            | 0.1966     |            |       | 11.54

Nlocal:        2776.45 ave        3958 max           0 min
Histogram: 8 4 4 0 4 12 8 2 28 34
Nghost:        3879.15 ave        5425 max         232 min
Histogram: 8 0 8 0 16 0 8 8 16 40
Neighs:        79213.4 ave      115378 max           0 min
Histogram: 8 4 4 0 10 6 8 8 24 32

Total # of neighbors = 8238198
Ave neighs/atom = 28.530457
Neighbor list builds = 0
Dangerous builds = 0
The dot product: -5.24674252784297e-08
Setting atom values ...
  1 settings made for x
  1 settings made for y
  1 settings made for z
Setting up cg style minimization ...
  Unit style    : metal
  Current step  : 3023
Per MPI rank memory allocation (min/avg/max) = 5.441 | 5.816 | 6.074 Mbytes
Step PotEng KinEng TotEng v_fx v_fy v_fz 
    3023   -1152448.9            0   -1152448.9 -0.056043254  0.062329812 -0.0033509224 
    3179   -1152448.9            0   -1152448.9 -2.6578868e-05 3.0685776e-05 -1.5202461e-06 
Loop time of 1.8461 on 104 procs for 156 steps with 288751 atoms

99.9% CPU use with 104 MPI tasks x 1 OpenMP threads

Minimization stats:
  Stopping criterion = energy tolerance
  Energy initial, next-to-last, final = 
      -1152448.8942097  -1152448.89607885  -1152448.89607885
  Force two-norm initial, final = 0.19957553 0.00021551135
  Force max component initial, final = 0.0839819 3.2301675e-05
  Final line search alpha, max atom move = 1.0000000 3.2301675e-05
  Iterations, force evaluations = 156 312

MPI task timing breakdown:
Section |  min time  |  avg time  |  max time  |%varavg| %total
---------------------------------------------------------------
Pair    | 0.47251    | 1.3165     | 1.7292     |  31.1 | 71.31
Neigh   | 0          | 0          | 0          |   0.0 |  0.00
Comm    | 0.027634   | 0.30203    | 0.88617    |  44.8 | 16.36
Output  | 0          | 0          | 0          |   0.0 |  0.00
Modify  | 1.8956e-05 | 0.0025808  | 0.0055159  |   2.4 |  0.14
Other   |            | 0.225      |            |       | 12.19

Nlocal:        2776.45 ave        3959 max           0 min
Histogram: 8 4 4 0 4 12 8 2 28 34
Nghost:        3879.15 ave        5425 max         232 min
Histogram: 8 0 8 0 16 0 8 8 16 40
Neighs:        79213.5 ave      115405 max           0 min
Histogram: 8 4 4 0 10 6 8 8 24 32

Total # of neighbors = 8238200
Ave neighs/atom = 28.530464
Neighbor list builds = 0
Dangerous builds = 0
The dot product: 1.264267842728e-07
Setting atom values ...
  1 settings made for x
  1 settings made for y
  1 settings made for z
Setting up cg style minimization ...
  Unit style    : metal
  Current step  : 3179
Per MPI rank memory allocation (min/avg/max) = 5.441 | 5.816 | 6.074 Mbytes
Step PotEng KinEng TotEng v_fx v_fy v_fz 
    3179   -1152448.9            0   -1152448.9 -0.053173967  0.062573235 -0.0036820606 
    3364   -1152448.9            0   -1152448.9 3.0030205e-05 -3.3940414e-05 2.1535608e-06 
Loop time of 2.24684 on 104 procs for 185 steps with 288751 atoms

99.8% CPU use with 104 MPI tasks x 1 OpenMP threads

Minimization stats:
  Stopping criterion = energy tolerance
  Energy initial, next-to-last, final = 
     -1152448.88152821  -1152448.88346997  -1152448.88346997
  Force two-norm initial, final = 0.19876174 0.00016878755
  Force max component initial, final = 0.085447185 5.5506870e-05
  Final line search alpha, max atom move = 1.0000000 5.5506870e-05
  Iterations, force evaluations = 185 370

MPI task timing breakdown:
Section |  min time  |  avg time  |  max time  |%varavg| %total
---------------------------------------------------------------
Pair    | 0.58508    | 1.5771     | 2.0469     |  33.2 | 70.19
Neigh   | 0          | 0          | 0          |   0.0 |  0.00
Comm    | 0.056421   | 0.36787    | 1.0685     |  48.0 | 16.37
Output  | 0          | 0          | 0          |   0.0 |  0.00
Modify  | 2.4405e-05 | 0.0030622  | 0.0066478  |   2.6 |  0.14
Other   |            | 0.2989     |            |       | 13.30

Nlocal:        2776.45 ave        3959 max           0 min
Histogram: 8 4 4 0 4 12 8 2 28 34
Nghost:        3879.15 ave        5425 max         232 min
Histogram: 8 0 8 0 16 0 8 8 16 40
Neighs:        79213.4 ave      115404 max           0 min
Histogram: 8 4 4 0 10 6 8 8 24 32

Total # of neighbors = 8238198
Ave neighs/atom = 28.530457
Neighbor list builds = 0
Dangerous builds = 0
The dot product: 5.93427161359192e-08
Setting atom values ...
  1 settings made for x
  1 settings made for y
  1 settings made for z
Setting up cg style minimization ...
  Unit style    : metal
  Current step  : 3364
Per MPI rank memory allocation (min/avg/max) = 5.441 | 5.816 | 6.074 Mbytes
Step PotEng KinEng TotEng v_fx v_fy v_fz 
    3364   -1152448.9            0   -1152448.9 -0.048470906  0.057283504 -0.0030856708 
    3510   -1152448.9            0   -1152448.9 2.2406387e-06 1.4569399e-06 3.6902761e-07 
Loop time of 1.75028 on 104 procs for 146 steps with 288751 atoms

99.8% CPU use with 104 MPI tasks x 1 OpenMP threads

Minimization stats:
  Stopping criterion = energy tolerance
  Energy initial, next-to-last, final = 
     -1152448.86786379  -1152448.87050475  -1152448.87050475
  Force two-norm initial, final = 0.19670001 0.00015580617
  Force max component initial, final = 0.085757238 4.3284246e-05
  Final line search alpha, max atom move = 1.0000000 4.3284246e-05
  Iterations, force evaluations = 146 292

MPI task timing breakdown:
Section |  min time  |  avg time  |  max time  |%varavg| %total
---------------------------------------------------------------
Pair    | 0.44416    | 1.235      | 1.6157     |  30.2 | 70.56
Neigh   | 0          | 0          | 0          |   0.0 |  0.00
Comm    | 0.02621    | 0.28642    | 0.83356    |  43.0 | 16.36
Output  | 0          | 0          | 0          |   0.0 |  0.00
Modify  | 1.8127e-05 | 0.0024154  | 0.0051981  |   2.3 |  0.14
Other   |            | 0.2264     |            |       | 12.93

Nlocal:        2776.45 ave        3959 max           0 min
Histogram: 8 4 4 0 4 12 8 2 28 34
Nghost:        3879.15 ave        5425 max         232 min
Histogram: 8 0 8 0 16 0 8 8 16 40
Neighs:        79213.4 ave      115404 max           0 min
Histogram: 8 4 4 0 10 6 8 8 24 32

Total # of neighbors = 8238193
Ave neighs/atom = 28.530440
Neighbor list builds = 0
Dangerous builds = 0
The dot product: 1.4131892334113e-10
Setting atom values ...
  1 settings made for x
  1 settings made for y
  1 settings made for z
Setting up cg style minimization ...
  Unit style    : metal
  Current step  : 3510
Per MPI rank memory allocation (min/avg/max) = 5.441 | 5.816 | 6.074 Mbytes
Step PotEng KinEng TotEng v_fx v_fy v_fz 
    3510   -1152448.9            0   -1152448.9  -0.03584429  0.035269902 -0.00039646781 
    3720   -1152448.9            0   -1152448.9 -8.1021858e-06 9.3131711e-06 3.6307769e-08 
Loop time of 2.43722 on 104 procs for 210 steps with 288751 atoms

99.9% CPU use with 104 MPI tasks x 1 OpenMP threads

Minimization stats:
  Stopping criterion = energy tolerance
  Energy initial, next-to-last, final = 
     -1152448.85469708  -1152448.85691888  -1152448.85691888
  Force two-norm initial, final = 0.19289418 9.8546785e-05
  Force max component initial, final = 0.081522294 1.0695149e-05
  Final line search alpha, max atom move = 1.0000000 1.0695149e-05
  Iterations, force evaluations = 210 420

MPI task timing breakdown:
Section |  min time  |  avg time  |  max time  |%varavg| %total
---------------------------------------------------------------
Pair    | 0.6358     | 1.7656     | 2.2951     |  35.8 | 72.44
Neigh   | 0          | 0          | 0          |   0.0 |  0.00
Comm    | 0.040051   | 0.39753    | 1.1841     |  52.7 | 16.31
Output  | 0          | 0          | 0          |   0.0 |  0.00
Modify  | 2.5555e-05 | 0.0034687  | 0.0074315  |   2.8 |  0.14
Other   |            | 0.2706     |            |       | 11.10

Nlocal:        2776.45 ave        3960 max           0 min
Histogram: 8 4 4 0 4 12 8 2 28 34
Nghost:        3879.15 ave        5425 max         232 min
Histogram: 8 0 8 0 16 0 8 8 16 40
Neighs:        79213.4 ave      115433 max           0 min
Histogram: 8 4 4 0 10 6 8 8 24 32

Total # of neighbors = 8238193
Ave neighs/atom = 28.530440
Neighbor list builds = 0
Dangerous builds = 0
The dot product: -1.63644839616513e-07
Setting atom values ...
  1 settings made for x
  1 settings made for y
  1 settings made for z
Setting up cg style minimization ...
  Unit style    : metal
  Current step  : 3720
Per MPI rank memory allocation (min/avg/max) = 5.441 | 5.816 | 6.074 Mbytes
Step PotEng KinEng TotEng v_fx v_fy v_fz 
    3720   -1152448.8            0   -1152448.8 -0.038578827  0.043419452 0.0019204243 
    3949   -1152448.8            0   -1152448.8 3.5013409e-07 -5.327577e-07 -3.3965978e-08 
Loop time of 2.66149 on 104 procs for 229 steps with 288751 atoms

99.9% CPU use with 104 MPI tasks x 1 OpenMP threads

Minimization stats:
  Stopping criterion = energy tolerance
  Energy initial, next-to-last, final = 
     -1152448.83983269  -1152448.84190551  -1152448.84190551
  Force two-norm initial, final = 0.19775159 3.6690670e-05
  Force max component initial, final = 0.078903428 5.0685791e-06
  Final line search alpha, max atom move = 1.0000000 5.0685791e-06
  Iterations, force evaluations = 229 458

MPI task timing breakdown:
Section |  min time  |  avg time  |  max time  |%varavg| %total
---------------------------------------------------------------
Pair    | 0.69105    | 1.9209     | 2.505      |  37.5 | 72.18
Neigh   | 0          | 0          | 0          |   0.0 |  0.00
Comm    | 0.039754   | 0.43496    | 1.2973     |  55.0 | 16.34
Output  | 0          | 0          | 0          |   0.0 |  0.00
Modify  | 2.7861e-05 | 0.003784   | 0.0082853  |   2.9 |  0.14
Other   |            | 0.3018     |            |       | 11.34

Nlocal:        2776.45 ave        3960 max           0 min
Histogram: 8 4 4 0 4 12 8 2 28 34
Nghost:        3879.11 ave        5424 max         232 min
Histogram: 8 0 8 0 16 0 8 8 16 40
Neighs:        79213.4 ave      115433 max           0 min
Histogram: 8 4 4 0 10 6 8 8 24 32

Total # of neighbors = 8238191
Ave neighs/atom = 28.530433
Neighbor list builds = 0
Dangerous builds = 0
The dot product: 6.93681061470863e-09
Setting atom values ...
  1 settings made for x
  1 settings made for y
  1 settings made for z
Setting up cg style minimization ...
  Unit style    : metal
  Current step  : 3949
Per MPI rank memory allocation (min/avg/max) = 5.441 | 5.816 | 6.074 Mbytes
Step PotEng KinEng TotEng v_fx v_fy v_fz 
    3949   -1152448.8            0   -1152448.8 -0.037951103  0.048040612 0.0040602292 
    4000   -1152448.8            0   -1152448.8 5.5086938e-05 -0.00011474821 -1.2083589e-05 
    4157   -1152448.8            0   -1152448.8 -1.2234373e-05 1.6144848e-05 1.3993706e-06 
Loop time of 2.42738 on 104 procs for 208 steps with 288751 atoms

99.9% CPU use with 104 MPI tasks x 1 OpenMP threads

Minimization stats:
  Stopping criterion = energy tolerance
  Energy initial, next-to-last, final = 
     -1152448.82349352  -1152448.82563272  -1152448.82563272
  Force two-norm initial, final = 0.20075244 9.1936484e-05
  Force max component initial, final = 0.078642213 1.6144848e-05
  Final line search alpha, max atom move = 1.0000000 1.6144848e-05
  Iterations, force evaluations = 208 416

MPI task timing breakdown:
Section |  min time  |  avg time  |  max time  |%varavg| %total
---------------------------------------------------------------
Pair    | 0.62864    | 1.7547     | 2.2874     |  35.8 | 72.29
Neigh   | 0          | 0          | 0          |   0.0 |  0.00
Comm    | 0.038454   | 0.40033    | 1.1855     |  52.2 | 16.49
Output  | 0.00016132 | 0.00016385 | 0.00029303 |   0.0 |  0.01
Modify  | 2.6729e-05 | 0.0034314  | 0.0074103  |   2.8 |  0.14
Other   |            | 0.2687     |            |       | 11.07

Nlocal:        2776.45 ave        3960 max           0 min
Histogram: 8 4 4 0 4 12 8 2 28 34
Nghost:        3879.03 ave        5423 max         232 min
Histogram: 8 0 8 0 16 0 8 8 16 40
Neighs:        79213.4 ave      115429 max           0 min
Histogram: 8 4 4 0 10 6 8 8 24 32

Total # of neighbors = 8238190
Ave neighs/atom = 28.530429
Neighbor list builds = 0
Dangerous builds = 0
The dot product: -1.76378850092738e-07
Setting atom values ...
  1 settings made for x
  1 settings made for y
  1 settings made for z
Setting up cg style minimization ...
  Unit style    : metal
  Current step  : 4157
Per MPI rank memory allocation (min/avg/max) = 5.441 | 5.816 | 6.074 Mbytes
Step PotEng KinEng TotEng v_fx v_fy v_fz 
    4157   -1152448.8            0   -1152448.8 -0.039545615   0.05236567 0.0057944423 
    4324   -1152448.8            0   -1152448.8 3.6200383e-05 -4.0468635e-05 -4.1792477e-06 
Loop time of 1.9561 on 104 procs for 167 steps with 288751 atoms

99.9% CPU use with 104 MPI tasks x 1 OpenMP threads

Minimization stats:
  Stopping criterion = energy tolerance
  Energy initial, next-to-last, final = 
     -1152448.80591656  -1152448.80792822  -1152448.80792822
  Force two-norm initial, final = 0.20368749 0.00018739723
  Force max component initial, final = 0.081567802 6.0051829e-05
  Final line search alpha, max atom move = 1.0000000 6.0051829e-05
  Iterations, force evaluations = 167 334

MPI task timing breakdown:
Section |  min time  |  avg time  |  max time  |%varavg| %total
---------------------------------------------------------------
Pair    | 0.50642    | 1.4029     | 1.823      |  31.9 | 71.72
Neigh   | 0          | 0          | 0          |   0.0 |  0.00
Comm    | 0.030019   | 0.31628    | 0.95304    |  47.1 | 16.17
Output  | 0          | 0          | 0          |   0.0 |  0.00
Modify  | 2.0873e-05 | 0.0027583  | 0.005864   |   2.5 |  0.14
Other   |            | 0.2341     |            |       | 11.97

Nlocal:        2776.45 ave        3960 max           0 min
Histogram: 8 4 4 0 4 12 8 2 28 34
Nghost:        3879.07 ave        5423 max         232 min
Histogram: 8 0 8 0 16 0 8 8 16 40
Neighs:        79213.4 ave      115432 max           0 min
Histogram: 8 4 4 0 10 6 8 8 24 32

Total # of neighbors = 8238191
Ave neighs/atom = 28.530433
Neighbor list builds = 0
Dangerous builds = 0
The dot product: 2.5564344240017e-07
Setting atom values ...
  1 settings made for x
  1 settings made for y
  1 settings made for z
Setting up cg style minimization ...
  Unit style    : metal
  Current step  : 4324
Per MPI rank memory allocation (min/avg/max) = 5.441 | 5.816 | 6.074 Mbytes
Step PotEng KinEng TotEng v_fx v_fy v_fz 
    4324   -1152448.8            0   -1152448.8 -0.043841944  0.058884195 0.0072550908 
    4497   -1152448.8            0   -1152448.8 2.3267551e-05 -2.8713802e-05 -3.4532203e-06 
Loop time of 2.04044 on 104 procs for 173 steps with 288751 atoms

99.9% CPU use with 104 MPI tasks x 1 OpenMP threads

Minimization stats:
  Stopping criterion = energy tolerance
  Energy initial, next-to-last, final = 
     -1152448.78682652  -1152448.78878669  -1152448.78878669
  Force two-norm initial, final = 0.20694094 0.00012410462
  Force max component initial, final = 0.08295225 4.6449135e-05
  Final line search alpha, max atom move = 1.0000000 4.6449135e-05
  Iterations, force evaluations = 173 346

MPI task timing breakdown:
Section |  min time  |  avg time  |  max time  |%varavg| %total
---------------------------------------------------------------
Pair    | 0.52475    | 1.4654     | 1.9037     |  32.7 | 71.82
Neigh   | 0          | 0          | 0          |   0.0 |  0.00
Comm    | 0.038174   | 0.3344     | 0.98517    |  47.5 | 16.39
Output  | 0          | 0          | 0          |   0.0 |  0.00
Modify  | 2.1152e-05 | 0.0028645  | 0.006098   |   2.5 |  0.14
Other   |            | 0.2378     |            |       | 11.66

Nlocal:        2776.45 ave        3960 max           0 min
Histogram: 8 4 4 0 4 12 8 2 28 34
Nghost:        3879.03 ave        5423 max         232 min
Histogram: 8 0 8 0 16 0 8 8 16 40
Neighs:        79213.4 ave      115432 max           0 min
Histogram: 8 4 4 0 10 6 8 8 24 32

Total # of neighbors = 8238190
Ave neighs/atom = 28.530429
Neighbor list builds = 0
Dangerous builds = 0
The dot product: 4.28923172649151e-08
Setting atom values ...
  1 settings made for x
  1 settings made for y
  1 settings made for z
Setting up cg style minimization ...
  Unit style    : metal
  Current step  : 4497
Per MPI rank memory allocation (min/avg/max) = 5.441 | 5.816 | 6.074 Mbytes
Step PotEng KinEng TotEng v_fx v_fy v_fz 
    4497   -1152448.8            0   -1152448.8 -0.047331937   0.06479253 0.0081978049 
    4655   -1152448.8            0   -1152448.8 -1.6977204e-05 1.8990485e-05 2.275996e-06 
Loop time of 1.85253 on 104 procs for 158 steps with 288751 atoms

99.9% CPU use with 104 MPI tasks x 1 OpenMP threads

Minimization stats:
  Stopping criterion = energy tolerance
  Energy initial, next-to-last, final = 
     -1152448.76624553  -1152448.76812781  -1152448.76812781
  Force two-norm initial, final = 0.20936075 0.00014170482
  Force max component initial, final = 0.08326578 1.8990485e-05
  Final line search alpha, max atom move = 1.0000000 1.8990485e-05
  Iterations, force evaluations = 158 316

MPI task timing breakdown:
Section |  min time  |  avg time  |  max time  |%varavg| %total
---------------------------------------------------------------
Pair    | 0.4777     | 1.3287     | 1.7382     |  31.3 | 71.72
Neigh   | 0          | 0          | 0          |   0.0 |  0.00
Comm    | 0.02796    | 0.30364    | 0.89714    |  45.1 | 16.39
Output  | 0          | 0          | 0          |   0.0 |  0.00
Modify  | 2.0406e-05 | 0.0026118  | 0.005574   |   2.4 |  0.14
Other   |            | 0.2176     |            |       | 11.75

Nlocal:        2776.45 ave        3960 max           0 min
Histogram: 8 4 4 0 4 12 8 2 28 34
Nghost:        3879.07 ave        5424 max         232 min
Histogram: 8 0 8 0 16 0 8 8 16 40
Neighs:        79213.3 ave      115432 max           0 min
Histogram: 8 4 4 0 10 6 8 8 24 32

Total # of neighbors = 8238188
Ave neighs/atom = 28.530422
Neighbor list builds = 0
Dangerous builds = 0
The dot product: 4.96271084029634e-08
Setting atom values ...
  1 settings made for x
  1 settings made for y
  1 settings made for z
Setting up cg style minimization ...
  Unit style    : metal
  Current step  : 4655
Per MPI rank memory allocation (min/avg/max) = 5.441 | 5.816 | 6.074 Mbytes
Step PotEng KinEng TotEng v_fx v_fy v_fz 
    4655   -1152448.7            0   -1152448.7 -0.050161437  0.070341999 0.0085843091 
    4801   -1152448.7            0   -1152448.7 8.1171348e-06 -1.3911766e-06 1.1517471e-07 
Loop time of 1.70762 on 104 procs for 146 steps with 288751 atoms

99.9% CPU use with 104 MPI tasks x 1 OpenMP threads

Minimization stats:
  Stopping criterion = energy tolerance
  Energy initial, next-to-last, final = 
     -1152448.74408396  -1152448.74594147  -1152448.74594147
  Force two-norm initial, final = 0.21104292 0.00021471212
  Force max component initial, final = 0.082598206 1.5719235e-05
  Final line search alpha, max atom move = 1.0000000 1.5719235e-05
  Iterations, force evaluations = 146 292

MPI task timing breakdown:
Section |  min time  |  avg time  |  max time  |%varavg| %total
---------------------------------------------------------------
Pair    | 0.44383    | 1.2348     | 1.5989     |  29.9 | 72.31
Neigh   | 0          | 0          | 0          |   0.0 |  0.00
Comm    | 0.026166   | 0.28141    | 0.83344    |  43.9 | 16.48
Output  | 0          | 0          | 0          |   0.0 |  0.00
Modify  | 1.8202e-05 | 0.0024167  | 0.0051976  |   2.3 |  0.14
Other   |            | 0.189      |            |       | 11.07

Nlocal:        2776.45 ave        3960 max           0 min
Histogram: 8 4 4 0 4 12 8 2 28 34
Nghost:        3879.09 ave        5424 max         232 min
Histogram: 8 0 8 0 16 0 8 8 16 40
Neighs:        79213.3 ave      115432 max           0 min
Histogram: 8 4 4 0 10 6 8 8 24 32

Total # of neighbors = 8238187
Ave neighs/atom = 28.530419
Neighbor list builds = 0
Dangerous builds = 0
The dot product: -1.0794091661991e-08
Setting atom values ...
  1 settings made for x
  1 settings made for y
  1 settings made for z
Setting up cg style minimization ...
  Unit style    : metal
  Current step  : 4801
Per MPI rank memory allocation (min/avg/max) = 5.441 | 5.816 | 6.074 Mbytes
Step PotEng KinEng TotEng v_fx v_fy v_fz 
    4801   -1152448.7            0   -1152448.7 -0.052033616  0.073475509 0.0082689965 
    5000   -1152448.7            0   -1152448.7 4.5716913e-06 -4.6397315e-06 -4.6954729e-07 
    5037   -1152448.7            0   -1152448.7  3.28702e-06 -4.1113281e-06 -4.473305e-07 
Loop time of 2.76504 on 104 procs for 236 steps with 288751 atoms

99.9% CPU use with 104 MPI tasks x 1 OpenMP threads

Minimization stats:
  Stopping criterion = energy tolerance
  Energy initial, next-to-last, final = 
     -1152448.72040357  -1152448.72223787  -1152448.72223787
  Force two-norm initial, final = 0.21133035 1.5208644e-05
  Force max component initial, final = 0.081198487 5.9493177e-06
  Final line search alpha, max atom move = 1.0000000 5.9493177e-06
  Iterations, force evaluations = 236 472

MPI task timing breakdown:
Section |  min time  |  avg time  |  max time  |%varavg| %total
---------------------------------------------------------------
Pair    | 0.71328    | 1.9876     | 2.6067     |  38.3 | 71.88
Neigh   | 0          | 0          | 0          |   0.0 |  0.00
Comm    | 0.040864   | 0.45234    | 1.3399     |  55.8 | 16.36
Output  | 0.00017189 | 0.00017922 | 0.00034748 |   0.0 |  0.01
Modify  | 2.8724e-05 | 0.0038916  | 0.0083669  |   2.9 |  0.14
Other   |            | 0.3211     |            |       | 11.61

Nlocal:        2776.45 ave        3960 max           0 min
Histogram: 8 4 4 0 4 12 8 2 28 34
Nghost:        3879.09 ave        5424 max         232 min
Histogram: 8 0 8 0 16 0 8 8 16 40
Neighs:        79213.3 ave      115431 max           0 min
Histogram: 8 4 4 0 10 6 8 8 24 32

Total # of neighbors = 8238185
Ave neighs/atom = 28.530412
Neighbor list builds = 0
Dangerous builds = 0
The dot product: -2.83286804222276e-08
Setting atom values ...
  1 settings made for x
  1 settings made for y
  1 settings made for z
Setting up cg style minimization ...
  Unit style    : metal
  Current step  : 5037
Per MPI rank memory allocation (min/avg/max) = 5.441 | 5.816 | 6.074 Mbytes
Step PotEng KinEng TotEng v_fx v_fy v_fz 
    5037   -1152448.7            0   -1152448.7 -0.053643057  0.074679725  0.007464759 
    5185   -1152448.7            0   -1152448.7 4.8268719e-05 -6.3270066e-05 -6.2033228e-06 
Loop time of 1.73872 on 104 procs for 148 steps with 288751 atoms

99.9% CPU use with 104 MPI tasks x 1 OpenMP threads

Minimization stats:
  Stopping criterion = energy tolerance
  Energy initial, next-to-last, final = 
     -1152448.69522956  -1152448.69703362  -1152448.69703362
  Force two-norm initial, final = 0.21070858 0.00022340169
  Force max component initial, final = 0.079354864 6.3270066e-05
  Final line search alpha, max atom move = 1.0000000 6.3270066e-05
  Iterations, force evaluations = 148 296

MPI task timing breakdown:
Section |  min time  |  avg time  |  max time  |%varavg| %total
---------------------------------------------------------------
Pair    | 0.44715    | 1.249      | 1.637      |  30.2 | 71.84
Neigh   | 0          | 0          | 0          |   0.0 |  0.00
Comm    | 0.025627   | 0.28732    | 0.85021    |  44.0 | 16.53
Output  | 0          | 0          | 0          |   0.0 |  0.00
Modify  | 1.8462e-05 | 0.0024512  | 0.005263   |   2.3 |  0.14
Other   |            | 0.1999     |            |       | 11.50

Nlocal:        2776.45 ave        3960 max           0 min
Histogram: 8 4 4 0 4 12 8 2 28 34
Nghost:        3879.09 ave        5424 max         232 min
Histogram: 8 0 8 0 16 0 8 8 16 40
Neighs:        79213.3 ave      115431 max           0 min
Histogram: 8 4 4 0 10 6 8 8 24 32

Total # of neighbors = 8238188
Ave neighs/atom = 28.530422
Neighbor list builds = 0
Dangerous builds = 0
The dot product: -5.01141290829356e-07
Setting atom values ...
  1 settings made for x
  1 settings made for y
  1 settings made for z
Setting up cg style minimization ...
  Unit style    : metal
  Current step  : 5185
Per MPI rank memory allocation (min/avg/max) = 5.441 | 5.816 | 6.074 Mbytes
Step PotEng KinEng TotEng v_fx v_fy v_fz 
    5185   -1152448.7            0   -1152448.7 -0.055344552  0.074194528 0.0063177178 
    5335   -1152448.7            0   -1152448.7 4.2251624e-05 -5.3514832e-05 -4.4504283e-06 
Loop time of 1.74544 on 104 procs for 150 steps with 288751 atoms

99.9% CPU use with 104 MPI tasks x 1 OpenMP threads

Minimization stats:
  Stopping criterion = energy tolerance
  Energy initial, next-to-last, final = 
     -1152448.66858524  -1152448.67035206  -1152448.67035206
  Force two-norm initial, final = 0.20940144 0.00021353959
  Force max component initial, final = 0.080626438 7.1797256e-05
  Final line search alpha, max atom move = 1.0000000 7.1797256e-05
  Iterations, force evaluations = 150 300

MPI task timing breakdown:
Section |  min time  |  avg time  |  max time  |%varavg| %total
---------------------------------------------------------------
Pair    | 0.454      | 1.2628     | 1.6456     |  30.4 | 72.35
Neigh   | 0          | 0          | 0          |   0.0 |  0.00
Comm    | 0.026602   | 0.28539    | 0.85373    |  44.7 | 16.35
Output  | 0          | 0          | 0          |   0.0 |  0.00
Modify  | 1.8562e-05 | 0.0024823  | 0.0053525  |   2.4 |  0.14
Other   |            | 0.1948     |            |       | 11.16

Nlocal:        2776.45 ave        3960 max           0 min
Histogram: 8 4 4 0 4 12 8 2 28 34
Nghost:        3879.12 ave        5424 max         232 min
Histogram: 8 0 8 0 16 0 8 8 16 40
Neighs:        79213.3 ave      115431 max           0 min
Histogram: 8 4 4 0 10 6 8 8 24 32

Total # of neighbors = 8238186
Ave neighs/atom = 28.530415
Neighbor list builds = 0
Dangerous builds = 0
The dot product: -4.66386394922752e-07
Setting atom values ...
  1 settings made for x
  1 settings made for y
  1 settings made for z
Setting up cg style minimization ...
  Unit style    : metal
  Current step  : 5335
Per MPI rank memory allocation (min/avg/max) = 5.441 | 5.816 | 6.074 Mbytes
Step PotEng KinEng TotEng v_fx v_fy v_fz 
    5335   -1152448.6            0   -1152448.6 -0.057435691  0.072190131 0.0049335332 
    5488   -1152448.6            0   -1152448.6 3.2832349e-05 -4.3268082e-05 -3.0350905e-06 
Loop time of 1.78606 on 104 procs for 153 steps with 288751 atoms

99.9% CPU use with 104 MPI tasks x 1 OpenMP threads

Minimization stats:
  Stopping criterion = energy tolerance
  Energy initial, next-to-last, final = 
       -1152448.640498  -1152448.64222237  -1152448.64222237
  Force two-norm initial, final = 0.20775525 0.00018994862
  Force max component initial, final = 0.082490972 6.0166727e-05
  Final line search alpha, max atom move = 1.0000000 6.0166727e-05
  Iterations, force evaluations = 153 306

MPI task timing breakdown:
Section |  min time  |  avg time  |  max time  |%varavg| %total
---------------------------------------------------------------
Pair    | 0.46324    | 1.2899     | 1.685      |  30.6 | 72.22
Neigh   | 0          | 0          | 0          |   0.0 |  0.00
Comm    | 0.027001   | 0.29308    | 0.86966    |  45.0 | 16.41
Output  | 0          | 0          | 0          |   0.0 |  0.00
Modify  | 1.9046e-05 | 0.0025257  | 0.005483   |   2.4 |  0.14
Other   |            | 0.2006     |            |       | 11.23

Nlocal:        2776.45 ave        3960 max           0 min
Histogram: 8 4 4 0 4 12 8 2 28 34
Nghost:        3879.12 ave        5424 max         232 min
Histogram: 8 0 8 0 16 0 8 8 16 40
Neighs:        79213.3 ave      115424 max           0 min
Histogram: 8 4 4 0 10 6 8 8 24 32

Total # of neighbors = 8238188
Ave neighs/atom = 28.530422
Neighbor list builds = 0
Dangerous builds = 0
The dot product: -3.98767130878282e-07
Setting atom values ...
  1 settings made for x
  1 settings made for y
  1 settings made for z
Setting up cg style minimization ...
  Unit style    : metal
  Current step  : 5488
Per MPI rank memory allocation (min/avg/max) = 5.441 | 5.816 | 6.074 Mbytes
Step PotEng KinEng TotEng v_fx v_fy v_fz 
    5488   -1152448.6            0   -1152448.6 -0.060170805  0.068492701 0.0033497428 
    5748   -1152448.6            0   -1152448.6 8.9761188e-07 -1.2031537e-06 -6.7348147e-08 
Loop time of 3.01995 on 104 procs for 260 steps with 288751 atoms

99.9% CPU use with 104 MPI tasks x 1 OpenMP threads

Minimization stats:
  Stopping criterion = energy tolerance
  Energy initial, next-to-last, final = 
     -1152448.61100227  -1152448.61268265  -1152448.61268265
  Force two-norm initial, final = 0.20589907 5.9045874e-06
  Force max component initial, final = 0.084404832 1.3578610e-06
  Final line search alpha, max atom move = 1.0000000 1.3578610e-06
  Iterations, force evaluations = 260 520

MPI task timing breakdown:
Section |  min time  |  avg time  |  max time  |%varavg| %total
---------------------------------------------------------------
Pair    | 0.78705    | 2.1793     | 2.8427     |  39.8 | 72.16
Neigh   | 0          | 0          | 0          |   0.0 |  0.00
Comm    | 0.047243   | 0.4925     | 1.4675     |  58.4 | 16.31
Output  | 0          | 0          | 0          |   0.0 |  0.00
Modify  | 3.1982e-05 | 0.0042906  | 0.0091651  |   3.1 |  0.14
Other   |            | 0.3438     |            |       | 11.39

Nlocal:        2776.45 ave        3960 max           0 min
Histogram: 8 4 4 0 4 12 8 2 28 34
Nghost:        3879.07 ave        5424 max         232 min
Histogram: 8 0 8 0 16 0 8 8 16 40
Neighs:        79213.3 ave      115414 max           0 min
Histogram: 8 4 4 0 10 6 8 8 24 32

Total # of neighbors = 8238187
Ave neighs/atom = 28.530419
Neighbor list builds = 0
Dangerous builds = 0
The dot product: -1.16213902052167e-08
Setting atom values ...
  1 settings made for x
  1 settings made for y
  1 settings made for z
Setting up cg style minimization ...
  Unit style    : metal
  Current step  : 5748
Per MPI rank memory allocation (min/avg/max) = 5.441 | 5.816 | 6.074 Mbytes
Step PotEng KinEng TotEng v_fx v_fy v_fz 
    5748   -1152448.6            0   -1152448.6 -0.063184652  0.063438061 0.0016595159 
    5902   -1152448.6            0   -1152448.6 4.4762769e-05 -6.0911723e-05 -2.5317795e-06 
Loop time of 1.79556 on 104 procs for 154 steps with 288751 atoms

99.9% CPU use with 104 MPI tasks x 1 OpenMP threads

Minimization stats:
  Stopping criterion = energy tolerance
  Energy initial, next-to-last, final = 
     -1152448.58015023  -1152448.58178841  -1152448.58178841
  Force two-norm initial, final = 0.20395489 0.00018935806
  Force max component initial, final = 0.086310826 7.4605438e-05
  Final line search alpha, max atom move = 1.0000000 7.4605438e-05
  Iterations, force evaluations = 154 308

MPI task timing breakdown:
Section |  min time  |  avg time  |  max time  |%varavg| %total
---------------------------------------------------------------
Pair    | 0.46633    | 1.3032     | 1.69       |  30.9 | 72.58
Neigh   | 0          | 0          | 0          |   0.0 |  0.00
Comm    | 0.029173   | 0.29817    | 0.88477    |  45.1 | 16.61
Output  | 0          | 0          | 0          |   0.0 |  0.00
Modify  | 1.9189e-05 | 0.0025498  | 0.0054931  |   2.4 |  0.14
Other   |            | 0.1917     |            |       | 10.67

Nlocal:        2776.45 ave        3960 max           0 min
Histogram: 8 4 4 0 4 12 8 2 28 34
Nghost:        3879.09 ave        5424 max         232 min
Histogram: 8 0 8 0 16 0 8 8 16 40
Neighs:        79213.3 ave      115413 max           0 min
Histogram: 8 4 4 0 10 6 8 8 24 32

Total # of neighbors = 8238187
Ave neighs/atom = 28.530419
Neighbor list builds = 0
Dangerous builds = 0
The dot product: -6.20499544094287e-07
Setting atom values ...
  1 settings made for x
  1 settings made for y
  1 settings made for z
Setting up cg style minimization ...
  Unit style    : metal
  Current step  : 5902
Per MPI rank memory allocation (min/avg/max) = 5.441 | 5.816 | 6.074 Mbytes
Step PotEng KinEng TotEng v_fx v_fy v_fz 
    5902   -1152448.5            0   -1152448.5 -0.067692776  0.056210648 -0.00029209815 
    6000   -1152448.6            0   -1152448.6  0.006988893 -0.0081864748 -0.000149139 
    6180   -1152448.6            0   -1152448.6 5.1231184e-05 -5.8204209e-05 -9.5738682e-07 
Loop time of 3.24949 on 104 procs for 278 steps with 288751 atoms

99.9% CPU use with 104 MPI tasks x 1 OpenMP threads

Minimization stats:
  Stopping criterion = energy tolerance
  Energy initial, next-to-last, final = 
     -1152448.54807482  -1152448.61787657  -1152448.61787657
  Force two-norm initial, final = 0.2020161 0.00026988955
  Force max component initial, final = 0.088169603 9.0551664e-05
  Final line search alpha, max atom move = 1.0000000 9.0551664e-05
  Iterations, force evaluations = 278 555

MPI task timing breakdown:
Section |  min time  |  avg time  |  max time  |%varavg| %total
---------------------------------------------------------------
Pair    | 0.84461    | 2.3317     | 3.0477     |  41.1 | 71.76
Neigh   | 2.0872e-05 | 0.0058379  | 0.008482   |   3.1 |  0.18
Comm    | 0.050419   | 0.5312     | 1.5734     |  60.2 | 16.35
Output  | 0.00021288 | 0.00022918 | 0.00039421 |   0.0 |  0.01
Modify  | 3.3996e-05 | 0.0045796  | 0.0098077  |   3.2 |  0.14
Other   |            | 0.3759     |            |       | 11.57

Nlocal:        2776.45 ave        3960 max           0 min
Histogram: 8 4 4 0 4 12 8 2 28 34
Nghost:        3879.12 ave        5425 max         232 min
Histogram: 8 0 8 0 16 0 8 8 16 40
Neighs:        79213.2 ave      115418 max           0 min
Histogram: 8 4 4 0 10 6 8 8 24 32

Total # of neighbors = 8238172
Ave neighs/atom = 28.530367
Neighbor list builds = 2
Dangerous builds = 0
The dot product: -7.87694944551491e-06
Setting atom values ...
  1 settings made for x
  1 settings made for y
  1 settings made for z
Setting up cg style minimization ...
  Unit style    : metal
  Current step  : 6180
Per MPI rank memory allocation (min/avg/max) = 5.441 | 5.816 | 6.074 Mbytes
Step PotEng KinEng TotEng v_fx v_fy v_fz 
    6180   -1152448.6            0   -1152448.6  -0.16433761 -0.0070892488 -0.087797451 
    6477   -1152448.6            0   -1152448.6 -2.15694e-08 -9.4630715e-08 -3.671832e-08 
Loop time of 3.5073 on 104 procs for 297 steps with 288751 atoms

99.9% CPU use with 104 MPI tasks x 1 OpenMP threads

Minimization stats:
  Stopping criterion = energy tolerance
  Energy initial, next-to-last, final = 
     -1152448.61117868  -1152448.61420249  -1152448.61420249
  Force two-norm initial, final = 0.23099819 2.8259048e-06
  Force max component initial, final = 0.16433761 4.5817420e-07
  Final line search alpha, max atom move = 1.0000000 4.5817420e-07
  Iterations, force evaluations = 297 594

MPI task timing breakdown:
Section |  min time  |  avg time  |  max time  |%varavg| %total
---------------------------------------------------------------
Pair    | 0.8989     | 2.51       | 3.264      |  42.8 | 71.56
Neigh   | 0          | 0          | 0          |   0.0 |  0.00
Comm    | 0.061438   | 0.57301    | 1.7058     |  62.2 | 16.34
Output  | 0          | 0          | 0          |   0.0 |  0.00
Modify  | 3.6134e-05 | 0.0049005  | 0.010655   |   3.3 |  0.14
Other   |            | 0.4194     |            |       | 11.96

Nlocal:        2776.45 ave        3960 max           0 min
Histogram: 8 4 4 0 4 12 8 2 28 34
Nghost:        3879.09 ave        5424 max         232 min
Histogram: 8 0 8 0 16 0 8 8 16 40
Neighs:        79213.3 ave      115439 max           0 min
Histogram: 8 4 4 0 10 6 8 8 24 32

Total # of neighbors = 8238186
Ave neighs/atom = 28.530415
Neighbor list builds = 0
Dangerous builds = 0
The dot product: 2.09074644485679e-09
Setting atom values ...
  1 settings made for x
  1 settings made for y
  1 settings made for z
Setting up cg style minimization ...
  Unit style    : metal
  Current step  : 6477
Per MPI rank memory allocation (min/avg/max) = 5.441 | 5.816 | 6.074 Mbytes
Step PotEng KinEng TotEng v_fx v_fy v_fz 
    6477   -1152448.6            0   -1152448.6 -0.063381942  0.037267557 -0.025312516 
    6821     -1152449            0     -1152449 3.0307842e-06 2.327074e-06 2.4089545e-06 
Loop time of 4.02189 on 104 procs for 344 steps with 288751 atoms

99.9% CPU use with 104 MPI tasks x 1 OpenMP threads

Minimization stats:
  Stopping criterion = energy tolerance
  Energy initial, next-to-last, final = 
     -1152448.60736023  -1152448.98896761  -1152448.98896761
  Force two-norm initial, final = 0.15663731 2.5165747e-05
  Force max component initial, final = 0.072229011 5.3070774e-06
  Final line search alpha, max atom move = 1.0000000 5.3070774e-06
  Iterations, force evaluations = 344 688

MPI task timing breakdown:
Section |  min time  |  avg time  |  max time  |%varavg| %total
---------------------------------------------------------------
Pair    | 1.0641     | 2.8955     | 3.7653     |  45.5 | 71.99
Neigh   | 6.1029e-05 | 0.017637   | 0.025568   |   5.5 |  0.44
Comm    | 0.063324   | 0.65443    | 1.9473     |  67.3 | 16.27
Output  | 0          | 0          | 0          |   0.0 |  0.00
Modify  | 4.2293e-05 | 0.005675   | 0.012154   |   3.6 |  0.14
Other   |            | 0.4486     |            |       | 11.15

Nlocal:        2776.45 ave        3960 max           0 min
Histogram: 8 4 4 0 4 12 8 2 28 34
Nghost:        3879.05 ave        5425 max         232 min
Histogram: 8 0 8 0 16 0 8 8 16 40
Neighs:        79213.6 ave      115419 max           0 min
Histogram: 8 4 4 0 10 6 8 8 24 32

Total # of neighbors = 8238217
Ave neighs/atom = 28.530523
Neighbor list builds = 6
Dangerous builds = 0
The dot product: -1.30848217443956e-06
Setting atom values ...
  1 settings made for x
  1 settings made for y
  1 settings made for z
Setting up cg style minimization ...
  Unit style    : metal
  Current step  : 6821
Per MPI rank memory allocation (min/avg/max) = 5.441 | 5.816 | 6.074 Mbytes
Step PotEng KinEng TotEng v_fx v_fy v_fz 
    6821     -1152449            0     -1152449   0.35922084  -0.51034463    0.7674583 
    7000   -1152449.2            0   -1152449.2 -8.7874638e-05 -0.0006735111 -3.1864785e-05 
    7091   -1152449.2            0   -1152449.2 -8.043643e-06 -2.0526358e-05 -1.0945993e-05 
Loop time of 3.17451 on 104 procs for 270 steps with 288751 atoms

99.9% CPU use with 104 MPI tasks x 1 OpenMP threads

Minimization stats:
  Stopping criterion = energy tolerance
  Energy initial, next-to-last, final = 
     -1152449.01325251  -1152449.17292848  -1152449.17292848
  Force two-norm initial, final = 1.0010750 0.00010744541
  Force max component initial, final = 0.7674583 2.3691388e-05
  Final line search alpha, max atom move = 1.0000000 2.3691388e-05
  Iterations, force evaluations = 270 540

MPI task timing breakdown:
Section |  min time  |  avg time  |  max time  |%varavg| %total
---------------------------------------------------------------
Pair    | 0.83593    | 2.2815     | 2.9608     |  40.2 | 71.87
Neigh   | 2.0359e-05 | 0.005892   | 0.0085688  |   3.2 |  0.19
Comm    | 0.050393   | 0.519      | 1.5394     |  59.7 | 16.35
Output  | 0.00015493 | 0.00016457 | 0.00034158 |   0.0 |  0.01
Modify  | 3.264e-05  | 0.0044506  | 0.0095477  |   3.2 |  0.14
Other   |            | 0.3635     |            |       | 11.45

Nlocal:        2776.45 ave        3956 max           0 min
Histogram: 8 4 4 0 4 12 8 0 30 34
Nghost:        3879.11 ave        5426 max         232 min
Histogram: 8 0 8 0 16 0 8 8 16 40
Neighs:        79213.5 ave      115279 max           0 min
Histogram: 8 4 4 0 10 6 8 8 24 32

Total # of neighbors = 8238203
Ave neighs/atom = 28.530474
Neighbor list builds = 2
Dangerous builds = 0
The dot product: 1.02629770101675e-06
Setting atom values ...
  1 settings made for x
  1 settings made for y
  1 settings made for z
Setting up cg style minimization ...
  Unit style    : metal
  Current step  : 7091
Per MPI rank memory allocation (min/avg/max) = 5.441 | 5.816 | 6.074 Mbytes
Step PotEng KinEng TotEng v_fx v_fy v_fz 
    7091   -1152449.2            0   -1152449.2  -0.25837023   0.29467716  -0.24053624 
    7306   -1152449.2            0   -1152449.2 1.2546123e-05 4.5727549e-05 2.1591165e-05 
Loop time of 2.51932 on 104 procs for 215 steps with 288751 atoms

99.9% CPU use with 104 MPI tasks x 1 OpenMP threads

Minimization stats:
  Stopping criterion = energy tolerance
  Energy initial, next-to-last, final = 
     -1152449.19728309  -1152449.22534142  -1152449.22534142
  Force two-norm initial, final = 0.48985959 0.00024085022
  Force max component initial, final = 0.29467716 4.5994686e-05
  Final line search alpha, max atom move = 1.0000000 4.5994686e-05
  Iterations, force evaluations = 215 430

MPI task timing breakdown:
Section |  min time  |  avg time  |  max time  |%varavg| %total
---------------------------------------------------------------
Pair    | 0.65341    | 1.8102     | 2.3655     |  36.4 | 71.85
Neigh   | 1.211e-05  | 0.0029301  | 0.0043032  |   2.2 |  0.12
Comm    | 0.037459   | 0.41154    | 1.2223     |  53.1 | 16.34
Output  | 0          | 0          | 0          |   0.0 |  0.00
Modify  | 2.7308e-05 | 0.003548   | 0.0075989  |   2.8 |  0.14
Other   |            | 0.2911     |            |       | 11.56

Nlocal:        2776.45 ave        3959 max           0 min
Histogram: 8 4 4 0 4 12 8 6 24 34
Nghost:        3879.16 ave        5426 max         232 min
Histogram: 8 0 8 0 16 0 8 8 16 40
Neighs:        79213.4 ave      115372 max           0 min
Histogram: 8 4 4 0 10 6 8 8 24 32

Total # of neighbors = 8238192
Ave neighs/atom = 28.530436
Neighbor list builds = 1
Dangerous builds = 1
The dot product: 1.99837074745975e-06
Setting atom values ...
  1 settings made for x
  1 settings made for y
  1 settings made for z
Setting up cg style minimization ...
  Unit style    : metal
  Current step  : 7306
Per MPI rank memory allocation (min/avg/max) = 5.441 | 5.816 | 6.074 Mbytes
Step PotEng KinEng TotEng v_fx v_fy v_fz 
    7306   -1152449.2            0   -1152449.2  0.044783566 -0.080294447   0.05540238 
    7512   -1152449.3            0   -1152449.3 1.7602454e-05 2.3226422e-07 2.320328e-05 
Loop time of 2.42985 on 104 procs for 206 steps with 288751 atoms

99.9% CPU use with 104 MPI tasks x 1 OpenMP threads

Minimization stats:
  Stopping criterion = energy tolerance
  Energy initial, next-to-last, final = 
     -1152449.24709129  -1152449.25196243  -1152449.25196243
  Force two-norm initial, final = 0.19148217 0.00016854724
  Force max component initial, final = 0.087878638 2.3958947e-05
  Final line search alpha, max atom move = 1.0000000 2.3958947e-05
  Iterations, force evaluations = 206 412

MPI task timing breakdown:
Section |  min time  |  avg time  |  max time  |%varavg| %total
---------------------------------------------------------------
Pair    | 0.62211    | 1.741      | 2.2828     |  35.7 | 71.65
Neigh   | 0          | 0          | 0          |   0.0 |  0.00
Comm    | 0.035249   | 0.40229    | 1.1838     |  51.6 | 16.56
Output  | 0          | 0          | 0          |   0.0 |  0.00
Modify  | 2.5742e-05 | 0.003402   | 0.007342   |   2.8 |  0.14
Other   |            | 0.2831     |            |       | 11.65

Nlocal:        2776.45 ave        3959 max           0 min
Histogram: 8 4 4 0 4 12 8 6 24 34
Nghost:        3879.16 ave        5427 max         232 min
Histogram: 8 0 8 0 16 0 8 8 16 40
Neighs:        79213.5 ave      115372 max           0 min
Histogram: 8 4 4 0 10 6 8 8 24 32

Total # of neighbors = 8238205
Ave neighs/atom = 28.530481
Neighbor list builds = 0
Dangerous builds = 0
The dot product: 8.64340559656648e-07
Setting atom values ...
  1 settings made for x
  1 settings made for y
  1 settings made for z
Setting up cg style minimization ...
  Unit style    : metal
  Current step  : 7512
Per MPI rank memory allocation (min/avg/max) = 5.441 | 5.816 | 6.074 Mbytes
Step PotEng KinEng TotEng v_fx v_fy v_fz 
    7512   -1152449.3            0   -1152449.3 -0.039430483  0.055858871 -0.043966973 
    7764   -1152449.3            0   -1152449.3 -1.3109546e-06 -3.3968223e-07 -1.6660632e-06 
[...]
Histogram: 8 0 8 0 16 0 8 8 16 40
Neighs:        79213.5 ave      115378 max           0 min
Histogram: 8 4 4 0 10 6 8 8 24 32

Total # of neighbors = 8238207
Ave neighs/atom = 28.530488
Neighbor list builds = 0
Dangerous builds = 0
The dot product: 5.13820735237585e-07
Setting atom values ...
  1 settings made for x
  1 settings made for y
  1 settings made for z
Setting up cg style minimization ...
  Unit style    : metal
  Current step  : 26500
Per MPI rank memory allocation (min/avg/max) = 5.441 | 5.816 | 6.074 Mbytes
Step PotEng KinEng TotEng v_fx v_fy v_fz 
   26500     -1152449            0     -1152449 -0.011176662 0.0058589911 -0.018053232 
   26727     -1152449            0     -1152449 2.9540857e-06 -7.8824525e-06 4.5187949e-06 
Loop time of 2.64753 on 104 procs for 227 steps with 288751 atoms

99.9% CPU use with 104 MPI tasks x 1 OpenMP threads

Minimization stats:
  Stopping criterion = energy tolerance
  Energy initial, next-to-last, final = 
     -1152448.98370605  -1152448.98526987  -1152448.98526987
  Force two-norm initial, final = 0.16116357 4.4212836e-05
  Force max component initial, final = 0.07413411 8.7119648e-06
  Final line search alpha, max atom move = 1.0000000 8.7119648e-06
  Iterations, force evaluations = 227 454

MPI task timing breakdown:
Section |  min time  |  avg time  |  max time  |%varavg| %total
---------------------------------------------------------------
Pair    | 0.68353    | 1.9101     | 2.4794     |  37.5 | 72.15
Neigh   | 0          | 0          | 0          |   0.0 |  0.00
Comm    | 0.045892   | 0.43407    | 1.3094     |  54.7 | 16.40
Output  | 0          | 0          | 0          |   0.0 |  0.00
Modify  | 2.7042e-05 | 0.003757   | 0.0081061  |   2.9 |  0.14
Other   |            | 0.2996     |            |       | 11.31

Nlocal:        2776.45 ave        3956 max           0 min
Histogram: 8 4 4 0 4 12 8 2 28 34
Nghost:        3879.05 ave        5423 max         232 min
Histogram: 8 0 8 0 16 0 8 8 16 40
Neighs:        79213.5 ave      115333 max           0 min
Histogram: 8 4 4 0 10 6 8 8 24 32

Total # of neighbors = 8238209
Ave neighs/atom = 28.530495
Neighbor list builds = 0
Dangerous builds = 0
The dot product: -2.97404949950363e-08
Setting atom values ...
  1 settings made for x
  1 settings made for y
  1 settings made for z
Setting up cg style minimization ...
  Unit style    : metal
  Current step  : 26727
Per MPI rank memory allocation (min/avg/max) = 5.441 | 5.816 | 6.074 Mbytes
Step PotEng KinEng TotEng v_fx v_fy v_fz 
   26727   -1152448.9            0   -1152448.9 -0.012436091 0.0085640831 -0.019961993 
   26967   -1152448.9            0   -1152448.9 1.899734e-06 -1.0139195e-06  3.05971e-06 
Loop time of 2.78759 on 104 procs for 240 steps with 288751 atoms

99.9% CPU use with 104 MPI tasks x 1 OpenMP threads

Minimization stats:
  Stopping criterion = energy tolerance
  Energy initial, next-to-last, final = 
       -1152448.946519  -1152448.94789822  -1152448.94789822
  Force two-norm initial, final = 0.15845102 2.4023292e-05
  Force max component initial, final = 0.074309621 5.9791830e-06
  Final line search alpha, max atom move = 1.0000000 5.9791830e-06
  Iterations, force evaluations = 240 480

MPI task timing breakdown:
Section |  min time  |  avg time  |  max time  |%varavg| %total
---------------------------------------------------------------
Pair    | 0.73537    | 2.0171     | 2.6174     |  38.1 | 72.36
Neigh   | 0          | 0          | 0          |   0.0 |  0.00
Comm    | 0.045128   | 0.4557     | 1.3692     |  56.4 | 16.35
Output  | 0          | 0          | 0          |   0.0 |  0.00
Modify  | 2.891e-05  | 0.0039589  | 0.008446   |   3.0 |  0.14
Other   |            | 0.3108     |            |       | 11.15

Nlocal:        2776.45 ave        3956 max           0 min
Histogram: 8 4 4 0 4 12 8 2 28 34
Nghost:        3879.09 ave        5424 max         232 min
Histogram: 8 0 8 0 16 0 8 8 16 40
Neighs:        79213.5 ave      115333 max           0 min
Histogram: 8 4 4 0 10 6 8 8 24 32

Total # of neighbors = 8238207
Ave neighs/atom = 28.530488
Neighbor list builds = 0
Dangerous builds = 0
The dot product: 6.43487313973781e-09
Setting atom values ...
  1 settings made for x
  1 settings made for y
  1 settings made for z
Setting up cg style minimization ...
  Unit style    : metal
  Current step  : 26967
Per MPI rank memory allocation (min/avg/max) = 5.441 | 5.816 | 6.074 Mbytes
Step PotEng KinEng TotEng v_fx v_fy v_fz 
   26967   -1152448.9            0   -1152448.9 -0.014123926  0.010775671 -0.022617118 
   27000   -1152448.9            0   -1152448.9 -0.0001049627 -0.00022954989 -0.00017785973 
   27177   -1152448.9            0   -1152448.9 -3.3210253e-06 5.9850112e-06 -5.2090634e-06 
Loop time of 2.45364 on 104 procs for 210 steps with 288751 atoms

99.9% CPU use with 104 MPI tasks x 1 OpenMP threads

Minimization stats:
  Stopping criterion = energy tolerance
  Energy initial, next-to-last, final = 
     -1152448.90776204  -1152448.90904428  -1152448.90904428
  Force two-norm initial, final = 0.15596589 8.2669704e-05
  Force max component initial, final = 0.074411674 1.0015112e-05
  Final line search alpha, max atom move = 1.0000000 1.0015112e-05
  Iterations, force evaluations = 210 420

MPI task timing breakdown:
Section |  min time  |  avg time  |  max time  |%varavg| %total
---------------------------------------------------------------
Pair    | 0.63329    | 1.7712     | 2.3081     |  36.1 | 72.19
Neigh   | 0          | 0          | 0          |   0.0 |  0.00
Comm    | 0.045944   | 0.40233    | 1.1995     |  52.7 | 16.40
Output  | 0.00015695 | 0.00016701 | 0.00029274 |   0.0 |  0.01
Modify  | 2.5878e-05 | 0.003472   | 0.0074745  |   2.8 |  0.14
Other   |            | 0.2765     |            |       | 11.27

Nlocal:        2776.45 ave        3956 max           0 min
Histogram: 8 4 4 0 4 12 8 2 28 34
Nghost:        3879.09 ave        5424 max         232 min
Histogram: 8 0 8 0 16 0 8 8 16 40
Neighs:        79213.6 ave      115333 max           0 min
Histogram: 8 4 4 0 10 6 8 8 24 32

Total # of neighbors = 8238210
Ave neighs/atom = 28.530499
Neighbor list builds = 0
Dangerous builds = 0
The dot product: 1.79916456583121e-08
Setting atom values ...
  1 settings made for x
  1 settings made for y
  1 settings made for z
Setting up cg style minimization ...
  Unit style    : metal
  Current step  : 27177
Per MPI rank memory allocation (min/avg/max) = 5.441 | 5.816 | 6.074 Mbytes
Step PotEng KinEng TotEng v_fx v_fy v_fz 
   27177   -1152448.9            0   -1152448.9 -0.016379033   0.01545641 -0.026142215 
   27343   -1152448.9            0   -1152448.9 7.6540214e-06 2.3401293e-06 1.2487675e-05 
Loop time of 1.93489 on 104 procs for 166 steps with 288751 atoms

99.9% CPU use with 104 MPI tasks x 1 OpenMP threads

Minimization stats:
  Stopping criterion = energy tolerance
  Energy initial, next-to-last, final = 
     -1152448.86765224   -1152448.8688255   -1152448.8688255
  Force two-norm initial, final = 0.15401088 0.00024303715
  Force max component initial, final = 0.074492787 1.4576516e-05
  Final line search alpha, max atom move = 1.0000000 1.4576516e-05
  Iterations, force evaluations = 166 332

MPI task timing breakdown:
Section |  min time  |  avg time  |  max time  |%varavg| %total
---------------------------------------------------------------
Pair    | 0.50155    | 1.393      | 1.8183     |  31.8 | 71.99
Neigh   | 0          | 0          | 0          |   0.0 |  0.00
Comm    | 0.031441   | 0.31374    | 0.93755    |  46.8 | 16.21
Output  | 0          | 0          | 0          |   0.0 |  0.00
Modify  | 1.9456e-05 | 0.0027401  | 0.0058269  |   2.5 |  0.14
Other   |            | 0.2254     |            |       | 11.65

Nlocal:        2776.45 ave        3955 max           0 min
Histogram: 8 4 4 0 4 12 8 2 28 34
Nghost:        3879.11 ave        5424 max         232 min
Histogram: 8 0 8 0 16 0 8 8 16 40
Neighs:        79213.6 ave      115292 max           0 min
Histogram: 8 4 4 0 10 6 8 8 24 32

Total # of neighbors = 8238211
Ave neighs/atom = 28.530502
Neighbor list builds = 0
Dangerous builds = 0
The dot product: 1.45625019718137e-08
Setting atom values ...
  1 settings made for x
  1 settings made for y
  1 settings made for z
Setting up cg style minimization ...
  Unit style    : metal
  Current step  : 27343
Per MPI rank memory allocation (min/avg/max) = 5.441 | 5.816 | 6.074 Mbytes
Step PotEng KinEng TotEng v_fx v_fy v_fz 
   27343   -1152448.8            0   -1152448.8 -0.020474936  0.022707089 -0.032651304 
   27463   -1152448.8            0   -1152448.8 3.7363374e-06 -2.8406153e-05 5.346092e-06 
Loop time of 1.40071 on 104 procs for 120 steps with 288751 atoms

99.9% CPU use with 104 MPI tasks x 1 OpenMP threads

Minimization stats:
  Stopping criterion = energy tolerance
  Energy initial, next-to-last, final = 
      -1152448.8264215  -1152448.82767559  -1152448.82767559
  Force two-norm initial, final = 0.15503607 0.00020117183
  Force max component initial, final = 0.07450339 4.7140346e-05
  Final line search alpha, max atom move = 1.0000000 4.7140346e-05
  Iterations, force evaluations = 120 240

MPI task timing breakdown:
Section |  min time  |  avg time  |  max time  |%varavg| %total
---------------------------------------------------------------
Pair    | 0.36459    | 1.0112     | 1.3155     |  27.2 | 72.19
Neigh   | 0          | 0          | 0          |   0.0 |  0.00
Comm    | 0.024689   | 0.23065    | 0.68523    |  39.7 | 16.47
Output  | 0          | 0          | 0          |   0.0 |  0.00
Modify  | 1.4944e-05 | 0.0019835  | 0.0042574  |   2.1 |  0.14
Other   |            | 0.1569     |            |       | 11.20

Nlocal:        2776.45 ave        3954 max           0 min
Histogram: 8 4 4 0 4 12 8 2 28 34
Nghost:        3879.11 ave        5424 max         232 min
Histogram: 8 0 8 0 16 0 8 8 16 40
Neighs:        79213.6 ave      115252 max           0 min
Histogram: 8 4 4 0 10 6 8 8 24 32

Total # of neighbors = 8238211
Ave neighs/atom = 28.530502
Neighbor list builds = 0
Dangerous builds = 0
The dot product: -3.20694547206134e-07
Setting atom values ...
  1 settings made for x
  1 settings made for y
  1 settings made for z
Setting up cg style minimization ...
  Unit style    : metal
  Current step  : 27463
Per MPI rank memory allocation (min/avg/max) = 5.441 | 5.816 | 6.074 Mbytes
Step PotEng KinEng TotEng v_fx v_fy v_fz 
   27463   -1152448.8            0   -1152448.8  -0.02747943  0.035449056  -0.04409592 
   27702   -1152448.8            0   -1152448.8 3.9802691e-06 -3.3733047e-06 6.4215137e-06 
Loop time of 2.77327 on 104 procs for 239 steps with 288751 atoms

99.9% CPU use with 104 MPI tasks x 1 OpenMP threads

Minimization stats:
  Stopping criterion = energy tolerance
  Energy initial, next-to-last, final = 
     -1152448.78525061  -1152448.78800873  -1152448.78800873
  Force two-norm initial, final = 0.16296332 3.8397268e-05
  Force max component initial, final = 0.074450873 9.2354020e-06
  Final line search alpha, max atom move = 1.0000000 9.2354020e-06
  Iterations, force evaluations = 239 478

MPI task timing breakdown:
Section |  min time  |  avg time  |  max time  |%varavg| %total
---------------------------------------------------------------
Pair    | 0.72238    | 2.0042     | 2.6064     |  38.2 | 72.27
Neigh   | 0          | 0          | 0          |   0.0 |  0.00
Comm    | 0.047561   | 0.45217    | 1.3645     |  56.2 | 16.30
Output  | 0          | 0          | 0          |   0.0 |  0.00
Modify  | 2.9654e-05 | 0.0039438  | 0.0084157  |   3.0 |  0.14
Other   |            | 0.313      |            |       | 11.28

Nlocal:        2776.45 ave        3954 max           0 min
Histogram: 8 4 4 0 4 12 8 2 28 34
Nghost:        3879.11 ave        5424 max         232 min
Histogram: 8 0 8 0 16 0 8 8 16 40
Neighs:        79213.6 ave      115252 max           0 min
Histogram: 8 4 4 0 10 6 8 8 24 32

Total # of neighbors = 8238211
Ave neighs/atom = 28.530502
Neighbor list builds = 0
Dangerous builds = 0
The dot product: -2.60848526951955e-07
Setting atom values ...
  1 settings made for x
  1 settings made for y
  1 settings made for z
Setting up cg style minimization ...
  Unit style    : metal
  Current step  : 27702
Per MPI rank memory allocation (min/avg/max) = 5.441 | 5.816 | 6.074 Mbytes
Step PotEng KinEng TotEng v_fx v_fy v_fz 
   27702   -1152448.7            0   -1152448.7 -0.032162892  0.046046141 -0.053032247 
   27864   -1152448.7            0   -1152448.7 -8.9649507e-06 1.5077585e-06 -1.4844743e-05 
Loop time of 1.90239 on 104 procs for 162 steps with 288751 atoms

99.9% CPU use with 104 MPI tasks x 1 OpenMP threads

Minimization stats:
  Stopping criterion = energy tolerance
  Energy initial, next-to-last, final = 
     -1152448.74787499  -1152448.74972146  -1152448.74972146
  Force two-norm initial, final = 0.16573125 0.0001553328
  Force max component initial, final = 0.074302267 3.5995337e-05
  Final line search alpha, max atom move = 1.0000000 3.5995337e-05
  Iterations, force evaluations = 162 324

MPI task timing breakdown:
Section |  min time  |  avg time  |  max time  |%varavg| %total
---------------------------------------------------------------
Pair    | 0.4899     | 1.3629     | 1.7734     |  31.5 | 71.64
Neigh   | 0          | 0          | 0          |   0.0 |  0.00
Comm    | 0.037425   | 0.31115    | 0.92594    |  46.0 | 16.36
Output  | 0          | 0          | 0          |   0.0 |  0.00
Modify  | 1.9896e-05 | 0.0026739  | 0.0057252  |   2.4 |  0.14
Other   |            | 0.2257     |            |       | 11.86

Nlocal:        2776.45 ave        3954 max           0 min
Histogram: 8 4 4 0 4 12 8 2 28 34
Nghost:        3879.10 ave        5424 max         232 min
Histogram: 8 0 8 0 16 0 8 8 16 40
Neighs:        79213.6 ave      115252 max           0 min
Histogram: 8 4 4 0 10 6 8 8 24 32

Total # of neighbors = 8238212
Ave neighs/atom = 28.530506
Neighbor list builds = 0
Dangerous builds = 0
The dot product: 2.69713658340133e-07
Setting atom values ...
  1 settings made for x
  1 settings made for y
  1 settings made for z
Setting up cg style minimization ...
  Unit style    : metal
  Current step  : 27864
Per MPI rank memory allocation (min/avg/max) = 5.441 | 5.816 | 6.074 Mbytes
Step PotEng KinEng TotEng v_fx v_fy v_fz 
   27864   -1152448.7            0   -1152448.7 -0.027307798  0.040732149 -0.045839972 
   28000   -1152448.7            0   -1152448.7 7.8765529e-06 -2.7170061e-06 1.3188039e-05 
   28009   -1152448.7            0   -1152448.7 -8.7692871e-06 1.3029851e-05 -1.4720291e-05 
Loop time of 1.71188 on 104 procs for 145 steps with 288751 atoms

99.9% CPU use with 104 MPI tasks x 1 OpenMP threads

Minimization stats:
  Stopping criterion = energy tolerance
  Energy initial, next-to-last, final = 
     -1152448.71008845  -1152448.71149051  -1152448.71149051
  Force two-norm initial, final = 0.15839853 9.3687053e-05
  Force max component initial, final = 0.073923346 2.1052905e-05
  Final line search alpha, max atom move = 1.0000000 2.1052905e-05
  Iterations, force evaluations = 145 290

MPI task timing breakdown:
Section |  min time  |  avg time  |  max time  |%varavg| %total
---------------------------------------------------------------
Pair    | 0.4391     | 1.2197     | 1.5876     |  29.9 | 71.25
Neigh   | 0          | 0          | 0          |   0.0 |  0.00
Comm    | 0.027594   | 0.27743    | 0.82392    |  43.4 | 16.21
Output  | 0.00026696 | 0.00027055 | 0.00042688 |   0.0 |  0.02
Modify  | 1.7928e-05 | 0.0023979  | 0.0051143  |   2.3 |  0.14
Other   |            | 0.2121     |            |       | 12.39

Nlocal:        2776.45 ave        3954 max           0 min
Histogram: 8 4 4 0 4 12 8 2 28 34
Nghost:        3879.10 ave        5424 max         232 min
Histogram: 8 0 8 0 16 0 8 8 16 40
Neighs:        79213.5 ave      115252 max           0 min
Histogram: 8 4 4 0 10 6 8 8 24 32

Total # of neighbors = 8238209
Ave neighs/atom = 28.530495
Neighbor list builds = 0
Dangerous builds = 0
The dot product: 3.19368931266191e-07
Setting atom values ...
  1 settings made for x
  1 settings made for y
  1 settings made for z
Setting up cg style minimization ...
  Unit style    : metal
  Current step  : 28009
Per MPI rank memory allocation (min/avg/max) = 5.441 | 5.816 | 6.074 Mbytes
Step PotEng KinEng TotEng v_fx v_fy v_fz 
   28009   -1152448.7            0   -1152448.7 -0.025563648   0.04043071 -0.043488738 
   28223   -1152448.7            0   -1152448.7 3.0746358e-06 4.067916e-06 5.1337843e-06 
Loop time of 2.48106 on 104 procs for 214 steps with 288751 atoms

99.9% CPU use with 104 MPI tasks x 1 OpenMP threads

Minimization stats:
  Stopping criterion = energy tolerance
  Energy initial, next-to-last, final = 
     -1152448.67195466  -1152448.67349275  -1152448.67349275
  Force two-norm initial, final = 0.15573656 7.2630292e-05
  Force max component initial, final = 0.073342164 1.1824268e-05
  Final line search alpha, max atom move = 1.0000000 1.1824268e-05
  Iterations, force evaluations = 214 428

MPI task timing breakdown:
Section |  min time  |  avg time  |  max time  |%varavg| %total
---------------------------------------------------------------
Pair    | 0.64788    | 1.8002     | 2.3311     |  36.2 | 72.56
Neigh   | 0          | 0          | 0          |   0.0 |  0.00
Comm    | 0.047011   | 0.40723    | 1.2332     |  53.5 | 16.41
Output  | 0          | 0          | 0          |   0.0 |  0.00
Modify  | 2.5771e-05 | 0.0035351  | 0.0075687  |   2.8 |  0.14
Other   |            | 0.2701     |            |       | 10.89

Nlocal:        2776.45 ave        3954 max           0 min
Histogram: 8 4 4 0 4 12 8 2 28 34
Nghost:        3879.10 ave        5424 max         232 min
Histogram: 8 0 8 0 16 0 8 8 16 40
Neighs:        79213.6 ave      115252 max           0 min
Histogram: 8 4 4 0 10 6 8 8 24 32

Total # of neighbors = 8238212
Ave neighs/atom = 28.530506
Neighbor list builds = 0
Dangerous builds = 0
The dot product: -1.80853093183868e-08
Setting atom values ...
  1 settings made for x
  1 settings made for y
  1 settings made for z
Setting up cg style minimization ...
  Unit style    : metal
  Current step  : 28223
Per MPI rank memory allocation (min/avg/max) = 5.441 | 5.816 | 6.074 Mbytes
Step PotEng KinEng TotEng v_fx v_fy v_fz 
   28223   -1152448.6            0   -1152448.6 -0.032669572  0.056231135  -0.05678676 
   28464   -1152448.7            0   -1152448.7 -1.5225942e-05 -8.2267972e-06 -2.5730636e-05 
Loop time of 2.79927 on 104 procs for 241 steps with 288751 atoms

99.9% CPU use with 104 MPI tasks x 1 OpenMP threads

Minimization stats:
  Stopping criterion = energy tolerance
  Energy initial, next-to-last, final = 
     -1152448.63545092  -1152448.66511999  -1152448.66511999
  Force two-norm initial, final = 0.16874562 0.00011141349
  Force max component initial, final = 0.07240379 2.5730636e-05
  Final line search alpha, max atom move = 1.0000000 2.5730636e-05
  Iterations, force evaluations = 241 482

MPI task timing breakdown:
Section |  min time  |  avg time  |  max time  |%varavg| %total
---------------------------------------------------------------
Pair    | 0.73209    | 2.0226     | 2.6287     |  38.3 | 72.25
Neigh   | 1.0238e-05 | 0.0029354  | 0.0043011  |   2.2 |  0.10
Comm    | 0.044415   | 0.45667    | 1.3643     |  56.5 | 16.31
Output  | 0          | 0          | 0          |   0.0 |  0.00
Modify  | 2.9667e-05 | 0.0039754  | 0.0084853  |   3.0 |  0.14
Other   |            | 0.3131     |            |       | 11.18

Nlocal:        2776.45 ave        3954 max           0 min
Histogram: 8 4 4 0 4 12 8 2 28 34
Nghost:        3879.10 ave        5424 max         232 min
Histogram: 8 0 8 0 16 0 8 8 16 40
Neighs:        79213.6 ave      115257 max           0 min
Histogram: 8 4 4 0 10 6 8 8 24 32

Total # of neighbors = 8238215
Ave neighs/atom = 28.530516
Neighbor list builds = 1
Dangerous builds = 0
The dot product: 1.28119026468978e-06
