LAMMPS (29 Oct 2020)
OMP_NUM_THREADS environment is not set. Defaulting to 1 thread. (../comm.cpp:94)
  using 1 OpenMP thread(s) per MPI task
OMP_NUM_THREADS environment is not set. Defaulting to 1 thread. (../comm.cpp:94)
  using 1 OpenMP thread(s) per MPI task
Reading data file ...
  orthogonal box = (-122.39241 -121.13707 -37.090501) to (122.39241 121.13707 37.090501)
  13 by 4 by 2 MPI processor grid
  reading atoms ...
  288751 atoms
  read_data CPU = 0.373 seconds
199981 atoms in group inner
88770 atoms in group outer
1 atoms in group carbon
Neighbor list info ...
  update every 1 steps, delay 0 steps, check yes
  max neighbors/atom: 2000, page size: 100000
  master list distance cutoff = 5.6
  ghost atom cutoff = 5.6
  binsize = 2.8, bins = 88 87 27
  1 neighbor lists, perpetual/occasional/extra = 1 0 0
  (1) pair eam/alloy, perpetual
      attributes: half, newton on
      pair build: half/bin/atomonly/newton
      stencil: half/bin/3d/newton
      bin: standard
Setting up cg style minimization ...
  Unit style    : metal
  Current step  : 0
Per MPI rank memory allocation (min/avg/max) = 5.441 | 5.816 | 6.074 Mbytes
Step v_fx v_fy v_fz PotEng KinEng TotEng 
       0   -1.6638093  -0.73988403    2.4964326   -1152447.8            0   -1152447.8 
     196 6.0515377e-06 -8.8953098e-08 -3.2287217e-06   -1152449.5            0   -1152449.5 
Loop time of 2.32394 on 104 procs for 196 steps with 288751 atoms

99.8% CPU use with 104 MPI tasks x 1 OpenMP threads

Minimization stats:
  Stopping criterion = energy tolerance
  Energy initial, next-to-last, final = 
     -1152447.78727942  -1152449.45035287  -1152449.45035287
  Force two-norm initial, final = 10.113956 2.1172010e-05
  Force max component initial, final = 6.1447927 6.0515377e-06
  Final line search alpha, max atom move = 1.0000000 6.0515377e-06
  Iterations, force evaluations = 196 391

MPI task timing breakdown:
Section |  min time  |  avg time  |  max time  |%varavg| %total
---------------------------------------------------------------
Pair    | 0.60773    | 1.646      | 2.1393     |  34.2 | 70.83
Neigh   | 3.1043e-05 | 0.0088326  | 0.012721   |   3.9 |  0.38
Comm    | 0.040398   | 0.37526    | 1.1167     |  50.2 | 16.15
Output  | 0          | 0          | 0          |   0.0 |  0.00
Modify  | 2.2797e-05 | 0.0021002  | 0.0054393  |   2.9 |  0.09
Other   |            | 0.2917     |            |       | 12.55

Nlocal:        2776.45 ave        3961 max           0 min
Histogram: 8 4 4 0 6 10 8 2 28 34
Nghost:        3879.01 ave        5424 max         232 min
Histogram: 8 0 8 0 16 0 8 8 16 40
Neighs:        79213.5 ave      115455 max           0 min
Histogram: 8 4 4 0 10 6 8 8 24 32

Total # of neighbors = 8238206
Ave neighs/atom = 28.530485
Neighbor list builds = 3
Dangerous builds = 0
Setting atom values ...
  1 settings made for x
  1 settings made for y
  1 settings made for z
Setting up cg style minimization ...
  Unit style    : metal
  Current step  : 196
Per MPI rank memory allocation (min/avg/max) = 5.441 | 5.816 | 6.074 Mbytes
Step PotEng KinEng TotEng v_fx v_fy v_fz 
     196   -1152449.4            0   -1152449.4  0.010901147 -0.014834933  -0.02018427 
     372   -1152449.5            0   -1152449.5 -1.2224599e-06 -2.9578368e-06 -1.2491637e-05 
Loop time of 2.08392 on 104 procs for 176 steps with 288751 atoms

99.9% CPU use with 104 MPI tasks x 1 OpenMP threads

Minimization stats:
  Stopping criterion = energy tolerance
  Energy initial, next-to-last, final = 
       -1152449.449551  -1152449.45008157  -1152449.45008157
  Force two-norm initial, final = 0.1085184 7.1178264e-05
  Force max component initial, final = 0.048239992 1.2491637e-05
  Final line search alpha, max atom move = 1.0000000 1.2491637e-05
  Iterations, force evaluations = 176 352

MPI task timing breakdown:
Section |  min time  |  avg time  |  max time  |%varavg| %total
---------------------------------------------------------------
Pair    | 0.53408    | 1.4932     | 1.9309     |  33.2 | 71.65
Neigh   | 0          | 0          | 0          |   0.0 |  0.00
Comm    | 0.036922   | 0.34207    | 1.0164     |  48.0 | 16.41
Output  | 0          | 0          | 0          |   0.0 |  0.00
Modify  | 2.0868e-05 | 0.002906   | 0.0062629  |   2.5 |  0.14
Other   |            | 0.2457     |            |       | 11.79

Nlocal:        2776.45 ave        3961 max           0 min
Histogram: 8 4 4 0 6 10 8 2 28 34
Nghost:        3879.01 ave        5424 max         232 min
Histogram: 8 0 8 0 16 0 8 8 16 40
Neighs:        79213.4 ave      115455 max           0 min
Histogram: 8 4 4 0 10 6 8 8 24 32

Total # of neighbors = 8238198
Ave neighs/atom = 28.530457
Neighbor list builds = 0
Dangerous builds = 0
Setting atom values ...
  1 settings made for x
  1 settings made for y
  1 settings made for z
Setting up cg style minimization ...
  Unit style    : metal
  Current step  : 372
Per MPI rank memory allocation (min/avg/max) = 5.441 | 5.816 | 6.074 Mbytes
Step PotEng KinEng TotEng v_fx v_fy v_fz 
     372   -1152449.4            0   -1152449.4  0.018332473 -0.022547634 -0.032571024 
     526   -1152449.4            0   -1152449.4 5.9913551e-07 -5.4123347e-06 -2.0783146e-05 
Loop time of 1.81368 on 104 procs for 154 steps with 288751 atoms

99.9% CPU use with 104 MPI tasks x 1 OpenMP threads

Minimization stats:
  Stopping criterion = energy tolerance
  Energy initial, next-to-last, final = 
     -1152449.44705459  -1152449.44849452  -1152449.44849452
  Force two-norm initial, final = 0.17824827 0.00012174952
  Force max component initial, final = 0.077723836 2.1188703e-05
  Final line search alpha, max atom move = 1.0000000 2.1188703e-05
  Iterations, force evaluations = 154 308

MPI task timing breakdown:
Section |  min time  |  avg time  |  max time  |%varavg| %total
---------------------------------------------------------------
Pair    | 0.47875    | 1.2978     | 1.6909     |  30.5 | 71.56
Neigh   | 0          | 0          | 0          |   0.0 |  0.00
Comm    | 0.037705   | 0.29642    | 0.88651    |  44.6 | 16.34
Output  | 0          | 0          | 0          |   0.0 |  0.00
Modify  | 1.9733e-05 | 0.0025408  | 0.0054652  |   2.4 |  0.14
Other   |            | 0.2169     |            |       | 11.96

Nlocal:        2776.45 ave        3961 max           0 min
Histogram: 8 4 4 0 6 10 8 2 28 34
Nghost:        3879.01 ave        5424 max         232 min
Histogram: 8 0 8 0 16 0 8 8 16 40
Neighs:        79213.5 ave      115455 max           0 min
Histogram: 8 4 4 0 10 6 8 8 24 32

Total # of neighbors = 8238200
Ave neighs/atom = 28.530464
Neighbor list builds = 0
Dangerous builds = 0
The dot product: 2.92568714375208e-08
Setting atom values ...
  1 settings made for x
  1 settings made for y
  1 settings made for z
Setting up cg style minimization ...
  Unit style    : metal
  Current step  : 526
Per MPI rank memory allocation (min/avg/max) = 5.441 | 5.816 | 6.074 Mbytes
Step PotEng KinEng TotEng v_fx v_fy v_fz 
     526   -1152449.4            0   -1152449.4  0.018712067 -0.021376511 -0.031915941 
     721   -1152449.4            0   -1152449.4 -5.0311939e-06 5.5448079e-06 7.4457572e-06 
Loop time of 2.25911 on 104 procs for 195 steps with 288751 atoms

99.9% CPU use with 104 MPI tasks x 1 OpenMP threads

Minimization stats:
  Stopping criterion = energy tolerance
  Energy initial, next-to-last, final = 
      -1152449.4440369  -1152449.44546596  -1152449.44546596
  Force two-norm initial, final = 0.17702288 4.4101591e-05
  Force max component initial, final = 0.075496698 1.1010358e-05
  Final line search alpha, max atom move = 1.0000000 1.1010358e-05
  Iterations, force evaluations = 195 390

MPI task timing breakdown:
Section |  min time  |  avg time  |  max time  |%varavg| %total
---------------------------------------------------------------
Pair    | 0.59166    | 1.6428     | 2.1314     |  34.6 | 72.72
Neigh   | 0          | 0          | 0          |   0.0 |  0.00
Comm    | 0.034149   | 0.36814    | 1.1324     |  51.2 | 16.30
Output  | 0          | 0          | 0          |   0.0 |  0.00
Modify  | 2.3239e-05 | 0.0032167  | 0.0069187  |   2.7 |  0.14
Other   |            | 0.245      |            |       | 10.84

Nlocal:        2776.45 ave        3961 max           0 min
Histogram: 8 4 4 0 6 10 8 2 28 34
Nghost:        3879.01 ave        5424 max         232 min
Histogram: 8 0 8 0 16 0 8 8 16 40
Neighs:        79213.5 ave      115455 max           0 min
Histogram: 8 4 4 0 10 6 8 8 24 32

Total # of neighbors = 8238201
Ave neighs/atom = 28.530467
Neighbor list builds = 0
Dangerous builds = 0
The dot product: -7.56086434390989e-09
Setting atom values ...
  1 settings made for x
  1 settings made for y
  1 settings made for z
Setting up cg style minimization ...
  Unit style    : metal
  Current step  : 721
Per MPI rank memory allocation (min/avg/max) = 5.441 | 5.816 | 6.074 Mbytes
Step PotEng KinEng TotEng v_fx v_fy v_fz 
     721   -1152449.4            0   -1152449.4  0.019608741   -0.0211282 -0.030959945 
     839   -1152449.4            0   -1152449.4 -1.6567078e-05 8.9084386e-06 -3.8838528e-05 
Loop time of 1.37073 on 104 procs for 118 steps with 288751 atoms

99.9% CPU use with 104 MPI tasks x 1 OpenMP threads

Minimization stats:
  Stopping criterion = energy tolerance
  Energy initial, next-to-last, final = 
     -1152449.43953274  -1152449.44095337  -1152449.44095337
  Force two-norm initial, final = 0.1761177 0.00016270545
  Force max component initial, final = 0.073377236 3.8838528e-05
  Final line search alpha, max atom move = 1.0000000 3.8838528e-05
  Iterations, force evaluations = 118 236

MPI task timing breakdown:
Section |  min time  |  avg time  |  max time  |%varavg| %total
---------------------------------------------------------------
Pair    | 0.36018    | 0.98905    | 1.2912     |  26.8 | 72.15
Neigh   | 0          | 0          | 0          |   0.0 |  0.00
Comm    | 0.023057   | 0.22342    | 0.66977    |  39.3 | 16.30
Output  | 0          | 0          | 0          |   0.0 |  0.00
Modify  | 1.4427e-05 | 0.0019429  | 0.0042004  |   2.1 |  0.14
Other   |            | 0.1563     |            |       | 11.40

Nlocal:        2776.45 ave        3961 max           0 min
Histogram: 8 4 4 0 6 10 8 2 28 34
Nghost:        3879.01 ave        5424 max         232 min
Histogram: 8 0 8 0 16 0 8 8 16 40
Neighs:        79213.5 ave      115455 max           0 min
Histogram: 8 4 4 0 10 6 8 8 24 32

Total # of neighbors = 8238201
Ave neighs/atom = 28.530467
Neighbor list builds = 0
Dangerous builds = 0
The dot product: 7.65802020829168e-08
Setting atom values ...
  1 settings made for x
  1 settings made for y
  1 settings made for z
Setting up cg style minimization ...
  Unit style    : metal
  Current step  : 839
Per MPI rank memory allocation (min/avg/max) = 5.441 | 5.816 | 6.074 Mbytes
Step PotEng KinEng TotEng v_fx v_fy v_fz 
     839   -1152449.4            0   -1152449.4  0.021009378 -0.021679923 -0.030697002 
     966   -1152449.4            0   -1152449.4 -1.7531446e-05 1.6435981e-05 1.0210267e-05 
Loop time of 1.45849 on 104 procs for 127 steps with 288751 atoms

99.9% CPU use with 104 MPI tasks x 1 OpenMP threads

Minimization stats:
  Stopping criterion = energy tolerance
  Energy initial, next-to-last, final = 
     -1152449.43350951  -1152449.43492205  -1152449.43492205
  Force two-norm initial, final = 0.17549836 0.00010330375
  Force max component initial, final = 0.07265236 2.0685781e-05
  Final line search alpha, max atom move = 1.0000000 2.0685781e-05
  Iterations, force evaluations = 127 254

MPI task timing breakdown:
Section |  min time  |  avg time  |  max time  |%varavg| %total
---------------------------------------------------------------
Pair    | 0.38548    | 1.0696     | 1.3819     |  27.9 | 73.33
Neigh   | 0          | 0          | 0          |   0.0 |  0.00
Comm    | 0.022477   | 0.23736    | 0.72738    |  41.7 | 16.27
Output  | 0          | 0          | 0          |   0.0 |  0.00
Modify  | 1.5342e-05 | 0.0020893  | 0.0045083  |   2.2 |  0.14
Other   |            | 0.1495     |            |       | 10.25

Nlocal:        2776.45 ave        3961 max           0 min
Histogram: 8 4 4 0 6 10 8 2 28 34
Nghost:        3879.01 ave        5424 max         232 min
Histogram: 8 0 8 0 16 0 8 8 16 40
Neighs:        79213.5 ave      115455 max           0 min
Histogram: 8 4 4 0 10 6 8 8 24 32

Total # of neighbors = 8238201
Ave neighs/atom = 28.530467
Neighbor list builds = 0
Dangerous builds = 0
The dot product: -8.22774881515485e-09
Setting atom values ...
  1 settings made for x
  1 settings made for y
  1 settings made for z
Setting up cg style minimization ...
  Unit style    : metal
  Current step  : 966
Per MPI rank memory allocation (min/avg/max) = 5.441 | 5.816 | 6.074 Mbytes
Step PotEng KinEng TotEng v_fx v_fy v_fz 
     966   -1152449.4            0   -1152449.4  0.022984422 -0.022882962   -0.0311522 
    1000   -1152449.4            0   -1152449.4 -0.00015745608 8.9131327e-05 -0.0005924153 
    1083   -1152449.4            0   -1152449.4 -1.0139301e-05 1.134986e-05 2.8699846e-05 
Loop time of 1.35345 on 104 procs for 117 steps with 288751 atoms

99.9% CPU use with 104 MPI tasks x 1 OpenMP threads

Minimization stats:
  Stopping criterion = energy tolerance
  Energy initial, next-to-last, final = 
     -1152449.42594416  -1152449.42734718  -1152449.42734718
  Force two-norm initial, final = 0.17503048 0.0001701014
  Force max component initial, final = 0.073092632 2.8783997e-05
  Final line search alpha, max atom move = 1.0000000 2.8783997e-05
  Iterations, force evaluations = 117 234

MPI task timing breakdown:
Section |  min time  |  avg time  |  max time  |%varavg| %total
---------------------------------------------------------------
Pair    | 0.35504    | 0.98021    | 1.2761     |  26.7 | 72.42
Neigh   | 0          | 0          | 0          |   0.0 |  0.00
Comm    | 0.020242   | 0.22054    | 0.66689    |  39.4 | 16.29
Output  | 0.00014482 | 0.00015514 | 0.00024842 |   0.0 |  0.01
Modify  | 1.4151e-05 | 0.0019322  | 0.0041706  |   2.1 |  0.14
Other   |            | 0.1506     |            |       | 11.13

Nlocal:        2776.45 ave        3960 max           0 min
Histogram: 8 4 4 0 4 12 8 2 28 34
Nghost:        3879.01 ave        5424 max         232 min
Histogram: 8 0 8 0 16 0 8 8 16 40
Neighs:        79213.5 ave      115432 max           0 min
Histogram: 8 4 4 0 10 6 8 8 24 32

Total # of neighbors = 8238203
Ave neighs/atom = 28.530474
Neighbor list builds = 0
Dangerous builds = 0
The dot product: -4.90856575814644e-08
Setting atom values ...
  1 settings made for x
  1 settings made for y
  1 settings made for z
Setting up cg style minimization ...
  Unit style    : metal
  Current step  : 1083
Per MPI rank memory allocation (min/avg/max) = 5.441 | 5.816 | 6.074 Mbytes
Step PotEng KinEng TotEng v_fx v_fy v_fz 
    1083   -1152449.4            0   -1152449.4  0.025725561 -0.024748554 -0.032638408 
    1208   -1152449.4            0   -1152449.4 -1.4698557e-05 1.4623547e-05 2.620994e-05 
Loop time of 1.44115 on 104 procs for 125 steps with 288751 atoms

99.9% CPU use with 104 MPI tasks x 1 OpenMP threads

Minimization stats:
  Stopping criterion = energy tolerance
  Energy initial, next-to-last, final = 
     -1152449.41682188  -1152449.41821642  -1152449.41821642
  Force two-norm initial, final = 0.17480591 0.00012106247
  Force max component initial, final = 0.073805492 2.8835505e-05
  Final line search alpha, max atom move = 1.0000000 2.8835505e-05
  Iterations, force evaluations = 125 250

MPI task timing breakdown:
Section |  min time  |  avg time  |  max time  |%varavg| %total
---------------------------------------------------------------
Pair    | 0.37937    | 1.0524     | 1.362      |  27.7 | 73.02
Neigh   | 0          | 0          | 0          |   0.0 |  0.00
Comm    | 0.024052   | 0.2349     | 0.71565    |  41.2 | 16.30
Output  | 0          | 0          | 0          |   0.0 |  0.00
Modify  | 1.4798e-05 | 0.0020598  | 0.0044336  |   2.1 |  0.14
Other   |            | 0.1518     |            |       | 10.54

Nlocal:        2776.45 ave        3959 max           0 min
Histogram: 8 4 4 0 4 12 8 2 28 34
Nghost:        3879.01 ave        5424 max         232 min
Histogram: 8 0 8 0 16 0 8 8 16 40
Neighs:        79213.5 ave      115391 max           0 min
Histogram: 8 4 4 0 10 6 8 8 24 32

Total # of neighbors = 8238203
Ave neighs/atom = 28.530474
Neighbor list builds = 0
Dangerous builds = 0
The dot product: -6.29680559710102e-08
Setting atom values ...
  1 settings made for x
  1 settings made for y
  1 settings made for z
Setting up cg style minimization ...
  Unit style    : metal
  Current step  : 1208
Per MPI rank memory allocation (min/avg/max) = 5.441 | 5.816 | 6.074 Mbytes
Step PotEng KinEng TotEng v_fx v_fy v_fz 
    1208   -1152449.4            0   -1152449.4  0.029400762 -0.027217307 -0.035293272 
    1347   -1152449.4            0   -1152449.4 8.0414336e-06 -6.8014204e-06 4.6703094e-06 
Loop time of 1.59781 on 104 procs for 139 steps with 288751 atoms

99.9% CPU use with 104 MPI tasks x 1 OpenMP threads

Minimization stats:
  Stopping criterion = energy tolerance
  Energy initial, next-to-last, final = 
     -1152449.40614462  -1152449.40753391  -1152449.40753391
  Force two-norm initial, final = 0.17489138 7.6867129e-05
  Force max component initial, final = 0.074799984 1.6103153e-05
  Final line search alpha, max atom move = 1.0000000 1.6103153e-05
  Iterations, force evaluations = 139 278

MPI task timing breakdown:
Section |  min time  |  avg time  |  max time  |%varavg| %total
---------------------------------------------------------------
Pair    | 0.42148    | 1.1651     | 1.5148     |  29.2 | 72.92
Neigh   | 0          | 0          | 0          |   0.0 |  0.00
Comm    | 0.023943   | 0.26116    | 0.79221    |  43.2 | 16.34
Output  | 0          | 0          | 0          |   0.0 |  0.00
Modify  | 1.6416e-05 | 0.0022866  | 0.0050301  |   2.3 |  0.14
Other   |            | 0.1693     |            |       | 10.60

Nlocal:        2776.45 ave        3958 max           0 min
Histogram: 8 4 4 0 4 12 8 2 28 34
Nghost:        3879.01 ave        5424 max         232 min
Histogram: 8 0 8 0 16 0 8 8 16 40
Neighs:        79213.5 ave      115354 max           0 min
Histogram: 8 4 4 0 10 6 8 8 24 32

Total # of neighbors = 8238201
Ave neighs/atom = 28.530467
Neighbor list builds = 0
Dangerous builds = 0
The dot product: 5.99428537630682e-09
Setting atom values ...
  1 settings made for x
  1 settings made for y
  1 settings made for z
Setting up cg style minimization ...
  Unit style    : metal
  Current step  : 1347
Per MPI rank memory allocation (min/avg/max) = 5.441 | 5.816 | 6.074 Mbytes
Step PotEng KinEng TotEng v_fx v_fy v_fz 
    1347   -1152449.4            0   -1152449.4  0.034472655 -0.030406277 -0.039512304 
    1468   -1152449.4            0   -1152449.4 -1.4723411e-05 1.362857e-05 4.284891e-05 
Loop time of 1.43353 on 104 procs for 121 steps with 288751 atoms

99.9% CPU use with 104 MPI tasks x 1 OpenMP threads

Minimization stats:
  Stopping criterion = energy tolerance
  Energy initial, next-to-last, final = 
     -1152449.39393645  -1152449.39533255  -1152449.39533255
  Force two-norm initial, final = 0.17559343 0.00017568979
  Force max component initial, final = 0.076054452 4.2848910e-05
  Final line search alpha, max atom move = 1.0000000 4.2848910e-05
  Iterations, force evaluations = 121 242

MPI task timing breakdown:
Section |  min time  |  avg time  |  max time  |%varavg| %total
---------------------------------------------------------------
Pair    | 0.37391    | 1.0237     | 1.3205     |  27.1 | 71.41
Neigh   | 0          | 0          | 0          |   0.0 |  0.00
Comm    | 0.023269   | 0.23283    | 0.71233    |  39.9 | 16.24
Output  | 0          | 0          | 0          |   0.0 |  0.00
Modify  | 1.481e-05  | 0.0019988  | 0.0042881  |   2.1 |  0.14
Other   |            | 0.175      |            |       | 12.20

Nlocal:        2776.45 ave        3956 max           0 min
Histogram: 8 4 4 0 4 12 8 2 28 34
Nghost:        3879.01 ave        5424 max         232 min
Histogram: 8 0 8 0 16 0 8 8 16 40
Neighs:        79213.4 ave      115294 max           0 min
Histogram: 8 4 4 0 10 6 8 8 24 32

Total # of neighbors = 8238197
Ave neighs/atom = 28.530454
Neighbor list builds = 0
Dangerous builds = 0
The dot product: -1.94689338280047e-07
Setting atom values ...
  1 settings made for x
  1 settings made for y
  1 settings made for z
Setting up cg style minimization ...
  Unit style    : metal
  Current step  : 1468
Per MPI rank memory allocation (min/avg/max) = 5.441 | 5.816 | 6.074 Mbytes
Step PotEng KinEng TotEng v_fx v_fy v_fz 
    1468   -1152449.4            0   -1152449.4  0.043144838 -0.035589366  -0.04844105 
    1575   -1152449.4            0   -1152449.4 -3.5648806e-05 2.9390961e-05 1.9536047e-05 
Loop time of 1.26025 on 104 procs for 107 steps with 288751 atoms

99.9% CPU use with 104 MPI tasks x 1 OpenMP threads

Minimization stats:
  Stopping criterion = energy tolerance
  Energy initial, next-to-last, final = 
     -1152449.38028867  -1152449.38176579  -1152449.38176579
  Force two-norm initial, final = 0.17862053 0.0002790771
  Force max component initial, final = 0.077640193 5.9884917e-05
  Final line search alpha, max atom move = 1.0000000 5.9884917e-05
  Iterations, force evaluations = 107 214

MPI task timing breakdown:
Section |  min time  |  avg time  |  max time  |%varavg| %total
---------------------------------------------------------------
Pair    | 0.32678    | 0.90176    | 1.1744     |  25.6 | 71.55
Neigh   | 0          | 0          | 0          |   0.0 |  0.00
Comm    | 0.022015   | 0.20433    | 0.6149     |  37.8 | 16.21
Output  | 0          | 0          | 0          |   0.0 |  0.00
Modify  | 1.289e-05  | 0.0017681  | 0.0038229  |   2.0 |  0.14
Other   |            | 0.1524     |            |       | 12.09

Nlocal:        2776.45 ave        3951 max           0 min
Histogram: 8 4 4 0 4 12 8 2 28 34
Nghost:        3879.05 ave        5424 max         232 min
Histogram: 8 0 8 0 16 0 8 8 16 40
Neighs:        79213.4 ave      115136 max           0 min
Histogram: 8 4 4 0 10 6 8 8 24 32

Total # of neighbors = 8238198
Ave neighs/atom = 28.530457
Neighbor list builds = 0
Dangerous builds = 0
The dot product: -4.24134717736881e-07
Setting atom values ...
  1 settings made for x
  1 settings made for y
  1 settings made for z
Setting up cg style minimization ...
  Unit style    : metal
  Current step  : 1575
Per MPI rank memory allocation (min/avg/max) = 5.441 | 5.816 | 6.074 Mbytes
Step PotEng KinEng TotEng v_fx v_fy v_fz 
    1575   -1152449.4            0   -1152449.4  0.061400049 -0.044480958 -0.067839253 
    1759   -1152449.4            0   -1152449.4 1.8823008e-05 -1.3479841e-05 -2.4747744e-05 
Loop time of 2.1119 on 104 procs for 184 steps with 288751 atoms

99.9% CPU use with 104 MPI tasks x 1 OpenMP threads

Minimization stats:
  Stopping criterion = energy tolerance
  Energy initial, next-to-last, final = 
     -1152449.36558995  -1152449.36854608  -1152449.36854608
  Force two-norm initial, final = 0.18956191 0.00021107117
  Force max component initial, final = 0.079717322 5.2149653e-05
  Final line search alpha, max atom move = 1.0000000 5.2149653e-05
  Iterations, force evaluations = 184 368

MPI task timing breakdown:
Section |  min time  |  avg time  |  max time  |%varavg| %total
---------------------------------------------------------------
Pair    | 0.55766    | 1.5494     | 2.0018     |  33.7 | 73.37
Neigh   | 0          | 0          | 0          |   0.0 |  0.00
Comm    | 0.031831   | 0.35045    | 1.0606     |  49.5 | 16.59
Output  | 0          | 0          | 0          |   0.0 |  0.00
Modify  | 2.2132e-05 | 0.0030239  | 0.0065415  |   2.6 |  0.14
Other   |            | 0.209      |            |       |  9.90

Nlocal:        2776.45 ave        3947 max           0 min
Histogram: 8 4 4 0 4 12 8 2 26 36
Nghost:        3879.05 ave        5424 max         232 min
Histogram: 8 0 8 0 16 0 8 8 16 40
Neighs:        79213.4 ave      115004 max           0 min
Histogram: 8 4 4 0 10 6 8 8 24 32

Total # of neighbors = 8238194
Ave neighs/atom = 28.530443
Neighbor list builds = 0
Dangerous builds = 0
The dot product: 1.71370612963695e-06
Setting atom values ...
  1 settings made for x
  1 settings made for y
  1 settings made for z
Setting up cg style minimization ...
  Unit style    : metal
  Current step  : 1759
Per MPI rank memory allocation (min/avg/max) = 5.441 | 5.816 | 6.074 Mbytes
Step PotEng KinEng TotEng v_fx v_fy v_fz 
    1759   -1152449.4            0   -1152449.4   0.15859104 -0.054499564  -0.12937074 
    2000   -1152449.4            0   -1152449.4 2.0590323e-06 1.6935446e-06 -1.3225251e-05 
    2009   -1152449.4            0   -1152449.4 4.0376598e-06 -8.6889207e-07 -5.7875709e-06 
Loop time of 2.90446 on 104 procs for 250 steps with 288751 atoms

99.9% CPU use with 104 MPI tasks x 1 OpenMP threads

Minimization stats:
  Stopping criterion = energy tolerance
  Energy initial, next-to-last, final = 
     -1152449.35469317  -1152449.36172425  -1152449.36172425
  Force two-norm initial, final = 0.25805546 2.2683617e-05
  Force max component initial, final = 0.15859104 6.1724970e-06
  Final line search alpha, max atom move = 1.0000000 6.1724970e-06
  Iterations, force evaluations = 250 500

MPI task timing breakdown:
Section |  min time  |  avg time  |  max time  |%varavg| %total
---------------------------------------------------------------
Pair    | 0.76266    | 2.0948     | 2.7376     |  39.0 | 72.12
Neigh   | 1.0249e-05 | 0.0029703  | 0.0042836  |   2.2 |  0.10
Comm    | 0.043472   | 0.47205    | 1.4145     |  57.1 | 16.25
Output  | 0.00014978 | 0.00015825 | 0.00030303 |   0.0 |  0.01
Modify  | 3.0218e-05 | 0.0041048  | 0.0088696  |   3.0 |  0.14
Other   |            | 0.3303     |            |       | 11.37

Nlocal:        2776.45 ave        3950 max           0 min
Histogram: 8 4 4 0 4 12 8 2 26 36
Nghost:        3879.01 ave        5424 max         232 min
Histogram: 8 0 8 0 16 0 8 8 16 40
Neighs:        79213.4 ave      115107 max           0 min
Histogram: 8 4 4 0 10 6 8 8 24 32

Total # of neighbors = 8238197
Ave neighs/atom = 28.530454
Neighbor list builds = 1
Dangerous builds = 0
The dot product: 3.8495231784469e-07
Setting atom values ...
  1 settings made for x
  1 settings made for y
  1 settings made for z
Setting up cg style minimization ...
  Unit style    : metal
  Current step  : 2009
Per MPI rank memory allocation (min/avg/max) = 5.441 | 5.816 | 6.074 Mbytes
Step PotEng KinEng TotEng v_fx v_fy v_fz 
    2009   -1152449.3            0   -1152449.3   0.14256749 -0.013171054 -0.076877504 
    2223   -1152449.4            0   -1152449.4 3.0848392e-06 -2.0060558e-06 3.4596453e-06 
Loop time of 2.45697 on 104 procs for 214 steps with 288751 atoms

99.9% CPU use with 104 MPI tasks x 1 OpenMP threads

Minimization stats:
  Stopping criterion = energy tolerance
  Energy initial, next-to-last, final = 
     -1152449.34985943  -1152449.35366493  -1152449.35366493
  Force two-norm initial, final = 0.21258542 7.9959507e-05
  Force max component initial, final = 0.14256749 1.4750245e-05
  Final line search alpha, max atom move = 1.0000000 1.4750245e-05
  Iterations, force evaluations = 214 428

MPI task timing breakdown:
Section |  min time  |  avg time  |  max time  |%varavg| %total
---------------------------------------------------------------
Pair    | 0.64947    | 1.7966     | 2.3234     |  36.1 | 73.12
Neigh   | 0          | 0          | 0          |   0.0 |  0.00
Comm    | 0.037476   | 0.39881    | 1.2231     |  54.0 | 16.23
Output  | 0          | 0          | 0          |   0.0 |  0.00
Modify  | 2.5066e-05 | 0.0035156  | 0.0075422  |   2.8 |  0.14
Other   |            | 0.258      |            |       | 10.50

Nlocal:        2776.45 ave        3951 max           0 min
Histogram: 8 4 4 0 4 12 8 1 29 34
Nghost:        3879.01 ave        5424 max         232 min
Histogram: 8 0 8 0 16 0 8 8 16 40
Neighs:        79213.5 ave      115126 max           0 min
Histogram: 8 4 4 0 10 6 8 8 24 32

Total # of neighbors = 8238202
Ave neighs/atom = 28.530471
Neighbor list builds = 0
Dangerous builds = 0
The dot product: 4.52933172349019e-08
Setting atom values ...
  1 settings made for x
  1 settings made for y
  1 settings made for z
Setting up cg style minimization ...
  Unit style    : metal
  Current step  : 2223
Per MPI rank memory allocation (min/avg/max) = 5.441 | 5.816 | 6.074 Mbytes
Step PotEng KinEng TotEng v_fx v_fy v_fz 
    2223   -1152449.3            0   -1152449.3  0.079172942 0.0034380306 -0.036977656 
    2340   -1152449.3            0   -1152449.3 -1.9393421e-05 2.1940587e-05 -4.8009744e-05 
Loop time of 1.34311 on 104 procs for 117 steps with 288751 atoms

99.9% CPU use with 104 MPI tasks x 1 OpenMP threads

Minimization stats:
  Stopping criterion = energy tolerance
  Energy initial, next-to-last, final = 
     -1152449.34238764  -1152449.34472446  -1152449.34472446
  Force two-norm initial, final = 0.16274189 0.00026673969
  Force max component initial, final = 0.079417661 8.0185669e-05
  Final line search alpha, max atom move = 1.0000000 8.0185669e-05
  Iterations, force evaluations = 117 234

MPI task timing breakdown:
Section |  min time  |  avg time  |  max time  |%varavg| %total
---------------------------------------------------------------
Pair    | 0.35494    | 0.98088    | 1.2733     |  26.7 | 73.03
Neigh   | 0          | 0          | 0          |   0.0 |  0.00
Comm    | 0.020175   | 0.2198     | 0.66605    |  39.6 | 16.36
Output  | 0          | 0          | 0          |   0.0 |  0.00
Modify  | 1.3944e-05 | 0.0019266  | 0.0042028  |   2.1 |  0.14
Other   |            | 0.1405     |            |       | 10.46

Nlocal:        2776.45 ave        3951 max           0 min
Histogram: 8 4 4 0 4 12 8 0 30 34
Nghost:        3879.05 ave        5424 max         232 min
Histogram: 8 0 8 0 16 0 8 8 16 40
Neighs:        79213.5 ave      115126 max           0 min
Histogram: 8 4 4 0 10 6 8 8 24 32

Total # of neighbors = 8238203
Ave neighs/atom = 28.530474
Neighbor list builds = 0
Dangerous builds = 0
The dot product: 3.17049360110299e-07
Setting atom values ...
  1 settings made for x
  1 settings made for y
  1 settings made for z
Setting up cg style minimization ...
  Unit style    : metal
  Current step  : 2340
Per MPI rank memory allocation (min/avg/max) = 5.441 | 5.816 | 6.074 Mbytes
Step PotEng KinEng TotEng v_fx v_fy v_fz 
    2340   -1152449.3            0   -1152449.3  0.036215895  0.010106571 -0.028705528 
    2602   -1152449.3            0   -1152449.3 -5.9806529e-06 -4.7524801e-06 1.1583356e-05 
Loop time of 3.0159 on 104 procs for 262 steps with 288751 atoms

99.9% CPU use with 104 MPI tasks x 1 OpenMP threads

Minimization stats:
  Stopping criterion = energy tolerance
  Energy initial, next-to-last, final = 
     -1152449.33518017  -1152449.34516594  -1152449.34516594
  Force two-norm initial, final = 0.15178816 4.8634135e-05
  Force max component initial, final = 0.074195655 1.2321207e-05
  Final line search alpha, max atom move = 1.0000000 1.2321207e-05
  Iterations, force evaluations = 262 524

MPI task timing breakdown:
Section |  min time  |  avg time  |  max time  |%varavg| %total
---------------------------------------------------------------
Pair    | 0.79677    | 2.2        | 2.8456     |  39.9 | 72.95
Neigh   | 1.0215e-05 | 0.0029538  | 0.0042827  |   2.2 |  0.10
Comm    | 0.045632   | 0.48931    | 1.4941     |  59.6 | 16.22
Output  | 0          | 0          | 0          |   0.0 |  0.00
Modify  | 3.1013e-05 | 0.0043086  | 0.0092765  |   3.1 |  0.14
Other   |            | 0.3193     |            |       | 10.59

Nlocal:        2776.45 ave        3955 max           0 min
Histogram: 8 4 4 0 4 12 8 0 30 34
Nghost:        3879.01 ave        5424 max         232 min
Histogram: 8 0 8 0 16 0 8 8 16 40
Neighs:        79213.5 ave      115276 max           0 min
Histogram: 8 4 4 0 10 6 8 8 24 32

Total # of neighbors = 8238202
Ave neighs/atom = 28.530471
Neighbor list builds = 1
Dangerous builds = 0
The dot product: -5.19610072055482e-07
Setting atom values ...
  1 settings made for x
  1 settings made for y
  1 settings made for z
Setting up cg style minimization ...
  Unit style    : metal
  Current step  : 2602
Per MPI rank memory allocation (min/avg/max) = 5.441 | 5.816 | 6.074 Mbytes
Step PotEng KinEng TotEng v_fx v_fy v_fz 
    2602   -1152449.3            0   -1152449.3 -0.0049861844 -0.021826703  0.036513942 
    2714   -1152449.3            0   -1152449.3 1.403679e-05 9.6675376e-06 -1.7142508e-05 
Loop time of 1.3015 on 104 procs for 112 steps with 288751 atoms

99.9% CPU use with 104 MPI tasks x 1 OpenMP threads

Minimization stats:
  Stopping criterion = energy tolerance
  Energy initial, next-to-last, final = 
     -1152449.34736126  -1152449.34836201  -1152449.34836201
  Force two-norm initial, final = 0.13182203 0.00011374567
  Force max component initial, final = 0.052463105 3.5549442e-05
  Final line search alpha, max atom move = 1.0000000 3.5549442e-05
  Iterations, force evaluations = 112 224

MPI task timing breakdown:
Section |  min time  |  avg time  |  max time  |%varavg| %total
---------------------------------------------------------------
Pair    | 0.34183    | 0.9399     | 1.2277     |  26.2 | 72.22
Neigh   | 0          | 0          | 0          |   0.0 |  0.00
Comm    | 0.021151   | 0.21192    | 0.63958    |  38.5 | 16.28
Output  | 0          | 0          | 0          |   0.0 |  0.00
Modify  | 1.3278e-05 | 0.001848   | 0.003993   |   2.0 |  0.14
Other   |            | 0.1478     |            |       | 11.36

Nlocal:        2776.45 ave        3961 max           0 min
Histogram: 8 4 4 0 6 10 8 2 28 34
Nghost:        3879.01 ave        5424 max         232 min
Histogram: 8 0 8 0 16 0 8 8 16 40
Neighs:        79213.4 ave      115465 max           0 min
Histogram: 8 4 4 0 10 6 8 8 24 32

Total # of neighbors = 8238191
Ave neighs/atom = 28.530433
Neighbor list builds = 0
Dangerous builds = 0
The dot product: -8.76807682555847e-08
Setting atom values ...
  1 settings made for x
  1 settings made for y
  1 settings made for z
Setting up cg style minimization ...
  Unit style    : metal
  Current step  : 2714
Per MPI rank memory allocation (min/avg/max) = 5.441 | 5.816 | 6.074 Mbytes
Step PotEng KinEng TotEng v_fx v_fy v_fz 
    2714   -1152449.3            0   -1152449.3 0.00088210392 -0.010935879  0.018489612 
    2899   -1152449.4            0   -1152449.4 3.412216e-05 5.3417309e-06 -1.2108977e-05 
Loop time of 2.14254 on 104 procs for 185 steps with 288751 atoms

99.9% CPU use with 104 MPI tasks x 1 OpenMP threads

Minimization stats:
  Stopping criterion = energy tolerance
  Energy initial, next-to-last, final = 
     -1152449.34965427  -1152449.35055888  -1152449.35055888
  Force two-norm initial, final = 0.12504324 0.00010274508
  Force max component initial, final = 0.052981856 3.4122160e-05
  Final line search alpha, max atom move = 1.0000000 3.4122160e-05
  Iterations, force evaluations = 185 370

MPI task timing breakdown:
Section |  min time  |  avg time  |  max time  |%varavg| %total
---------------------------------------------------------------
Pair    | 0.55957    | 1.5599     | 2.0274     |  33.8 | 72.80
Neigh   | 0          | 0          | 0          |   0.0 |  0.00
Comm    | 0.035762   | 0.35048    | 1.0699     |  49.8 | 16.36
Output  | 0          | 0          | 0          |   0.0 |  0.00
Modify  | 2.2058e-05 | 0.0030514  | 0.006624   |   2.6 |  0.14
Other   |            | 0.2291     |            |       | 10.69

Nlocal:        2776.45 ave        3960 max           0 min
Histogram: 8 4 4 0 4 12 8 2 28 34
Nghost:        3879.01 ave        5424 max         232 min
Histogram: 8 0 8 0 16 0 8 8 16 40
Neighs:        79213.4 ave      115434 max           0 min
Histogram: 8 4 4 0 10 6 8 8 24 32

Total # of neighbors = 8238193
Ave neighs/atom = 28.530440
Neighbor list builds = 0
Dangerous builds = 0
The dot product: 3.62329498054722e-09
Setting atom values ...
  1 settings made for x
  1 settings made for y
  1 settings made for z
Setting up cg style minimization ...
  Unit style    : metal
  Current step  : 2899
Per MPI rank memory allocation (min/avg/max) = 5.441 | 5.816 | 6.074 Mbytes
Step PotEng KinEng TotEng v_fx v_fy v_fz 
    2899   -1152449.4            0   -1152449.4 0.00060783886 -0.011993217  0.020325486 
    3000   -1152449.4            0   -1152449.4 0.00014366289 2.6882207e-05 -5.8359372e-05 
    3082   -1152449.4            0   -1152449.4 -7.8834091e-06 1.1389198e-05 -1.865694e-05 
Loop time of 2.12841 on 104 procs for 183 steps with 288751 atoms

99.9% CPU use with 104 MPI tasks x 1 OpenMP threads

Minimization stats:
  Stopping criterion = energy tolerance
  Energy initial, next-to-last, final = 
      -1152449.3506319  -1152449.35153376  -1152449.35153376
  Force two-norm initial, final = 0.12557236 0.000116573
  Force max component initial, final = 0.052603088 1.8656940e-05
  Final line search alpha, max atom move = 1.0000000 1.8656940e-05
  Iterations, force evaluations = 183 366

MPI task timing breakdown:
Section |  min time  |  avg time  |  max time  |%varavg| %total
---------------------------------------------------------------
Pair    | 0.5549     | 1.535      | 2.0117     |  33.5 | 72.12
Neigh   | 0          | 0          | 0          |   0.0 |  0.00
Comm    | 0.03125    | 0.34724    | 1.0494     |  49.2 | 16.31
Output  | 0.00012619 | 0.00012848 | 0.00024423 |   0.0 |  0.01
Modify  | 2.2368e-05 | 0.0030174  | 0.0064747  |   2.6 |  0.14
Other   |            | 0.243      |            |       | 11.42

Nlocal:        2776.45 ave        3961 max           0 min
Histogram: 8 4 4 0 6 10 8 2 28 34
Nghost:        3879.01 ave        5426 max         232 min
Histogram: 8 0 8 0 16 0 8 8 16 40
Neighs:        79213.4 ave      115455 max           0 min
Histogram: 8 4 4 0 10 6 8 8 24 32

Total # of neighbors = 8238189
Ave neighs/atom = 28.530426
Neighbor list builds = 0
Dangerous builds = 0
The dot product: -1.28459216162162e-08
Setting atom values ...
  1 settings made for x
  1 settings made for y
  1 settings made for z
Setting up cg style minimization ...
  Unit style    : metal
  Current step  : 3082
Per MPI rank memory allocation (min/avg/max) = 5.441 | 5.816 | 6.074 Mbytes
Step PotEng KinEng TotEng v_fx v_fy v_fz 
    3082   -1152449.4            0   -1152449.4 0.00095917022 -0.011436294  0.019412037 
    3259   -1152449.4            0   -1152449.4 1.4569281e-05 2.7181132e-06 -5.909476e-06 
Loop time of 2.05214 on 104 procs for 177 steps with 288751 atoms

99.9% CPU use with 104 MPI tasks x 1 OpenMP threads

Minimization stats:
  Stopping criterion = energy tolerance
  Energy initial, next-to-last, final = 
     -1152449.35029567  -1152449.35119036  -1152449.35119036
  Force two-norm initial, final = 0.12510274 0.00015546385
  Force max component initial, final = 0.052458964 1.4569281e-05
  Final line search alpha, max atom move = 1.0000000 1.4569281e-05
  Iterations, force evaluations = 177 354

MPI task timing breakdown:
Section |  min time  |  avg time  |  max time  |%varavg| %total
---------------------------------------------------------------
Pair    | 0.53677    | 1.4923     | 1.9423     |  33.0 | 72.72
Neigh   | 0          | 0          | 0          |   0.0 |  0.00
Comm    | 0.029745   | 0.33575    | 1.0243     |  48.5 | 16.36
Output  | 0          | 0          | 0          |   0.0 |  0.00
Modify  | 2.0981e-05 | 0.0029183  | 0.0062604  |   2.6 |  0.14
Other   |            | 0.2211     |            |       | 10.78

Nlocal:        2776.45 ave        3961 max           0 min
Histogram: 8 4 4 0 6 10 8 2 28 34
Nghost:        3879.01 ave        5424 max         232 min
Histogram: 8 0 8 0 16 0 8 8 16 40
Neighs:        79213.4 ave      115455 max           0 min
Histogram: 8 4 4 0 10 6 8 8 24 32

Total # of neighbors = 8238191
Ave neighs/atom = 28.530433
Neighbor list builds = 0
Dangerous builds = 0
The dot product: -3.97411131037329e-11
Setting up cg style minimization ...
  Unit style    : metal
  Current step  : 3259
Per MPI rank memory allocation (min/avg/max) = 5.441 | 5.816 | 6.074 Mbytes
Step PotEng KinEng TotEng v_fx v_fy v_fz 
    3259   -1152449.4            0   -1152449.4 0.0022630497  0.043776604  0.025671683 
    3458   -1152449.4            0   -1152449.4 4.9011511e-06 1.0841198e-06 -4.814069e-06 
Loop time of 2.299 on 104 procs for 199 steps with 288751 atoms

99.9% CPU use with 104 MPI tasks x 1 OpenMP threads

Minimization stats:
  Stopping criterion = energy tolerance
  Energy initial, next-to-last, final = 
     -1152449.35119036  -1152449.35157347  -1152449.35157347
  Force two-norm initial, final = 0.050799328 5.4251065e-05
  Force max component initial, final = 0.043776604 5.6730404e-06
  Final line search alpha, max atom move = 1.0000000 5.6730404e-06
  Iterations, force evaluations = 199 398

MPI task timing breakdown:
Section |  min time  |  avg time  |  max time  |%varavg| %total
---------------------------------------------------------------
Pair    | 0.60114    | 1.673      | 2.1807     |  35.1 | 72.77
Neigh   | 0          | 0          | 0          |   0.0 |  0.00
Comm    | 0.033705   | 0.37671    | 1.1331     |  51.6 | 16.39
Output  | 0          | 0          | 0          |   0.0 |  0.00
Modify  | 2.2265e-05 | 0.0021292  | 0.0055347  |   2.9 |  0.09
Other   |            | 0.2471     |            |       | 10.75

Nlocal:        2776.45 ave        3961 max           0 min
Histogram: 8 4 4 0 6 10 8 2 28 34
Nghost:        3879.01 ave        5424 max         232 min
Histogram: 8 0 8 0 16 0 8 8 16 40
Neighs:        79213.4 ave      115455 max           0 min
Histogram: 8 4 4 0 10 6 8 8 24 32

Total # of neighbors = 8238191
Ave neighs/atom = 28.530433
Neighbor list builds = 0
Dangerous builds = 0
OMP_NUM_THREADS environment is not set. Defaulting to 1 thread. (../comm.cpp:94)
  using 1 OpenMP thread(s) per MPI task
Reading data file ...
  orthogonal box = (-122.39241 -121.13707 -37.090501) to (122.39241 121.13707 37.090501)
  13 by 4 by 2 MPI processor grid
  reading atoms ...
  288751 atoms
  read_data CPU = 0.343 seconds
199981 atoms in group inner
88770 atoms in group outer
1 atoms in group carbon
Neighbor list info ...
  update every 1 steps, delay 0 steps, check yes
  max neighbors/atom: 2000, page size: 100000
  master list distance cutoff = 5.6
  ghost atom cutoff = 5.6
  binsize = 2.8, bins = 88 87 27
  1 neighbor lists, perpetual/occasional/extra = 1 0 0
  (1) pair eam/alloy, perpetual
      attributes: half, newton on
      pair build: half/bin/atomonly/newton
      stencil: half/bin/3d/newton
      bin: standard
Setting up cg style minimization ...
  Unit style    : metal
  Current step  : 0
Per MPI rank memory allocation (min/avg/max) = 5.441 | 5.816 | 6.074 Mbytes
Step v_fx v_fy v_fz PotEng KinEng TotEng 
       0   -1.6638093  -0.73988403    2.4964326   -1152447.8            0   -1152447.8 
     196 6.0515377e-06 -8.8953098e-08 -3.2287217e-06   -1152449.5            0   -1152449.5 
Loop time of 2.32365 on 104 procs for 196 steps with 288751 atoms

99.9% CPU use with 104 MPI tasks x 1 OpenMP threads

Minimization stats:
  Stopping criterion = energy tolerance
  Energy initial, next-to-last, final = 
     -1152447.78727942  -1152449.45035287  -1152449.45035287
  Force two-norm initial, final = 10.113956 2.1172010e-05
  Force max component initial, final = 6.1447927 6.0515377e-06
  Final line search alpha, max atom move = 1.0000000 6.0515377e-06
  Iterations, force evaluations = 196 391

MPI task timing breakdown:
Section |  min time  |  avg time  |  max time  |%varavg| %total
---------------------------------------------------------------
Pair    | 0.60532    | 1.6499     | 2.1644     |  34.5 | 71.00
Neigh   | 3.0165e-05 | 0.0089098  | 0.012751   |   3.9 |  0.38
Comm    | 0.040776   | 0.37982    | 1.1252     |  50.7 | 16.35
Output  | 0          | 0          | 0          |   0.0 |  0.00
Modify  | 2.2994e-05 | 0.0020979  | 0.0054047  |   2.9 |  0.09
Other   |            | 0.2829     |            |       | 12.18

Nlocal:        2776.45 ave        3961 max           0 min
Histogram: 8 4 4 0 6 10 8 2 28 34
Nghost:        3879.01 ave        5424 max         232 min
Histogram: 8 0 8 0 16 0 8 8 16 40
Neighs:        79213.5 ave      115455 max           0 min
Histogram: 8 4 4 0 10 6 8 8 24 32

Total # of neighbors = 8238206
Ave neighs/atom = 28.530485
Neighbor list builds = 3
Dangerous builds = 0
Setting atom values ...
  1 settings made for x
  1 settings made for y
  1 settings made for z
Setting up cg style minimization ...
  Unit style    : metal
  Current step  : 196
Per MPI rank memory allocation (min/avg/max) = 5.441 | 5.816 | 6.074 Mbytes
Step PotEng KinEng TotEng v_fx v_fy v_fz 
     196   -1152449.4            0   -1152449.4 -0.021454846 -0.022518751  0.018300837 
     316   -1152449.4            0   -1152449.4 -1.0569519e-05 -1.065494e-05 5.8376809e-05 
Loop time of 1.39526 on 104 procs for 120 steps with 288751 atoms

99.9% CPU use with 104 MPI tasks x 1 OpenMP threads

Minimization stats:
  Stopping criterion = energy tolerance
  Energy initial, next-to-last, final = 
     -1152449.44758664  -1152449.44932393  -1152449.44932393
  Force two-norm initial, final = 0.19158532 0.00015588207
  Force max component initial, final = 0.076666945 5.8376809e-05
  Final line search alpha, max atom move = 1.0000000 5.8376809e-05
  Iterations, force evaluations = 120 240

MPI task timing breakdown:
Section |  min time  |  avg time  |  max time  |%varavg| %total
---------------------------------------------------------------
Pair    | 0.36444    | 1.008      | 1.3241     |  27.1 | 72.25
Neigh   | 0          | 0          | 0          |   0.0 |  0.00
Comm    | 0.020297   | 0.22953    | 0.69204    |  39.8 | 16.45
Output  | 0          | 0          | 0          |   0.0 |  0.00
Modify  | 1.4738e-05 | 0.0019767  | 0.0042552  |   2.1 |  0.14
Other   |            | 0.1557     |            |       | 11.16

Nlocal:        2776.45 ave        3961 max           0 min
Histogram: 8 4 4 0 6 10 8 2 28 34
Nghost:        3879.01 ave        5424 max         232 min
Histogram: 8 0 8 0 16 0 8 8 16 40
Neighs:        79213.4 ave      115455 max           0 min
Histogram: 8 4 4 0 10 6 8 8 24 32

Total # of neighbors = 8238197
Ave neighs/atom = 28.530454
Neighbor list builds = 0
Dangerous builds = 0
Setting atom values ...
  1 settings made for x
  1 settings made for y
  1 settings made for z
Setting up cg style minimization ...
  Unit style    : metal
  Current step  : 316
Per MPI rank memory allocation (min/avg/max) = 5.441 | 5.816 | 6.074 Mbytes
Step PotEng KinEng TotEng v_fx v_fy v_fz 
     316   -1152449.4            0   -1152449.4 -0.019113188 -0.019440083  0.015036988 
     430   -1152449.4            0   -1152449.4 -3.1100989e-06 -2.4177517e-06 1.3466923e-05 
Loop time of 1.33677 on 104 procs for 114 steps with 288751 atoms

99.9% CPU use with 104 MPI tasks x 1 OpenMP threads

Minimization stats:
  Stopping criterion = energy tolerance
  Energy initial, next-to-last, final = 
     -1152449.44525088  -1152449.44669197  -1152449.44669197
  Force two-norm initial, final = 0.17609643 0.00017881202
  Force max component initial, final = 0.069437977 1.3466923e-05
  Final line search alpha, max atom move = 1.0000000 1.3466923e-05
  Iterations, force evaluations = 114 228

MPI task timing breakdown:
Section |  min time  |  avg time  |  max time  |%varavg| %total
---------------------------------------------------------------
Pair    | 0.34587    | 0.96047    | 1.2694     |  26.6 | 71.85
Neigh   | 0          | 0          | 0          |   0.0 |  0.00
Comm    | 0.020939   | 0.21829    | 0.65296    |  39.0 | 16.33
Output  | 0          | 0          | 0          |   0.0 |  0.00
Modify  | 1.4239e-05 | 0.0018804  | 0.0040683  |   2.0 |  0.14
Other   |            | 0.1561     |            |       | 11.68

Nlocal:        2776.45 ave        3961 max           0 min
Histogram: 8 4 4 0 6 10 8 2 28 34
Nghost:        3879.01 ave        5424 max         232 min
Histogram: 8 0 8 0 16 0 8 8 16 40
Neighs:        79213.4 ave      115455 max           0 min
Histogram: 8 4 4 0 10 6 8 8 24 32

Total # of neighbors = 8238197
Ave neighs/atom = 28.530454
Neighbor list builds = 0
Dangerous builds = 0
The dot product: 1.50340210329634e-08
Setting atom values ...
  1 settings made for x
  1 settings made for y
  1 settings made for z
Setting up cg style minimization ...
  Unit style    : metal
  Current step  : 430
Per MPI rank memory allocation (min/avg/max) = 5.441 | 5.816 | 6.074 Mbytes
Step PotEng KinEng TotEng v_fx v_fy v_fz 
     430   -1152449.4            0   -1152449.4  -0.01822156 -0.018605167  0.011457872 
     656   -1152449.4            0   -1152449.4 -1.5583961e-06 -9.938119e-07 6.2971872e-06 
Loop time of 2.62848 on 104 procs for 226 steps with 288751 atoms

99.9% CPU use with 104 MPI tasks x 1 OpenMP threads

Minimization stats:
  Stopping criterion = energy tolerance
  Energy initial, next-to-last, final = 
     -1152449.44126121  -1152449.44269843  -1152449.44269843
  Force two-norm initial, final = 0.17582465 1.8657106e-05
  Force max component initial, final = 0.067617717 6.2971872e-06
  Final line search alpha, max atom move = 1.0000000 6.2971872e-06
  Iterations, force evaluations = 226 452

MPI task timing breakdown:
Section |  min time  |  avg time  |  max time  |%varavg| %total
---------------------------------------------------------------
Pair    | 0.685      | 1.8944     | 2.4839     |  37.2 | 72.07
Neigh   | 0          | 0          | 0          |   0.0 |  0.00
Comm    | 0.039703   | 0.43076    | 1.3099     |  54.6 | 16.39
Output  | 0          | 0          | 0          |   0.0 |  0.00
Modify  | 2.7624e-05 | 0.0037252  | 0.0080481  |   2.9 |  0.14
Other   |            | 0.2995     |            |       | 11.40

Nlocal:        2776.45 ave        3961 max           0 min
Histogram: 8 4 4 0 6 10 8 2 28 34
Nghost:        3879.01 ave        5424 max         232 min
Histogram: 8 0 8 0 16 0 8 8 16 40
Neighs:        79213.4 ave      115455 max           0 min
Histogram: 8 4 4 0 10 6 8 8 24 32

Total # of neighbors = 8238195
Ave neighs/atom = 28.530447
Neighbor list builds = 0
Dangerous builds = 0
The dot product: 6.40072496879501e-09
Setting atom values ...
  1 settings made for x
  1 settings made for y
  1 settings made for z
Setting up cg style minimization ...
  Unit style    : metal
  Current step  : 656
Per MPI rank memory allocation (min/avg/max) = 5.441 | 5.816 | 6.074 Mbytes
Step PotEng KinEng TotEng v_fx v_fy v_fz 
     656   -1152449.4            0   -1152449.4  -0.01768044 -0.018487879 0.0087821189 
     806   -1152449.4            0   -1152449.4 -2.3684488e-06 -5.5100463e-07 1.4605248e-05 
Loop time of 1.74027 on 104 procs for 150 steps with 288751 atoms

99.9% CPU use with 104 MPI tasks x 1 OpenMP threads

Minimization stats:
  Stopping criterion = energy tolerance
  Energy initial, next-to-last, final = 
     -1152449.43593086  -1152449.43736602  -1152449.43736602
  Force two-norm initial, final = 0.17531919 0.00012461228
  Force max component initial, final = 0.065690928 1.7711878e-05
  Final line search alpha, max atom move = 1.0000000 1.7711878e-05
  Iterations, force evaluations = 150 300

MPI task timing breakdown:
Section |  min time  |  avg time  |  max time  |%varavg| %total
---------------------------------------------------------------
Pair    | 0.45621    | 1.259      | 1.649      |  30.3 | 72.35
Neigh   | 0          | 0          | 0          |   0.0 |  0.00
Comm    | 0.025703   | 0.28717    | 0.86715    |  44.5 | 16.50
Output  | 0          | 0          | 0          |   0.0 |  0.00
Modify  | 1.8401e-05 | 0.0024754  | 0.0053174  |   2.4 |  0.14
Other   |            | 0.1916     |            |       | 11.01

Nlocal:        2776.45 ave        3961 max           0 min
Histogram: 8 4 4 0 6 10 8 2 28 34
Nghost:        3879.01 ave        5424 max         232 min
Histogram: 8 0 8 0 16 0 8 8 16 40
Neighs:        79213.4 ave      115455 max           0 min
Histogram: 8 4 4 0 10 6 8 8 24 32

Total # of neighbors = 8238196
Ave neighs/atom = 28.530450
Neighbor list builds = 0
Dangerous builds = 0
The dot product: 1.35231783333739e-08
Setting atom values ...
  1 settings made for x
  1 settings made for y
  1 settings made for z
Setting up cg style minimization ...
  Unit style    : metal
  Current step  : 806
Per MPI rank memory allocation (min/avg/max) = 5.441 | 5.816 | 6.074 Mbytes
Step PotEng KinEng TotEng v_fx v_fy v_fz 
     806   -1152449.4            0   -1152449.4 -0.017533757 -0.018923452 0.0064966544 
     952   -1152449.4            0   -1152449.4 -7.0413528e-06 -9.4024549e-07 4.310078e-05 
Loop time of 1.70612 on 104 procs for 146 steps with 288751 atoms

99.9% CPU use with 104 MPI tasks x 1 OpenMP threads

Minimization stats:
  Stopping criterion = energy tolerance
  Energy initial, next-to-last, final = 
     -1152449.42921416  -1152449.43064918  -1152449.43064918
  Force two-norm initial, final = 0.17501321 0.00016754662
  Force max component initial, final = 0.063882518 4.3100780e-05
  Final line search alpha, max atom move = 1.0000000 4.3100780e-05
  Iterations, force evaluations = 146 292

MPI task timing breakdown:
Section |  min time  |  avg time  |  max time  |%varavg| %total
---------------------------------------------------------------
Pair    | 0.4432     | 1.2268     | 1.6091     |  30.0 | 71.91
Neigh   | 0          | 0          | 0          |   0.0 |  0.00
Comm    | 0.025524   | 0.27958    | 0.83859    |  44.1 | 16.39
Output  | 0          | 0          | 0          |   0.0 |  0.00
Modify  | 1.7925e-05 | 0.0024044  | 0.0051658  |   2.3 |  0.14
Other   |            | 0.1973     |            |       | 11.57

Nlocal:        2776.45 ave        3960 max           0 min
Histogram: 8 4 4 0 4 12 8 2 28 34
Nghost:        3879.01 ave        5424 max         232 min
Histogram: 8 0 8 0 16 0 8 8 16 40
Neighs:        79213.4 ave      115432 max           0 min
Histogram: 8 4 4 0 10 6 8 8 24 32

Total # of neighbors = 8238198
Ave neighs/atom = 28.530457
Neighbor list builds = 0
Dangerous builds = 0
The dot product: 3.49771441164461e-08
Setting atom values ...
  1 settings made for x
  1 settings made for y
  1 settings made for z
Setting up cg style minimization ...
  Unit style    : metal
  Current step  : 952
Per MPI rank memory allocation (min/avg/max) = 5.441 | 5.816 | 6.074 Mbytes
Step PotEng KinEng TotEng v_fx v_fy v_fz 
     952   -1152449.4            0   -1152449.4 -0.017706994 -0.019654256 0.0048791889 
    1000   -1152449.4            0   -1152449.4 -0.0001285632 -7.8876937e-05 0.00039016487 
    1090   -1152449.4            0   -1152449.4 -1.9491385e-05 -1.6144163e-05 3.5888486e-05 
Loop time of 1.62304 on 104 procs for 138 steps with 288751 atoms

99.9% CPU use with 104 MPI tasks x 1 OpenMP threads

Minimization stats:
  Stopping criterion = energy tolerance
  Energy initial, next-to-last, final = 
     -1152449.42107541  -1152449.42251045  -1152449.42251045
  Force two-norm initial, final = 0.17477735 0.00017659693
  Force max component initial, final = 0.063443145 4.3871883e-05
  Final line search alpha, max atom move = 1.0000000 4.3871883e-05
  Iterations, force evaluations = 138 276

MPI task timing breakdown:
Section |  min time  |  avg time  |  max time  |%varavg| %total
---------------------------------------------------------------
Pair    | 0.42166    | 1.1636     | 1.5204     |  29.1 | 71.69
Neigh   | 0          | 0          | 0          |   0.0 |  0.00
Comm    | 0.031304   | 0.26593    | 0.79082    |  42.9 | 16.38
Output  | 0.00011106 | 0.00011423 | 0.00021026 |   0.0 |  0.01
Modify  | 1.6773e-05 | 0.0022809  | 0.0049039  |   2.3 |  0.14
Other   |            | 0.1911     |            |       | 11.78

Nlocal:        2776.45 ave        3960 max           0 min
Histogram: 8 4 4 0 4 12 8 2 28 34
Nghost:        3879.01 ave        5424 max         232 min
Histogram: 8 0 8 0 16 0 8 8 16 40
Neighs:        79213.4 ave      115432 max           0 min
Histogram: 8 4 4 0 10 6 8 8 24 32

Total # of neighbors = 8238198
Ave neighs/atom = 28.530457
Neighbor list builds = 0
Dangerous builds = 0
The dot product: 1.18614782388341e-08
Setting atom values ...
  1 settings made for x
  1 settings made for y
  1 settings made for z
Setting up cg style minimization ...
  Unit style    : metal
  Current step  : 1090
Per MPI rank memory allocation (min/avg/max) = 5.441 | 5.816 | 6.074 Mbytes
Step PotEng KinEng TotEng v_fx v_fy v_fz 
    1090   -1152449.4            0   -1152449.4 -0.017798861 -0.020187088 0.0037667376 
    1209   -1152449.4            0   -1152449.4 1.750606e-05 1.4583033e-05 -3.1093526e-05 
Loop time of 1.38328 on 104 procs for 119 steps with 288751 atoms

99.9% CPU use with 104 MPI tasks x 1 OpenMP threads

Minimization stats:
  Stopping criterion = energy tolerance
  Energy initial, next-to-last, final = 
     -1152449.41148385  -1152449.41291856  -1152449.41291856
  Force two-norm initial, final = 0.17449585 0.00023977595
  Force max component initial, final = 0.064625556 3.1994865e-05
  Final line search alpha, max atom move = 1.0000000 3.1994865e-05
  Iterations, force evaluations = 119 238

MPI task timing breakdown:
Section |  min time  |  avg time  |  max time  |%varavg| %total
---------------------------------------------------------------
Pair    | 0.36218    | 0.99752    | 1.3089     |  27.0 | 72.11
Neigh   | 0          | 0          | 0          |   0.0 |  0.00
Comm    | 0.020238   | 0.22642    | 0.68456    |  39.5 | 16.37
Output  | 0          | 0          | 0          |   0.0 |  0.00
Modify  | 1.4957e-05 | 0.0019607  | 0.0041977  |   2.1 |  0.14
Other   |            | 0.1574     |            |       | 11.38

Nlocal:        2776.45 ave        3959 max           0 min
Histogram: 8 4 4 0 4 12 8 2 28 34
Nghost:        3879.01 ave        5424 max         232 min
Histogram: 8 0 8 0 16 0 8 8 16 40
Neighs:        79213.5 ave      115391 max           0 min
Histogram: 8 4 4 0 10 6 8 8 24 32

Total # of neighbors = 8238201
Ave neighs/atom = 28.530467
Neighbor list builds = 0
Dangerous builds = 0
The dot product: -1.20375692210713e-08
Setting atom values ...
  1 settings made for x
  1 settings made for y
  1 settings made for z
Setting up cg style minimization ...
  Unit style    : metal
  Current step  : 1209
Per MPI rank memory allocation (min/avg/max) = 5.441 | 5.816 | 6.074 Mbytes
Step PotEng KinEng TotEng v_fx v_fy v_fz 
    1209   -1152449.4            0   -1152449.4 -0.017534966 -0.020204466 0.0030526776 
    1423   -1152449.4            0   -1152449.4 -3.4004008e-06 -3.1137692e-06 4.5348031e-06 
Loop time of 2.48314 on 104 procs for 214 steps with 288751 atoms

99.9% CPU use with 104 MPI tasks x 1 OpenMP threads

Minimization stats:
  Stopping criterion = energy tolerance
  Energy initial, next-to-last, final = 
     -1152449.40041457  -1152449.40185137  -1152449.40185137
  Force two-norm initial, final = 0.17402464 3.1135395e-05
  Force max component initial, final = 0.065668481 4.5348031e-06
  Final line search alpha, max atom move = 1.0000000 4.5348031e-06
  Iterations, force evaluations = 214 428

MPI task timing breakdown:
Section |  min time  |  avg time  |  max time  |%varavg| %total
---------------------------------------------------------------
Pair    | 0.64962    | 1.8033     | 2.3509     |  36.3 | 72.62
Neigh   | 0          | 0          | 0          |   0.0 |  0.00
Comm    | 0.043517   | 0.40587    | 1.2248     |  54.3 | 16.34
Output  | 0          | 0          | 0          |   0.0 |  0.00
Modify  | 2.6275e-05 | 0.0035246  | 0.0076601  |   2.8 |  0.14
Other   |            | 0.2705     |            |       | 10.89

Nlocal:        2776.45 ave        3956 max           0 min
Histogram: 8 4 4 0 4 12 8 0 30 34
Nghost:        3879.01 ave        5424 max         232 min
Histogram: 8 0 8 0 16 0 8 8 16 40
Neighs:        79213.5 ave      115302 max           0 min
Histogram: 8 4 4 0 10 6 8 8 24 32

Total # of neighbors = 8238202
Ave neighs/atom = 28.530471
Neighbor list builds = 0
Dangerous builds = 0
The dot product: 1.30293706528962e-09
Setting atom values ...
  1 settings made for x
  1 settings made for y
  1 settings made for z
Setting up cg style minimization ...
  Unit style    : metal
  Current step  : 1423
Per MPI rank memory allocation (min/avg/max) = 5.441 | 5.816 | 6.074 Mbytes
Step PotEng KinEng TotEng v_fx v_fy v_fz 
    1423   -1152449.4            0   -1152449.4 -0.016767845 -0.019463378 0.0030821629 
    1658   -1152449.4            0   -1152449.4 7.6038678e-07 7.3171962e-07 -8.3718917e-07 
Loop time of 2.71953 on 104 procs for 235 steps with 288751 atoms

99.9% CPU use with 104 MPI tasks x 1 OpenMP threads

Minimization stats:
  Stopping criterion = energy tolerance
  Energy initial, next-to-last, final = 
     -1152449.38785402  -1152449.38929637  -1152449.38929637
  Force two-norm initial, final = 0.17348134 1.6718738e-05
  Force max component initial, final = 0.066760868 2.2307490e-06
  Final line search alpha, max atom move = 1.0000000 2.2307490e-06
  Iterations, force evaluations = 235 470

MPI task timing breakdown:
Section |  min time  |  avg time  |  max time  |%varavg| %total
---------------------------------------------------------------
Pair    | 0.71295    | 1.9693     | 2.5806     |  37.9 | 72.41
Neigh   | 0          | 0          | 0          |   0.0 |  0.00
Comm    | 0.039621   | 0.44789    | 1.3529     |  55.6 | 16.47
Output  | 0          | 0          | 0          |   0.0 |  0.00
Modify  | 2.8718e-05 | 0.0038635  | 0.0083174  |   2.9 |  0.14
Other   |            | 0.2985     |            |       | 10.98

Nlocal:        2776.45 ave        3955 max           0 min
Histogram: 8 4 4 0 4 12 8 0 30 34
Nghost:        3879.01 ave        5428 max         232 min
Histogram: 8 0 8 0 16 0 8 8 16 40
Neighs:        79213.5 ave      115280 max           0 min
Histogram: 8 4 4 0 10 6 8 8 24 32

Total # of neighbors = 8238203
Ave neighs/atom = 28.530474
Neighbor list builds = 0
Dangerous builds = 0
The dot product: 7.97726617928287e-11
Setting up cg style minimization ...
  Unit style    : metal
  Current step  : 1658
Per MPI rank memory allocation (min/avg/max) = 5.441 | 5.816 | 6.074 Mbytes
Step PotEng KinEng TotEng v_fx v_fy v_fz 
    1658   -1152449.4            0   -1152449.4  -0.50638881   0.42180617  -0.09126888 
    1912   -1152449.5            0   -1152449.5 -1.464465e-05 1.1287904e-07 -8.9077655e-06 
Loop time of 2.98631 on 104 procs for 254 steps with 288751 atoms

99.9% CPU use with 104 MPI tasks x 1 OpenMP threads

Minimization stats:
  Stopping criterion = energy tolerance
  Energy initial, next-to-last, final = 
     -1152449.38929637  -1152449.45035286  -1152449.45035286
  Force two-norm initial, final = 0.66534208 6.5677261e-05
  Force max component initial, final = 0.50638881 1.4644650e-05
  Final line search alpha, max atom move = 1.0000000 1.4644650e-05
  Iterations, force evaluations = 254 508

MPI task timing breakdown:
Section |  min time  |  avg time  |  max time  |%varavg| %total
---------------------------------------------------------------
Pair    | 0.77346    | 2.1355     | 2.8195     |  39.5 | 71.51
Neigh   | 1.0115e-05 | 0.0029555  | 0.0042851  |   2.2 |  0.10
Comm    | 0.044983   | 0.4869     | 1.46       |  58.0 | 16.30
Output  | 0          | 0          | 0          |   0.0 |  0.00
Modify  | 2.9531e-05 | 0.0027241  | 0.0070091  |   3.3 |  0.09
Other   |            | 0.3583     |            |       | 12.00

Nlocal:        2776.45 ave        3952 max           0 min
Histogram: 8 4 4 0 4 12 8 0 30 34
Nghost:        3879.01 ave        5429 max         232 min
Histogram: 8 0 8 0 16 0 8 8 16 40
Neighs:        79213.5 ave      115169 max           0 min
Histogram: 8 4 4 0 10 6 8 8 24 32

Total # of neighbors = 8238204
Ave neighs/atom = 28.530478
Neighbor list builds = 1
Dangerous builds = 0
OMP_NUM_THREADS environment is not set. Defaulting to 1 thread. (../comm.cpp:94)
  using 1 OpenMP thread(s) per MPI task
Reading data file ...
  orthogonal box = (-122.39241 -121.13707 -37.090501) to (122.39241 121.13707 37.090501)
  13 by 4 by 2 MPI processor grid
  reading atoms ...
  288751 atoms
  read_data CPU = 0.342 seconds
199981 atoms in group inner
88770 atoms in group outer
1 atoms in group carbon
Neighbor list info ...
  update every 1 steps, delay 0 steps, check yes
  max neighbors/atom: 2000, page size: 100000
  master list distance cutoff = 5.6
  ghost atom cutoff = 5.6
  binsize = 2.8, bins = 88 87 27
  1 neighbor lists, perpetual/occasional/extra = 1 0 0
  (1) pair eam/alloy, perpetual
      attributes: half, newton on
      pair build: half/bin/atomonly/newton
      stencil: half/bin/3d/newton
      bin: standard
Setting up cg style minimization ...
  Unit style    : metal
  Current step  : 0
Per MPI rank memory allocation (min/avg/max) = 5.441 | 5.816 | 6.074 Mbytes
Step v_fx v_fy v_fz PotEng KinEng TotEng 
       0   -1.6638093  -0.73988403    2.4964326   -1152447.8            0   -1152447.8 
     196 6.0515377e-06 -8.8953098e-08 -3.2287217e-06   -1152449.5            0   -1152449.5 
Loop time of 2.27584 on 104 procs for 196 steps with 288751 atoms

99.9% CPU use with 104 MPI tasks x 1 OpenMP threads

Minimization stats:
  Stopping criterion = energy tolerance
  Energy initial, next-to-last, final = 
     -1152447.78727942  -1152449.45035287  -1152449.45035287
  Force two-norm initial, final = 10.113956 2.1172010e-05
  Force max component initial, final = 6.1447927 6.0515377e-06
  Final line search alpha, max atom move = 1.0000000 6.0515377e-06
  Iterations, force evaluations = 196 391

MPI task timing breakdown:
Section |  min time  |  avg time  |  max time  |%varavg| %total
---------------------------------------------------------------
Pair    | 0.60392    | 1.6433     | 2.1456     |  34.4 | 72.21
Neigh   | 3.025e-05  | 0.0088878  | 0.012814   |   3.9 |  0.39
Comm    | 0.034909   | 0.37213    | 1.1204     |  51.1 | 16.35
Output  | 0          | 0          | 0          |   0.0 |  0.00
Modify  | 2.1304e-05 | 0.0020952  | 0.0054307  |   2.9 |  0.09
Other   |            | 0.2494     |            |       | 10.96

Nlocal:        2776.45 ave        3961 max           0 min
Histogram: 8 4 4 0 6 10 8 2 28 34
Nghost:        3879.01 ave        5424 max         232 min
Histogram: 8 0 8 0 16 0 8 8 16 40
Neighs:        79213.5 ave      115455 max           0 min
Histogram: 8 4 4 0 10 6 8 8 24 32

Total # of neighbors = 8238206
Ave neighs/atom = 28.530485
Neighbor list builds = 3
Dangerous builds = 0
Setting atom values ...
  1 settings made for x
  1 settings made for y
  1 settings made for z
Setting up cg style minimization ...
  Unit style    : metal
  Current step  : 196
Per MPI rank memory allocation (min/avg/max) = 5.441 | 5.816 | 6.074 Mbytes
Step PotEng KinEng TotEng v_fx v_fy v_fz 
     196   -1152449.5            0   -1152449.5 -0.0074590953 -0.0092926666  0.010593646 
     403   -1152449.5            0   -1152449.5 1.6353406e-07 4.7757367e-07 -3.8273486e-07 
Loop time of 2.41336 on 104 procs for 207 steps with 288751 atoms

99.9% CPU use with 104 MPI tasks x 1 OpenMP threads

Minimization stats:
  Stopping criterion = energy tolerance
  Energy initial, next-to-last, final = 
     -1152449.45006776  -1152449.45025455  -1152449.45025455
  Force two-norm initial, final = 0.062947448 1.8800566e-05
  Force max component initial, final = 0.032195073 2.8202010e-06
  Final line search alpha, max atom move = 1.0000000 2.8202010e-06
  Iterations, force evaluations = 207 414

MPI task timing breakdown:
Section |  min time  |  avg time  |  max time  |%varavg| %total
---------------------------------------------------------------
Pair    | 0.6237     | 1.744      | 2.2699     |  35.8 | 72.26
Neigh   | 0          | 0          | 0          |   0.0 |  0.00
Comm    | 0.038702   | 0.39701    | 1.1871     |  52.6 | 16.45
Output  | 0          | 0          | 0          |   0.0 |  0.00
Modify  | 2.4558e-05 | 0.0034094  | 0.0074115  |   2.8 |  0.14
Other   |            | 0.269      |            |       | 11.14

Nlocal:        2776.45 ave        3961 max           0 min
Histogram: 8 4 4 0 6 10 8 2 28 34
Nghost:        3879.01 ave        5424 max         232 min
Histogram: 8 0 8 0 16 0 8 8 16 40
Neighs:        79213.4 ave      115455 max           0 min
Histogram: 8 4 4 0 10 6 8 8 24 32

Total # of neighbors = 8238197
Ave neighs/atom = 28.530454
Neighbor list builds = 0
Dangerous builds = 0
Setting atom values ...
  1 settings made for x
  1 settings made for y
  1 settings made for z
Setting up cg style minimization ...
  Unit style    : metal
  Current step  : 403
Per MPI rank memory allocation (min/avg/max) = 5.441 | 5.816 | 6.074 Mbytes
Step PotEng KinEng TotEng v_fx v_fy v_fz 
     403   -1152449.4            0   -1152449.4 -0.014436507 -0.030057045  0.038230307 
     601   -1152449.4            0   -1152449.4 -1.7729225e-05 -3.1611767e-06 2.1194367e-05 
Loop time of 2.29085 on 104 procs for 198 steps with 288751 atoms

99.9% CPU use with 104 MPI tasks x 1 OpenMP threads

Minimization stats:
  Stopping criterion = energy tolerance
  Energy initial, next-to-last, final = 
     -1152449.44723376  -1152449.44888154  -1152449.44888154
  Force two-norm initial, final = 0.18693009 9.2375038e-05
  Force max component initial, final = 0.092447798 2.1194367e-05
  Final line search alpha, max atom move = 1.0000000 2.1194367e-05
  Iterations, force evaluations = 198 396

MPI task timing breakdown:
Section |  min time  |  avg time  |  max time  |%varavg| %total
---------------------------------------------------------------
Pair    | 0.59801    | 1.6597     | 2.1731     |  34.8 | 72.45
Neigh   | 0          | 0          | 0          |   0.0 |  0.00
Comm    | 0.034285   | 0.37588    | 1.1293     |  51.4 | 16.41
Output  | 0          | 0          | 0          |   0.0 |  0.00
Modify  | 2.3246e-05 | 0.0032544  | 0.0070207  |   2.7 |  0.14
Other   |            | 0.252      |            |       | 11.00

Nlocal:        2776.45 ave        3961 max           0 min
Histogram: 8 4 4 0 6 10 8 2 28 34
Nghost:        3879.01 ave        5424 max         232 min
Histogram: 8 0 8 0 16 0 8 8 16 40
Neighs:        79213.5 ave      115455 max           0 min
Histogram: 8 4 4 0 10 6 8 8 24 32

Total # of neighbors = 8238200
Ave neighs/atom = 28.530464
Neighbor list builds = 0
Dangerous builds = 0
The dot product: 1.30922932810015e-07
Setting atom values ...
  1 settings made for x
  1 settings made for y
  1 settings made for z
Setting up cg style minimization ...
  Unit style    : metal
  Current step  : 601
Per MPI rank memory allocation (min/avg/max) = 5.441 | 5.816 | 6.074 Mbytes
Step PotEng KinEng TotEng v_fx v_fy v_fz 
     601   -1152449.4            0   -1152449.4 -0.0040449243 -0.032013995  0.043549642 
     725   -1152449.4            0   -1152449.4 -1.0216614e-05 2.319696e-06 1.3547266e-05 
Loop time of 1.43461 on 104 procs for 124 steps with 288751 atoms

99.9% CPU use with 104 MPI tasks x 1 OpenMP threads

Minimization stats:
  Stopping criterion = energy tolerance
  Energy initial, next-to-last, final = 
      -1152449.4444288  -1152449.44604899  -1152449.44604899
  Force two-norm initial, final = 0.18378719 0.00020894252
  Force max component initial, final = 0.084364751 1.3547266e-05
  Final line search alpha, max atom move = 1.0000000 1.3547266e-05
  Iterations, force evaluations = 124 248

MPI task timing breakdown:
Section |  min time  |  avg time  |  max time  |%varavg| %total
---------------------------------------------------------------
Pair    | 0.37481    | 1.0441     | 1.361      |  27.6 | 72.78
Neigh   | 0          | 0          | 0          |   0.0 |  0.00
Comm    | 0.022084   | 0.23391    | 0.70451    |  41.0 | 16.30
Output  | 0          | 0          | 0          |   0.0 |  0.00
Modify  | 1.4763e-05 | 0.0020402  | 0.0043582  |   2.1 |  0.14
Other   |            | 0.1546     |            |       | 10.77

Nlocal:        2776.45 ave        3960 max           0 min
Histogram: 8 4 4 0 4 12 8 2 28 34
Nghost:        3879.01 ave        5424 max         232 min
Histogram: 8 0 8 0 16 0 8 8 16 40
Neighs:        79213.5 ave      115432 max           0 min
Histogram: 8 4 4 0 10 6 8 8 24 32

Total # of neighbors = 8238200
Ave neighs/atom = 28.530464
Neighbor list builds = 0
Dangerous builds = 0
The dot product: 9.95612070732923e-08
Setting atom values ...
  1 settings made for x
  1 settings made for y
  1 settings made for z
Setting up cg style minimization ...
  Unit style    : metal
  Current step  : 725
Per MPI rank memory allocation (min/avg/max) = 5.441 | 5.816 | 6.074 Mbytes
Step PotEng KinEng TotEng v_fx v_fy v_fz 
     725   -1152449.4            0   -1152449.4 0.0078962313 -0.032103291  0.038699204 
     854   -1152449.4            0   -1152449.4 7.608833e-06 1.6029137e-06 -2.0929497e-05 
Loop time of 1.50223 on 104 procs for 129 steps with 288751 atoms

99.9% CPU use with 104 MPI tasks x 1 OpenMP threads

Minimization stats:
  Stopping criterion = energy tolerance
  Energy initial, next-to-last, final = 
     -1152449.44019099  -1152449.44177867  -1152449.44177867
  Force two-norm initial, final = 0.18065383 0.00010060883
  Force max component initial, final = 0.076963677 2.8300681e-05
  Final line search alpha, max atom move = 1.0000000 2.8300681e-05
  Iterations, force evaluations = 129 258

MPI task timing breakdown:
Section |  min time  |  avg time  |  max time  |%varavg| %total
---------------------------------------------------------------
Pair    | 0.3964     | 1.0842     | 1.4197     |  27.9 | 72.17
Neigh   | 0          | 0          | 0          |   0.0 |  0.00
Comm    | 0.022671   | 0.2456     | 0.73405    |  41.3 | 16.35
Output  | 0          | 0          | 0          |   0.0 |  0.00
Modify  | 1.6091e-05 | 0.0021222  | 0.0046322  |   2.2 |  0.14
Other   |            | 0.1703     |            |       | 11.34

Nlocal:        2776.45 ave        3960 max           0 min
Histogram: 8 4 4 0 4 12 8 2 28 34
Nghost:        3879.01 ave        5424 max         232 min
Histogram: 8 0 8 0 16 0 8 8 16 40
Neighs:        79213.5 ave      115432 max           0 min
Histogram: 8 4 4 0 10 6 8 8 24 32

Total # of neighbors = 8238200
Ave neighs/atom = 28.530464
Neighbor list builds = 0
Dangerous builds = 0
The dot product: -1.51509012426724e-07
Setting atom values ...
  1 settings made for x
  1 settings made for y
  1 settings made for z
Setting up cg style minimization ...
  Unit style    : metal
  Current step  : 854
Per MPI rank memory allocation (min/avg/max) = 5.441 | 5.816 | 6.074 Mbytes
Step PotEng KinEng TotEng v_fx v_fy v_fz 
     854   -1152449.4            0   -1152449.4  0.017253978 -0.032234779  0.028263482 
     987   -1152449.4            0   -1152449.4 -3.8290845e-06 -6.2833143e-06 3.0743422e-05 
Loop time of 1.54074 on 104 procs for 133 steps with 288751 atoms

99.9% CPU use with 104 MPI tasks x 1 OpenMP threads

Minimization stats:
  Stopping criterion = energy tolerance
  Energy initial, next-to-last, final = 
     -1152449.43447504  -1152449.43602051  -1152449.43602051
  Force two-norm initial, final = 0.17832211 0.00010220452
  Force max component initial, final = 0.070104972 3.0743422e-05
  Final line search alpha, max atom move = 1.0000000 3.0743422e-05
  Iterations, force evaluations = 133 266

MPI task timing breakdown:
Section |  min time  |  avg time  |  max time  |%varavg| %total
---------------------------------------------------------------
Pair    | 0.4019     | 1.1215     | 1.4603     |  28.7 | 72.79
Neigh   | 0          | 0          | 0          |   0.0 |  0.00
Comm    | 0.023033   | 0.25492    | 0.76417    |  41.9 | 16.55
Output  | 0          | 0          | 0          |   0.0 |  0.00
Modify  | 1.5367e-05 | 0.0021961  | 0.0047199  |   2.2 |  0.14
Other   |            | 0.1621     |            |       | 10.52

Nlocal:        2776.45 ave        3960 max           0 min
Histogram: 8 4 4 0 4 12 8 2 28 34
Nghost:        3879.01 ave        5424 max         232 min
Histogram: 8 0 8 0 16 0 8 8 16 40
Neighs:        79213.5 ave      115432 max           0 min
Histogram: 8 4 4 0 10 6 8 8 24 32

Total # of neighbors = 8238204
Ave neighs/atom = 28.530478
Neighbor list builds = 0
Dangerous builds = 0
The dot product: 2.00710662387526e-07
Setting atom values ...
  1 settings made for x
  1 settings made for y
  1 settings made for z
Setting up cg style minimization ...
  Unit style    : metal
  Current step  : 987
Per MPI rank memory allocation (min/avg/max) = 5.441 | 5.816 | 6.074 Mbytes
Step PotEng KinEng TotEng v_fx v_fy v_fz 
     987   -1152449.4            0   -1152449.4  0.023846369 -0.033055752  0.016731792 
    1000   -1152449.4            0   -1152449.4 -0.00021243332 -0.00016610163 0.0017840226 
    1106   -1152449.4            0   -1152449.4 4.2619345e-06 -9.7598496e-06 1.9157434e-05 
Loop time of 1.39021 on 104 procs for 119 steps with 288751 atoms

99.9% CPU use with 104 MPI tasks x 1 OpenMP threads

Minimization stats:
  Stopping criterion = energy tolerance
  Energy initial, next-to-last, final = 
     -1152449.42722284  -1152449.42872846  -1152449.42872846
  Force two-norm initial, final = 0.17698408 0.00021477519
  Force max component initial, final = 0.064302026 1.9157434e-05
  Final line search alpha, max atom move = 1.0000000 1.9157434e-05
  Iterations, force evaluations = 119 238

MPI task timing breakdown:
Section |  min time  |  avg time  |  max time  |%varavg| %total
---------------------------------------------------------------
Pair    | 0.35926    | 0.99813    | 1.3139     |  27.1 | 71.80
Neigh   | 0          | 0          | 0          |   0.0 |  0.00
Comm    | 0.021929   | 0.22787    | 0.69123    |  39.7 | 16.39
Output  | 8.6975e-05 | 9.1117e-05 | 0.00016694 |   0.0 |  0.01
Modify  | 1.4464e-05 | 0.0019623  | 0.0042059  |   2.1 |  0.14
Other   |            | 0.1622     |            |       | 11.66

Nlocal:        2776.45 ave        3960 max           0 min
Histogram: 8 4 4 0 4 12 8 2 28 34
Nghost:        3879.01 ave        5424 max         232 min
Histogram: 8 0 8 0 16 0 8 8 16 40
Neighs:        79213.5 ave      115432 max           0 min
Histogram: 8 4 4 0 10 6 8 8 24 32

Total # of neighbors = 8238204
Ave neighs/atom = 28.530478
Neighbor list builds = 0
Dangerous builds = 0
The dot product: 1.22132808610393e-07
Setting atom values ...
  1 settings made for x
  1 settings made for y
  1 settings made for z
Setting up cg style minimization ...
  Unit style    : metal
  Current step  : 1106
Per MPI rank memory allocation (min/avg/max) = 5.441 | 5.816 | 6.074 Mbytes
Step PotEng KinEng TotEng v_fx v_fy v_fz 
    1106   -1152449.4            0   -1152449.4  0.028910138  -0.03460231 0.0057827463 
    1263   -1152449.4            0   -1152449.4 -7.5386706e-06 3.9683729e-06 3.0180933e-05 
Loop time of 1.83856 on 104 procs for 157 steps with 288751 atoms

99.9% CPU use with 104 MPI tasks x 1 OpenMP threads

Minimization stats:
  Stopping criterion = energy tolerance
  Energy initial, next-to-last, final = 
      -1152449.4184003  -1152449.41987552  -1152449.41987552
  Force two-norm initial, final = 0.17644502 0.00020046048
  Force max component initial, final = 0.060944437 3.0180933e-05
  Final line search alpha, max atom move = 1.0000000 3.0180933e-05
  Iterations, force evaluations = 157 314

MPI task timing breakdown:
Section |  min time  |  avg time  |  max time  |%varavg| %total
---------------------------------------------------------------
Pair    | 0.47451    | 1.3282     | 1.718      |  30.9 | 72.24
Neigh   | 0          | 0          | 0          |   0.0 |  0.00
Comm    | 0.027039   | 0.30424    | 0.92532    |  46.3 | 16.55
Output  | 0          | 0          | 0          |   0.0 |  0.00
Modify  | 1.8589e-05 | 0.0025913  | 0.0055544  |   2.4 |  0.14
Other   |            | 0.2036     |            |       | 11.07

Nlocal:        2776.45 ave        3960 max           0 min
[...]
Nghost:        3879.18 ave        5424 max         232 min
Histogram: 8 0 8 0 16 0 8 8 16 40
Neighs:        79213.6 ave      114960 max           0 min
Histogram: 8 4 4 0 10 6 8 8 23 33

Total # of neighbors = 8238212
Ave neighs/atom = 28.530506
Neighbor list builds = 0
Dangerous builds = 0
The dot product: -2.93262249415433e-08
Setting atom values ...
  1 settings made for x
  1 settings made for y
  1 settings made for z
Setting up cg style minimization ...
  Unit style    : metal
  Current step  : 18941
Per MPI rank memory allocation (min/avg/max) = 5.441 | 5.816 | 6.074 Mbytes
Step PotEng KinEng TotEng v_fx v_fy v_fz 
   18941   -1152448.1            0   -1152448.1 -0.027674968 -0.0090442481 0.0082783812 
   19000   -1152448.1            0   -1152448.1 5.5247422e-05 8.5062833e-05 4.0453695e-05 
   19138   -1152448.1            0   -1152448.1 9.3864199e-07 -3.8126817e-06 -3.7837142e-06 
Loop time of 2.29724 on 104 procs for 197 steps with 288751 atoms

99.9% CPU use with 104 MPI tasks x 1 OpenMP threads

Minimization stats:
  Stopping criterion = energy tolerance
  Energy initial, next-to-last, final = 
     -1152448.09178608  -1152448.09269922  -1152448.09269922
  Force two-norm initial, final = 0.12642964 6.4798468e-05
  Force max component initial, final = 0.053588469 7.3314845e-06
  Final line search alpha, max atom move = 1.0000000 7.3314845e-06
  Iterations, force evaluations = 197 394

MPI task timing breakdown:
Section |  min time  |  avg time  |  max time  |%varavg| %total
---------------------------------------------------------------
Pair    | 0.59692    | 1.6522     | 2.18       |  34.8 | 71.92
Neigh   | 0          | 0          | 0          |   0.0 |  0.00
Comm    | 0.035517   | 0.37673    | 1.1252     |  50.9 | 16.40
Output  | 9.7139e-05 | 0.00010103 | 0.00025739 |   0.0 |  0.00
Modify  | 2.2122e-05 | 0.0032405  | 0.006946   |   2.7 |  0.14
Other   |            | 0.2649     |            |       | 11.53

Nlocal:        2776.45 ave        3946 max           0 min
Histogram: 8 4 4 0 4 12 8 0 28 36
Nghost:        3879.18 ave        5424 max         232 min
Histogram: 8 0 8 0 16 0 8 8 16 40
Neighs:        79213.6 ave      114961 max           0 min
Histogram: 8 4 4 0 10 6 8 8 23 33

Total # of neighbors = 8238212
Ave neighs/atom = 28.530506
Neighbor list builds = 0
Dangerous builds = 0
The dot product: 1.79949679937167e-09
Setting atom values ...
  1 settings made for x
  1 settings made for y
  1 settings made for z
Setting up cg style minimization ...
  Unit style    : metal
  Current step  : 19138
Per MPI rank memory allocation (min/avg/max) = 5.441 | 5.816 | 6.074 Mbytes
Step PotEng KinEng TotEng v_fx v_fy v_fz 
   19138   -1152448.1            0   -1152448.1  -0.02846371 -0.0060416833  0.011337697 
   19373   -1152448.1            0   -1152448.1 -1.2162433e-06 4.9466376e-07 1.1240864e-06 
Loop time of 2.73395 on 104 procs for 235 steps with 288751 atoms

99.9% CPU use with 104 MPI tasks x 1 OpenMP threads

Minimization stats:
  Stopping criterion = energy tolerance
  Energy initial, next-to-last, final = 
     -1152448.07210942  -1152448.07297796  -1152448.07297796
  Force two-norm initial, final = 0.12411899 2.0118970e-05
  Force max component initial, final = 0.053560522 1.2898749e-06
  Final line search alpha, max atom move = 1.0000000 1.2898749e-06
  Iterations, force evaluations = 235 470

MPI task timing breakdown:
Section |  min time  |  avg time  |  max time  |%varavg| %total
---------------------------------------------------------------
Pair    | 0.71111    | 1.9645     | 2.5674     |  37.8 | 71.86
Neigh   | 0          | 0          | 0          |   0.0 |  0.00
Comm    | 0.0402     | 0.4428     | 1.3401     |  55.8 | 16.20
Output  | 0          | 0          | 0          |   0.0 |  0.00
Modify  | 2.7273e-05 | 0.0038526  | 0.0082469  |   2.9 |  0.14
Other   |            | 0.3228     |            |       | 11.81

Nlocal:        2776.45 ave        3946 max           0 min
Histogram: 8 4 4 0 4 12 8 0 28 36
Nghost:        3879.18 ave        5424 max         232 min
Histogram: 8 0 8 0 16 0 8 8 16 40
Neighs:        79213.6 ave      114951 max           0 min
Histogram: 8 4 4 0 10 6 8 8 22 34

Total # of neighbors = 8238215
Ave neighs/atom = 28.530516
Neighbor list builds = 0
Dangerous builds = 0
The dot product: 3.27514910286558e-09
Setting atom values ...
  1 settings made for x
  1 settings made for y
  1 settings made for z
Setting up cg style minimization ...
  Unit style    : metal
  Current step  : 19373
Per MPI rank memory allocation (min/avg/max) = 5.441 | 5.816 | 6.074 Mbytes
Step PotEng KinEng TotEng v_fx v_fy v_fz 
   19373   -1152448.1            0   -1152448.1 -0.030960904 -0.0019988707  0.016272979 
   19514   -1152448.1            0   -1152448.1 1.7744118e-05 1.5972232e-05 3.2678301e-06 
Loop time of 1.62951 on 104 procs for 141 steps with 288751 atoms

99.9% CPU use with 104 MPI tasks x 1 OpenMP threads

Minimization stats:
  Stopping criterion = energy tolerance
  Energy initial, next-to-last, final = 
     -1152448.05176896  -1152448.05260295  -1152448.05260295
  Force two-norm initial, final = 0.12285677 0.00018564814
  Force max component initial, final = 0.053494579 3.1826190e-05
  Final line search alpha, max atom move = 1.0000000 3.1826190e-05
  Iterations, force evaluations = 141 282

MPI task timing breakdown:
Section |  min time  |  avg time  |  max time  |%varavg| %total
---------------------------------------------------------------
Pair    | 0.42678    | 1.1826     | 1.5448     |  29.5 | 72.57
Neigh   | 0          | 0          | 0          |   0.0 |  0.00
Comm    | 0.025151   | 0.26728    | 0.80686    |  43.2 | 16.40
Output  | 0          | 0          | 0          |   0.0 |  0.00
Modify  | 1.5859e-05 | 0.0023297  | 0.0049747  |   2.3 |  0.14
Other   |            | 0.1773     |            |       | 10.88

Nlocal:        2776.45 ave        3947 max           0 min
Histogram: 8 4 4 0 4 12 8 0 28 36
Nghost:        3879.18 ave        5424 max         232 min
Histogram: 8 0 8 0 16 0 8 8 16 40
Neighs:        79213.6 ave      114979 max           0 min
Histogram: 8 4 4 0 10 6 8 8 24 32

Total # of neighbors = 8238216
Ave neighs/atom = 28.530519
Neighbor list builds = 0
Dangerous builds = 0
The dot product: -5.96173789627279e-08
Setting atom values ...
  1 settings made for x
  1 settings made for y
  1 settings made for z
Setting up cg style minimization ...
  Unit style    : metal
  Current step  : 19514
Per MPI rank memory allocation (min/avg/max) = 5.441 | 5.816 | 6.074 Mbytes
Step PotEng KinEng TotEng v_fx v_fy v_fz 
   19514     -1152448            0     -1152448 -0.036354481 0.0046005983  0.025106062 
   19838   -1152448.8            0   -1152448.8 6.7413035e-05 1.2818986e-05 -2.8407617e-05 
Loop time of 3.76176 on 104 procs for 324 steps with 288751 atoms

99.9% CPU use with 104 MPI tasks x 1 OpenMP threads

Minimization stats:
  Stopping criterion = energy tolerance
  Energy initial, next-to-last, final = 
     -1152448.03100187  -1152448.79861499  -1152448.79861499
  Force two-norm initial, final = 0.12495196 0.00022579188
  Force max component initial, final = 0.05331548 6.7413035e-05
  Final line search alpha, max atom move = 1.0000000 6.7413035e-05
  Iterations, force evaluations = 324 643

MPI task timing breakdown:
Section |  min time  |  avg time  |  max time  |%varavg| %total
---------------------------------------------------------------
Pair    | 1.0134     | 2.703      | 3.5173     |  43.5 | 71.86
Neigh   | 0.00010022 | 0.029558   | 0.042803   |   7.1 |  0.79
Comm    | 0.058256   | 0.60965    | 1.8413     |  65.4 | 16.21
Output  | 0          | 0          | 0          |   0.0 |  0.00
Modify  | 3.621e-05  | 0.0052986  | 0.011275   |   3.4 |  0.14
Other   |            | 0.4142     |            |       | 11.01

Nlocal:        2776.45 ave        3942 max           0 min
Histogram: 8 4 4 0 4 12 8 0 28 36
Nghost:        3879.06 ave        5425 max         232 min
Histogram: 8 0 8 0 16 0 8 8 16 40
Neighs:        79213.6 ave      114952 max           0 min
Histogram: 8 4 4 0 10 6 8 8 24 32

Total # of neighbors = 8238213
Ave neighs/atom = 28.530509
Neighbor list builds = 10
Dangerous builds = 0
The dot product: -4.95393451849731e-06
Setting atom values ...
  1 settings made for x
  1 settings made for y
  1 settings made for z
Setting up cg style minimization ...
  Unit style    : metal
  Current step  : 19838
Per MPI rank memory allocation (min/avg/max) = 5.441 | 5.816 | 6.074 Mbytes
Step PotEng KinEng TotEng v_fx v_fy v_fz 
   19838   -1152448.8            0   -1152448.8 0.0026972561  -0.20678652    -0.262453 
   20000   -1152448.9            0   -1152448.9 0.00013530744 8.9459077e-05 1.5902385e-05 
   20053   -1152448.9            0   -1152448.9 -1.1698425e-05 6.0924684e-06 1.6045188e-05 
Loop time of 2.47941 on 104 procs for 215 steps with 288751 atoms

99.9% CPU use with 104 MPI tasks x 1 OpenMP threads

Minimization stats:
  Stopping criterion = energy tolerance
  Energy initial, next-to-last, final = 
     -1152448.83368213  -1152448.85171491  -1152448.85171491
  Force two-norm initial, final = 0.37404497 0.00018592766
  Force max component initial, final = 0.262453 2.7693168e-05
  Final line search alpha, max atom move = 1.0000000 2.7693168e-05
  Iterations, force evaluations = 215 430

MPI task timing breakdown:
Section |  min time  |  avg time  |  max time  |%varavg| %total
---------------------------------------------------------------
Pair    | 0.65373    | 1.8022     | 2.3459     |  36.2 | 72.69
Neigh   | 1.0145e-05 | 0.0029571  | 0.0042893  |   2.2 |  0.12
Comm    | 0.040468   | 0.40389    | 1.2255     |  54.2 | 16.29
Output  | 0.00011595 | 0.00011884 | 0.00027787 |   0.0 |  0.00
Modify  | 2.3796e-05 | 0.0035336  | 0.0075521  |   2.8 |  0.14
Other   |            | 0.2667     |            |       | 10.76

Nlocal:        2776.45 ave        3930 max           0 min
Histogram: 8 4 4 0 4 12 8 0 26 38
Nghost:        3879.01 ave        5423 max         232 min
Histogram: 8 0 8 0 16 0 8 8 16 40
Neighs:        79213.3 ave      114460 max           0 min
Histogram: 8 4 4 0 8 8 8 8 20 36

Total # of neighbors = 8238186
Ave neighs/atom = 28.530415
Neighbor list builds = 1
Dangerous builds = 0
The dot product: -1.50306865527668e-06
Setting atom values ...
  1 settings made for x
  1 settings made for y
  1 settings made for z
Setting up cg style minimization ...
  Unit style    : metal
  Current step  : 20053
Per MPI rank memory allocation (min/avg/max) = 5.441 | 5.816 | 6.074 Mbytes
Step PotEng KinEng TotEng v_fx v_fy v_fz 
   20053   -1152448.9            0   -1152448.9  -0.00173151  0.052898213  0.062194118 
   20199   -1152448.9            0   -1152448.9 -1.0660739e-05 -3.275403e-07 6.8849133e-06 
Loop time of 1.6837 on 104 procs for 146 steps with 288751 atoms

99.9% CPU use with 104 MPI tasks x 1 OpenMP threads

Minimization stats:
  Stopping criterion = energy tolerance
  Energy initial, next-to-last, final = 
     -1152448.88552785  -1152448.88753855  -1152448.88753855
  Force two-norm initial, final = 0.18915871 6.6097133e-05
  Force max component initial, final = 0.10543314 1.8204534e-05
  Final line search alpha, max atom move = 1.0000000 1.8204534e-05
  Iterations, force evaluations = 146 292

MPI task timing breakdown:
Section |  min time  |  avg time  |  max time  |%varavg| %total
---------------------------------------------------------------
Pair    | 0.44298    | 1.2213     | 1.5924     |  29.8 | 72.53
Neigh   | 0          | 0          | 0          |   0.0 |  0.00
Comm    | 0.025739   | 0.27541    | 0.83219    |  44.1 | 16.36
Output  | 0          | 0          | 0          |   0.0 |  0.00
Modify  | 1.6698e-05 | 0.0024048  | 0.0051152  |   2.3 |  0.14
Other   |            | 0.1846     |            |       | 10.97

Nlocal:        2776.45 ave        3930 max           0 min
Histogram: 8 4 4 0 4 12 8 0 26 38
Nghost:        3879.07 ave        5425 max         232 min
Histogram: 8 0 8 0 16 0 8 8 16 40
Neighs:        79213.3 ave      114468 max           0 min
Histogram: 8 4 4 0 8 8 8 8 20 36

Total # of neighbors = 8238183
Ave neighs/atom = 28.530405
Neighbor list builds = 0
Dangerous builds = 0
The dot product: 6.74161896371811e-08
Setting atom values ...
  1 settings made for x
  1 settings made for y
  1 settings made for z
Setting up cg style minimization ...
  Unit style    : metal
  Current step  : 20199
Per MPI rank memory allocation (min/avg/max) = 5.441 | 5.816 | 6.074 Mbytes
Step PotEng KinEng TotEng v_fx v_fy v_fz 
   20199   -1152448.9            0   -1152448.9 -0.0047689523 -0.0027859279 3.8268905e-06 
   20382   -1152448.9            0   -1152448.9 8.5534668e-06 -5.8062573e-06 -1.2683265e-05 
Loop time of 2.10623 on 104 procs for 183 steps with 288751 atoms

99.9% CPU use with 104 MPI tasks x 1 OpenMP threads

Minimization stats:
  Stopping criterion = energy tolerance
  Energy initial, next-to-last, final = 
     -1152448.91973234  -1152448.92108364  -1152448.92108364
  Force two-norm initial, final = 0.16966757 0.00014640833
  Force max component initial, final = 0.10395466 1.9088067e-05
  Final line search alpha, max atom move = 1.0000000 1.9088067e-05
  Iterations, force evaluations = 183 366

MPI task timing breakdown:
Section |  min time  |  avg time  |  max time  |%varavg| %total
---------------------------------------------------------------
Pair    | 0.55428    | 1.5349     | 1.9928     |  33.5 | 72.88
Neigh   | 0          | 0          | 0          |   0.0 |  0.00
Comm    | 0.037876   | 0.34672    | 1.0484     |  50.2 | 16.46
Output  | 0          | 0          | 0          |   0.0 |  0.00
Modify  | 2.0895e-05 | 0.0030098  | 0.006469   |   2.6 |  0.14
Other   |            | 0.2216     |            |       | 10.52

Nlocal:        2776.45 ave        3930 max           0 min
Histogram: 8 4 4 0 4 12 8 0 26 38
Nghost:        3879.07 ave        5425 max         232 min
Histogram: 8 0 8 0 16 0 8 8 16 40
Neighs:        79213.3 ave      114468 max           0 min
Histogram: 8 4 4 0 8 8 8 8 20 36

Total # of neighbors = 8238184
Ave neighs/atom = 28.530409
Neighbor list builds = 0
Dangerous builds = 0
The dot product: 4.13165676915706e-08
Setting atom values ...
  1 settings made for x
  1 settings made for y
  1 settings made for z
Setting up cg style minimization ...
  Unit style    : metal
  Current step  : 20382
Per MPI rank memory allocation (min/avg/max) = 5.441 | 5.816 | 6.074 Mbytes
Step PotEng KinEng TotEng v_fx v_fy v_fz 
   20382     -1152449            0     -1152449 -0.0046935771 0.0082660383  0.012888457 
   20617     -1152449            0     -1152449 3.1823316e-07 2.5220069e-06 2.733135e-06 
Loop time of 2.71378 on 104 procs for 235 steps with 288751 atoms

99.9% CPU use with 104 MPI tasks x 1 OpenMP threads

Minimization stats:
  Stopping criterion = energy tolerance
  Energy initial, next-to-last, final = 
     -1152448.95162375  -1152448.95296608  -1152448.95296608
  Force two-norm initial, final = 0.16979988 1.8749547e-05
  Force max component initial, final = 0.10329103 3.3772847e-06
  Final line search alpha, max atom move = 1.0000000 3.3772847e-06
  Iterations, force evaluations = 235 470

MPI task timing breakdown:
Section |  min time  |  avg time  |  max time  |%varavg| %total
---------------------------------------------------------------
Pair    | 0.70943    | 1.965      | 2.5593     |  37.9 | 72.41
Neigh   | 0          | 0          | 0          |   0.0 |  0.00
Comm    | 0.041445   | 0.44268    | 1.3375     |  56.1 | 16.31
Output  | 0          | 0          | 0          |   0.0 |  0.00
Modify  | 2.6092e-05 | 0.0038627  | 0.0082595  |   2.9 |  0.14
Other   |            | 0.3022     |            |       | 11.14

Nlocal:        2776.45 ave        3930 max           0 min
Histogram: 8 4 4 0 4 12 8 0 26 38
Nghost:        3879.14 ave        5425 max         232 min
Histogram: 8 0 8 0 16 0 8 8 16 40
Neighs:        79213.3 ave      114468 max           0 min
Histogram: 8 4 4 0 8 8 8 8 20 36

Total # of neighbors = 8238185
Ave neighs/atom = 28.530412
Neighbor list builds = 0
Dangerous builds = 0
The dot product: 4.41431771780924e-09
Setting atom values ...
  1 settings made for x
  1 settings made for y
  1 settings made for z
Setting up cg style minimization ...
  Unit style    : metal
  Current step  : 20617
Per MPI rank memory allocation (min/avg/max) = 5.441 | 5.816 | 6.074 Mbytes
Step PotEng KinEng TotEng v_fx v_fy v_fz 
   20617     -1152449            0     -1152449 -0.0063217494 0.0069925207   0.01252234 
   20848     -1152449            0     -1152449 -1.6401679e-06 -1.3655805e-08 1.1078038e-06 
Loop time of 2.67667 on 104 procs for 231 steps with 288751 atoms

99.9% CPU use with 104 MPI tasks x 1 OpenMP threads

Minimization stats:
  Stopping criterion = energy tolerance
  Energy initial, next-to-last, final = 
     -1152448.98187056  -1152448.98321083  -1152448.98321083
  Force two-norm initial, final = 0.16908216 2.4879193e-05
  Force max component initial, final = 0.10239308 6.5877822e-06
  Final line search alpha, max atom move = 1.0000000 6.5877822e-06
  Iterations, force evaluations = 231 462

MPI task timing breakdown:
Section |  min time  |  avg time  |  max time  |%varavg| %total
---------------------------------------------------------------
Pair    | 0.69795    | 1.9385     | 2.5279     |  37.7 | 72.42
Neigh   | 0          | 0          | 0          |   0.0 |  0.00
Comm    | 0.048839   | 0.4411     | 1.3331     |  55.6 | 16.48
Output  | 0          | 0          | 0          |   0.0 |  0.00
Modify  | 2.5585e-05 | 0.003806   | 0.0081111  |   2.9 |  0.14
Other   |            | 0.2933     |            |       | 10.96

Nlocal:        2776.45 ave        3930 max           0 min
Histogram: 8 4 4 0 4 12 8 0 26 38
Nghost:        3879.17 ave        5425 max         232 min
Histogram: 8 0 8 0 16 0 8 8 16 40
Neighs:        79213.3 ave      114468 max           0 min
Histogram: 8 4 4 0 8 8 8 8 20 36

Total # of neighbors = 8238187
Ave neighs/atom = 28.530419
Neighbor list builds = 0
Dangerous builds = 0
The dot product: 8.98882677055705e-11
Setting up cg style minimization ...
  Unit style    : metal
  Current step  : 20848
Per MPI rank memory allocation (min/avg/max) = 5.441 | 5.816 | 6.074 Mbytes
Step PotEng KinEng TotEng v_fx v_fy v_fz 
   20848     -1152449            0     -1152449   -0.5980713    1.0224593  -0.87287205 
   21000   -1152449.3            0   -1152449.3 0.0013073125 0.00011617733 -0.0011718716 
   21135   -1152449.3            0   -1152449.3 -1.1620047e-05 -1.5245505e-06 9.892032e-06 
Loop time of 3.29756 on 104 procs for 287 steps with 288751 atoms

99.9% CPU use with 104 MPI tasks x 1 OpenMP threads

Minimization stats:
  Stopping criterion = energy tolerance
  Energy initial, next-to-last, final = 
     -1152448.98321083  -1152449.26566399  -1152449.26566399
  Force two-norm initial, final = 1.4714000 4.8969394e-05
  Force max component initial, final = 1.0224593 1.2916056e-05
  Final line search alpha, max atom move = 1.0000000 1.2916056e-05
  Iterations, force evaluations = 287 573

MPI task timing breakdown:
Section |  min time  |  avg time  |  max time  |%varavg| %total
---------------------------------------------------------------
Pair    | 0.87442    | 2.3956     | 3.1118     |  41.6 | 72.65
Neigh   | 2.0056e-05 | 0.0059385  | 0.0085378  |   3.2 |  0.18
Comm    | 0.057774   | 0.53433    | 1.6142     |  62.0 | 16.20
Output  | 0.00010619 | 0.00010927 | 0.00026982 |   0.0 |  0.00
Modify  | 2.9574e-05 | 0.003065   | 0.0078267  |   3.5 |  0.09
Other   |            | 0.3586     |            |       | 10.87

Nlocal:        2776.45 ave        3930 max           0 min
Histogram: 8 4 4 0 4 12 8 0 26 38
Nghost:        3879.16 ave        5425 max         232 min
Histogram: 8 0 8 0 16 0 8 8 16 40
Neighs:        79213.3 ave      114559 max           0 min
Histogram: 8 4 4 0 8 8 8 8 20 36

Total # of neighbors = 8238184
Ave neighs/atom = 28.530409
Neighbor list builds = 2
Dangerous builds = 0
