LAMMPS (29 Oct 2020)
OMP_NUM_THREADS environment is not set. Defaulting to 1 thread. (../comm.cpp:94)
  using 1 OpenMP thread(s) per MPI task
OMP_NUM_THREADS environment is not set. Defaulting to 1 thread. (../comm.cpp:94)
  using 1 OpenMP thread(s) per MPI task
Reading data file ...
  orthogonal box = (-122.39241 -121.13707 -37.090501) to (122.39241 121.13707 37.090501)
  13 by 4 by 2 MPI processor grid
  reading atoms ...
  288751 atoms
  read_data CPU = 0.390 seconds
199981 atoms in group inner
88770 atoms in group outer
1 atoms in group carbon
Neighbor list info ...
  update every 1 steps, delay 0 steps, check yes
  max neighbors/atom: 2000, page size: 100000
  master list distance cutoff = 5.6
  ghost atom cutoff = 5.6
  binsize = 2.8, bins = 88 87 27
  1 neighbor lists, perpetual/occasional/extra = 1 0 0
  (1) pair eam/alloy, perpetual
      attributes: half, newton on
      pair build: half/bin/atomonly/newton
      stencil: half/bin/3d/newton
      bin: standard
Setting up cg style minimization ...
  Unit style    : metal
  Current step  : 0
Per MPI rank memory allocation (min/avg/max) = 5.441 | 5.816 | 6.074 Mbytes
Step v_fx v_fy v_fz PotEng KinEng TotEng 
       0    1.5178512    -1.134074    2.5425392   -1152447.8            0   -1152447.8 
     146 -2.6676895e-05 4.9351159e-05 -8.5894101e-05   -1152449.5            0   -1152449.5 
Loop time of 1.73606 on 104 procs for 146 steps with 288751 atoms

99.8% CPU use with 104 MPI tasks x 1 OpenMP threads

Minimization stats:
  Stopping criterion = energy tolerance
  Energy initial, next-to-last, final = 
     -1152447.78326521  -1152449.45035265  -1152449.45035265
  Force two-norm initial, final = 10.182767 0.00030724714
  Force max component initial, final = 4.5602547 8.5894101e-05
  Final line search alpha, max atom move = 1.0000000 8.5894101e-05
  Iterations, force evaluations = 146 291

MPI task timing breakdown:
Section |  min time  |  avg time  |  max time  |%varavg| %total
---------------------------------------------------------------
Pair    | 0.45872    | 1.2317     | 1.5967     |  29.5 | 70.95
Neigh   | 3.3496e-05 | 0.0088351  | 0.013575   |   3.9 |  0.51
Comm    | 0.028509   | 0.28146    | 0.82549    |  43.1 | 16.21
Output  | 0          | 0          | 0          |   0.0 |  0.00
Modify  | 1.7563e-05 | 0.0015751  | 0.004034   |   2.5 |  0.09
Other   |            | 0.2125     |            |       | 12.24

Nlocal:        2776.45 ave        3960 max           0 min
Histogram: 8 4 4 0 4 12 8 2 28 34
Nghost:        3879.05 ave        5424 max         232 min
Histogram: 8 0 8 0 16 0 8 8 16 40
Neighs:        79213.5 ave      115432 max           0 min
Histogram: 8 4 4 0 10 6 8 8 24 32

Total # of neighbors = 8238207
Ave neighs/atom = 28.530488
Neighbor list builds = 3
Dangerous builds = 1
Setting atom values ...
  1 settings made for x
  1 settings made for y
  1 settings made for z
Setting up cg style minimization ...
  Unit style    : metal
  Current step  : 146
Per MPI rank memory allocation (min/avg/max) = 5.441 | 5.816 | 6.074 Mbytes
Step PotEng KinEng TotEng v_fx v_fy v_fz 
     146   -1152449.4            0   -1152449.4 -0.017459507 0.0075895763 -0.019300487 
     249   -1152449.5            0   -1152449.5 -4.7825987e-05 1.8747933e-05 -5.9387951e-05 
Loop time of 1.22488 on 104 procs for 103 steps with 288751 atoms

99.9% CPU use with 104 MPI tasks x 1 OpenMP threads

Minimization stats:
  Stopping criterion = energy tolerance
  Energy initial, next-to-last, final = 
     -1152449.44953683  -1152449.45002958  -1152449.45002958
  Force two-norm initial, final = 0.10027778 0.00025001588
  Force max component initial, final = 0.05093042 5.9387951e-05
  Final line search alpha, max atom move = 1.0000000 5.9387951e-05
  Iterations, force evaluations = 103 206

MPI task timing breakdown:
Section |  min time  |  avg time  |  max time  |%varavg| %total
---------------------------------------------------------------
Pair    | 0.31698    | 0.87388    | 1.1404     |  25.2 | 71.34
Neigh   | 0          | 0          | 0          |   0.0 |  0.00
Comm    | 0.018223   | 0.19891    | 0.59374    |  36.9 | 16.24
Output  | 0          | 0          | 0          |   0.0 |  0.00
Modify  | 1.2562e-05 | 0.0017128  | 0.0036575  |   1.9 |  0.14
Other   |            | 0.1504     |            |       | 12.28

Nlocal:        2776.45 ave        3961 max           0 min
Histogram: 8 4 4 0 6 10 8 2 28 34
Nghost:        3879.01 ave        5424 max         232 min
Histogram: 8 0 8 0 16 0 8 8 16 40
Neighs:        79213.4 ave      115458 max           0 min
Histogram: 8 4 4 0 10 6 8 8 24 32

Total # of neighbors = 8238197
Ave neighs/atom = 28.530454
Neighbor list builds = 0
Dangerous builds = 0
Setting atom values ...
  1 settings made for x
  1 settings made for y
  1 settings made for z
Setting up cg style minimization ...
  Unit style    : metal
  Current step  : 249
Per MPI rank memory allocation (min/avg/max) = 5.441 | 5.816 | 6.074 Mbytes
Step PotEng KinEng TotEng v_fx v_fy v_fz 
     249   -1152449.4            0   -1152449.4 -0.025145213  0.016376264 -0.024608573 
     380   -1152449.4            0   -1152449.4 2.3950443e-05 -2.2899201e-05 -9.7103849e-06 
Loop time of 1.56708 on 104 procs for 131 steps with 288751 atoms

99.9% CPU use with 104 MPI tasks x 1 OpenMP threads

Minimization stats:
  Stopping criterion = energy tolerance
  Energy initial, next-to-last, final = 
     -1152449.44683999  -1152449.44812625  -1152449.44812625
  Force two-norm initial, final = 0.16026722 0.00018360671
  Force max component initial, final = 0.090277418 2.8493659e-05
  Final line search alpha, max atom move = 1.0000000 2.8493659e-05
  Iterations, force evaluations = 131 262

MPI task timing breakdown:
Section |  min time  |  avg time  |  max time  |%varavg| %total
---------------------------------------------------------------
Pair    | 0.40136    | 1.1059     | 1.4368     |  28.4 | 70.57
Neigh   | 0          | 0          | 0          |   0.0 |  0.00
Comm    | 0.032417   | 0.25489    | 0.75021    |  40.8 | 16.27
Output  | 0          | 0          | 0          |   0.0 |  0.00
Modify  | 1.6787e-05 | 0.0021751  | 0.0046487  |   2.2 |  0.14
Other   |            | 0.2041     |            |       | 13.02

Nlocal:        2776.45 ave        3961 max           0 min
Histogram: 8 4 4 0 6 10 8 2 28 34
Nghost:        3879.01 ave        5424 max         232 min
Histogram: 8 0 8 0 16 0 8 8 16 40
Neighs:        79213.4 ave      115458 max           0 min
Histogram: 8 4 4 0 10 6 8 8 24 32

Total # of neighbors = 8238196
Ave neighs/atom = 28.530450
Neighbor list builds = 0
Dangerous builds = 0
The dot product: -3.28278610351267e-08
Setting atom values ...
  1 settings made for x
  1 settings made for y
  1 settings made for z
Setting up cg style minimization ...
  Unit style    : metal
  Current step  : 380
Per MPI rank memory allocation (min/avg/max) = 5.441 | 5.816 | 6.074 Mbytes
Step PotEng KinEng TotEng v_fx v_fy v_fz 
     380   -1152449.4            0   -1152449.4 -0.021895969  0.018245251 -0.015765685 
     500   -1152449.4            0   -1152449.4 8.472574e-06 -1.0489161e-05 -1.5108687e-05 
Loop time of 1.41347 on 104 procs for 120 steps with 288751 atoms

99.9% CPU use with 104 MPI tasks x 1 OpenMP threads

Minimization stats:
  Stopping criterion = energy tolerance
  Energy initial, next-to-last, final = 
     -1152449.44335685  -1152449.44460474  -1152449.44460474
  Force two-norm initial, final = 0.15616276 0.00015432962
  Force max component initial, final = 0.09482194 2.1466918e-05
  Final line search alpha, max atom move = 1.0000000 2.1466918e-05
  Iterations, force evaluations = 120 240

MPI task timing breakdown:
Section |  min time  |  avg time  |  max time  |%varavg| %total
---------------------------------------------------------------
Pair    | 0.36399    | 1.016      | 1.3227     |  27.3 | 71.88
Neigh   | 0          | 0          | 0          |   0.0 |  0.00
Comm    | 0.021512   | 0.23019    | 0.70032    |  40.0 | 16.29
Output  | 0          | 0          | 0          |   0.0 |  0.00
Modify  | 1.5116e-05 | 0.00199    | 0.0042366  |   2.1 |  0.14
Other   |            | 0.1653     |            |       | 11.69

Nlocal:        2776.45 ave        3961 max           0 min
Histogram: 8 4 4 0 6 10 8 2 28 34
Nghost:        3879.01 ave        5424 max         232 min
Histogram: 8 0 8 0 16 0 8 8 16 40
Neighs:        79213.4 ave      115458 max           0 min
Histogram: 8 4 4 0 10 6 8 8 24 32

Total # of neighbors = 8238195
Ave neighs/atom = 28.530447
Neighbor list builds = 0
Dangerous builds = 0
The dot product: -1.17582301581387e-08
Setting atom values ...
  1 settings made for x
  1 settings made for y
  1 settings made for z
Setting up cg style minimization ...
  Unit style    : metal
  Current step  : 500
Per MPI rank memory allocation (min/avg/max) = 5.441 | 5.816 | 6.074 Mbytes
Step PotEng KinEng TotEng v_fx v_fy v_fz 
     500   -1152449.4            0   -1152449.4 -0.019135645  0.018401773 -0.0080968701 
     607   -1152449.4            0   -1152449.4 1.6027746e-05 -1.4161848e-05 1.5558439e-05 
Loop time of 1.28032 on 104 procs for 107 steps with 288751 atoms

99.8% CPU use with 104 MPI tasks x 1 OpenMP threads

Minimization stats:
  Stopping criterion = energy tolerance
  Energy initial, next-to-last, final = 
     -1152449.43830462  -1152449.43953184  -1152449.43953184
  Force two-norm initial, final = 0.15365496 0.00023996283
  Force max component initial, final = 0.098478045 4.9720978e-05
  Final line search alpha, max atom move = 1.0000000 4.9720978e-05
  Iterations, force evaluations = 107 214

MPI task timing breakdown:
Section |  min time  |  avg time  |  max time  |%varavg| %total
---------------------------------------------------------------
Pair    | 0.3261     | 0.90252    | 1.1743     |  25.6 | 70.49
Neigh   | 0          | 0          | 0          |   0.0 |  0.00
Comm    | 0.020271   | 0.20634    | 0.61278    |  37.1 | 16.12
Output  | 0          | 0          | 0          |   0.0 |  0.00
Modify  | 1.3686e-05 | 0.0017796  | 0.0038082  |   2.0 |  0.14
Other   |            | 0.1697     |            |       | 13.25

Nlocal:        2776.45 ave        3961 max           0 min
Histogram: 8 4 4 0 6 10 8 2 28 34
Nghost:        3879.01 ave        5424 max         232 min
Histogram: 8 0 8 0 16 0 8 8 16 40
Neighs:        79213.4 ave      115458 max           0 min
Histogram: 8 4 4 0 10 6 8 8 24 32

Total # of neighbors = 8238194
Ave neighs/atom = 28.530443
Neighbor list builds = 0
Dangerous builds = 0
The dot product: -4.29874433925264e-08
Setting atom values ...
  1 settings made for x
  1 settings made for y
  1 settings made for z
Setting up cg style minimization ...
  Unit style    : metal
  Current step  : 607
Per MPI rank memory allocation (min/avg/max) = 5.441 | 5.816 | 6.074 Mbytes
Step PotEng KinEng TotEng v_fx v_fy v_fz 
     607   -1152449.4            0   -1152449.4 -0.018954209  0.020140557 -0.0023831243 
     795   -1152449.4            0   -1152449.4 7.7942366e-07 -1.4252145e-06 -3.96787e-06 
Loop time of 2.22358 on 104 procs for 188 steps with 288751 atoms

99.9% CPU use with 104 MPI tasks x 1 OpenMP threads

Minimization stats:
  Stopping criterion = energy tolerance
  Energy initial, next-to-last, final = 
     -1152449.43172198  -1152449.43293404  -1152449.43293404
  Force two-norm initial, final = 0.1525165 5.6689543e-05
  Force max component initial, final = 0.10151776 1.2387406e-05
  Final line search alpha, max atom move = 1.0000000 1.2387406e-05
  Iterations, force evaluations = 188 376

MPI task timing breakdown:
Section |  min time  |  avg time  |  max time  |%varavg| %total
---------------------------------------------------------------
Pair    | 0.57055    | 1.5865     | 2.0661     |  33.9 | 71.35
Neigh   | 0          | 0          | 0          |   0.0 |  0.00
Comm    | 0.033376   | 0.35818    | 1.0715     |  50.3 | 16.11
Output  | 0          | 0          | 0          |   0.0 |  0.00
Modify  | 2.3758e-05 | 0.0031087  | 0.0066628  |   2.6 |  0.14
Other   |            | 0.2757     |            |       | 12.40

Nlocal:        2776.45 ave        3960 max           0 min
Histogram: 8 4 4 0 4 12 8 2 28 34
Nghost:        3879.01 ave        5424 max         232 min
Histogram: 8 0 8 0 16 0 8 8 16 40
Neighs:        79213.4 ave      115415 max           0 min
Histogram: 8 4 4 0 10 6 8 8 24 32

Total # of neighbors = 8238192
Ave neighs/atom = 28.530436
Neighbor list builds = 0
Dangerous builds = 0
The dot product: -7.11594847221879e-09
Setting atom values ...
  1 settings made for x
  1 settings made for y
  1 settings made for z
Setting up cg style minimization ...
  Unit style    : metal
  Current step  : 795
Per MPI rank memory allocation (min/avg/max) = 5.441 | 5.816 | 6.074 Mbytes
Step PotEng KinEng TotEng v_fx v_fy v_fz 
     795   -1152449.4            0   -1152449.4 -0.020624222  0.023933006 0.0021329859 
     923   -1152449.4            0   -1152449.4 3.9775226e-06 -6.3857821e-06 -1.1187362e-05 
Loop time of 1.50877 on 104 procs for 128 steps with 288751 atoms

99.9% CPU use with 104 MPI tasks x 1 OpenMP threads

Minimization stats:
  Stopping criterion = energy tolerance
  Energy initial, next-to-last, final = 
     -1152449.42366089   -1152449.4248738   -1152449.4248738
  Force two-norm initial, final = 0.15254425 0.00013554321
  Force max component initial, final = 0.10437838 1.2881671e-05
  Final line search alpha, max atom move = 1.0000000 1.2881671e-05
  Iterations, force evaluations = 128 256

MPI task timing breakdown:
Section |  min time  |  avg time  |  max time  |%varavg| %total
---------------------------------------------------------------
Pair    | 0.38779    | 1.077      | 1.3994     |  28.1 | 71.38
Neigh   | 0          | 0          | 0          |   0.0 |  0.00
Comm    | 0.026414   | 0.2451     | 0.73467    |  40.7 | 16.24
Output  | 0          | 0          | 0          |   0.0 |  0.00
Modify  | 1.5792e-05 | 0.0021264  | 0.0045279  |   2.2 |  0.14
Other   |            | 0.1846     |            |       | 12.23

Nlocal:        2776.45 ave        3959 max           0 min
Histogram: 8 4 4 0 4 12 8 2 28 34
Nghost:        3879.01 ave        5424 max         232 min
Histogram: 8 0 8 0 16 0 8 8 16 40
Neighs:        79213.4 ave      115391 max           0 min
Histogram: 8 4 4 0 10 6 8 8 24 32

Total # of neighbors = 8238190
Ave neighs/atom = 28.530429
Neighbor list builds = 0
Dangerous builds = 0
The dot product: -4.55978595249986e-08
Setting atom values ...
  1 settings made for x
  1 settings made for y
  1 settings made for z
Setting up cg style minimization ...
  Unit style    : metal
  Current step  : 923
Per MPI rank memory allocation (min/avg/max) = 5.441 | 5.816 | 6.074 Mbytes
Step PotEng KinEng TotEng v_fx v_fy v_fz 
     923   -1152449.4            0   -1152449.4 -0.024348354  0.031068603 0.0057238593 
    1000   -1152449.4            0   -1152449.4 -3.2660027e-05 7.4238959e-05 0.00017813255 
    1113   -1152449.4            0   -1152449.4 9.1827652e-07 -1.5849063e-06 -2.3786084e-06 
Loop time of 2.2203 on 104 procs for 190 steps with 288751 atoms

99.9% CPU use with 104 MPI tasks x 1 OpenMP threads

Minimization stats:
  Stopping criterion = energy tolerance
  Energy initial, next-to-last, final = 
     -1152449.41422567  -1152449.41548218  -1152449.41548218
  Force two-norm initial, final = 0.15404148 5.6074766e-05
  Force max component initial, final = 0.10711914 9.1679012e-06
  Final line search alpha, max atom move = 1.0000000 9.1679012e-06
  Iterations, force evaluations = 190 380

MPI task timing breakdown:
Section |  min time  |  avg time  |  max time  |%varavg| %total
---------------------------------------------------------------
Pair    | 0.57725    | 1.6012     | 2.079      |  34.1 | 72.12
Neigh   | 0          | 0          | 0          |   0.0 |  0.00
Comm    | 0.035903   | 0.36062    | 1.0924     |  50.4 | 16.24
Output  | 0.00026608 | 0.00027157 | 0.00042557 |   0.0 |  0.01
Modify  | 2.4308e-05 | 0.0031417  | 0.0067038  |   2.6 |  0.14
Other   |            | 0.255      |            |       | 11.49

Nlocal:        2776.45 ave        3959 max           0 min
Histogram: 8 4 4 0 4 12 8 2 28 34
Nghost:        3879.05 ave        5424 max         232 min
Histogram: 8 0 8 0 16 0 8 8 16 40
Neighs:        79213.4 ave      115391 max           0 min
Histogram: 8 4 4 0 10 6 8 8 24 32

Total # of neighbors = 8238191
Ave neighs/atom = 28.530433
Neighbor list builds = 0
Dangerous builds = 0
The dot product: -1.7161699182299e-08
Setting atom values ...
  1 settings made for x
  1 settings made for y
  1 settings made for z
Setting up cg style minimization ...
  Unit style    : metal
  Current step  : 1113
Per MPI rank memory allocation (min/avg/max) = 5.441 | 5.816 | 6.074 Mbytes
Step PotEng KinEng TotEng v_fx v_fy v_fz 
    1113   -1152449.4            0   -1152449.4  -0.02650316  0.038305122  0.008164363 
    1232   -1152449.4            0   -1152449.4 1.8307424e-05 -1.1668572e-05 5.8971477e-05 
Loop time of 1.38719 on 104 procs for 119 steps with 288751 atoms

99.9% CPU use with 104 MPI tasks x 1 OpenMP threads

Minimization stats:
  Stopping criterion = energy tolerance
  Energy initial, next-to-last, final = 
     -1152449.40355881  -1152449.40487529  -1152449.40487529
  Force two-norm initial, final = 0.15576943 0.00023501413
  Force max component initial, final = 0.10974712 6.0380273e-05
  Final line search alpha, max atom move = 1.0000000 6.0380273e-05
  Iterations, force evaluations = 119 238

MPI task timing breakdown:
Section |  min time  |  avg time  |  max time  |%varavg| %total
---------------------------------------------------------------
Pair    | 0.36849    | 1.0018     | 1.2983     |  26.8 | 72.22
Neigh   | 0          | 0          | 0          |   0.0 |  0.00
Comm    | 0.021523   | 0.22536    | 0.67435    |  39.7 | 16.25
Output  | 0          | 0          | 0          |   0.0 |  0.00
Modify  | 1.4498e-05 | 0.0019725  | 0.0042001  |   2.1 |  0.14
Other   |            | 0.1581     |            |       | 11.40

Nlocal:        2776.45 ave        3958 max           0 min
Histogram: 8 4 4 0 4 12 8 2 28 34
Nghost:        3879.05 ave        5424 max         232 min
Histogram: 8 0 8 0 16 0 8 8 16 40
Neighs:        79213.4 ave      115369 max           0 min
Histogram: 8 4 4 0 10 6 8 8 24 32

Total # of neighbors = 8238192
Ave neighs/atom = 28.530436
Neighbor list builds = 0
Dangerous builds = 0
The dot product: -7.24842481236501e-08
Setting atom values ...
  1 settings made for x
  1 settings made for y
  1 settings made for z
Setting up cg style minimization ...
  Unit style    : metal
  Current step  : 1232
Per MPI rank memory allocation (min/avg/max) = 5.441 | 5.816 | 6.074 Mbytes
Step PotEng KinEng TotEng v_fx v_fy v_fz 
    1232   -1152449.4            0   -1152449.4 -0.025268739  0.042058873 0.0087624512 
    1394   -1152449.4            0   -1152449.4 -2.076994e-05 1.9963039e-05 -4.6069178e-05 
Loop time of 1.89385 on 104 procs for 162 steps with 288751 atoms

99.9% CPU use with 104 MPI tasks x 1 OpenMP threads

Minimization stats:
  Stopping criterion = energy tolerance
  Energy initial, next-to-last, final = 
     -1152449.39171038  -1152449.39306488  -1152449.39306488
  Force two-norm initial, final = 0.15662095 0.000221873
  Force max component initial, final = 0.11186143 4.6069178e-05
  Final line search alpha, max atom move = 1.0000000 4.6069178e-05
  Iterations, force evaluations = 162 324

MPI task timing breakdown:
Section |  min time  |  avg time  |  max time  |%varavg| %total
---------------------------------------------------------------
Pair    | 0.49034    | 1.3689     | 1.776      |  31.6 | 72.28
Neigh   | 0          | 0          | 0          |   0.0 |  0.00
Comm    | 0.030062   | 0.30931    | 0.94783    |  46.6 | 16.33
Output  | 0          | 0          | 0          |   0.0 |  0.00
Modify  | 2.0144e-05 | 0.0026751  | 0.0057074  |   2.4 |  0.14
Other   |            | 0.213      |            |       | 11.25

Nlocal:        2776.45 ave        3958 max           0 min
Histogram: 8 4 4 0 4 12 8 2 28 34
Nghost:        3879.05 ave        5424 max         232 min
Histogram: 8 0 8 0 16 0 8 8 16 40
Neighs:        79213.4 ave      115369 max           0 min
Histogram: 8 4 4 0 10 6 8 8 24 32

Total # of neighbors = 8238191
Ave neighs/atom = 28.530433
Neighbor list builds = 0
Dangerous builds = 0
The dot product: 2.1245077419002e-07
Setting atom values ...
  1 settings made for x
  1 settings made for y
  1 settings made for z
Setting up cg style minimization ...
  Unit style    : metal
  Current step  : 1394
Per MPI rank memory allocation (min/avg/max) = 5.441 | 5.816 | 6.074 Mbytes
Step PotEng KinEng TotEng v_fx v_fy v_fz 
    1394   -1152449.4            0   -1152449.4 -0.021761789  0.041964795 0.0083161991 
    1548   -1152449.4            0   -1152449.4 -1.7716112e-05 1.4249841e-05 -5.458772e-05 
Loop time of 1.82063 on 104 procs for 154 steps with 288751 atoms

99.9% CPU use with 104 MPI tasks x 1 OpenMP threads

Minimization stats:
  Stopping criterion = energy tolerance
  Energy initial, next-to-last, final = 
     -1152449.37865517  -1152449.38000634  -1152449.38000634
  Force two-norm initial, final = 0.15668201 0.00020586296
  Force max component initial, final = 0.11339601 5.4587720e-05
  Final line search alpha, max atom move = 1.0000000 5.4587720e-05
  Iterations, force evaluations = 154 308

MPI task timing breakdown:
Section |  min time  |  avg time  |  max time  |%varavg| %total
---------------------------------------------------------------
Pair    | 0.48144    | 1.3031     | 1.6806     |  30.5 | 71.58
Neigh   | 0          | 0          | 0          |   0.0 |  0.00
Comm    | 0.027001   | 0.29658    | 0.88491    |  45.0 | 16.29
Output  | 0          | 0          | 0          |   0.0 |  0.00
Modify  | 1.9244e-05 | 0.0025456  | 0.0054403  |   2.4 |  0.14
Other   |            | 0.2184     |            |       | 11.99

Nlocal:        2776.45 ave        3958 max           0 min
Histogram: 8 4 4 0 4 12 8 2 28 34
Nghost:        3879.12 ave        5424 max         232 min
Histogram: 8 0 8 0 16 0 8 8 16 40
Neighs:        79213.4 ave      115369 max           0 min
Histogram: 8 4 4 0 10 6 8 8 24 32

Total # of neighbors = 8238192
Ave neighs/atom = 28.530436
Neighbor list builds = 0
Dangerous builds = 0
The dot product: 1.46756643113976e-07
Setting atom values ...
  1 settings made for x
  1 settings made for y
  1 settings made for z
Setting up cg style minimization ...
  Unit style    : metal
  Current step  : 1548
Per MPI rank memory allocation (min/avg/max) = 5.441 | 5.816 | 6.074 Mbytes
Step PotEng KinEng TotEng v_fx v_fy v_fz 
    1548   -1152449.4            0   -1152449.4 -0.017362995  0.038773755 0.0076039631 
    1714   -1152449.4            0   -1152449.4 -2.8727181e-06 6.830062e-06 2.3566821e-06 
Loop time of 1.95742 on 104 procs for 166 steps with 288751 atoms

99.9% CPU use with 104 MPI tasks x 1 OpenMP threads

Minimization stats:
  Stopping criterion = energy tolerance
  Energy initial, next-to-last, final = 
     -1152449.36431542  -1152449.36563723  -1152449.36563723
  Force two-norm initial, final = 0.1562966 0.00019176524
  Force max component initial, final = 0.11433504 1.7027222e-05
  Final line search alpha, max atom move = 1.0000000 1.7027222e-05
  Iterations, force evaluations = 166 332

MPI task timing breakdown:
Section |  min time  |  avg time  |  max time  |%varavg| %total
---------------------------------------------------------------
Pair    | 0.50238    | 1.4002     | 1.8323     |  32.0 | 71.53
Neigh   | 0          | 0          | 0          |   0.0 |  0.00
Comm    | 0.030044   | 0.31951    | 0.95467    |  46.6 | 16.32
Output  | 0          | 0          | 0          |   0.0 |  0.00
Modify  | 2.0878e-05 | 0.002751   | 0.0058516  |   2.5 |  0.14
Other   |            | 0.2349     |            |       | 12.00

Nlocal:        2776.45 ave        3958 max           0 min
Histogram: 8 4 4 0 4 12 8 2 28 34
Nghost:        3879.12 ave        5424 max         232 min
Histogram: 8 0 8 0 16 0 8 8 16 40
Neighs:        79213.4 ave      115369 max           0 min
Histogram: 8 4 4 0 10 6 8 8 24 32

Total # of neighbors = 8238193
Ave neighs/atom = 28.530440
Neighbor list builds = 0
Dangerous builds = 0
The dot product: 7.63264588616106e-08
Setting atom values ...
  1 settings made for x
  1 settings made for y
  1 settings made for z
Setting up cg style minimization ...
  Unit style    : metal
  Current step  : 1714
Per MPI rank memory allocation (min/avg/max) = 5.441 | 5.816 | 6.074 Mbytes
Step PotEng KinEng TotEng v_fx v_fy v_fz 
    1714   -1152449.3            0   -1152449.3 -0.013017348  0.033551859 0.0070143831 
    1872   -1152449.3            0   -1152449.3 2.2619055e-07 -7.8133944e-07 -5.8142278e-07 
Loop time of 1.834 on 104 procs for 158 steps with 288751 atoms

99.9% CPU use with 104 MPI tasks x 1 OpenMP threads

Minimization stats:
  Stopping criterion = energy tolerance
  Energy initial, next-to-last, final = 
     -1152449.34862337  -1152449.34990132  -1152449.34990132
  Force two-norm initial, final = 0.1559195 0.00019370687
  Force max component initial, final = 0.11492305 3.1498917e-05
  Final line search alpha, max atom move = 1.0000000 3.1498917e-05
  Iterations, force evaluations = 158 316

MPI task timing breakdown:
Section |  min time  |  avg time  |  max time  |%varavg| %total
---------------------------------------------------------------
Pair    | 0.47931    | 1.3247     | 1.7236     |  31.1 | 72.23
Neigh   | 0          | 0          | 0          |   0.0 |  0.00
Comm    | 0.028205   | 0.29928    | 0.90461    |  45.6 | 16.32
Output  | 0          | 0          | 0          |   0.0 |  0.00
Modify  | 1.9804e-05 | 0.0026162  | 0.0055666  |   2.4 |  0.14
Other   |            | 0.2074     |            |       | 11.31

Nlocal:        2776.45 ave        3958 max           0 min
Histogram: 8 4 4 0 4 12 8 2 28 34
Nghost:        3879.12 ave        5424 max         232 min
Histogram: 8 0 8 0 16 0 8 8 16 40
Neighs:        79213.4 ave      115369 max           0 min
Histogram: 8 4 4 0 10 6 8 8 24 32

Total # of neighbors = 8238192
Ave neighs/atom = 28.530436
Neighbor list builds = 0
Dangerous builds = 0
The dot product: -7.58862358253382e-09
Setting atom values ...
  1 settings made for x
  1 settings made for y
  1 settings made for z
Setting up cg style minimization ...
  Unit style    : metal
  Current step  : 1872
Per MPI rank memory allocation (min/avg/max) = 5.441 | 5.816 | 6.074 Mbytes
Step PotEng KinEng TotEng v_fx v_fy v_fz 
    1872   -1152449.3            0   -1152449.3 -0.0092150724  0.027235436 0.0064067854 
    2000   -1152449.3            0   -1152449.3 -5.3725918e-06 -1.3006606e-06 -3.1787526e-05 
    2004   -1152449.3            0   -1152449.3 -8.8222984e-06 1.261609e-05 -2.1694977e-05 
Loop time of 1.54161 on 104 procs for 132 steps with 288751 atoms

99.9% CPU use with 104 MPI tasks x 1 OpenMP threads

Minimization stats:
  Stopping criterion = energy tolerance
  Energy initial, next-to-last, final = 
     -1152449.33152324  -1152449.33275636  -1152449.33275636
  Force two-norm initial, final = 0.15583321 0.00019256504
  Force max component initial, final = 0.11536535 2.1694977e-05
  Final line search alpha, max atom move = 1.0000000 2.1694977e-05
  Iterations, force evaluations = 132 264

MPI task timing breakdown:
Section |  min time  |  avg time  |  max time  |%varavg| %total
---------------------------------------------------------------
Pair    | 0.40011    | 1.1124     | 1.4508     |  28.5 | 72.16
Neigh   | 0          | 0          | 0          |   0.0 |  0.00
Comm    | 0.026109   | 0.24976    | 0.75786    |  42.1 | 16.20
Output  | 0.0002389  | 0.00025306 | 0.00042657 |   0.0 |  0.02
Modify  | 1.6486e-05 | 0.0021818  | 0.0046443  |   2.2 |  0.14
Other   |            | 0.177      |            |       | 11.48

Nlocal:        2776.45 ave        3958 max           0 min
Histogram: 8 4 4 0 4 12 8 2 28 34
Nghost:        3879.14 ave        5424 max         232 min
Histogram: 8 0 8 0 16 0 8 8 16 40
Neighs:        79213.4 ave      115369 max           0 min
Histogram: 8 4 4 0 10 6 8 8 24 32

Total # of neighbors = 8238189
Ave neighs/atom = 28.530426
Neighbor list builds = 0
Dangerous builds = 0
The dot product: 1.00133031545731e-07
Setting atom values ...
  1 settings made for x
  1 settings made for y
  1 settings made for z
Setting up cg style minimization ...
  Unit style    : metal
  Current step  : 2004
Per MPI rank memory allocation (min/avg/max) = 5.441 | 5.816 | 6.074 Mbytes
Step PotEng KinEng TotEng v_fx v_fy v_fz 
    2004   -1152449.3            0   -1152449.3 -0.0060553763   0.02050337 0.0058428303 
    2121   -1152449.3            0   -1152449.3 3.0181945e-05 -4.2341167e-05 8.3610105e-05 
Loop time of 1.36824 on 104 procs for 117 steps with 288751 atoms

99.9% CPU use with 104 MPI tasks x 1 OpenMP threads

Minimization stats:
  Stopping criterion = energy tolerance
  Energy initial, next-to-last, final = 
     -1152449.31297943  -1152449.31417541  -1152449.31417541
  Force two-norm initial, final = 0.15615937 0.00028438298
  Force max component initial, final = 0.11579104 8.3610105e-05
  Final line search alpha, max atom move = 1.0000000 8.3610105e-05
  Iterations, force evaluations = 117 234

MPI task timing breakdown:
Section |  min time  |  avg time  |  max time  |%varavg| %total
---------------------------------------------------------------
Pair    | 0.35954    | 0.98522    | 1.2784     |  26.6 | 72.01
Neigh   | 0          | 0          | 0          |   0.0 |  0.00
Comm    | 0.023536   | 0.22234    | 0.66366    |  39.2 | 16.25
Output  | 0          | 0          | 0          |   0.0 |  0.00
Modify  | 1.4373e-05 | 0.0019365  | 0.0041257  |   2.1 |  0.14
Other   |            | 0.1587     |            |       | 11.60

Nlocal:        2776.45 ave        3958 max           0 min
Histogram: 8 4 4 0 4 12 8 2 28 34
Nghost:        3879.16 ave        5424 max         232 min
Histogram: 8 0 8 0 16 0 8 8 16 40
Neighs:        79213.3 ave      115369 max           0 min
Histogram: 8 4 4 0 10 6 8 8 24 32

Total # of neighbors = 8238188
Ave neighs/atom = 28.530422
Neighbor list builds = 0
Dangerous builds = 0
The dot product: -2.7022340783766e-07
Setting atom values ...
  1 settings made for x
  1 settings made for y
  1 settings made for z
Setting up cg style minimization ...
  Unit style    : metal
  Current step  : 2121
Per MPI rank memory allocation (min/avg/max) = 5.441 | 5.816 | 6.074 Mbytes
Step PotEng KinEng TotEng v_fx v_fy v_fz 
    2121   -1152449.3            0   -1152449.3 -0.0034017174  0.013607059 0.0054079362 
    2305   -1152449.3            0   -1152449.3 -1.9679072e-06 -4.6698216e-06 -1.8836978e-05 
Loop time of 2.13798 on 104 procs for 184 steps with 288751 atoms

99.9% CPU use with 104 MPI tasks x 1 OpenMP threads

Minimization stats:
  Stopping criterion = energy tolerance
  Energy initial, next-to-last, final = 
     -1152449.29297235  -1152449.29414325  -1152449.29414325
  Force two-norm initial, final = 0.15698555 7.6447875e-05
  Force max component initial, final = 0.11637071 1.8836978e-05
  Final line search alpha, max atom move = 1.0000000 1.8836978e-05
  Iterations, force evaluations = 184 368

MPI task timing breakdown:
Section |  min time  |  avg time  |  max time  |%varavg| %total
---------------------------------------------------------------
Pair    | 0.55675    | 1.5485     | 2.0092     |  33.6 | 72.43
Neigh   | 0          | 0          | 0          |   0.0 |  0.00
Comm    | 0.032048   | 0.34747    | 1.055      |  49.7 | 16.25
Output  | 0          | 0          | 0          |   0.0 |  0.00
Modify  | 2.2426e-05 | 0.0030373  | 0.0064798  |   2.6 |  0.14
Other   |            | 0.2389     |            |       | 11.18

Nlocal:        2776.45 ave        3958 max           0 min
Histogram: 8 4 4 0 4 12 8 2 28 34
Nghost:        3879.14 ave        5424 max         232 min
Histogram: 8 0 8 0 16 0 8 8 16 40
Neighs:        79213.3 ave      115369 max           0 min
Histogram: 8 4 4 0 10 6 8 8 24 32

Total # of neighbors = 8238186
Ave neighs/atom = 28.530415
Neighbor list builds = 0
Dangerous builds = 0
The dot product: -2.15924797171996e-08
Setting atom values ...
  1 settings made for x
  1 settings made for y
  1 settings made for z
Setting up cg style minimization ...
  Unit style    : metal
  Current step  : 2305
Per MPI rank memory allocation (min/avg/max) = 5.441 | 5.816 | 6.074 Mbytes
Step PotEng KinEng TotEng v_fx v_fy v_fz 
    2305   -1152449.3            0   -1152449.3 -0.0011519888 0.0066904596 0.0048695103 
    2440   -1152449.3            0   -1152449.3 1.3066058e-05 -3.2518386e-05 1.6780367e-05 
Loop time of 1.56801 on 104 procs for 135 steps with 288751 atoms

99.9% CPU use with 104 MPI tasks x 1 OpenMP threads

Minimization stats:
  Stopping criterion = energy tolerance
  Energy initial, next-to-last, final = 
     -1152449.27149439   -1152449.2726521   -1152449.2726521
  Force two-norm initial, final = 0.15835628 0.00015212726
  Force max component initial, final = 0.11717087 3.2518386e-05
  Final line search alpha, max atom move = 1.0000000 3.2518386e-05
  Iterations, force evaluations = 135 270

MPI task timing breakdown:
Section |  min time  |  avg time  |  max time  |%varavg| %total
---------------------------------------------------------------
Pair    | 0.40759    | 1.1337     | 1.4738     |  28.6 | 72.30
Neigh   | 0          | 0          | 0          |   0.0 |  0.00
Comm    | 0.024303   | 0.25546    | 0.76886    |  42.2 | 16.29
Output  | 0          | 0          | 0          |   0.0 |  0.00
Modify  | 1.6344e-05 | 0.002234   | 0.0047546  |   2.2 |  0.14
Other   |            | 0.1766     |            |       | 11.26

Nlocal:        2776.45 ave        3958 max           0 min
Histogram: 8 4 4 0 4 12 8 2 28 34
Nghost:        3879.14 ave        5424 max         232 min
Histogram: 8 0 8 0 16 0 8 8 16 40
Neighs:        79213.3 ave      115369 max           0 min
Histogram: 8 4 4 0 10 6 8 8 24 32

Total # of neighbors = 8238185
Ave neighs/atom = 28.530412
Neighbor list builds = 0
Dangerous builds = 0
The dot product: -9.89493171327962e-08
Setting atom values ...
  1 settings made for x
  1 settings made for y
  1 settings made for z
Setting up cg style minimization ...
  Unit style    : metal
  Current step  : 2440
Per MPI rank memory allocation (min/avg/max) = 5.441 | 5.816 | 6.074 Mbytes
Step PotEng KinEng TotEng v_fx v_fy v_fz 
    2440   -1152449.2            0   -1152449.2 0.00089838007 -0.00055290536   0.00398465 
    2666   -1152449.2            0   -1152449.2 -5.9109055e-07 5.3919616e-07 -2.3396202e-06 
Loop time of 2.63556 on 104 procs for 226 steps with 288751 atoms

99.9% CPU use with 104 MPI tasks x 1 OpenMP threads

Minimization stats:
  Stopping criterion = energy tolerance
  Energy initial, next-to-last, final = 
     -1152449.24854369  -1152449.24970328  -1152449.24970328
  Force two-norm initial, final = 0.160304 1.9596877e-05
  Force max component initial, final = 0.11822306 2.3396202e-06
  Final line search alpha, max atom move = 1.0000000 2.3396202e-06
  Iterations, force evaluations = 226 452

MPI task timing breakdown:
Section |  min time  |  avg time  |  max time  |%varavg| %total
---------------------------------------------------------------
Pair    | 0.68125    | 1.9065     | 2.4818     |  37.4 | 72.34
Neigh   | 0          | 0          | 0          |   0.0 |  0.00
Comm    | 0.040961   | 0.43015    | 1.3169     |  55.1 | 16.32
Output  | 0          | 0          | 0          |   0.0 |  0.00
Modify  | 2.798e-05  | 0.0037313  | 0.00796    |   2.9 |  0.14
Other   |            | 0.2951     |            |       | 11.20

Nlocal:        2776.45 ave        3958 max           0 min
Histogram: 8 4 4 0 4 12 8 2 28 34
Nghost:        3879.14 ave        5424 max         232 min
Histogram: 8 0 8 0 16 0 8 8 16 40
Neighs:        79213.3 ave      115369 max           0 min
Histogram: 8 4 4 0 10 6 8 8 24 32

Total # of neighbors = 8238184
Ave neighs/atom = 28.530409
Neighbor list builds = 0
Dangerous builds = 0
The dot product: 9.74120413181009e-10
Setting atom values ...
  1 settings made for x
  1 settings made for y
  1 settings made for z
Setting up cg style minimization ...
  Unit style    : metal
  Current step  : 2666
Per MPI rank memory allocation (min/avg/max) = 5.441 | 5.816 | 6.074 Mbytes
Step PotEng KinEng TotEng v_fx v_fy v_fz 
    2666   -1152449.2            0   -1152449.2 0.0029699729 -0.0083000261  0.002945621 
    2815   -1152449.2            0   -1152449.2 3.9768802e-06 -1.6360885e-06 1.9022353e-05 
Loop time of 1.73503 on 104 procs for 149 steps with 288751 atoms

99.9% CPU use with 104 MPI tasks x 1 OpenMP threads

Minimization stats:
  Stopping criterion = energy tolerance
  Energy initial, next-to-last, final = 
     -1152449.22413034  -1152449.22530979  -1152449.22530979
  Force two-norm initial, final = 0.16298669 0.00013679698
  Force max component initial, final = 0.11965285 1.9022353e-05
  Final line search alpha, max atom move = 1.0000000 1.9022353e-05
  Iterations, force evaluations = 149 298

MPI task timing breakdown:
Section |  min time  |  avg time  |  max time  |%varavg| %total
---------------------------------------------------------------
Pair    | 0.44944    | 1.2528     | 1.6244     |  30.4 | 72.21
Neigh   | 0          | 0          | 0          |   0.0 |  0.00
Comm    | 0.026052   | 0.2849     | 0.85814    |  44.3 | 16.42
Output  | 0          | 0          | 0          |   0.0 |  0.00
Modify  | 1.7828e-05 | 0.0024648  | 0.0052708  |   2.3 |  0.14
Other   |            | 0.1949     |            |       | 11.23

Nlocal:        2776.45 ave        3957 max           0 min
Histogram: 8 4 4 0 4 12 8 2 28 34
Nghost:        3879.14 ave        5424 max         232 min
Histogram: 8 0 8 0 16 0 8 8 16 40
Neighs:        79213.3 ave      115338 max           0 min
Histogram: 8 4 4 0 10 6 8 8 24 32

Total # of neighbors = 8238185
Ave neighs/atom = 28.530412
Neighbor list builds = 0
Dangerous builds = 0
The dot product: -5.0807990061163e-09
Setting atom values ...
  1 settings made for x
  1 settings made for y
  1 settings made for z
Setting up cg style minimization ...
  Unit style    : metal
  Current step  : 2815
Per MPI rank memory allocation (min/avg/max) = 5.441 | 5.816 | 6.074 Mbytes
Step PotEng KinEng TotEng v_fx v_fy v_fz 
    2815   -1152449.2            0   -1152449.2 0.0053157479 -0.017227834 0.0012706088 
    2943   -1152449.2            0   -1152449.2 -3.535196e-06 3.1018637e-07 -1.8829522e-05 
Loop time of 1.50613 on 104 procs for 128 steps with 288751 atoms

99.9% CPU use with 104 MPI tasks x 1 OpenMP threads

Minimization stats:
  Stopping criterion = energy tolerance
  Energy initial, next-to-last, final = 
     -1152449.19828315  -1152449.19951141  -1152449.19951141
  Force two-norm initial, final = 0.16655685 0.00016174596
  Force max component initial, final = 0.12149423 1.8829522e-05
  Final line search alpha, max atom move = 1.0000000 1.8829522e-05
  Iterations, force evaluations = 128 256

MPI task timing breakdown:
Section |  min time  |  avg time  |  max time  |%varavg| %total
---------------------------------------------------------------
Pair    | 0.38771    | 1.0821     | 1.4146     |  28.2 | 71.85
Neigh   | 0          | 0          | 0          |   0.0 |  0.00
Comm    | 0.027698   | 0.24637    | 0.75395    |  41.3 | 16.36
Output  | 0          | 0          | 0          |   0.0 |  0.00
Modify  | 1.5825e-05 | 0.0021191  | 0.0044957  |   2.2 |  0.14
Other   |            | 0.1755     |            |       | 11.65

Nlocal:        2776.45 ave        3957 max           0 min
Histogram: 8 4 4 0 4 12 8 2 28 34
Nghost:        3879.14 ave        5424 max         232 min
Histogram: 8 0 8 0 16 0 8 8 16 40
Neighs:        79213.3 ave      115339 max           0 min
Histogram: 8 4 4 0 10 6 8 8 24 32

Total # of neighbors = 8238184
Ave neighs/atom = 28.530409
Neighbor list builds = 0
Dangerous builds = 0
The dot product: 1.21321467317638e-08
Setting atom values ...
  1 settings made for x
  1 settings made for y
  1 settings made for z
Setting up cg style minimization ...
  Unit style    : metal
  Current step  : 2943
Per MPI rank memory allocation (min/avg/max) = 5.441 | 5.816 | 6.074 Mbytes
Step PotEng KinEng TotEng v_fx v_fy v_fz 
    2943   -1152449.2            0   -1152449.2 0.0085214163 -0.028720168 -0.0013547319 
    3000   -1152449.2            0   -1152449.2 -9.3416775e-05 0.00012935697 -0.00029814581 
    3116   -1152449.2            0   -1152449.2 -9.5104547e-06 1.431735e-05 -2.8416201e-05 
Loop time of 2.01053 on 104 procs for 173 steps with 288751 atoms

99.9% CPU use with 104 MPI tasks x 1 OpenMP threads

Minimization stats:
  Stopping criterion = energy tolerance
  Energy initial, next-to-last, final = 
     -1152449.17107466  -1152449.17241651  -1152449.17241651
  Force two-norm initial, final = 0.17151299 0.00012789335
  Force max component initial, final = 0.12396278 2.9636361e-05
  Final line search alpha, max atom move = 1.0000000 2.9636361e-05
  Iterations, force evaluations = 173 346

MPI task timing breakdown:
Section |  min time  |  avg time  |  max time  |%varavg| %total
---------------------------------------------------------------
Pair    | 0.52193    | 1.4557     | 1.8896     |  32.7 | 72.40
Neigh   | 0          | 0          | 0          |   0.0 |  0.00
Comm    | 0.031351   | 0.32866    | 0.98405    |  48.0 | 16.35
Output  | 0.00024358 | 0.00024659 | 0.00037889 |   0.0 |  0.01
Modify  | 2.1037e-05 | 0.0028614  | 0.0061021  |   2.5 |  0.14
Other   |            | 0.2231     |            |       | 11.10

Nlocal:        2776.45 ave        3957 max           0 min
Histogram: 8 4 4 0 4 12 8 2 28 34
Nghost:        3879.14 ave        5424 max         232 min
Histogram: 8 0 8 0 16 0 8 8 16 40
Neighs:        79213.3 ave      115339 max           0 min
Histogram: 8 4 4 0 10 6 8 8 24 32

Total # of neighbors = 8238185
Ave neighs/atom = 28.530412
Neighbor list builds = 0
Dangerous builds = 0
The dot product: -7.32447788938438e-08
Setting atom values ...
  1 settings made for x
  1 settings made for y
  1 settings made for z
Setting up cg style minimization ...
  Unit style    : metal
  Current step  : 3116
Per MPI rank memory allocation (min/avg/max) = 5.441 | 5.816 | 6.074 Mbytes
Step PotEng KinEng TotEng v_fx v_fy v_fz 
    3116   -1152449.1            0   -1152449.1  0.012007682 -0.042348031 -0.010389869 
    3271   -1152449.1            0   -1152449.1 -1.6286685e-06 6.1878137e-06 2.2295849e-06 
Loop time of 1.81072 on 104 procs for 155 steps with 288751 atoms

99.9% CPU use with 104 MPI tasks x 1 OpenMP threads

Minimization stats:
  Stopping criterion = energy tolerance
  Energy initial, next-to-last, final = 
      -1152449.1425947  -1152449.14413577  -1152449.14413577
  Force two-norm initial, final = 0.17787401 5.6092458e-05
  Force max component initial, final = 0.12743039 6.1878137e-06
  Final line search alpha, max atom move = 1.0000000 6.1878137e-06
  Iterations, force evaluations = 155 310

MPI task timing breakdown:
Section |  min time  |  avg time  |  max time  |%varavg| %total
---------------------------------------------------------------
Pair    | 0.47376    | 1.3039     | 1.6932     |  30.7 | 72.01
Neigh   | 0          | 0          | 0          |   0.0 |  0.00
Comm    | 0.02771    | 0.29278    | 0.8876     |  45.5 | 16.17
Output  | 0          | 0          | 0          |   0.0 |  0.00
Modify  | 1.9372e-05 | 0.0025617  | 0.0054647  |   2.4 |  0.14
Other   |            | 0.2115     |            |       | 11.68

Nlocal:        2776.45 ave        3956 max           0 min
Histogram: 8 4 4 0 4 12 8 2 28 34
Nghost:        3879.13 ave        5424 max         232 min
Histogram: 8 0 8 0 16 0 8 8 16 40
Neighs:        79213.3 ave      115306 max           0 min
Histogram: 8 4 4 0 10 6 8 8 24 32

Total # of neighbors = 8238183
Ave neighs/atom = 28.530405
Neighbor list builds = 0
Dangerous builds = 0
The dot product: -8.26772556660062e-08
Setting atom values ...
  1 settings made for x
  1 settings made for y
  1 settings made for z
Setting up cg style minimization ...
  Unit style    : metal
  Current step  : 3271
Per MPI rank memory allocation (min/avg/max) = 5.441 | 5.816 | 6.074 Mbytes
Step PotEng KinEng TotEng v_fx v_fy v_fz 
    3271   -1152449.1            0   -1152449.1  0.015146251 -0.053035025 -0.022971187 
    3417   -1152449.1            0   -1152449.1 -1.5194171e-06 5.9816283e-06 3.7087855e-06 
Loop time of 1.69032 on 104 procs for 146 steps with 288751 atoms

99.9% CPU use with 104 MPI tasks x 1 OpenMP threads

Minimization stats:
  Stopping criterion = energy tolerance
  Energy initial, next-to-last, final = 
     -1152449.11278145  -1152449.11457336  -1152449.11457336
  Force two-norm initial, final = 0.18586466 3.9795912e-05
  Force max component initial, final = 0.13184595 5.9816283e-06
  Final line search alpha, max atom move = 1.0000000 5.9816283e-06
  Iterations, force evaluations = 146 292

MPI task timing breakdown:
Section |  min time  |  avg time  |  max time  |%varavg| %total
---------------------------------------------------------------
Pair    | 0.44196    | 1.2244     | 1.5894     |  29.9 | 72.44
Neigh   | 0          | 0          | 0          |   0.0 |  0.00
Comm    | 0.028769   | 0.27531    | 0.83444    |  44.1 | 16.29
Output  | 0          | 0          | 0          |   0.0 |  0.00
Modify  | 1.8072e-05 | 0.0024154  | 0.0051637  |   2.3 |  0.14
Other   |            | 0.1882     |            |       | 11.13

Nlocal:        2776.45 ave        3956 max           0 min
Histogram: 8 4 4 0 4 12 8 2 28 34
Nghost:        3879.13 ave        5424 max         232 min
Histogram: 8 0 8 0 16 0 8 8 16 40
Neighs:        79213.3 ave      115306 max           0 min
Histogram: 8 4 4 0 10 6 8 8 24 32

Total # of neighbors = 8238181
Ave neighs/atom = 28.530398
Neighbor list builds = 0
Dangerous builds = 0
The dot product: -1.09478290808054e-07
Setting atom values ...
  1 settings made for x
  1 settings made for y
  1 settings made for z
Setting up cg style minimization ...
  Unit style    : metal
  Current step  : 3417
Per MPI rank memory allocation (min/avg/max) = 5.441 | 5.816 | 6.074 Mbytes
Step PotEng KinEng TotEng v_fx v_fy v_fz 
    3417   -1152449.1            0   -1152449.1  0.019116699 -0.060453877 -0.031144749 
    3551   -1152449.1            0   -1152449.1 2.9278127e-06 9.2687205e-07 2.1036901e-05 
Loop time of 1.55812 on 104 procs for 134 steps with 288751 atoms

99.9% CPU use with 104 MPI tasks x 1 OpenMP threads

Minimization stats:
  Stopping criterion = energy tolerance
  Energy initial, next-to-last, final = 
     -1152449.08163736  -1152449.08363706  -1152449.08363706
  Force two-norm initial, final = 0.19337339 0.00011969795
  Force max component initial, final = 0.13678403 2.1036901e-05
  Final line search alpha, max atom move = 1.0000000 2.1036901e-05
  Iterations, force evaluations = 134 268

MPI task timing breakdown:
Section |  min time  |  avg time  |  max time  |%varavg| %total
---------------------------------------------------------------
Pair    | 0.40502    | 1.129      | 1.4647     |  28.7 | 72.46
Neigh   | 0          | 0          | 0          |   0.0 |  0.00
Comm    | 0.025111   | 0.25317    | 0.7609     |  42.4 | 16.25
Output  | 0          | 0          | 0          |   0.0 |  0.00
Modify  | 1.6193e-05 | 0.0022143  | 0.0047179  |   2.2 |  0.14
Other   |            | 0.1737     |            |       | 11.15

Nlocal:        2776.45 ave        3951 max           0 min
Histogram: 8 4 4 0 4 12 8 2 28 34
Nghost:        3879.11 ave        5424 max         232 min
Histogram: 8 0 8 0 16 0 8 8 16 40
Neighs:        79213.3 ave      115133 max           0 min
Histogram: 8 4 4 0 10 6 8 8 24 32

Total # of neighbors = 8238183
Ave neighs/atom = 28.530405
Neighbor list builds = 0
Dangerous builds = 0
The dot product: -1.48862187756116e-07
Setting atom values ...
  1 settings made for x
  1 settings made for y
  1 settings made for z
Setting up cg style minimization ...
  Unit style    : metal
  Current step  : 3551
Per MPI rank memory allocation (min/avg/max) = 5.441 | 5.816 | 6.074 Mbytes
Step PotEng KinEng TotEng v_fx v_fy v_fz 
    3551     -1152449            0     -1152449  0.022732615  -0.06460176 -0.039516162 
    3682   -1152449.1            0   -1152449.1 -6.9085006e-06 1.2031541e-05 -1.1561027e-05 
Loop time of 1.53931 on 104 procs for 131 steps with 288751 atoms

99.9% CPU use with 104 MPI tasks x 1 OpenMP threads

Minimization stats:
  Stopping criterion = energy tolerance
  Energy initial, next-to-last, final = 
     -1152449.04917085  -1152449.05133052  -1152449.05133052
  Force two-norm initial, final = 0.19987569 0.00023121965
  Force max component initial, final = 0.14189491 2.1486997e-05
  Final line search alpha, max atom move = 1.0000000 2.1486997e-05
  Iterations, force evaluations = 131 262

MPI task timing breakdown:
Section |  min time  |  avg time  |  max time  |%varavg| %total
---------------------------------------------------------------
Pair    | 0.39522    | 1.099      | 1.4236     |  28.3 | 71.39
Neigh   | 0          | 0          | 0          |   0.0 |  0.00
Comm    | 0.02394    | 0.25024    | 0.74097    |  41.0 | 16.26
Output  | 0          | 0          | 0          |   0.0 |  0.00
Modify  | 1.6267e-05 | 0.0021693  | 0.0046442  |   2.2 |  0.14
Other   |            | 0.1879     |            |       | 12.21

Nlocal:        2776.45 ave        3944 max           0 min
Histogram: 8 4 4 0 4 12 8 2 26 36
Nghost:        3879.12 ave        5424 max         232 min
Histogram: 8 0 8 0 16 0 8 8 16 40
Neighs:        79213.3 ave      114896 max           0 min
Histogram: 8 4 4 0 10 6 8 8 22 34

Total # of neighbors = 8238179
Ave neighs/atom = 28.530391
Neighbor list builds = 0
Dangerous builds = 0
The dot product: -1.19963553206184e-07
Setting atom values ...
  1 settings made for x
  1 settings made for y
  1 settings made for z
Setting up cg style minimization ...
  Unit style    : metal
  Current step  : 3682
Per MPI rank memory allocation (min/avg/max) = 5.441 | 5.816 | 6.074 Mbytes
Step PotEng KinEng TotEng v_fx v_fy v_fz 
    3682     -1152449            0     -1152449  0.025121908 -0.065612162 -0.052704612 
    3862     -1152449            0     -1152449 -1.0301019e-05 2.6235676e-05 1.8973038e-05 
Loop time of 2.10003 on 104 procs for 180 steps with 288751 atoms

99.9% CPU use with 104 MPI tasks x 1 OpenMP threads

Minimization stats:
  Stopping criterion = energy tolerance
  Energy initial, next-to-last, final = 
     -1152449.01546675  -1152449.01779945  -1152449.01779945
  Force two-norm initial, final = 0.20644878 0.00015734235
  Force max component initial, final = 0.147037 4.1415604e-05
  Final line search alpha, max atom move = 1.0000000 4.1415604e-05
  Iterations, force evaluations = 180 360

MPI task timing breakdown:
Section |  min time  |  avg time  |  max time  |%varavg| %total
---------------------------------------------------------------
Pair    | 0.55092    | 1.5242     | 1.9743     |  33.2 | 72.58
Neigh   | 0          | 0          | 0          |   0.0 |  0.00
Comm    | 0.032432   | 0.34297    | 1.05       |  49.5 | 16.33
Output  | 0          | 0          | 0          |   0.0 |  0.00
Modify  | 2.1655e-05 | 0.0029717  | 0.0063479  |   2.6 |  0.14
Other   |            | 0.2299     |            |       | 10.95

Nlocal:        2776.45 ave        3934 max           0 min
Histogram: 8 4 4 0 4 12 8 0 28 36
Nghost:        3879.12 ave        5424 max         232 min
Histogram: 8 0 8 0 16 0 8 8 16 40
Neighs:        79213.2 ave      114618 max           0 min
Histogram: 8 4 4 0 8 8 8 8 20 36

Total # of neighbors = 8238177
Ave neighs/atom = 28.530384
Neighbor list builds = 0
Dangerous builds = 0
The dot product: -6.9536777590257e-07
Setting atom values ...
  1 settings made for x
  1 settings made for y
  1 settings made for z
Setting up cg style minimization ...
  Unit style    : metal
  Current step  : 3862
Per MPI rank memory allocation (min/avg/max) = 5.441 | 5.816 | 6.074 Mbytes
Step PotEng KinEng TotEng v_fx v_fy v_fz 
    3862     -1152449            0     -1152449  0.026301194 -0.062670957 -0.067531588 
    4000     -1152449            0     -1152449 2.6404882e-05 -6.1007397e-05 -5.7247107e-05 
    4045     -1152449            0     -1152449 -4.7191142e-07 7.9129064e-06 3.8698112e-05 
Loop time of 2.10118 on 104 procs for 183 steps with 288751 atoms

99.9% CPU use with 104 MPI tasks x 1 OpenMP threads

Minimization stats:
  Stopping criterion = energy tolerance
  Energy initial, next-to-last, final = 
     -1152448.98077003  -1152448.98318574  -1152448.98318574
  Force two-norm initial, final = 0.21264795 0.00016103955
  Force max component initial, final = 0.15223351 4.2769530e-05
  Final line search alpha, max atom move = 1.0000000 4.2769530e-05
  Iterations, force evaluations = 183 366

MPI task timing breakdown:
Section |  min time  |  avg time  |  max time  |%varavg| %total
---------------------------------------------------------------
Pair    | 0.55045    | 1.5314     | 1.9814     |  33.5 | 72.88
Neigh   | 0          | 0          | 0          |   0.0 |  0.00
Comm    | 0.033589   | 0.3427     | 1.0384     |  49.6 | 16.31
Output  | 0.00023387 | 0.00024312 | 0.00040775 |   0.0 |  0.01
Modify  | 2.292e-05  | 0.0030226  | 0.0064663  |   2.6 |  0.14
Other   |            | 0.2238     |            |       | 10.65

Nlocal:        2776.45 ave        3932 max           0 min
Histogram: 8 4 4 0 4 12 8 0 26 38
Nghost:        3879.13 ave        5424 max         232 min
Histogram: 8 0 8 0 16 0 8 8 16 40
Neighs:        79213.2 ave      114556 max           0 min
Histogram: 8 4 4 0 8 8 8 8 20 36

Total # of neighbors = 8238176
Ave neighs/atom = 28.530381
Neighbor list builds = 0
Dangerous builds = 0
The dot product: -6.83093187577933e-07
Setting atom values ...
  1 settings made for x
  1 settings made for y
  1 settings made for z
Setting up cg style minimization ...
  Unit style    : metal
  Current step  : 4045
Per MPI rank memory allocation (min/avg/max) = 5.441 | 5.816 | 6.074 Mbytes
Step PotEng KinEng TotEng v_fx v_fy v_fz 
    4045   -1152448.9            0   -1152448.9   0.02601535 -0.055353904 -0.077615387 
    4398     -1152449            0     -1152449 -2.3570719e-07 5.3402557e-07 9.9258183e-07 
Loop time of 4.11454 on 104 procs for 353 steps with 288751 atoms

99.9% CPU use with 104 MPI tasks x 1 OpenMP threads

Minimization stats:
  Stopping criterion = energy tolerance
  Energy initial, next-to-last, final = 
     -1152448.94524453  -1152448.98067484  -1152448.98067484
  Force two-norm initial, final = 0.21753948 3.8345689e-06
  Force max component initial, final = 0.15712666 9.9258183e-07
  Final line search alpha, max atom move = 1.0000000 9.9258183e-07
  Iterations, force evaluations = 353 705

MPI task timing breakdown:
Section |  min time  |  avg time  |  max time  |%varavg| %total
---------------------------------------------------------------
Pair    | 1.0805     | 2.9793     | 3.8497     |  46.2 | 72.41
Neigh   | 1.0319e-05 | 0.0029377  | 0.0042449  |   2.2 |  0.07
Comm    | 0.062464   | 0.6719     | 2.0597     |  69.0 | 16.33
Output  | 0          | 0          | 0          |   0.0 |  0.00
Modify  | 4.251e-05  | 0.0058132  | 0.012394   |   3.6 |  0.14
Other   |            | 0.4546     |            |       | 11.05

Nlocal:        2776.45 ave        3931 max           0 min
Histogram: 8 4 4 0 4 12 8 0 26 38
Nghost:        3879.17 ave        5424 max         232 min
Histogram: 8 0 8 0 16 0 8 8 16 40
Neighs:        79213.3 ave      114544 max           0 min
Histogram: 8 4 4 0 8 8 8 8 20 36

Total # of neighbors = 8238185
Ave neighs/atom = 28.530412
Neighbor list builds = 1
Dangerous builds = 0
The dot product: -6.75788785636453e-08
Setting atom values ...
  1 settings made for x
  1 settings made for y
  1 settings made for z
Setting up cg style minimization ...
  Unit style    : metal
  Current step  : 4398
Per MPI rank memory allocation (min/avg/max) = 5.441 | 5.816 | 6.074 Mbytes
Step PotEng KinEng TotEng v_fx v_fy v_fz 
    4398     -1152449            0     -1152449  0.023431591 -0.024718631  -0.13267351 
    4615     -1152449            0     -1152449 1.5703177e-06 -4.0393965e-06 1.2205399e-05 
Loop time of 2.54481 on 104 procs for 217 steps with 288751 atoms

99.9% CPU use with 104 MPI tasks x 1 OpenMP threads

Minimization stats:
  Stopping criterion = energy tolerance
  Energy initial, next-to-last, final = 
     -1152448.95837842  -1152448.96189468  -1152448.96189468
  Force two-norm initial, final = 0.24795039 5.5122547e-05
  Force max component initial, final = 0.16641388 1.2205399e-05
  Final line search alpha, max atom move = 1.0000000 1.2205399e-05
  Iterations, force evaluations = 217 434

MPI task timing breakdown:
Section |  min time  |  avg time  |  max time  |%varavg| %total
---------------------------------------------------------------
Pair    | 0.65468    | 1.8266     | 2.3811     |  36.7 | 71.78
Neigh   | 0          | 0          | 0          |   0.0 |  0.00
Comm    | 0.0391     | 0.41525    | 1.2397     |  53.3 | 16.32
Output  | 0          | 0          | 0          |   0.0 |  0.00
Modify  | 2.5603e-05 | 0.0035887  | 0.0076592  |   2.8 |  0.14
Other   |            | 0.2993     |            |       | 11.76

Nlocal:        2776.45 ave        3953 max           0 min
Histogram: 8 4 4 0 4 12 8 2 28 34
Nghost:        3879.16 ave        5424 max         232 min
Histogram: 8 0 8 0 16 0 8 8 16 40
Neighs:        79213.3 ave      115207 max           0 min
Histogram: 8 4 4 0 10 6 8 8 24 32

Total # of neighbors = 8238183
Ave neighs/atom = 28.530405
Neighbor list builds = 0
Dangerous builds = 0
The dot product: -3.01458307603988e-07
Setting atom values ...
  1 settings made for x
  1 settings made for y
  1 settings made for z
Setting up cg style minimization ...
  Unit style    : metal
  Current step  : 4615
Per MPI rank memory allocation (min/avg/max) = 5.441 | 5.816 | 6.074 Mbytes
Step PotEng KinEng TotEng v_fx v_fy v_fz 
    4615   -1152448.9            0   -1152448.9    0.0136773 -0.0093180025 -0.065858928 
    4771   -1152448.9            0   -1152448.9 -4.4056014e-06 8.2443926e-07 3.1924321e-05 
Loop time of 1.82765 on 104 procs for 156 steps with 288751 atoms

99.9% CPU use with 104 MPI tasks x 1 OpenMP threads

Minimization stats:
  Stopping criterion = energy tolerance
  Energy initial, next-to-last, final = 
     -1152448.93945951  -1152448.94176988  -1152448.94176988
  Force two-norm initial, final = 0.22211183 0.00012753596
  Force max component initial, final = 0.16901998 3.1924321e-05
  Final line search alpha, max atom move = 1.0000000 3.1924321e-05
  Iterations, force evaluations = 156 312

MPI task timing breakdown:
Section |  min time  |  avg time  |  max time  |%varavg| %total
---------------------------------------------------------------
Pair    | 0.47178    | 1.3159     | 1.7122     |  31.0 | 72.00
Neigh   | 0          | 0          | 0          |   0.0 |  0.00
Comm    | 0.032465   | 0.29786    | 0.89562    |  45.5 | 16.30
Output  | 0          | 0          | 0          |   0.0 |  0.00
Modify  | 1.8847e-05 | 0.0025802  | 0.0055094  |   2.4 |  0.14
Other   |            | 0.2113     |            |       | 11.56

Nlocal:        2776.45 ave        3950 max           0 min
Histogram: 8 4 4 0 4 12 8 2 26 36
Nghost:        3879.12 ave        5424 max         232 min
Histogram: 8 0 8 0 16 0 8 8 16 40
Neighs:        79213.3 ave      115091 max           0 min
Histogram: 8 4 4 0 10 6 8 8 24 32

Total # of neighbors = 8238186
Ave neighs/atom = 28.530415
Neighbor list builds = 0
Dangerous builds = 0
The dot product: -4.22529837888687e-07
Setting atom values ...
  1 settings made for x
  1 settings made for y
  1 settings made for z
Setting up cg style minimization ...
  Unit style    : metal
  Current step  : 4771
Per MPI rank memory allocation (min/avg/max) = 5.441 | 5.816 | 6.074 Mbytes
Step PotEng KinEng TotEng v_fx v_fy v_fz 
    4771   -1152448.9            0   -1152448.9 0.0084786282 -0.0039886931 -0.040593317 
    4911   -1152448.9            0   -1152448.9 -2.2710716e-06 6.9465208e-06 -1.3045996e-05 
Loop time of 1.62428 on 104 procs for 140 steps with 288751 atoms

99.9% CPU use with 104 MPI tasks x 1 OpenMP threads

Minimization stats:
  Stopping criterion = energy tolerance
  Energy initial, next-to-last, final = 
      -1152448.9193339   -1152448.9216159   -1152448.9216159
  Force two-norm initial, final = 0.22066207 0.00018137199
  Force max component initial, final = 0.1712877 4.5295265e-05
  Final line search alpha, max atom move = 1.0000000 4.5295265e-05
  Iterations, force evaluations = 140 280

MPI task timing breakdown:
Section |  min time  |  avg time  |  max time  |%varavg| %total
---------------------------------------------------------------
Pair    | 0.42427    | 1.1764     | 1.528      |  29.3 | 72.43
Neigh   | 0          | 0          | 0          |   0.0 |  0.00
Comm    | 0.025019   | 0.26484    | 0.79299    |  43.2 | 16.31
Output  | 0          | 0          | 0          |   0.0 |  0.00
Modify  | 1.686e-05  | 0.0023167  | 0.00495    |   2.3 |  0.14
Other   |            | 0.1807     |            |       | 11.12

Nlocal:        2776.45 ave        3950 max           0 min
Histogram: 8 4 4 0 4 12 8 2 26 36
Nghost:        3879.12 ave        5424 max         232 min
Histogram: 8 0 8 0 16 0 8 8 16 40
Neighs:        79213.3 ave      115091 max           0 min
Histogram: 8 4 4 0 10 6 8 8 24 32

Total # of neighbors = 8238183
Ave neighs/atom = 28.530405
Neighbor list builds = 0
Dangerous builds = 0
The dot product: 9.94180719445526e-08
Setting atom values ...
  1 settings made for x
  1 settings made for y
  1 settings made for z
Setting up cg style minimization ...
  Unit style    : metal
  Current step  : 4911
Per MPI rank memory allocation (min/avg/max) = 5.441 | 5.816 | 6.074 Mbytes
Step PotEng KinEng TotEng v_fx v_fy v_fz 
    4911   -1152448.9            0   -1152448.9 0.0063203756 -0.0022503867 -0.029877876 
    5000   -1152448.9            0   -1152448.9 -7.5719526e-06 8.7069203e-06 1.3662368e-05 
    5084   -1152448.9            0   -1152448.9 -8.4746814e-07 1.083485e-05 -3.4776448e-05 
Loop time of 2.0101 on 104 procs for 173 steps with 288751 atoms

99.9% CPU use with 104 MPI tasks x 1 OpenMP threads

Minimization stats:
  Stopping criterion = energy tolerance
  Energy initial, next-to-last, final = 
     -1152448.89935137  -1152448.90132198  -1152448.90132198
  Force two-norm initial, final = 0.22066108 0.0001329052
  Force max component initial, final = 0.17371295 3.6115715e-05
  Final line search alpha, max atom move = 1.0000000 3.6115715e-05
  Iterations, force evaluations = 173 346

MPI task timing breakdown:
Section |  min time  |  avg time  |  max time  |%varavg| %total
---------------------------------------------------------------
Pair    | 0.52172    | 1.4555     | 1.8894     |  32.6 | 72.41
Neigh   | 0          | 0          | 0          |   0.0 |  0.00
Comm    | 0.030545   | 0.32578    | 0.98958    |  48.3 | 16.21
Output  | 0.00015369 | 0.00016138 | 0.00030765 |   0.0 |  0.01
Modify  | 2.1607e-05 | 0.0028565  | 0.0060856  |   2.5 |  0.14
Other   |            | 0.2258     |            |       | 11.23

Nlocal:        2776.45 ave        3950 max           0 min
Histogram: 8 4 4 0 4 12 8 2 26 36
Nghost:        3879.12 ave        5424 max         232 min
Histogram: 8 0 8 0 16 0 8 8 16 40
Neighs:        79213.3 ave      115091 max           0 min
Histogram: 8 4 4 0 10 6 8 8 24 32

Total # of neighbors = 8238182
Ave neighs/atom = 28.530402
Neighbor list builds = 0
Dangerous builds = 0
The dot product: 1.61188887495749e-07
Setting atom values ...
  1 settings made for x
  1 settings made for y
  1 settings made for z
Setting up cg style minimization ...
  Unit style    : metal
  Current step  : 5084
Per MPI rank memory allocation (min/avg/max) = 5.441 | 5.816 | 6.074 Mbytes
Step PotEng KinEng TotEng v_fx v_fy v_fz 
    5084   -1152448.9            0   -1152448.9 0.0046700949 -0.0019138807 -0.020027242 
    5262   -1152448.9            0   -1152448.9 -1.0307028e-06 8.5404839e-06 -2.3949921e-05 
Loop time of 2.0523 on 104 procs for 178 steps with 288751 atoms

99.9% CPU use with 104 MPI tasks x 1 OpenMP threads

Minimization stats:
  Stopping criterion = energy tolerance
  Energy initial, next-to-last, final = 
     -1152448.87793792  -1152448.87974798  -1152448.87974798
  Force two-norm initial, final = 0.21936427 0.00016577816
  Force max component initial, final = 0.17594559 5.9472080e-05
  Final line search alpha, max atom move = 1.0000000 5.9472080e-05
  Iterations, force evaluations = 178 356

MPI task timing breakdown:
Section |  min time  |  avg time  |  max time  |%varavg| %total
---------------------------------------------------------------
Pair    | 0.53595    | 1.4887     | 1.9347     |  33.0 | 72.54
Neigh   | 0          | 0          | 0          |   0.0 |  0.00
Comm    | 0.031967   | 0.33355    | 1.0023     |  48.6 | 16.25
Output  | 0          | 0          | 0          |   0.0 |  0.00
Modify  | 2.1828e-05 | 0.0029398  | 0.006286   |   2.6 |  0.14
Other   |            | 0.2271     |            |       | 11.07

Nlocal:        2776.45 ave        3949 max           0 min
Histogram: 8 4 4 0 4 12 8 2 26 36
Nghost:        3879.12 ave        5424 max         232 min
Histogram: 8 0 8 0 16 0 8 8 16 40
Neighs:        79213.3 ave      115049 max           0 min
Histogram: 8 4 4 0 10 6 8 8 24 32

Total # of neighbors = 8238180
Ave neighs/atom = 28.530395
Neighbor list builds = 0
Dangerous builds = 0
The dot product: 5.22986433906907e-08
Setting atom values ...
  1 settings made for x
  1 settings made for y
  1 settings made for z
Setting up cg style minimization ...
  Unit style    : metal
  Current step  : 5262
Per MPI rank memory allocation (min/avg/max) = 5.441 | 5.816 | 6.074 Mbytes
Step PotEng KinEng TotEng v_fx v_fy v_fz 
    5262   -1152448.9            0   -1152448.9 0.0033201828 -0.0015453629 -0.013300998 
    5395   -1152448.9            0   -1152448.9 -4.1300542e-06 1.7411053e-05 -3.6368096e-05 
Loop time of 1.57561 on 104 procs for 133 steps with 288751 atoms

99.9% CPU use with 104 MPI tasks x 1 OpenMP threads

Minimization stats:
  Stopping criterion = energy tolerance
  Energy initial, next-to-last, final = 
      -1152448.8543486  -1152448.85627262  -1152448.85627262
  Force two-norm initial, final = 0.22338321 0.00025256689
  Force max component initial, final = 0.17828222 7.8447230e-05
  Final line search alpha, max atom move = 1.0000000 7.8447230e-05
  Iterations, force evaluations = 133 266

MPI task timing breakdown:
Section |  min time  |  avg time  |  max time  |%varavg| %total
---------------------------------------------------------------
Pair    | 0.40079    | 1.1242     | 1.4612     |  28.7 | 71.35
Neigh   | 0          | 0          | 0          |   0.0 |  0.00
Comm    | 0.026274   | 0.25557    | 0.77255    |  42.0 | 16.22
Output  | 0          | 0          | 0          |   0.0 |  0.00
Modify  | 1.622e-05  | 0.0022047  | 0.0046971  |   2.2 |  0.14
Other   |            | 0.1937     |            |       | 12.29

Nlocal:        2776.45 ave        3945 max           0 min
Histogram: 8 4 4 0 4 12 8 2 26 36
Nghost:        3879.12 ave        5424 max         232 min
Histogram: 8 0 8 0 16 0 8 8 16 40
Neighs:        79213.3 ave      114920 max           0 min
Histogram: 8 4 4 0 10 6 8 8 22 34

Total # of neighbors = 8238179
Ave neighs/atom = 28.530391
Neighbor list builds = 0
Dangerous builds = 0
The dot product: 3.58011510743049e-08
Setting atom values ...
  1 settings made for x
  1 settings made for y
  1 settings made for z
Setting up cg style minimization ...
  Unit style    : metal
  Current step  : 5395
Per MPI rank memory allocation (min/avg/max) = 5.441 | 5.816 | 6.074 Mbytes
Step PotEng KinEng TotEng v_fx v_fy v_fz 
    5395   -1152448.8            0   -1152448.8 0.0025401492 -0.0013027325 -0.0097119499 
    5571   -1152448.8            0   -1152448.8 2.3055343e-06 -3.1109794e-06 -2.2822632e-06 
Loop time of 2.02905 on 104 procs for 176 steps with 288751 atoms

99.9% CPU use with 104 MPI tasks x 1 OpenMP threads

Minimization stats:
  Stopping criterion = energy tolerance
  Energy initial, next-to-last, final = 
     -1152448.82863691   -1152448.8306724   -1152448.8306724
  Force two-norm initial, final = 0.22792811 0.0002317705
  Force max component initial, final = 0.18039871 6.6690406e-05
  Final line search alpha, max atom move = 1.0000000 6.6690406e-05
  Iterations, force evaluations = 176 352

MPI task timing breakdown:
Section |  min time  |  avg time  |  max time  |%varavg| %total
---------------------------------------------------------------
Pair    | 0.53477    | 1.4769     | 1.908      |  32.7 | 72.79
Neigh   | 0          | 0          | 0          |   0.0 |  0.00
Comm    | 0.032168   | 0.33217    | 1.007      |  48.5 | 16.37
Output  | 0          | 0          | 0          |   0.0 |  0.00
Modify  | 2.1446e-05 | 0.0029084  | 0.0062129  |   2.5 |  0.14
Other   |            | 0.2171     |            |       | 10.70

Nlocal:        2776.45 ave        3941 max           0 min
Histogram: 8 4 4 0 4 12 8 2 26 36
Nghost:        3879.12 ave        5424 max         232 min
Histogram: 8 0 8 0 16 0 8 8 16 40
Neighs:        79213.2 ave      114790 max           0 min
Histogram: 8 4 4 0 10 6 8 8 22 34

Total # of neighbors = 8238176
Ave neighs/atom = 28.530381
Neighbor list builds = 0
Dangerous builds = 0
The dot product: -3.03356184950167e-09
Setting atom values ...
  1 settings made for x
  1 settings made for y
  1 settings made for z
Setting up cg style minimization ...
  Unit style    : metal
  Current step  : 5571
Per MPI rank memory allocation (min/avg/max) = 5.441 | 5.816 | 6.074 Mbytes
Step PotEng KinEng TotEng v_fx v_fy v_fz 
    5571   -1152448.8            0   -1152448.8 0.0021563747 -0.0012726565 -0.0076916571 
    5749   -1152448.8            0   -1152448.8 -4.77241e-06 9.4426291e-06 -5.3583847e-06 
Loop time of 2.09287 on 104 procs for 178 steps with 288751 atoms

99.9% CPU use with 104 MPI tasks x 1 OpenMP threads

Minimization stats:
  Stopping criterion = energy tolerance
  Energy initial, next-to-last, final = 
     -1152448.80068835  -1152448.80282334  -1152448.80282334
  Force two-norm initial, final = 0.23261009 0.00021455368
  Force max component initial, final = 0.18282246 8.8456859e-05
  Final line search alpha, max atom move = 1.0000000 8.8456859e-05
  Iterations, force evaluations = 178 356

MPI task timing breakdown:
Section |  min time  |  avg time  |  max time  |%varavg| %total
---------------------------------------------------------------
Pair    | 0.54969    | 1.5073     | 1.949      |  32.8 | 72.02
Neigh   | 0          | 0          | 0          |   0.0 |  0.00
Comm    | 0.032869   | 0.34015    | 1.0298     |  49.1 | 16.25
Output  | 0          | 0          | 0          |   0.0 |  0.00
Modify  | 2.3221e-05 | 0.0029435  | 0.0062823  |   2.6 |  0.14
Other   |            | 0.2425     |            |       | 11.59

Nlocal:        2776.45 ave        3932 max           0 min
Histogram: 8 4 4 0 4 12 8 0 26 38
Nghost:        3879.12 ave        5424 max         232 min
Histogram: 8 0 8 0 16 0 8 8 16 40
Neighs:        79213.2 ave      114532 max           0 min
Histogram: 8 4 4 0 8 8 8 8 20 36

Total # of neighbors = 8238176
Ave neighs/atom = 28.530381
Neighbor list builds = 0
Dangerous builds = 0
The dot product: 7.92084698055931e-09
Setting atom values ...
  1 settings made for x
  1 settings made for y
  1 settings made for z
Setting up cg style minimization ...
  Unit style    : metal
  Current step  : 5749
Per MPI rank memory allocation (min/avg/max) = 5.441 | 5.816 | 6.074 Mbytes
Step PotEng KinEng TotEng v_fx v_fy v_fz 
    5749   -1152448.8            0   -1152448.8 0.0020664079 -0.0015053753 -0.0064436587 
    5933   -1152448.8            0   -1152448.8 -3.9966091e-07 1.7543317e-06 -3.6994492e-06 
Loop time of 2.12515 on 104 procs for 184 steps with 288751 atoms

99.9% CPU use with 104 MPI tasks x 1 OpenMP threads

Minimization stats:
  Stopping criterion = energy tolerance
  Energy initial, next-to-last, final = 
     -1152448.77043002  -1152448.77264039  -1152448.77264039
  Force two-norm initial, final = 0.23658182 0.00015975764
  Force max component initial, final = 0.1851407 4.1328528e-05
  Final line search alpha, max atom move = 1.0000000 4.1328528e-05
  Iterations, force evaluations = 184 368

MPI task timing breakdown:
Section |  min time  |  avg time  |  max time  |%varavg| %total
---------------------------------------------------------------
Pair    | 0.55539    | 1.5425     | 2.002      |  33.6 | 72.58
Neigh   | 0          | 0          | 0          |   0.0 |  0.00
Comm    | 0.033536   | 0.34585    | 1.0427     |  49.7 | 16.27
Output  | 0          | 0          | 0          |   0.0 |  0.00
Modify  | 2.2971e-05 | 0.0030356  | 0.0065037  |   2.6 |  0.14
Other   |            | 0.2338     |            |       | 11.00

Nlocal:        2776.45 ave        3931 max           0 min
Histogram: 8 4 4 0 4 12 8 0 26 38
Nghost:        3879.11 ave        5424 max         232 min
Histogram: 8 0 8 0 16 0 8 8 16 40
Neighs:        79213.2 ave      114502 max           0 min
Histogram: 8 4 4 0 8 8 8 8 20 36

Total # of neighbors = 8238169
Ave neighs/atom = 28.530357
Neighbor list builds = 0
Dangerous builds = 0
The dot product: -3.94188105507764e-10
Setting atom values ...
  1 settings made for x
  1 settings made for y
  1 settings made for z
Setting up cg style minimization ...
  Unit style    : metal
  Current step  : 5933
Per MPI rank memory allocation (min/avg/max) = 5.441 | 5.816 | 6.074 Mbytes
Step PotEng KinEng TotEng v_fx v_fy v_fz 
    5933   -1152448.7            0   -1152448.7 0.0021993161 -0.0019213686 -0.0058298167 
    6000   -1152448.7            0   -1152448.7 -1.2878302e-05 -1.089419e-05 0.00010919131 
    6111   -1152448.7            0   -1152448.7 -6.5051927e-06 1.7130531e-05 -2.1554469e-05 
Loop time of 2.05812 on 104 procs for 178 steps with 288751 atoms

99.9% CPU use with 104 MPI tasks x 1 OpenMP threads

Minimization stats:
  Stopping criterion = energy tolerance
  Energy initial, next-to-last, final = 
      -1152448.7378063  -1152448.74006832  -1152448.74006832
  Force two-norm initial, final = 0.23974131 0.00021417508
  Force max component initial, final = 0.18741937 7.5856032e-05
  Final line search alpha, max atom move = 1.0000000 7.5856032e-05
  Iterations, force evaluations = 178 356

MPI task timing breakdown:
Section |  min time  |  avg time  |  max time  |%varavg| %total
---------------------------------------------------------------
Pair    | 0.5368     | 1.4983     | 1.9404     |  33.1 | 72.80
Neigh   | 0          | 0          | 0          |   0.0 |  0.00
Comm    | 0.031419   | 0.3369     | 1.0358     |  49.0 | 16.37
Output  | 0.00023896 | 0.00024133 | 0.00038027 |   0.0 |  0.01
Modify  | 2.1545e-05 | 0.0029402  | 0.0062628  |   2.6 |  0.14
Other   |            | 0.2198     |            |       | 10.68

Nlocal:        2776.45 ave        3930 max           0 min
Histogram: 8 4 4 0 4 12 8 0 26 38
Nghost:        3879.11 ave        5424 max         232 min
Histogram: 8 0 8 0 16 0 8 8 16 40
Neighs:        79213.1 ave      114460 max           0 min
Histogram: 8 4 4 0 8 8 8 8 20 36

Total # of neighbors = 8238166
Ave neighs/atom = 28.530346
Neighbor list builds = 0
Dangerous builds = 0
The dot product: 8.8395845507216e-10
Setting atom values ...
  1 settings made for x
  1 settings made for y
  1 settings made for z
Setting up cg style minimization ...
  Unit style    : metal
  Current step  : 6111
Per MPI rank memory allocation (min/avg/max) = 5.441 | 5.816 | 6.074 Mbytes
Step PotEng KinEng TotEng v_fx v_fy v_fz 
    6111   -1152448.7            0   -1152448.7 0.0024644682 -0.0024138259 -0.0057074611 
    6273   -1152448.7            0   -1152448.7 2.0067885e-06 -3.2429626e-06 -3.0061235e-07 
Loop time of 1.86946 on 104 procs for 162 steps with 288751 atoms

99.9% CPU use with 104 MPI tasks x 1 OpenMP threads

Minimization stats:
  Stopping criterion = energy tolerance
  Energy initial, next-to-last, final = 
     -1152448.70278624  -1152448.70507918  -1152448.70507918
  Force two-norm initial, final = 0.24225518 0.00021839352
  Force max component initial, final = 0.18981488 7.0650235e-05
  Final line search alpha, max atom move = 1.0000000 7.0650235e-05
  Iterations, force evaluations = 162 324

MPI task timing breakdown:
Section |  min time  |  avg time  |  max time  |%varavg| %total
---------------------------------------------------------------
Pair    | 0.48779    | 1.3597     | 1.7628     |  31.5 | 72.73
Neigh   | 0          | 0          | 0          |   0.0 |  0.00
Comm    | 0.029102   | 0.30492    | 0.91681    |  46.6 | 16.31
Output  | 0          | 0          | 0          |   0.0 |  0.00
Modify  | 2.0234e-05 | 0.0026771  | 0.0057304  |   2.4 |  0.14
Other   |            | 0.2021     |            |       | 10.81

Nlocal:        2776.45 ave        3930 max           0 min
Histogram: 8 4 4 0 4 12 8 0 26 38
Nghost:        3879.07 ave        5424 max         232 min
Histogram: 8 0 8 0 16 0 8 8 16 40
Neighs:        79213.1 ave      114454 max           0 min
Histogram: 8 4 4 0 8 8 8 8 20 36

Total # of neighbors = 8238166
Ave neighs/atom = 28.530346
Neighbor list builds = 0
Dangerous builds = 0
The dot product: -3.09992267819865e-09
Setting atom values ...
  1 settings made for x
  1 settings made for y
  1 settings made for z
Setting up cg style minimization ...
  Unit style    : metal
  Current step  : 6273
Per MPI rank memory allocation (min/avg/max) = 5.441 | 5.816 | 6.074 Mbytes
Step PotEng KinEng TotEng v_fx v_fy v_fz 
    6273   -1152448.7            0   -1152448.7 0.0028730535 -0.0030400092 -0.0059510222 
    6466   -1152448.7            0   -1152448.7 -9.4418481e-07 3.1033997e-06 -5.2408691e-06 
Loop time of 2.26327 on 104 procs for 193 steps with 288751 atoms

99.9% CPU use with 104 MPI tasks x 1 OpenMP threads

Minimization stats:
  Stopping criterion = energy tolerance
  Energy initial, next-to-last, final = 
     -1152448.66536237  -1152448.66766888  -1152448.66766888
  Force two-norm initial, final = 0.24420377 0.00012478011
  Force max component initial, final = 0.19220847 4.7011000e-05
  Final line search alpha, max atom move = 1.0000000 4.7011000e-05
  Iterations, force evaluations = 193 386

MPI task timing breakdown:
Section |  min time  |  avg time  |  max time  |%varavg| %total
---------------------------------------------------------------
Pair    | 0.5875     | 1.6305     | 2.1198     |  34.4 | 72.04
Neigh   | 0          | 0          | 0          |   0.0 |  0.00
Comm    | 0.038115   | 0.36807    | 1.1021     |  50.7 | 16.26
Output  | 0          | 0          | 0          |   0.0 |  0.00
Modify  | 2.3064e-05 | 0.0031915  | 0.0067984  |   2.7 |  0.14
Other   |            | 0.2615     |            |       | 11.55

Nlocal:        2776.45 ave        3930 max           0 min
Histogram: 8 4 4 0 4 12 8 0 26 38
Nghost:        3879.07 ave        5424 max         232 min
Histogram: 8 0 8 0 16 0 8 8 16 40
Neighs:        79213.1 ave      114453 max           0 min
Histogram: 8 4 4 0 8 8 8 8 20 36

Total # of neighbors = 8238163
Ave neighs/atom = 28.530336
Neighbor list builds = 0
Dangerous builds = 0
The dot product: -2.05784709609825e-09
Setting atom values ...
  1 settings made for x
  1 settings made for y
  1 settings made for z
Setting up cg style minimization ...
  Unit style    : metal
  Current step  : 6466
Per MPI rank memory allocation (min/avg/max) = 5.441 | 5.816 | 6.074 Mbytes
Step PotEng KinEng TotEng v_fx v_fy v_fz 
    6466   -1152448.6            0   -1152448.6 0.0034124949 -0.0037473685 -0.0066739812 
    6644   -1152448.6            0   -1152448.6 -6.3791992e-07 1.8145729e-06 -2.5827382e-06 
Loop time of 2.04714 on 104 procs for 178 steps with 288751 atoms

99.9% CPU use with 104 MPI tasks x 1 OpenMP threads

[...]
Histogram: 8 0 8 0 16 0 8 8 16 40
Neighs:        79213.4 ave      115392 max           0 min
Histogram: 8 4 4 0 10 6 8 8 24 32

Total # of neighbors = 8238191
Ave neighs/atom = 28.530433
Neighbor list builds = 0
Dangerous builds = 0
The dot product: 1.36497653753272e-08
Setting atom values ...
  1 settings made for x
  1 settings made for y
  1 settings made for z
Setting up cg style minimization ...
  Unit style    : metal
  Current step  : 28506
Per MPI rank memory allocation (min/avg/max) = 5.441 | 5.816 | 6.074 Mbytes
Step PotEng KinEng TotEng v_fx v_fy v_fz 
   28506   -1152449.3            0   -1152449.3 -0.018435443 -0.021534631 -0.026426859 
   28661   -1152449.3            0   -1152449.3 1.817035e-05 1.7122181e-06 2.6058107e-05 
Loop time of 1.79674 on 104 procs for 155 steps with 288751 atoms

99.9% CPU use with 104 MPI tasks x 1 OpenMP threads

Minimization stats:
  Stopping criterion = energy tolerance
  Energy initial, next-to-last, final = 
     -1152449.32140878  -1152449.32295786  -1152449.32295786
  Force two-norm initial, final = 0.16666609 0.00018716162
  Force max component initial, final = 0.082326678 2.6058107e-05
  Final line search alpha, max atom move = 1.0000000 2.6058107e-05
  Iterations, force evaluations = 155 310

MPI task timing breakdown:
Section |  min time  |  avg time  |  max time  |%varavg| %total
---------------------------------------------------------------
Pair    | 0.46256    | 1.305      | 1.6936     |  31.1 | 72.63
Neigh   | 0          | 0          | 0          |   0.0 |  0.00
Comm    | 0.027062   | 0.29686    | 0.88718    |  45.5 | 16.52
Output  | 0          | 0          | 0          |   0.0 |  0.00
Modify  | 1.8814e-05 | 0.0025603  | 0.0054845  |   2.4 |  0.14
Other   |            | 0.1924     |            |       | 10.71

Nlocal:        2776.45 ave        3961 max           0 min
Histogram: 8 4 4 0 6 10 8 4 26 34
Nghost:        3879.11 ave        5424 max         232 min
Histogram: 8 0 8 0 16 0 8 8 16 40
Neighs:        79213.4 ave      115392 max           0 min
Histogram: 8 4 4 0 10 6 8 8 24 32

Total # of neighbors = 8238192
Ave neighs/atom = 28.530436
Neighbor list builds = 0
Dangerous builds = 0
The dot product: 2.03302057070692e-07
Setting atom values ...
  1 settings made for x
  1 settings made for y
  1 settings made for z
Setting up cg style minimization ...
  Unit style    : metal
  Current step  : 28661
Per MPI rank memory allocation (min/avg/max) = 5.441 | 5.816 | 6.074 Mbytes
Step PotEng KinEng TotEng v_fx v_fy v_fz 
   28661   -1152449.3            0   -1152449.3 -0.016501293 -0.017768178 -0.023461215 
   28863   -1152449.3            0   -1152449.3 -3.981003e-06 -1.0762644e-06 -5.6798444e-06 
Loop time of 2.34888 on 104 procs for 202 steps with 288751 atoms

99.9% CPU use with 104 MPI tasks x 1 OpenMP threads

Minimization stats:
  Stopping criterion = energy tolerance
  Energy initial, next-to-last, final = 
     -1152449.30313988  -1152449.30456488  -1152449.30456488
  Force two-norm initial, final = 0.16426228 7.4657606e-05
  Force max component initial, final = 0.083895315 7.1559725e-06
  Final line search alpha, max atom move = 1.0000000 7.1559725e-06
  Iterations, force evaluations = 202 404

MPI task timing breakdown:
Section |  min time  |  avg time  |  max time  |%varavg| %total
---------------------------------------------------------------
Pair    | 0.60336    | 1.6951     | 2.2096     |  35.3 | 72.17
Neigh   | 0          | 0          | 0          |   0.0 |  0.00
Comm    | 0.034799   | 0.38504    | 1.1583     |  51.7 | 16.39
Output  | 0          | 0          | 0          |   0.0 |  0.00
Modify  | 2.4322e-05 | 0.003333   | 0.007122   |   2.7 |  0.14
Other   |            | 0.2654     |            |       | 11.30

Nlocal:        2776.45 ave        3961 max           0 min
Histogram: 8 4 4 0 6 10 8 4 26 34
Nghost:        3879.11 ave        5424 max         232 min
Histogram: 8 0 8 0 16 0 8 8 16 40
Neighs:        79213.4 ave      115392 max           0 min
Histogram: 8 4 4 0 10 6 8 8 24 32

Total # of neighbors = 8238193
Ave neighs/atom = 28.530440
Neighbor list builds = 0
Dangerous builds = 0
The dot product: -2.08059847231641e-08
Setting atom values ...
  1 settings made for x
  1 settings made for y
  1 settings made for z
Setting up cg style minimization ...
  Unit style    : metal
  Current step  : 28863
Per MPI rank memory allocation (min/avg/max) = 5.441 | 5.816 | 6.074 Mbytes
Step PotEng KinEng TotEng v_fx v_fy v_fz 
   28863   -1152449.3            0   -1152449.3  -0.01611459 -0.019580407 -0.022820361 
   29000   -1152449.3            0   -1152449.3 -6.2130303e-06 4.5358564e-07 -8.8636448e-06 
   29054   -1152449.3            0   -1152449.3 -1.1818405e-05 -7.7086147e-07 -1.6847089e-05 
Loop time of 2.22224 on 104 procs for 191 steps with 288751 atoms

99.9% CPU use with 104 MPI tasks x 1 OpenMP threads

Minimization stats:
  Stopping criterion = energy tolerance
  Energy initial, next-to-last, final = 
      -1152449.2834751  -1152449.28484994  -1152449.28484994
  Force two-norm initial, final = 0.16423339 0.0001038831
  Force max component initial, final = 0.084122532 2.3709916e-05
  Final line search alpha, max atom move = 1.0000000 2.3709916e-05
  Iterations, force evaluations = 191 382

MPI task timing breakdown:
Section |  min time  |  avg time  |  max time  |%varavg| %total
---------------------------------------------------------------
Pair    | 0.56945    | 1.6053     | 2.0931     |  34.5 | 72.24
Neigh   | 0          | 0          | 0          |   0.0 |  0.00
Comm    | 0.034357   | 0.36632    | 1.0859     |  49.7 | 16.48
Output  | 0.0001714  | 0.00017948 | 0.00036361 |   0.0 |  0.01
Modify  | 2.3072e-05 | 0.0031522  | 0.0067206  |   2.6 |  0.14
Other   |            | 0.2473     |            |       | 11.13

Nlocal:        2776.45 ave        3961 max           0 min
Histogram: 8 4 4 0 6 10 8 4 26 34
Nghost:        3879.12 ave        5424 max         232 min
Histogram: 8 0 8 0 16 0 8 8 16 40
Neighs:        79213.4 ave      115392 max           0 min
Histogram: 8 4 4 0 10 6 8 8 24 32

Total # of neighbors = 8238195
Ave neighs/atom = 28.530447
Neighbor list builds = 0
Dangerous builds = 0
The dot product: -3.53523841096668e-08
Setting atom values ...
  1 settings made for x
  1 settings made for y
  1 settings made for z
Setting up cg style minimization ...
  Unit style    : metal
  Current step  : 29054
Per MPI rank memory allocation (min/avg/max) = 5.441 | 5.816 | 6.074 Mbytes
Step PotEng KinEng TotEng v_fx v_fy v_fz 
   29054   -1152449.3            0   -1152449.3 -0.015279832 -0.020246855 -0.021577585 
   29243   -1152449.3            0   -1152449.3 -9.6583189e-06 -1.4707463e-05 -1.3621399e-05 
Loop time of 2.19783 on 104 procs for 189 steps with 288751 atoms

99.9% CPU use with 104 MPI tasks x 1 OpenMP threads

Minimization stats:
  Stopping criterion = energy tolerance
  Energy initial, next-to-last, final = 
     -1152449.26238934   -1152449.2637601   -1152449.2637601
  Force two-norm initial, final = 0.16441753 0.00010727415
  Force max component initial, final = 0.084218495 2.3352070e-05
  Final line search alpha, max atom move = 1.0000000 2.3352070e-05
  Iterations, force evaluations = 189 378

MPI task timing breakdown:
Section |  min time  |  avg time  |  max time  |%varavg| %total
---------------------------------------------------------------
Pair    | 0.56505    | 1.586      | 2.0708     |  34.2 | 72.16
Neigh   | 0          | 0          | 0          |   0.0 |  0.00
Comm    | 0.032977   | 0.35909    | 1.0782     |  49.8 | 16.34
Output  | 0          | 0          | 0          |   0.0 |  0.00
Modify  | 2.2797e-05 | 0.003121   | 0.0066824  |   2.6 |  0.14
Other   |            | 0.2496     |            |       | 11.36

Nlocal:        2776.45 ave        3962 max           0 min
Histogram: 8 4 4 0 6 10 8 4 26 34
Nghost:        3879.12 ave        5424 max         232 min
Histogram: 8 0 8 0 16 0 8 8 16 40
Neighs:        79213.4 ave      115429 max           0 min
Histogram: 8 4 4 0 10 6 8 8 24 32

Total # of neighbors = 8238195
Ave neighs/atom = 28.530447
Neighbor list builds = 0
Dangerous builds = 0
The dot product: -4.88513761591747e-08
Setting atom values ...
  1 settings made for x
  1 settings made for y
  1 settings made for z
Setting up cg style minimization ...
  Unit style    : metal
  Current step  : 29243
Per MPI rank memory allocation (min/avg/max) = 5.441 | 5.816 | 6.074 Mbytes
Step PotEng KinEng TotEng v_fx v_fy v_fz 
   29243   -1152449.2            0   -1152449.2 -0.014327635 -0.020598259 -0.020179214 
   29425   -1152449.2            0   -1152449.2 -1.6858665e-05 -2.7841867e-06 -2.3961299e-05 
Loop time of 2.10969 on 104 procs for 182 steps with 288751 atoms

99.9% CPU use with 104 MPI tasks x 1 OpenMP threads

Minimization stats:
  Stopping criterion = energy tolerance
  Energy initial, next-to-last, final = 
     -1152449.23988228  -1152449.24125954  -1152449.24125954
  Force two-norm initial, final = 0.16489058 0.0001358367
  Force max component initial, final = 0.084234481 2.3961299e-05
  Final line search alpha, max atom move = 1.0000000 2.3961299e-05
  Iterations, force evaluations = 182 364

MPI task timing breakdown:
Section |  min time  |  avg time  |  max time  |%varavg| %total
---------------------------------------------------------------
Pair    | 0.54788    | 1.5323     | 1.9851     |  33.6 | 72.63
Neigh   | 0          | 0          | 0          |   0.0 |  0.00
Comm    | 0.033184   | 0.34832    | 1.0363     |  49.1 | 16.51
Output  | 0          | 0          | 0          |   0.0 |  0.00
Modify  | 2.2321e-05 | 0.003004   | 0.0064172  |   2.6 |  0.14
Other   |            | 0.2261     |            |       | 10.72

Nlocal:        2776.45 ave        3961 max           0 min
Histogram: 8 4 4 0 6 10 8 4 26 34
Nghost:        3879.12 ave        5424 max         232 min
Histogram: 8 0 8 0 16 0 8 8 16 40
Neighs:        79213.4 ave      115398 max           0 min
Histogram: 8 4 4 0 10 6 8 8 24 32

Total # of neighbors = 8238196
Ave neighs/atom = 28.530450
Neighbor list builds = 0
Dangerous builds = 0
The dot product: -5.0451556874081e-08
Setting atom values ...
  1 settings made for x
  1 settings made for y
  1 settings made for z
Setting up cg style minimization ...
  Unit style    : metal
  Current step  : 29425
Per MPI rank memory allocation (min/avg/max) = 5.441 | 5.816 | 6.074 Mbytes
Step PotEng KinEng TotEng v_fx v_fy v_fz 
   29425   -1152449.2            0   -1152449.2 -0.013414228 -0.020724159 -0.018842464 
   29674   -1152449.2            0   -1152449.2 1.0209897e-06 6.8888948e-08 1.4505556e-06 
Loop time of 2.94061 on 104 procs for 249 steps with 288751 atoms

99.9% CPU use with 104 MPI tasks x 1 OpenMP threads

Minimization stats:
  Stopping criterion = energy tolerance
  Energy initial, next-to-last, final = 
     -1152449.21593451  -1152449.21733189  -1152449.21733189
  Force two-norm initial, final = 0.16568006 9.4451093e-06
  Force max component initial, final = 0.084207855 1.4505556e-06
  Final line search alpha, max atom move = 1.0000000 1.4505556e-06
  Iterations, force evaluations = 249 498

MPI task timing breakdown:
Section |  min time  |  avg time  |  max time  |%varavg| %total
---------------------------------------------------------------
Pair    | 0.74217    | 2.0984     | 2.756      |  39.6 | 71.36
Neigh   | 0          | 0          | 0          |   0.0 |  0.00
Comm    | 0.043671   | 0.48026    | 1.423      |  56.3 | 16.33
Output  | 0          | 0          | 0          |   0.0 |  0.00
Modify  | 3.0517e-05 | 0.0041126  | 0.0087528  |   3.0 |  0.14
Other   |            | 0.3578     |            |       | 12.17

Nlocal:        2776.45 ave        3960 max           0 min
Histogram: 8 4 4 0 4 12 8 6 24 34
Nghost:        3879.12 ave        5424 max         232 min
Histogram: 8 0 8 0 16 0 8 8 16 40
Neighs:        79213.4 ave      115376 max           0 min
Histogram: 8 4 4 0 10 6 8 8 24 32

Total # of neighbors = 8238196
Ave neighs/atom = 28.530450
Neighbor list builds = 0
Dangerous builds = 0
The dot product: 3.44885296572769e-09
Setting atom values ...
  1 settings made for x
  1 settings made for y
  1 settings made for z
Setting up cg style minimization ...
  Unit style    : metal
  Current step  : 29674
Per MPI rank memory allocation (min/avg/max) = 5.441 | 5.816 | 6.074 Mbytes
Step PotEng KinEng TotEng v_fx v_fy v_fz 
   29674   -1152449.2            0   -1152449.2 -0.012513443 -0.020528384 -0.017525932 
   29897   -1152449.2            0   -1152449.2 -6.1982921e-06 1.5919665e-06 -8.8182211e-06 
Loop time of 2.58646 on 104 procs for 223 steps with 288751 atoms

99.9% CPU use with 104 MPI tasks x 1 OpenMP threads

Minimization stats:
  Stopping criterion = energy tolerance
  Energy initial, next-to-last, final = 
     -1152449.19055644  -1152449.19199139  -1152449.19199139
  Force two-norm initial, final = 0.1666526 3.5525889e-05
  Force max component initial, final = 0.08416561 8.8182211e-06
  Final line search alpha, max atom move = 1.0000000 8.8182211e-06
  Iterations, force evaluations = 223 446

MPI task timing breakdown:
Section |  min time  |  avg time  |  max time  |%varavg| %total
---------------------------------------------------------------
Pair    | 0.66646    | 1.8734     | 2.4329     |  37.3 | 72.43
Neigh   | 0          | 0          | 0          |   0.0 |  0.00
Comm    | 0.037528   | 0.42378    | 1.2638     |  54.6 | 16.38
Output  | 0          | 0          | 0          |   0.0 |  0.00
Modify  | 2.6304e-05 | 0.0036836  | 0.0078533  |   2.9 |  0.14
Other   |            | 0.2856     |            |       | 11.04

Nlocal:        2776.45 ave        3960 max           0 min
Histogram: 8 4 4 0 4 12 8 6 24 34
Nghost:        3879.14 ave        5424 max         232 min
Histogram: 8 0 8 0 16 0 8 8 16 40
Neighs:        79213.5 ave      115383 max           0 min
Histogram: 8 4 4 0 10 6 8 8 24 32

Total # of neighbors = 8238201
Ave neighs/atom = 28.530467
Neighbor list builds = 0
Dangerous builds = 0
The dot product: -2.47389541493239e-08
Setting atom values ...
  1 settings made for x
  1 settings made for y
  1 settings made for z
Setting up cg style minimization ...
  Unit style    : metal
  Current step  : 29897
Per MPI rank memory allocation (min/avg/max) = 5.441 | 5.816 | 6.074 Mbytes
Step PotEng KinEng TotEng v_fx v_fy v_fz 
   29897   -1152449.2            0   -1152449.2 -0.011630519 -0.019786896 -0.016231313 
   30000   -1152449.2            0   -1152449.2 2.3602038e-05 -0.00015025687 3.5365678e-05 
   30084   -1152449.2            0   -1152449.2 -1.1669048e-05 1.8452556e-05 -1.6773355e-05 
Loop time of 2.17416 on 104 procs for 187 steps with 288751 atoms

99.9% CPU use with 104 MPI tasks x 1 OpenMP threads

Minimization stats:
  Stopping criterion = energy tolerance
  Energy initial, next-to-last, final = 
     -1152449.16381288  -1152449.16529898  -1152449.16529898
  Force two-norm initial, final = 0.16755356 0.00012787545
  Force max component initial, final = 0.084128483 2.5130944e-05
  Final line search alpha, max atom move = 1.0000000 2.5130944e-05
  Iterations, force evaluations = 187 374

MPI task timing breakdown:
Section |  min time  |  avg time  |  max time  |%varavg| %total
---------------------------------------------------------------
Pair    | 0.55861    | 1.5704     | 2.0505     |  34.1 | 72.23
Neigh   | 0          | 0          | 0          |   0.0 |  0.00
Comm    | 0.031499   | 0.35678    | 1.0744     |  49.6 | 16.41
Output  | 0.00015684 | 0.00016748 | 0.00033908 |   0.0 |  0.01
Modify  | 2.2656e-05 | 0.0030848  | 0.0065847  |   2.6 |  0.14
Other   |            | 0.2437     |            |       | 11.21

Nlocal:        2776.45 ave        3960 max           0 min
Histogram: 8 4 4 0 4 12 8 6 24 34
Nghost:        3879.12 ave        5424 max         232 min
Histogram: 8 0 8 0 16 0 8 8 16 40
Neighs:        79213.5 ave      115383 max           0 min
Histogram: 8 4 4 0 10 6 8 8 24 32

Total # of neighbors = 8238204
Ave neighs/atom = 28.530478
Neighbor list builds = 0
Dangerous builds = 0
The dot product: -1.8348537650515e-08
Setting atom values ...
  1 settings made for x
  1 settings made for y
  1 settings made for z
Setting up cg style minimization ...
  Unit style    : metal
  Current step  : 30084
Per MPI rank memory allocation (min/avg/max) = 5.441 | 5.816 | 6.074 Mbytes
Step PotEng KinEng TotEng v_fx v_fy v_fz 
   30084   -1152449.1            0   -1152449.1 -0.011237594  -0.01747966 -0.015645176 
   30317   -1152449.1            0   -1152449.1 1.3799239e-06 3.6326056e-06 1.900134e-06 
Loop time of 2.70325 on 104 procs for 233 steps with 288751 atoms

99.9% CPU use with 104 MPI tasks x 1 OpenMP threads

Minimization stats:
  Stopping criterion = energy tolerance
  Energy initial, next-to-last, final = 
     -1152449.13576367  -1152449.13726759  -1152449.13726759
  Force two-norm initial, final = 0.16790591 2.3909742e-05
  Force max component initial, final = 0.084067426 5.3090065e-06
  Final line search alpha, max atom move = 1.0000000 5.3090065e-06
  Iterations, force evaluations = 233 466

MPI task timing breakdown:
Section |  min time  |  avg time  |  max time  |%varavg| %total
---------------------------------------------------------------
Pair    | 0.69435    | 1.9594     | 2.5439     |  38.2 | 72.48
Neigh   | 0          | 0          | 0          |   0.0 |  0.00
Comm    | 0.040729   | 0.44519    | 1.3399     |  55.7 | 16.47
Output  | 0          | 0          | 0          |   0.0 |  0.00
Modify  | 2.7977e-05 | 0.0038455  | 0.0082298  |   2.9 |  0.14
Other   |            | 0.2948     |            |       | 10.91

Nlocal:        2776.45 ave        3960 max           0 min
Histogram: 8 4 4 0 4 12 8 6 24 34
Nghost:        3879.15 ave        5425 max         232 min
Histogram: 8 0 8 0 16 0 8 8 16 40
Neighs:        79213.5 ave      115383 max           0 min
Histogram: 8 4 4 0 10 6 8 8 24 32

Total # of neighbors = 8238204
Ave neighs/atom = 28.530478
Neighbor list builds = 0
Dangerous builds = 0
The dot product: 1.90512476048296e-08
Setting atom values ...
  1 settings made for x
  1 settings made for y
  1 settings made for z
Setting up cg style minimization ...
  Unit style    : metal
  Current step  : 30317
Per MPI rank memory allocation (min/avg/max) = 5.441 | 5.816 | 6.074 Mbytes
Step PotEng KinEng TotEng v_fx v_fy v_fz 
   30317   -1152449.1            0   -1152449.1 -0.012267812 -0.011318236 -0.017131926 
   30570   -1152449.1            0   -1152449.1 3.2142675e-07 1.4600344e-09 4.534991e-07 
Loop time of 2.94163 on 104 procs for 253 steps with 288751 atoms

99.9% CPU use with 104 MPI tasks x 1 OpenMP threads

Minimization stats:
  Stopping criterion = energy tolerance
  Energy initial, next-to-last, final = 
      -1152449.1062553   -1152449.1078382   -1152449.1078382
  Force two-norm initial, final = 0.16762723 1.2897387e-05
  Force max component initial, final = 0.084043229 6.4201771e-07
  Final line search alpha, max atom move = 1.0000000 6.4201771e-07
  Iterations, force evaluations = 253 506

MPI task timing breakdown:
Section |  min time  |  avg time  |  max time  |%varavg| %total
---------------------------------------------------------------
Pair    | 0.75316    | 2.1228     | 2.7663     |  39.6 | 72.16
Neigh   | 0          | 0          | 0          |   0.0 |  0.00
Comm    | 0.046209   | 0.48289    | 1.4543     |  57.9 | 16.42
Output  | 0          | 0          | 0          |   0.0 |  0.00
Modify  | 3.0063e-05 | 0.0041714  | 0.008887   |   3.0 |  0.14
Other   |            | 0.3318     |            |       | 11.28

Nlocal:        2776.45 ave        3960 max           0 min
Histogram: 8 4 4 0 4 12 8 6 24 34
Nghost:        3879.15 ave        5425 max         232 min
Histogram: 8 0 8 0 16 0 8 8 16 40
Neighs:        79213.5 ave      115383 max           0 min
Histogram: 8 4 4 0 10 6 8 8 24 32

Total # of neighbors = 8238206
Ave neighs/atom = 28.530485
Neighbor list builds = 0
Dangerous builds = 0
The dot product: 2.51373087279304e-09
