LAMMPS (29 Oct 2020)
OMP_NUM_THREADS environment is not set. Defaulting to 1 thread. (../comm.cpp:94)
  using 1 OpenMP thread(s) per MPI task
OMP_NUM_THREADS environment is not set. Defaulting to 1 thread. (../comm.cpp:94)
  using 1 OpenMP thread(s) per MPI task
Reading data file ...
  orthogonal box = (-122.39241 -121.13707 -37.090501) to (122.39241 121.13707 37.090501)
  13 by 4 by 2 MPI processor grid
  reading atoms ...
  288751 atoms
  read_data CPU = 0.379 seconds
199981 atoms in group inner
88770 atoms in group outer
1 atoms in group carbon
Neighbor list info ...
  update every 1 steps, delay 0 steps, check yes
  max neighbors/atom: 2000, page size: 100000
  master list distance cutoff = 5.6
  ghost atom cutoff = 5.6
  binsize = 2.8, bins = 88 87 27
  1 neighbor lists, perpetual/occasional/extra = 1 0 0
  (1) pair eam/alloy, perpetual
      attributes: half, newton on
      pair build: half/bin/atomonly/newton
      stencil: half/bin/3d/newton
      bin: standard
Setting up cg style minimization ...
  Unit style    : metal
  Current step  : 0
Per MPI rank memory allocation (min/avg/max) = 5.441 | 5.816 | 6.074 Mbytes
Step v_fx v_fy v_fz PotEng KinEng TotEng 
       0   -1.7270216  -0.78039122    2.5837193   -1152447.8            0   -1152447.8 
     173 4.5988645e-06 -4.6820803e-07 7.4129614e-06   -1152449.5            0   -1152449.5 
Loop time of 2.00795 on 104 procs for 173 steps with 288751 atoms

99.9% CPU use with 104 MPI tasks x 1 OpenMP threads

Minimization stats:
  Stopping criterion = energy tolerance
  Energy initial, next-to-last, final = 
     -1152447.77762783  -1152449.45035286  -1152449.45035286
  Force two-norm initial, final = 10.207309 5.7036830e-05
  Force max component initial, final = 6.2197172 8.4941248e-06
  Final line search alpha, max atom move = 1.0000000 8.4941248e-06
  Iterations, force evaluations = 173 345

MPI task timing breakdown:
Section |  min time  |  avg time  |  max time  |%varavg| %total
---------------------------------------------------------------
Pair    | 0.53683    | 1.4506     | 1.8833     |  32.0 | 72.24
Neigh   | 3.1285e-05 | 0.0088067  | 0.012767   |   3.9 |  0.44
Comm    | 0.035166   | 0.3252     | 0.98092    |  48.1 | 16.20
Output  | 0          | 0          | 0          |   0.0 |  0.00
Modify  | 1.9328e-05 | 0.0018574  | 0.0047544  |   2.7 |  0.09
Other   |            | 0.2214     |            |       | 11.03

Nlocal:        2776.45 ave        3960 max           0 min
Histogram: 8 4 4 0 4 12 8 2 28 34
Nghost:        3879.01 ave        5424 max         232 min
Histogram: 8 0 8 0 16 0 8 8 16 40
Neighs:        79213.5 ave      115433 max           0 min
Histogram: 8 4 4 0 10 6 8 8 24 32

Total # of neighbors = 8238206
Ave neighs/atom = 28.530485
Neighbor list builds = 3
Dangerous builds = 0
Setting atom values ...
  1 settings made for x
  1 settings made for y
  1 settings made for z
Setting up cg style minimization ...
  Unit style    : metal
  Current step  : 173
Per MPI rank memory allocation (min/avg/max) = 5.441 | 5.816 | 6.074 Mbytes
Step PotEng KinEng TotEng v_fx v_fy v_fz 
     173   -1152449.4            0   -1152449.4  0.010901895 -0.014832439 -0.020174441 
     273   -1152449.5            0   -1152449.5 2.0191842e-05 -2.5345491e-05 -3.0577237e-05 
Loop time of 1.17035 on 104 procs for 100 steps with 288751 atoms

99.9% CPU use with 104 MPI tasks x 1 OpenMP threads

Minimization stats:
  Stopping criterion = energy tolerance
  Energy initial, next-to-last, final = 
     -1152449.44955104  -1152449.45008148  -1152449.45008148
  Force two-norm initial, final = 0.10851147 0.00021012686
  Force max component initial, final = 0.048242989 4.2648492e-05
  Final line search alpha, max atom move = 1.0000000 4.2648492e-05
  Iterations, force evaluations = 100 200

MPI task timing breakdown:
Section |  min time  |  avg time  |  max time  |%varavg| %total
---------------------------------------------------------------
Pair    | 0.30449    | 0.84522    | 1.1026     |  24.7 | 72.22
Neigh   | 0          | 0          | 0          |   0.0 |  0.00
Comm    | 0.019424   | 0.19086    | 0.57264    |  36.8 | 16.31
Output  | 0          | 0          | 0          |   0.0 |  0.00
Modify  | 1.2242e-05 | 0.0016577  | 0.0035322  |   1.9 |  0.14
Other   |            | 0.1326     |            |       | 11.33

Nlocal:        2776.45 ave        3961 max           0 min
Histogram: 8 4 4 0 6 10 8 2 28 34
Nghost:        3879.01 ave        5424 max         232 min
Histogram: 8 0 8 0 16 0 8 8 16 40
Neighs:        79213.4 ave      115456 max           0 min
Histogram: 8 4 4 0 10 6 8 8 24 32

Total # of neighbors = 8238198
Ave neighs/atom = 28.530457
Neighbor list builds = 0
Dangerous builds = 0
Setting atom values ...
  1 settings made for x
  1 settings made for y
  1 settings made for z
Setting up cg style minimization ...
  Unit style    : metal
  Current step  : 273
Per MPI rank memory allocation (min/avg/max) = 5.441 | 5.816 | 6.074 Mbytes
Step PotEng KinEng TotEng v_fx v_fy v_fz 
     273   -1152449.4            0   -1152449.4  0.018375262 -0.022505597 -0.032518202 
     398   -1152449.4            0   -1152449.4 3.2155679e-05 -1.6452497e-05 4.0680597e-05 
Loop time of 1.45487 on 104 procs for 125 steps with 288751 atoms

99.9% CPU use with 104 MPI tasks x 1 OpenMP threads

Minimization stats:
  Stopping criterion = energy tolerance
  Energy initial, next-to-last, final = 
     -1152449.44705496  -1152449.44849461  -1152449.44849461
  Force two-norm initial, final = 0.17820602 0.00019808278
  Force max component initial, final = 0.077713487 5.0317724e-05
  Final line search alpha, max atom move = 1.0000000 5.0317724e-05
  Iterations, force evaluations = 125 250

MPI task timing breakdown:
Section |  min time  |  avg time  |  max time  |%varavg| %total
---------------------------------------------------------------
Pair    | 0.38002    | 1.0498     | 1.3698     |  27.6 | 72.16
Neigh   | 0          | 0          | 0          |   0.0 |  0.00
Comm    | 0.022886   | 0.2366     | 0.71124    |  40.9 | 16.26
Output  | 0          | 0          | 0          |   0.0 |  0.00
Modify  | 1.5318e-05 | 0.0020645  | 0.0044278  |   2.2 |  0.14
Other   |            | 0.1664     |            |       | 11.44

Nlocal:        2776.45 ave        3961 max           0 min
Histogram: 8 4 4 0 6 10 8 2 28 34
Nghost:        3879.01 ave        5424 max         232 min
Histogram: 8 0 8 0 16 0 8 8 16 40
Neighs:        79213.5 ave      115456 max           0 min
Histogram: 8 4 4 0 10 6 8 8 24 32

Total # of neighbors = 8238200
Ave neighs/atom = 28.530464
Neighbor list builds = 0
Dangerous builds = 0
The dot product: -8.1130523200894e-08
Setting atom values ...
  1 settings made for x
  1 settings made for y
  1 settings made for z
Setting up cg style minimization ...
  Unit style    : metal
  Current step  : 398
Per MPI rank memory allocation (min/avg/max) = 5.441 | 5.816 | 6.074 Mbytes
Step PotEng KinEng TotEng v_fx v_fy v_fz 
     398   -1152449.4            0   -1152449.4  0.018769105 -0.021324056 -0.031708045 
     509   -1152449.4            0   -1152449.4 1.6623406e-05 -7.8650653e-06 3.4407294e-05 
Loop time of 1.29435 on 104 procs for 111 steps with 288751 atoms

99.9% CPU use with 104 MPI tasks x 1 OpenMP threads

Minimization stats:
  Stopping criterion = energy tolerance
  Energy initial, next-to-last, final = 
     -1152449.44403799  -1152449.44546622  -1152449.44546622
  Force two-norm initial, final = 0.1769333 0.00023101481
  Force max component initial, final = 0.075508331 3.4407294e-05
  Final line search alpha, max atom move = 1.0000000 3.4407294e-05
  Iterations, force evaluations = 111 222

MPI task timing breakdown:
Section |  min time  |  avg time  |  max time  |%varavg| %total
---------------------------------------------------------------
Pair    | 0.33909    | 0.93767    | 1.2153     |  26.0 | 72.44
Neigh   | 0          | 0          | 0          |   0.0 |  0.00
Comm    | 0.02433    | 0.21013    | 0.64365    |  39.0 | 16.23
Output  | 0          | 0          | 0          |   0.0 |  0.00
Modify  | 1.3232e-05 | 0.0018367  | 0.0039283  |   2.0 |  0.14
Other   |            | 0.1447     |            |       | 11.18

Nlocal:        2776.45 ave        3960 max           0 min
Histogram: 8 4 4 0 4 12 8 2 28 34
Nghost:        3879.01 ave        5424 max         232 min
Histogram: 8 0 8 0 16 0 8 8 16 40
Neighs:        79213.5 ave      115413 max           0 min
Histogram: 8 4 4 0 10 6 8 8 24 32

Total # of neighbors = 8238201
Ave neighs/atom = 28.530467
Neighbor list builds = 0
Dangerous builds = 0
The dot product: -7.01060248875324e-08
Setting atom values ...
  1 settings made for x
  1 settings made for y
  1 settings made for z
Setting up cg style minimization ...
  Unit style    : metal
  Current step  : 509
Per MPI rank memory allocation (min/avg/max) = 5.441 | 5.816 | 6.074 Mbytes
Step PotEng KinEng TotEng v_fx v_fy v_fz 
     509   -1152449.4            0   -1152449.4  0.019658569 -0.021086855 -0.030779254 
     644   -1152449.4            0   -1152449.4 -1.0455028e-05 1.0786467e-05 1.3207353e-05 
Loop time of 1.56271 on 104 procs for 135 steps with 288751 atoms

99.9% CPU use with 104 MPI tasks x 1 OpenMP threads

Minimization stats:
  Stopping criterion = energy tolerance
  Energy initial, next-to-last, final = 
     -1152449.43953379  -1152449.44095386  -1152449.44095386
  Force two-norm initial, final = 0.17604647 8.8964087e-05
  Force max component initial, final = 0.073365785 1.5516518e-05
  Final line search alpha, max atom move = 1.0000000 1.5516518e-05
  Iterations, force evaluations = 135 270

MPI task timing breakdown:
Section |  min time  |  avg time  |  max time  |%varavg| %total
---------------------------------------------------------------
Pair    | 0.40831    | 1.1304     | 1.4744     |  28.7 | 72.33
Neigh   | 0          | 0          | 0          |   0.0 |  0.00
Comm    | 0.024336   | 0.25358    | 0.7646     |  42.6 | 16.23
Output  | 0          | 0          | 0          |   0.0 |  0.00
Modify  | 1.6229e-05 | 0.0022294  | 0.0047454  |   2.2 |  0.14
Other   |            | 0.1765     |            |       | 11.30

Nlocal:        2776.45 ave        3959 max           0 min
Histogram: 8 4 4 0 4 12 8 2 28 34
Nghost:        3879.01 ave        5424 max         232 min
Histogram: 8 0 8 0 16 0 8 8 16 40
Neighs:        79213.5 ave      115390 max           0 min
Histogram: 8 4 4 0 10 6 8 8 24 32

Total # of neighbors = 8238201
Ave neighs/atom = 28.530467
Neighbor list builds = 0
Dangerous builds = 0
The dot product: -1.29274227270642e-08
Setting atom values ...
  1 settings made for x
  1 settings made for y
  1 settings made for z
Setting up cg style minimization ...
  Unit style    : metal
  Current step  : 644
Per MPI rank memory allocation (min/avg/max) = 5.441 | 5.816 | 6.074 Mbytes
Step PotEng KinEng TotEng v_fx v_fy v_fz 
     644   -1152449.4            0   -1152449.4  0.021044931  -0.02163915 -0.030441829 
     759   -1152449.4            0   -1152449.4 2.2696976e-05 -1.4706438e-05 4.8821617e-05 
Loop time of 1.33849 on 104 procs for 115 steps with 288751 atoms

99.9% CPU use with 104 MPI tasks x 1 OpenMP threads

Minimization stats:
  Stopping criterion = energy tolerance
  Energy initial, next-to-last, final = 
     -1152449.43351098  -1152449.43492263  -1152449.43492263
  Force two-norm initial, final = 0.1754051 0.00019337288
  Force max component initial, final = 0.07257234 4.8821617e-05
  Final line search alpha, max atom move = 1.0000000 4.8821617e-05
  Iterations, force evaluations = 115 230

MPI task timing breakdown:
Section |  min time  |  avg time  |  max time  |%varavg| %total
---------------------------------------------------------------
Pair    | 0.34803    | 0.97068    | 1.2575     |  26.5 | 72.52
Neigh   | 0          | 0          | 0          |   0.0 |  0.00
Comm    | 0.023454   | 0.21836    | 0.65873    |  39.2 | 16.31
Output  | 0          | 0          | 0          |   0.0 |  0.00
Modify  | 1.3702e-05 | 0.0018995  | 0.0040391  |   2.1 |  0.14
Other   |            | 0.1475     |            |       | 11.02

Nlocal:        2776.45 ave        3959 max           0 min
Histogram: 8 4 4 0 4 12 8 2 28 34
Nghost:        3879.01 ave        5424 max         232 min
Histogram: 8 0 8 0 16 0 8 8 16 40
Neighs:        79213.5 ave      115390 max           0 min
Histogram: 8 4 4 0 10 6 8 8 24 32

Total # of neighbors = 8238201
Ave neighs/atom = 28.530467
Neighbor list builds = 0
Dangerous builds = 0
The dot product: -8.85278927408371e-08
Setting atom values ...
  1 settings made for x
  1 settings made for y
  1 settings made for z
Setting up cg style minimization ...
  Unit style    : metal
  Current step  : 759
Per MPI rank memory allocation (min/avg/max) = 5.441 | 5.816 | 6.074 Mbytes
Step PotEng KinEng TotEng v_fx v_fy v_fz 
     759   -1152449.4            0   -1152449.4  0.023046106 -0.022887584 -0.030921903 
     892   -1152449.4            0   -1152449.4 -9.9968158e-06 9.1883718e-06 4.4627183e-06 
Loop time of 1.53885 on 104 procs for 133 steps with 288751 atoms

99.9% CPU use with 104 MPI tasks x 1 OpenMP threads

Minimization stats:
  Stopping criterion = energy tolerance
  Energy initial, next-to-last, final = 
      -1152449.4259452  -1152449.42734792  -1152449.42734792
  Force two-norm initial, final = 0.17498802 8.0123830e-05
  Force max component initial, final = 0.073006594 1.8204939e-05
  Final line search alpha, max atom move = 1.0000000 1.8204939e-05
  Iterations, force evaluations = 133 266

MPI task timing breakdown:
Section |  min time  |  avg time  |  max time  |%varavg| %total
---------------------------------------------------------------
Pair    | 0.40141    | 1.114      | 1.4508     |  28.5 | 72.39
Neigh   | 0          | 0          | 0          |   0.0 |  0.00
Comm    | 0.027672   | 0.24957    | 0.75524    |  42.3 | 16.22
Output  | 0          | 0          | 0          |   0.0 |  0.00
Modify  | 1.6433e-05 | 0.0021931  | 0.0046965  |   2.2 |  0.14
Other   |            | 0.1731     |            |       | 11.25

Nlocal:        2776.45 ave        3958 max           0 min
Histogram: 8 4 4 0 4 12 8 2 28 34
Nghost:        3879.01 ave        5424 max         232 min
Histogram: 8 0 8 0 16 0 8 8 16 40
Neighs:        79213.5 ave      115362 max           0 min
Histogram: 8 4 4 0 10 6 8 8 24 32

Total # of neighbors = 8238203
Ave neighs/atom = 28.530474
Neighbor list builds = 0
Dangerous builds = 0
The dot product: -8.16616505214417e-09
Setting atom values ...
  1 settings made for x
  1 settings made for y
  1 settings made for z
Setting up cg style minimization ...
  Unit style    : metal
  Current step  : 892
Per MPI rank memory allocation (min/avg/max) = 5.441 | 5.816 | 6.074 Mbytes
Step PotEng KinEng TotEng v_fx v_fy v_fz 
     892   -1152449.4            0   -1152449.4  0.025754257 -0.024743795 -0.032494895 
    1000   -1152449.4            0   -1152449.4 -2.5160104e-05 1.8917434e-05 -5.1699819e-05 
    1028   -1152449.4            0   -1152449.4 -3.6669443e-06 2.1086779e-06 -1.7830505e-05 
Loop time of 1.57762 on 104 procs for 136 steps with 288751 atoms

99.9% CPU use with 104 MPI tasks x 1 OpenMP threads

Minimization stats:
  Stopping criterion = energy tolerance
  Energy initial, next-to-last, final = 
     -1152449.41682318  -1152449.41821728  -1152449.41821728
  Force two-norm initial, final = 0.17476853 7.2210823e-05
  Force max component initial, final = 0.073769974 1.7830505e-05
  Final line search alpha, max atom move = 1.0000000 1.7830505e-05
  Iterations, force evaluations = 136 272

MPI task timing breakdown:
Section |  min time  |  avg time  |  max time  |%varavg| %total
---------------------------------------------------------------
Pair    | 0.41168    | 1.1441     | 1.4868     |  28.7 | 72.52
Neigh   | 0          | 0          | 0          |   0.0 |  0.00
Comm    | 0.027702   | 0.25591    | 0.77721    |  43.0 | 16.22
Output  | 0.0001471  | 0.00015185 | 0.00026474 |   0.0 |  0.01
Modify  | 1.6597e-05 | 0.0022451  | 0.0048163  |   2.2 |  0.14
Other   |            | 0.1752     |            |       | 11.11

Nlocal:        2776.45 ave        3957 max           0 min
Histogram: 8 4 4 0 4 12 8 2 28 34
Nghost:        3879.01 ave        5424 max         232 min
Histogram: 8 0 8 0 16 0 8 8 16 40
Neighs:        79213.5 ave      115333 max           0 min
Histogram: 8 4 4 0 10 6 8 8 24 32

Total # of neighbors = 8238204
Ave neighs/atom = 28.530478
Neighbor list builds = 0
Dangerous builds = 0
The dot product: 2.99719423909489e-08
Setting atom values ...
  1 settings made for x
  1 settings made for y
  1 settings made for z
Setting up cg style minimization ...
  Unit style    : metal
  Current step  : 1028
Per MPI rank memory allocation (min/avg/max) = 5.441 | 5.816 | 6.074 Mbytes
Step PotEng KinEng TotEng v_fx v_fy v_fz 
    1028   -1152449.4            0   -1152449.4  0.029436006 -0.027230046 -0.035201536 
    1142   -1152449.4            0   -1152449.4 -1.5418372e-05 1.2456337e-05 -2.241016e-05 
Loop time of 1.3197 on 104 procs for 114 steps with 288751 atoms

99.9% CPU use with 104 MPI tasks x 1 OpenMP threads

Minimization stats:
  Stopping criterion = energy tolerance
  Energy initial, next-to-last, final = 
      -1152449.4061458  -1152449.40753489  -1152449.40753489
  Force two-norm initial, final = 0.17488771 0.0002047969
  Force max component initial, final = 0.074778154 2.7396750e-05
  Final line search alpha, max atom move = 1.0000000 2.7396750e-05
  Iterations, force evaluations = 114 228

MPI task timing breakdown:
Section |  min time  |  avg time  |  max time  |%varavg| %total
---------------------------------------------------------------
Pair    | 0.34488    | 0.9562     | 1.2461     |  26.4 | 72.46
Neigh   | 0          | 0          | 0          |   0.0 |  0.00
Comm    | 0.02004    | 0.21455    | 0.6477     |  39.2 | 16.26
Output  | 0          | 0          | 0          |   0.0 |  0.00
Modify  | 1.3965e-05 | 0.0018836  | 0.0040504  |   2.1 |  0.14
Other   |            | 0.1471     |            |       | 11.14

Nlocal:        2776.45 ave        3955 max           0 min
Histogram: 8 4 4 0 4 12 8 2 28 34
Nghost:        3879.01 ave        5424 max         232 min
Histogram: 8 0 8 0 16 0 8 8 16 40
Neighs:        79213.5 ave      115269 max           0 min
Histogram: 8 4 4 0 10 6 8 8 24 32

Total # of neighbors = 8238201
Ave neighs/atom = 28.530467
Neighbor list builds = 0
Dangerous builds = 0
The dot product: 1.92631293714455e-08
Setting atom values ...
  1 settings made for x
  1 settings made for y
  1 settings made for z
Setting up cg style minimization ...
  Unit style    : metal
  Current step  : 1142
Per MPI rank memory allocation (min/avg/max) = 5.441 | 5.816 | 6.074 Mbytes
Step PotEng KinEng TotEng v_fx v_fy v_fz 
    1142   -1152449.4            0   -1152449.4  0.034479787 -0.030400609 -0.039432428 
    1266   -1152449.4            0   -1152449.4 -2.2396808e-05 1.8874546e-05 -1.0350695e-05 
Loop time of 1.42469 on 104 procs for 124 steps with 288751 atoms

99.9% CPU use with 104 MPI tasks x 1 OpenMP threads

Minimization stats:
  Stopping criterion = energy tolerance
  Energy initial, next-to-last, final = 
     -1152449.39393793  -1152449.39533376  -1152449.39533376
  Force two-norm initial, final = 0.17556519 0.00015580732
  Force max component initial, final = 0.076072095 3.6415957e-05
  Final line search alpha, max atom move = 1.0000000 3.6415957e-05
  Iterations, force evaluations = 124 248

MPI task timing breakdown:
Section |  min time  |  avg time  |  max time  |%varavg| %total
---------------------------------------------------------------
Pair    | 0.37402    | 1.0434     | 1.3505     |  27.5 | 73.24
Neigh   | 0          | 0          | 0          |   0.0 |  0.00
Comm    | 0.024575   | 0.23204    | 0.71056    |  41.4 | 16.29
Output  | 0          | 0          | 0          |   0.0 |  0.00
Modify  | 1.4961e-05 | 0.0020453  | 0.004433   |   2.1 |  0.14
Other   |            | 0.1472     |            |       | 10.33

Nlocal:        2776.45 ave        3953 max           0 min
Histogram: 8 4 4 0 4 12 8 2 28 34
Nghost:        3879.01 ave        5424 max         232 min
Histogram: 8 0 8 0 16 0 8 8 16 40
Neighs:        79213.4 ave      115200 max           0 min
Histogram: 8 4 4 0 10 6 8 8 24 32

Total # of neighbors = 8238197
Ave neighs/atom = 28.530454
Neighbor list builds = 0
Dangerous builds = 0
The dot product: -5.56914405224297e-08
Setting atom values ...
  1 settings made for x
  1 settings made for y
  1 settings made for z
Setting up cg style minimization ...
  Unit style    : metal
  Current step  : 1266
Per MPI rank memory allocation (min/avg/max) = 5.441 | 5.816 | 6.074 Mbytes
Step PotEng KinEng TotEng v_fx v_fy v_fz 
    1266   -1152449.4            0   -1152449.4  0.043167062 -0.035599665 -0.048416446 
    1411   -1152449.4            0   -1152449.4 1.7801254e-05 -1.465967e-05 3.003464e-05 
Loop time of 1.68541 on 104 procs for 145 steps with 288751 atoms

99.9% CPU use with 104 MPI tasks x 1 OpenMP threads

Minimization stats:
  Stopping criterion = energy tolerance
  Energy initial, next-to-last, final = 
     -1152449.38029028  -1152449.38176752  -1152449.38176752
  Force two-norm initial, final = 0.17863407 0.00017900985
  Force max component initial, final = 0.077671197 3.0034640e-05
  Final line search alpha, max atom move = 1.0000000 3.0034640e-05
  Iterations, force evaluations = 145 290

MPI task timing breakdown:
Section |  min time  |  avg time  |  max time  |%varavg| %total
---------------------------------------------------------------
Pair    | 0.43824    | 1.2188     | 1.5822     |  29.8 | 72.31
Neigh   | 0          | 0          | 0          |   0.0 |  0.00
Comm    | 0.025103   | 0.27478    | 0.82967    |  44.4 | 16.30
Output  | 0          | 0          | 0          |   0.0 |  0.00
Modify  | 1.7154e-05 | 0.0023954  | 0.0051195  |   2.3 |  0.14
Other   |            | 0.1895     |            |       | 11.24

Nlocal:        2776.45 ave        3951 max           0 min
Histogram: 8 4 4 0 4 12 8 2 28 34
Nghost:        3879.01 ave        5424 max         232 min
Histogram: 8 0 8 0 16 0 8 8 16 40
Neighs:        79213.4 ave      115125 max           0 min
Histogram: 8 4 4 0 10 6 8 8 24 32

Total # of neighbors = 8238198
Ave neighs/atom = 28.530457
Neighbor list builds = 0
Dangerous builds = 0
The dot product: -3.29956182853339e-08
Setting atom values ...
  1 settings made for x
  1 settings made for y
  1 settings made for z
Setting up cg style minimization ...
  Unit style    : metal
  Current step  : 1411
Per MPI rank memory allocation (min/avg/max) = 5.441 | 5.816 | 6.074 Mbytes
Step PotEng KinEng TotEng v_fx v_fy v_fz 
    1411   -1152449.4            0   -1152449.4  0.061489189 -0.044533595 -0.067831967 
    1680   -1152449.4            0   -1152449.4 -5.063845e-07 4.6301165e-07 -1.8522328e-06 
Loop time of 3.11048 on 104 procs for 269 steps with 288751 atoms

99.9% CPU use with 104 MPI tasks x 1 OpenMP threads

Minimization stats:
  Stopping criterion = energy tolerance
  Energy initial, next-to-last, final = 
      -1152449.3655923  -1152449.36855062  -1152449.36855062
  Force two-norm initial, final = 0.18962584 8.4444558e-06
  Force max component initial, final = 0.079677763 1.8522328e-06
  Final line search alpha, max atom move = 1.0000000 1.8522328e-06
  Iterations, force evaluations = 269 538

MPI task timing breakdown:
Section |  min time  |  avg time  |  max time  |%varavg| %total
---------------------------------------------------------------
Pair    | 0.81801    | 2.2603     | 2.9448     |  40.4 | 72.67
Neigh   | 0          | 0          | 0          |   0.0 |  0.00
Comm    | 0.05155    | 0.50759    | 1.5284     |  60.4 | 16.32
Output  | 0          | 0          | 0          |   0.0 |  0.00
Modify  | 3.1544e-05 | 0.0044248  | 0.0094293  |   3.2 |  0.14
Other   |            | 0.3382     |            |       | 10.87

Nlocal:        2776.45 ave        3947 max           0 min
Histogram: 8 4 4 0 4 12 8 2 26 36
Nghost:        3879.05 ave        5424 max         232 min
Histogram: 8 0 8 0 16 0 8 8 16 40
Neighs:        79213.4 ave      114999 max           0 min
Histogram: 8 4 4 0 10 6 8 8 24 32

Total # of neighbors = 8238194
Ave neighs/atom = 28.530443
Neighbor list builds = 0
Dangerous builds = 0
The dot product: 3.49143271566762e-08
Setting atom values ...
  1 settings made for x
  1 settings made for y
  1 settings made for z
Setting up cg style minimization ...
  Unit style    : metal
  Current step  : 1680
Per MPI rank memory allocation (min/avg/max) = 5.441 | 5.816 | 6.074 Mbytes
Step PotEng KinEng TotEng v_fx v_fy v_fz 
    1680   -1152449.4            0   -1152449.4   0.15859689 -0.054486171  -0.12927515 
    1903   -1152449.4            0   -1152449.4 1.5083354e-05 -4.8680358e-06 -1.3801861e-05 
Loop time of 2.57926 on 104 procs for 223 steps with 288751 atoms

99.9% CPU use with 104 MPI tasks x 1 OpenMP threads

Minimization stats:
  Stopping criterion = energy tolerance
  Energy initial, next-to-last, final = 
     -1152449.35469992  -1152449.36172809  -1152449.36172809
  Force two-norm initial, final = 0.25799906 7.3734862e-05
  Force max component initial, final = 0.15859689 1.5884176e-05
  Final line search alpha, max atom move = 1.0000000 1.5884176e-05
  Iterations, force evaluations = 223 446

MPI task timing breakdown:
Section |  min time  |  avg time  |  max time  |%varavg| %total
---------------------------------------------------------------
Pair    | 0.68091    | 1.8664     | 2.4262     |  36.7 | 72.36
Neigh   | 1.0102e-05 | 0.0029663  | 0.0043302  |   2.2 |  0.12
Comm    | 0.042734   | 0.41762    | 1.2557     |  54.6 | 16.19
Output  | 0          | 0          | 0          |   0.0 |  0.00
Modify  | 2.7378e-05 | 0.0036714  | 0.0078387  |   2.9 |  0.14
Other   |            | 0.2886     |            |       | 11.19

Nlocal:        2776.45 ave        3951 max           0 min
Histogram: 8 4 4 0 4 12 8 2 28 34
Nghost:        3879.01 ave        5424 max         232 min
Histogram: 8 0 8 0 16 0 8 8 16 40
Neighs:        79213.4 ave      115124 max           0 min
Histogram: 8 4 4 0 10 6 8 8 24 32

Total # of neighbors = 8238197
Ave neighs/atom = 28.530454
Neighbor list builds = 1
Dangerous builds = 0
The dot product: 1.21212010823311e-06
Setting atom values ...
  1 settings made for x
  1 settings made for y
  1 settings made for z
Setting up cg style minimization ...
  Unit style    : metal
  Current step  : 1903
Per MPI rank memory allocation (min/avg/max) = 5.441 | 5.816 | 6.074 Mbytes
Step PotEng KinEng TotEng v_fx v_fy v_fz 
    1903   -1152449.3            0   -1152449.3    0.1425668 -0.013191005 -0.076784866 
    2000   -1152449.4            0   -1152449.4 0.00017237582 -3.3769034e-05 -3.9812182e-05 
    2098   -1152449.4            0   -1152449.4 -9.8790975e-06 9.4905946e-06 -2.020073e-05 
Loop time of 2.25993 on 104 procs for 195 steps with 288751 atoms

99.9% CPU use with 104 MPI tasks x 1 OpenMP threads

Minimization stats:
  Stopping criterion = energy tolerance
  Energy initial, next-to-last, final = 
     -1152449.34986406  -1152449.35366777  -1152449.35366777
  Force two-norm initial, final = 0.21255125 0.00015196916
  Force max component initial, final = 0.1425668 2.9887265e-05
  Final line search alpha, max atom move = 1.0000000 2.9887265e-05
  Iterations, force evaluations = 195 390

MPI task timing breakdown:
Section |  min time  |  avg time  |  max time  |%varavg| %total
---------------------------------------------------------------
Pair    | 0.58986    | 1.6367     | 2.1287     |  34.4 | 72.42
Neigh   | 0          | 0          | 0          |   0.0 |  0.00
Comm    | 0.038728   | 0.36669    | 1.1166     |  51.3 | 16.23
Output  | 8.9815e-05 | 9.8914e-05 | 0.00022112 |   0.0 |  0.00
Modify  | 2.3449e-05 | 0.0032165  | 0.0068716  |   2.7 |  0.14
Other   |            | 0.2532     |            |       | 11.20

Nlocal:        2776.45 ave        3951 max           0 min
Histogram: 8 4 4 0 4 12 8 2 28 34
Nghost:        3879.01 ave        5424 max         232 min
Histogram: 8 0 8 0 16 0 8 8 16 40
Neighs:        79213.5 ave      115138 max           0 min
Histogram: 8 4 4 0 10 6 8 8 24 32

Total # of neighbors = 8238202
Ave neighs/atom = 28.530471
Neighbor list builds = 0
Dangerous builds = 0
The dot product: -3.20592641501515e-09
Setting atom values ...
  1 settings made for x
  1 settings made for y
  1 settings made for z
Setting up cg style minimization ...
  Unit style    : metal
  Current step  : 2098
Per MPI rank memory allocation (min/avg/max) = 5.441 | 5.816 | 6.074 Mbytes
Step PotEng KinEng TotEng v_fx v_fy v_fz 
    2098   -1152449.3            0   -1152449.3  0.079153368 0.0034346119  -0.03695676 
    2218   -1152449.3            0   -1152449.3 -6.8318693e-05 -1.1216529e-05 5.2567843e-05 
Loop time of 1.38484 on 104 procs for 120 steps with 288751 atoms

99.9% CPU use with 104 MPI tasks x 1 OpenMP threads

Minimization stats:
  Stopping criterion = energy tolerance
  Energy initial, next-to-last, final = 
     -1152449.34239074  -1152449.34472676  -1152449.34472676
  Force two-norm initial, final = 0.16273098 0.00023040327
  Force max component initial, final = 0.079396039 6.8318693e-05
  Final line search alpha, max atom move = 1.0000000 6.8318693e-05
  Iterations, force evaluations = 120 240

MPI task timing breakdown:
Section |  min time  |  avg time  |  max time  |%varavg| %total
---------------------------------------------------------------
Pair    | 0.36154    | 1.0069     | 1.3073     |  27.0 | 72.71
Neigh   | 0          | 0          | 0          |   0.0 |  0.00
Comm    | 0.021836   | 0.22489    | 0.67797    |  40.5 | 16.24
Output  | 0          | 0          | 0          |   0.0 |  0.00
Modify  | 1.4504e-05 | 0.0019783  | 0.0042617  |   2.1 |  0.14
Other   |            | 0.151      |            |       | 10.91

Nlocal:        2776.45 ave        3951 max           0 min
Histogram: 8 4 4 0 4 12 8 0 30 34
Nghost:        3879.05 ave        5424 max         232 min
Histogram: 8 0 8 0 16 0 8 8 16 40
Neighs:        79213.5 ave      115130 max           0 min
Histogram: 8 4 4 0 10 6 8 8 24 32

Total # of neighbors = 8238203
Ave neighs/atom = 28.530474
Neighbor list builds = 0
Dangerous builds = 0
The dot product: -1.87364661042696e-06
Setting atom values ...
  1 settings made for x
  1 settings made for y
  1 settings made for z
Setting up cg style minimization ...
  Unit style    : metal
  Current step  : 2218
Per MPI rank memory allocation (min/avg/max) = 5.441 | 5.816 | 6.074 Mbytes
Step PotEng KinEng TotEng v_fx v_fy v_fz 
    2218   -1152449.3            0   -1152449.3  0.036161182  0.010065518 -0.028603745 
    2453   -1152449.3            0   -1152449.3 2.3512967e-05 2.1357414e-05 -5.1471107e-05 
Loop time of 2.69454 on 104 procs for 235 steps with 288751 atoms

99.9% CPU use with 104 MPI tasks x 1 OpenMP threads

Minimization stats:
  Stopping criterion = energy tolerance
  Energy initial, next-to-last, final = 
     -1152449.33518158  -1152449.34516501  -1152449.34516501
  Force two-norm initial, final = 0.15178246 0.00018486105
  Force max component initial, final = 0.074108935 5.1471107e-05
  Final line search alpha, max atom move = 1.0000000 5.1471107e-05
  Iterations, force evaluations = 235 470

MPI task timing breakdown:
Section |  min time  |  avg time  |  max time  |%varavg| %total
---------------------------------------------------------------
Pair    | 0.71293    | 1.9714     | 2.5495     |  37.7 | 73.16
Neigh   | 1.0153e-05 | 0.0029666  | 0.0043002  |   2.2 |  0.11
Comm    | 0.046409   | 0.43874    | 1.3455     |  56.7 | 16.28
Output  | 0          | 0          | 0          |   0.0 |  0.00
Modify  | 2.7811e-05 | 0.003866   | 0.0082807  |   2.9 |  0.14
Other   |            | 0.2776     |            |       | 10.30

Nlocal:        2776.45 ave        3954 max           0 min
Histogram: 8 4 4 0 4 12 8 0 30 34
Nghost:        3879.05 ave        5424 max         232 min
Histogram: 8 0 8 0 16 0 8 8 16 40
Neighs:        79213.5 ave      115236 max           0 min
Histogram: 8 4 4 0 10 6 8 8 24 32

Total # of neighbors = 8238202
Ave neighs/atom = 28.530471
Neighbor list builds = 1
Dangerous builds = 0
The dot product: 2.2859483569958e-06
Setting atom values ...
  1 settings made for x
  1 settings made for y
  1 settings made for z
Setting up cg style minimization ...
  Unit style    : metal
  Current step  : 2453
Per MPI rank memory allocation (min/avg/max) = 5.441 | 5.816 | 6.074 Mbytes
Step PotEng KinEng TotEng v_fx v_fy v_fz 
    2453   -1152449.3            0   -1152449.3 -0.004953777 -0.021798168  0.036461945 
    2573   -1152449.3            0   -1152449.3 -2.2390195e-05 1.721279e-07 1.5508606e-06 
Loop time of 1.38514 on 104 procs for 120 steps with 288751 atoms

99.9% CPU use with 104 MPI tasks x 1 OpenMP threads

Minimization stats:
  Stopping criterion = energy tolerance
  Energy initial, next-to-last, final = 
     -1152449.34736081  -1152449.34836144  -1152449.34836144
  Force two-norm initial, final = 0.13176913 7.8720982e-05
  Force max component initial, final = 0.052510184 2.2390195e-05
  Final line search alpha, max atom move = 1.0000000 2.2390195e-05
  Iterations, force evaluations = 120 240

MPI task timing breakdown:
Section |  min time  |  avg time  |  max time  |%varavg| %total
---------------------------------------------------------------
Pair    | 0.36257    | 1.0049     | 1.3129     |  27.1 | 72.55
Neigh   | 0          | 0          | 0          |   0.0 |  0.00
Comm    | 0.022649   | 0.2246     | 0.67948    |  40.3 | 16.22
Output  | 0          | 0          | 0          |   0.0 |  0.00
Modify  | 1.4566e-05 | 0.001977   | 0.0042117  |   2.1 |  0.14
Other   |            | 0.1537     |            |       | 11.10

Nlocal:        2776.45 ave        3961 max           0 min
Histogram: 8 4 4 0 6 10 8 2 28 34
Nghost:        3879.01 ave        5425 max         232 min
Histogram: 8 0 8 0 16 0 8 8 16 40
Neighs:        79213.4 ave      115455 max           0 min
Histogram: 8 4 4 0 10 6 8 8 24 32

Total # of neighbors = 8238191
Ave neighs/atom = 28.530433
Neighbor list builds = 0
Dangerous builds = 0
The dot product: 2.53413461517056e-08
Setting atom values ...
  1 settings made for x
  1 settings made for y
  1 settings made for z
Setting up cg style minimization ...
  Unit style    : metal
  Current step  : 2573
Per MPI rank memory allocation (min/avg/max) = 5.441 | 5.816 | 6.074 Mbytes
Step PotEng KinEng TotEng v_fx v_fy v_fz 
    2573   -1152449.3            0   -1152449.3 0.00084412276 -0.010942974  0.018505089 
    2769   -1152449.4            0   -1152449.4 -7.7671604e-06 -4.8399263e-06 8.9095467e-06 
Loop time of 2.29733 on 104 procs for 196 steps with 288751 atoms

99.9% CPU use with 104 MPI tasks x 1 OpenMP threads

Minimization stats:
  Stopping criterion = energy tolerance
  Energy initial, next-to-last, final = 
     -1152449.34965394  -1152449.35055855  -1152449.35055855
  Force two-norm initial, final = 0.12504759 7.3621824e-05
  Force max component initial, final = 0.052992126 8.9095467e-06
  Final line search alpha, max atom move = 1.0000000 8.9095467e-06
  Iterations, force evaluations = 196 392

MPI task timing breakdown:
Section |  min time  |  avg time  |  max time  |%varavg| %total
---------------------------------------------------------------
Pair    | 0.59472    | 1.6514     | 2.1508     |  34.6 | 71.89
Neigh   | 0          | 0          | 0          |   0.0 |  0.00
Comm    | 0.043304   | 0.37328    | 1.1218     |  51.0 | 16.25
Output  | 0          | 0          | 0          |   0.0 |  0.00
Modify  | 2.342e-05  | 0.0032265  | 0.0069003  |   2.7 |  0.14
Other   |            | 0.2694     |            |       | 11.73

Nlocal:        2776.45 ave        3961 max           0 min
Histogram: 8 4 4 0 6 10 8 2 28 34
Nghost:        3879.01 ave        5425 max         232 min
Histogram: 8 0 8 0 16 0 8 8 16 40
Neighs:        79213.4 ave      115455 max           0 min
Histogram: 8 4 4 0 10 6 8 8 24 32

Total # of neighbors = 8238193
Ave neighs/atom = 28.530440
Neighbor list builds = 0
Dangerous builds = 0
The dot product: -2.07585477909436e-11
Setting up cg style minimization ...
  Unit style    : metal
  Current step  : 2769
Per MPI rank memory allocation (min/avg/max) = 5.441 | 5.816 | 6.074 Mbytes
Step PotEng KinEng TotEng v_fx v_fy v_fz 
    2769   -1152449.4            0   -1152449.4 -0.0036438249 -0.069325041 -0.040817692 
    2954   -1152449.4            0   -1152449.4 -1.0163217e-05 -6.5357874e-06 9.3793683e-06 
Loop time of 2.16054 on 104 procs for 185 steps with 288751 atoms

99.9% CPU use with 104 MPI tasks x 1 OpenMP threads

Minimization stats:
  Stopping criterion = energy tolerance
  Energy initial, next-to-last, final = 
     -1152449.35055855  -1152449.35157346  -1152449.35157346
  Force two-norm initial, final = 0.080531534 0.00012070336
  Force max component initial, final = 0.069325041 3.0068200e-05
  Final line search alpha, max atom move = 1.0000000 3.0068200e-05
  Iterations, force evaluations = 185 370

MPI task timing breakdown:
Section |  min time  |  avg time  |  max time  |%varavg| %total
---------------------------------------------------------------
Pair    | 0.55749    | 1.5502     | 2.0248     |  33.7 | 71.75
Neigh   | 0          | 0          | 0          |   0.0 |  0.00
Comm    | 0.037342   | 0.35155    | 1.0506     |  49.9 | 16.27
Output  | 0          | 0          | 0          |   0.0 |  0.00
Modify  | 2.1925e-05 | 0.0019867  | 0.0051103  |   2.8 |  0.09
Other   |            | 0.2568     |            |       | 11.89

Nlocal:        2776.45 ave        3961 max           0 min
Histogram: 8 4 4 0 6 10 8 2 28 34
Nghost:        3879.01 ave        5428 max         232 min
Histogram: 8 0 8 0 16 0 8 8 16 40
Neighs:        79213.4 ave      115455 max           0 min
Histogram: 8 4 4 0 10 6 8 8 24 32

Total # of neighbors = 8238193
Ave neighs/atom = 28.530440
Neighbor list builds = 0
Dangerous builds = 0
OMP_NUM_THREADS environment is not set. Defaulting to 1 thread. (../comm.cpp:94)
  using 1 OpenMP thread(s) per MPI task
Reading data file ...
  orthogonal box = (-122.39241 -121.13707 -37.090501) to (122.39241 121.13707 37.090501)
  13 by 4 by 2 MPI processor grid
  reading atoms ...
  288751 atoms
  read_data CPU = 0.341 seconds
199981 atoms in group inner
88770 atoms in group outer
1 atoms in group carbon
Neighbor list info ...
  update every 1 steps, delay 0 steps, check yes
  max neighbors/atom: 2000, page size: 100000
  master list distance cutoff = 5.6
  ghost atom cutoff = 5.6
  binsize = 2.8, bins = 88 87 27
  1 neighbor lists, perpetual/occasional/extra = 1 0 0
  (1) pair eam/alloy, perpetual
      attributes: half, newton on
      pair build: half/bin/atomonly/newton
      stencil: half/bin/3d/newton
      bin: standard
Setting up cg style minimization ...
  Unit style    : metal
  Current step  : 0
Per MPI rank memory allocation (min/avg/max) = 5.441 | 5.816 | 6.074 Mbytes
Step v_fx v_fy v_fz PotEng KinEng TotEng 
       0   -1.7270216  -0.78039122    2.5837193   -1152447.8            0   -1152447.8 
     173 4.5988645e-06 -4.6820803e-07 7.4129614e-06   -1152449.5            0   -1152449.5 
Loop time of 2.01708 on 104 procs for 173 steps with 288751 atoms

99.9% CPU use with 104 MPI tasks x 1 OpenMP threads

Minimization stats:
  Stopping criterion = energy tolerance
  Energy initial, next-to-last, final = 
     -1152447.77762783  -1152449.45035286  -1152449.45035286
  Force two-norm initial, final = 10.207309 5.7036830e-05
  Force max component initial, final = 6.2197172 8.4941248e-06
  Final line search alpha, max atom move = 1.0000000 8.4941248e-06
  Iterations, force evaluations = 173 345

MPI task timing breakdown:
Section |  min time  |  avg time  |  max time  |%varavg| %total
---------------------------------------------------------------
Pair    | 0.53441    | 1.4588     | 1.8911     |  32.4 | 72.32
Neigh   | 3.018e-05  | 0.0088891  | 0.012861   |   3.9 |  0.44
Comm    | 0.033959   | 0.33117    | 1.0016     |  48.6 | 16.42
Output  | 0          | 0          | 0          |   0.0 |  0.00
Modify  | 1.9968e-05 | 0.0018493  | 0.0047309  |   2.7 |  0.09
Other   |            | 0.2164     |            |       | 10.73

Nlocal:        2776.45 ave        3960 max           0 min
Histogram: 8 4 4 0 4 12 8 2 28 34
Nghost:        3879.01 ave        5424 max         232 min
Histogram: 8 0 8 0 16 0 8 8 16 40
Neighs:        79213.5 ave      115433 max           0 min
Histogram: 8 4 4 0 10 6 8 8 24 32

Total # of neighbors = 8238206
Ave neighs/atom = 28.530485
Neighbor list builds = 3
Dangerous builds = 0
Setting atom values ...
  1 settings made for x
  1 settings made for y
  1 settings made for z
Setting up cg style minimization ...
  Unit style    : metal
  Current step  : 173
Per MPI rank memory allocation (min/avg/max) = 5.441 | 5.816 | 6.074 Mbytes
Step PotEng KinEng TotEng v_fx v_fy v_fz 
     173   -1152449.4            0   -1152449.4 -0.021455732 -0.022519593  0.018311486 
     293   -1152449.4            0   -1152449.4 -1.0259799e-05 -1.033809e-05 5.7186761e-05 
Loop time of 1.38646 on 104 procs for 120 steps with 288751 atoms

99.9% CPU use with 104 MPI tasks x 1 OpenMP threads

Minimization stats:
  Stopping criterion = energy tolerance
  Energy initial, next-to-last, final = 
     -1152449.44758662  -1152449.44932393  -1152449.44932393
  Force two-norm initial, final = 0.19158641 0.00015541612
  Force max component initial, final = 0.076669915 5.7186761e-05
  Final line search alpha, max atom move = 1.0000000 5.7186761e-05
  Iterations, force evaluations = 120 240

MPI task timing breakdown:
Section |  min time  |  avg time  |  max time  |%varavg| %total
---------------------------------------------------------------
Pair    | 0.36329    | 1.0056     | 1.315      |  27.2 | 72.53
Neigh   | 0          | 0          | 0          |   0.0 |  0.00
Comm    | 0.022498   | 0.22504    | 0.682      |  40.2 | 16.23
Output  | 0          | 0          | 0          |   0.0 |  0.00
Modify  | 1.5668e-05 | 0.001978   | 0.0043011  |   2.1 |  0.14
Other   |            | 0.1538     |            |       | 11.10

Nlocal:        2776.45 ave        3961 max           0 min
Histogram: 8 4 4 0 6 10 8 2 28 34
Nghost:        3879.01 ave        5424 max         232 min
Histogram: 8 0 8 0 16 0 8 8 16 40
Neighs:        79213.4 ave      115456 max           0 min
Histogram: 8 4 4 0 10 6 8 8 24 32

Total # of neighbors = 8238197
Ave neighs/atom = 28.530454
Neighbor list builds = 0
Dangerous builds = 0
Setting atom values ...
  1 settings made for x
  1 settings made for y
  1 settings made for z
Setting up cg style minimization ...
  Unit style    : metal
  Current step  : 293
Per MPI rank memory allocation (min/avg/max) = 5.441 | 5.816 | 6.074 Mbytes
Step PotEng KinEng TotEng v_fx v_fy v_fz 
     293   -1152449.4            0   -1152449.4 -0.019113949 -0.019439972  0.015035369 
     427   -1152449.4            0   -1152449.4 -3.6916875e-06 -3.1954053e-06 1.1166363e-05 
Loop time of 1.54749 on 104 procs for 134 steps with 288751 atoms

99.9% CPU use with 104 MPI tasks x 1 OpenMP threads

Minimization stats:
  Stopping criterion = energy tolerance
  Energy initial, next-to-last, final = 
      -1152449.4452509    -1152449.446692    -1152449.446692
  Force two-norm initial, final = 0.17609532 8.7977713e-05
  Force max component initial, final = 0.069438757 1.1166363e-05
  Final line search alpha, max atom move = 1.0000000 1.1166363e-05
  Iterations, force evaluations = 134 268

MPI task timing breakdown:
Section |  min time  |  avg time  |  max time  |%varavg| %total
---------------------------------------------------------------
Pair    | 0.40637    | 1.1287     | 1.4664     |  28.8 | 72.94
Neigh   | 0          | 0          | 0          |   0.0 |  0.00
Comm    | 0.025405   | 0.25401    | 0.77548    |  43.1 | 16.41
Output  | 0          | 0          | 0          |   0.0 |  0.00
Modify  | 1.7115e-05 | 0.0022072  | 0.0047183  |   2.2 |  0.14
Other   |            | 0.1626     |            |       | 10.51

Nlocal:        2776.45 ave        3960 max           0 min
Histogram: 8 4 4 0 4 12 8 2 28 34
Nghost:        3879.01 ave        5424 max         232 min
Histogram: 8 0 8 0 16 0 8 8 16 40
Neighs:        79213.4 ave      115413 max           0 min
Histogram: 8 4 4 0 10 6 8 8 24 32

Total # of neighbors = 8238197
Ave neighs/atom = 28.530454
Neighbor list builds = 0
Dangerous builds = 0
The dot product: 1.18224470886871e-08
Setting atom values ...
  1 settings made for x
  1 settings made for y
  1 settings made for z
Setting up cg style minimization ...
  Unit style    : metal
  Current step  : 427
Per MPI rank memory allocation (min/avg/max) = 5.441 | 5.816 | 6.074 Mbytes
Step PotEng KinEng TotEng v_fx v_fy v_fz 
     427   -1152449.4            0   -1152449.4 -0.018223065 -0.018605069  0.011455221 
     587   -1152449.4            0   -1152449.4 -2.9255299e-06 1.382327e-06 4.069196e-05 
Loop time of 1.8532 on 104 procs for 160 steps with 288751 atoms

99.9% CPU use with 104 MPI tasks x 1 OpenMP threads

Minimization stats:
  Stopping criterion = energy tolerance
  Energy initial, next-to-last, final = 
     -1152449.44126128  -1152449.44269841  -1152449.44269841
  Force two-norm initial, final = 0.17582455 0.00015435165
  Force max component initial, final = 0.067615795 4.0691960e-05
  Final line search alpha, max atom move = 1.0000000 4.0691960e-05
  Iterations, force evaluations = 160 320

MPI task timing breakdown:
Section |  min time  |  avg time  |  max time  |%varavg| %total
---------------------------------------------------------------
Pair    | 0.48698    | 1.3422     | 1.7592     |  31.3 | 72.43
Neigh   | 0          | 0          | 0          |   0.0 |  0.00
Comm    | 0.028748   | 0.30062    | 0.90869    |  46.3 | 16.22
Output  | 0          | 0          | 0          |   0.0 |  0.00
Modify  | 2.0222e-05 | 0.0026356  | 0.0057076  |   2.4 |  0.14
Other   |            | 0.2078     |            |       | 11.21

Nlocal:        2776.45 ave        3960 max           0 min
Histogram: 8 4 4 0 4 12 8 2 28 34
Nghost:        3879.01 ave        5424 max         232 min
Histogram: 8 0 8 0 16 0 8 8 16 40
Neighs:        79213.4 ave      115413 max           0 min
Histogram: 8 4 4 0 10 6 8 8 24 32

Total # of neighbors = 8238195
Ave neighs/atom = 28.530447
Neighbor list builds = 0
Dangerous builds = 0
The dot product: 4.80027585405946e-08
Setting atom values ...
  1 settings made for x
  1 settings made for y
  1 settings made for z
Setting up cg style minimization ...
  Unit style    : metal
  Current step  : 587
Per MPI rank memory allocation (min/avg/max) = 5.441 | 5.816 | 6.074 Mbytes
Step PotEng KinEng TotEng v_fx v_fy v_fz 
     587   -1152449.4            0   -1152449.4 -0.017681255 -0.018492105  0.008772104 
     768   -1152449.4            0   -1152449.4 -3.975277e-07 9.2974413e-08 3.7534001e-06 
Loop time of 2.16092 on 104 procs for 181 steps with 288751 atoms

99.8% CPU use with 104 MPI tasks x 1 OpenMP threads

Minimization stats:
  Stopping criterion = energy tolerance
  Energy initial, next-to-last, final = 
     -1152449.43593084  -1152449.43736607  -1152449.43736607
  Force two-norm initial, final = 0.17532599 8.5351638e-05
  Force max component initial, final = 0.065682132 1.6317432e-05
  Final line search alpha, max atom move = 1.0000000 1.6317432e-05
  Iterations, force evaluations = 181 362

MPI task timing breakdown:
Section |  min time  |  avg time  |  max time  |%varavg| %total
---------------------------------------------------------------
Pair    | 0.55393    | 1.5278     | 1.9856     |  33.4 | 70.70
Neigh   | 0          | 0          | 0          |   0.0 |  0.00
Comm    | 0.0437     | 0.35276    | 1.0471     |  48.9 | 16.32
Output  | 0          | 0          | 0          |   0.0 |  0.00
Modify  | 2.3098e-05 | 0.0029826  | 0.0063841  |   2.6 |  0.14
Other   |            | 0.2773     |            |       | 12.83

Nlocal:        2776.45 ave        3959 max           0 min
Histogram: 8 4 4 0 4 12 8 2 28 34
Nghost:        3879.01 ave        5424 max         232 min
Histogram: 8 0 8 0 16 0 8 8 16 40
Neighs:        79213.4 ave      115391 max           0 min
Histogram: 8 4 4 0 10 6 8 8 24 32

Total # of neighbors = 8238196
Ave neighs/atom = 28.530450
Neighbor list builds = 0
Dangerous builds = 0
The dot product: 3.81693903664167e-09
Setting atom values ...
  1 settings made for x
  1 settings made for y
  1 settings made for z
Setting up cg style minimization ...
  Unit style    : metal
  Current step  : 768
Per MPI rank memory allocation (min/avg/max) = 5.441 | 5.816 | 6.074 Mbytes
Step PotEng KinEng TotEng v_fx v_fy v_fz 
     768   -1152449.4            0   -1152449.4 -0.017538263 -0.018917148 0.0065573109 
     892   -1152449.4            0   -1152449.4 -1.5729636e-05 -1.2415603e-05 3.3543771e-05 
Loop time of 1.43992 on 104 procs for 124 steps with 288751 atoms

99.9% CPU use with 104 MPI tasks x 1 OpenMP threads

Minimization stats:
  Stopping criterion = energy tolerance
  Energy initial, next-to-last, final = 
     -1152449.42921422  -1152449.43064919  -1152449.43064919
  Force two-norm initial, final = 0.17502247 0.00016715943
  Force max component initial, final = 0.063870455 4.0090651e-05
  Final line search alpha, max atom move = 1.0000000 4.0090651e-05
  Iterations, force evaluations = 124 248

MPI task timing breakdown:
Section |  min time  |  avg time  |  max time  |%varavg| %total
---------------------------------------------------------------
Pair    | 0.37695    | 1.0409     | 1.3616     |  27.5 | 72.29
Neigh   | 0          | 0          | 0          |   0.0 |  0.00
Comm    | 0.02383    | 0.23265    | 0.70877    |  40.9 | 16.16
Output  | 0          | 0          | 0          |   0.0 |  0.00
Modify  | 1.5915e-05 | 0.0020369  | 0.0043731  |   2.1 |  0.14
Other   |            | 0.1643     |            |       | 11.41

Nlocal:        2776.45 ave        3959 max           0 min
Histogram: 8 4 4 0 4 12 8 2 28 34
Nghost:        3879.01 ave        5424 max         232 min
Histogram: 8 0 8 0 16 0 8 8 16 40
Neighs:        79213.4 ave      115391 max           0 min
Histogram: 8 4 4 0 10 6 8 8 24 32

Total # of neighbors = 8238198
Ave neighs/atom = 28.530457
Neighbor list builds = 0
Dangerous builds = 0
The dot product: 1.40423923602617e-08
Setting atom values ...
  1 settings made for x
  1 settings made for y
  1 settings made for z
Setting up cg style minimization ...
  Unit style    : metal
  Current step  : 892
Per MPI rank memory allocation (min/avg/max) = 5.441 | 5.816 | 6.074 Mbytes
Step PotEng KinEng TotEng v_fx v_fy v_fz 
     892   -1152449.4            0   -1152449.4 -0.017712551 -0.019663291 0.0048598705 
    1000   -1152449.4            0   -1152449.4 2.5991885e-06 1.2760658e-05 5.4168073e-05 
    1008   -1152449.4            0   -1152449.4 -4.2484452e-06 -4.8449293e-06 4.5103413e-07 
Loop time of 1.33677 on 104 procs for 116 steps with 288751 atoms

99.9% CPU use with 104 MPI tasks x 1 OpenMP threads

Minimization stats:
  Stopping criterion = energy tolerance
  Energy initial, next-to-last, final = 
     -1152449.42107516   -1152449.4225104   -1152449.4225104
  Force two-norm initial, final = 0.17479934 0.00025183898
  Force max component initial, final = 0.063471328 3.5991404e-05
  Final line search alpha, max atom move = 1.0000000 3.5991404e-05
  Iterations, force evaluations = 116 232

MPI task timing breakdown:
Section |  min time  |  avg time  |  max time  |%varavg| %total
---------------------------------------------------------------
Pair    | 0.3516     | 0.97427    | 1.2673     |  26.7 | 72.88
Neigh   | 0          | 0          | 0          |   0.0 |  0.00
Comm    | 0.020404   | 0.21654    | 0.65908    |  39.9 | 16.20
Output  | 0.0001022  | 0.00010853 | 0.00022572 |   0.0 |  0.01
Modify  | 1.4898e-05 | 0.0019124  | 0.0041118  |   2.1 |  0.14
Other   |            | 0.1439     |            |       | 10.77

Nlocal:        2776.45 ave        3958 max           0 min
Histogram: 8 4 4 0 4 12 8 2 28 34
Nghost:        3879.01 ave        5424 max         232 min
Histogram: 8 0 8 0 16 0 8 8 16 40
Neighs:        79213.4 ave      115363 max           0 min
Histogram: 8 4 4 0 10 6 8 8 24 32

Total # of neighbors = 8238198
Ave neighs/atom = 28.530457
Neighbor list builds = 0
Dangerous builds = 0
The dot product: -4.66658541175142e-09
Setting atom values ...
  1 settings made for x
  1 settings made for y
  1 settings made for z
Setting up cg style minimization ...
  Unit style    : metal
  Current step  : 1008
Per MPI rank memory allocation (min/avg/max) = 5.441 | 5.816 | 6.074 Mbytes
Step PotEng KinEng TotEng v_fx v_fy v_fz 
    1008   -1152449.4            0   -1152449.4 -0.017783565   -0.0201802 0.0037055389 
    1135   -1152449.4            0   -1152449.4 1.3841122e-06 -3.1315451e-06 -2.4728745e-05 
Loop time of 1.46907 on 104 procs for 127 steps with 288751 atoms

99.9% CPU use with 104 MPI tasks x 1 OpenMP threads

Minimization stats:
  Stopping criterion = energy tolerance
  Energy initial, next-to-last, final = 
     -1152449.41148382   -1152449.4129186   -1152449.4129186
  Force two-norm initial, final = 0.17448863 0.00022626294
  Force max component initial, final = 0.064635839 2.4728745e-05
  Final line search alpha, max atom move = 1.0000000 2.4728745e-05
  Iterations, force evaluations = 127 254

MPI task timing breakdown:
Section |  min time  |  avg time  |  max time  |%varavg| %total
---------------------------------------------------------------
Pair    | 0.38504    | 1.0669     | 1.3941     |  28.0 | 72.63
Neigh   | 0          | 0          | 0          |   0.0 |  0.00
Comm    | 0.024615   | 0.23906    | 0.72511    |  41.6 | 16.27
Output  | 0          | 0          | 0          |   0.0 |  0.00
Modify  | 1.6134e-05 | 0.0020963  | 0.0044583  |   2.2 |  0.14
Other   |            | 0.161      |            |       | 10.96

Nlocal:        2776.45 ave        3958 max           0 min
Histogram: 8 4 4 0 4 12 8 2 28 34
Nghost:        3879.01 ave        5424 max         232 min
Histogram: 8 0 8 0 16 0 8 8 16 40
Neighs:        79213.5 ave      115363 max           0 min
Histogram: 8 4 4 0 10 6 8 8 24 32

Total # of neighbors = 8238201
Ave neighs/atom = 28.530467
Neighbor list builds = 0
Dangerous builds = 0
The dot product: -2.41994261707732e-08
Setting atom values ...
  1 settings made for x
  1 settings made for y
  1 settings made for z
Setting up cg style minimization ...
  Unit style    : metal
  Current step  : 1135
Per MPI rank memory allocation (min/avg/max) = 5.441 | 5.816 | 6.074 Mbytes
Step PotEng KinEng TotEng v_fx v_fy v_fz 
    1135   -1152449.4            0   -1152449.4 -0.017549633 -0.020217915 0.0030703788 
    1296   -1152449.4            0   -1152449.4 1.1392977e-05 6.1586104e-06 -3.6155362e-05 
Loop time of 1.86128 on 104 procs for 161 steps with 288751 atoms

99.9% CPU use with 104 MPI tasks x 1 OpenMP threads

Minimization stats:
  Stopping criterion = energy tolerance
  Energy initial, next-to-last, final = 
      -1152449.4004146  -1152449.40185135  -1152449.40185135
  Force two-norm initial, final = 0.17403911 0.00021374956
  Force max component initial, final = 0.065674124 4.2653370e-05
  Final line search alpha, max atom move = 1.0000000 4.2653370e-05
  Iterations, force evaluations = 161 322

MPI task timing breakdown:
Section |  min time  |  avg time  |  max time  |%varavg| %total
---------------------------------------------------------------
Pair    | 0.4896     | 1.3566     | 1.7664     |  31.6 | 72.88
Neigh   | 0          | 0          | 0          |   0.0 |  0.00
Comm    | 0.030769   | 0.30953    | 0.9442     |  47.0 | 16.63
Output  | 0          | 0          | 0          |   0.0 |  0.00
Modify  | 2.0546e-05 | 0.0026503  | 0.0057093  |   2.4 |  0.14
Other   |            | 0.1925     |            |       | 10.34

Nlocal:        2776.45 ave        3957 max           0 min
Histogram: 8 4 4 0 4 12 8 3 27 34
Nghost:        3879.01 ave        5424 max         232 min
Histogram: 8 0 8 0 16 0 8 8 16 40
Neighs:        79213.5 ave      115332 max           0 min
Histogram: 8 4 4 0 10 6 8 8 24 32

Total # of neighbors = 8238202
Ave neighs/atom = 28.530471
Neighbor list builds = 0
Dangerous builds = 0
The dot product: -3.0475890814479e-08
Setting atom values ...
  1 settings made for x
  1 settings made for y
  1 settings made for z
Setting up cg style minimization ...
  Unit style    : metal
  Current step  : 1296
Per MPI rank memory allocation (min/avg/max) = 5.441 | 5.816 | 6.074 Mbytes
Step PotEng KinEng TotEng v_fx v_fy v_fz 
    1296   -1152449.4            0   -1152449.4 -0.016753909 -0.019463929 0.0030012814 
    1438   -1152449.4            0   -1152449.4 -8.5597197e-06 -7.0054379e-06 1.5128631e-05 
Loop time of 1.63688 on 104 procs for 142 steps with 288751 atoms

99.9% CPU use with 104 MPI tasks x 1 OpenMP threads

Minimization stats:
  Stopping criterion = energy tolerance
  Energy initial, next-to-last, final = 
      -1152449.3878542  -1152449.38929628  -1152449.38929628
  Force two-norm initial, final = 0.17345879 0.00018051345
  Force max component initial, final = 0.06673591 3.4660999e-05
  Final line search alpha, max atom move = 1.0000000 3.4660999e-05
  Iterations, force evaluations = 142 284

MPI task timing breakdown:
Section |  min time  |  avg time  |  max time  |%varavg| %total
---------------------------------------------------------------
Pair    | 0.43102    | 1.1888     | 1.5521     |  29.4 | 72.62
Neigh   | 0          | 0          | 0          |   0.0 |  0.00
Comm    | 0.025976   | 0.26498    | 0.80357    |  43.8 | 16.19
Output  | 0          | 0          | 0          |   0.0 |  0.00
Modify  | 1.792e-05  | 0.0023309  | 0.0049857  |   2.3 |  0.14
Other   |            | 0.1808     |            |       | 11.05

Nlocal:        2776.45 ave        3956 max           0 min
Histogram: 8 4 4 0 4 12 8 0 30 34
Nghost:        3879.01 ave        5425 max         232 min
Histogram: 8 0 8 0 16 0 8 8 16 40
Neighs:        79213.5 ave      115303 max           0 min
Histogram: 8 4 4 0 10 6 8 8 24 32

Total # of neighbors = 8238203
Ave neighs/atom = 28.530474
Neighbor list builds = 0
Dangerous builds = 0
The dot product: 8.13649967343569e-09
Setting atom values ...
  1 settings made for x
  1 settings made for y
  1 settings made for z
Setting up cg style minimization ...
  Unit style    : metal
  Current step  : 1438
Per MPI rank memory allocation (min/avg/max) = 5.441 | 5.816 | 6.074 Mbytes
Step PotEng KinEng TotEng v_fx v_fy v_fz 
    1438   -1152449.4            0   -1152449.4 -0.015120197 -0.017583972 0.0035699888 
    1582   -1152449.4            0   -1152449.4 4.0855316e-06 -3.7690848e-06 -3.7941124e-05 
Loop time of 1.68479 on 104 procs for 144 steps with 288751 atoms

99.9% CPU use with 104 MPI tasks x 1 OpenMP threads

Minimization stats:
  Stopping criterion = energy tolerance
  Energy initial, next-to-last, final = 
     -1152449.37379639  -1152449.37525406  -1152449.37525406
  Force two-norm initial, final = 0.17282623 0.00024060686
  Force max component initial, final = 0.068000418 5.6994353e-05
  Final line search alpha, max atom move = 1.0000000 5.6994353e-05
  Iterations, force evaluations = 144 288

MPI task timing breakdown:
Section |  min time  |  avg time  |  max time  |%varavg| %total
---------------------------------------------------------------
Pair    | 0.43955    | 1.2148     | 1.5747     |  29.8 | 72.10
Neigh   | 0          | 0          | 0          |   0.0 |  0.00
Comm    | 0.029353   | 0.27684    | 0.84903    |  44.5 | 16.43
Output  | 0          | 0          | 0          |   0.0 |  0.00
Modify  | 1.8524e-05 | 0.0023751  | 0.0050545  |   2.3 |  0.14
Other   |            | 0.1908     |            |       | 11.33

Nlocal:        2776.45 ave        3954 max           0 min
Histogram: 8 4 4 0 4 12 8 0 30 34
Nghost:        3879.01 ave        5429 max         232 min
Histogram: 8 0 8 0 16 0 8 8 16 40
Neighs:        79213.5 ave      115237 max           0 min
Histogram: 8 4 4 0 10 6 8 8 24 32

Total # of neighbors = 8238204
Ave neighs/atom = 28.530478
Neighbor list builds = 0
Dangerous builds = 0
The dot product: -7.88090087199217e-08
Setting atom values ...
  1 settings made for x
  1 settings made for y
  1 settings made for z
Setting up cg style minimization ...
  Unit style    : metal
  Current step  : 1582
Per MPI rank memory allocation (min/avg/max) = 5.441 | 5.816 | 6.074 Mbytes
Step PotEng KinEng TotEng v_fx v_fy v_fz 
    1582   -1152449.4            0   -1152449.4 -0.011702163  -0.01318069 0.0055864833 
    1792   -1152449.4            0   -1152449.4 2.7096819e-06 1.220967e-06 -8.6140575e-06 
Loop time of 2.42549 on 104 procs for 210 steps with 288751 atoms

99.9% CPU use with 104 MPI tasks x 1 OpenMP threads

Minimization stats:
  Stopping criterion = energy tolerance
  Energy initial, next-to-last, final = 
     -1152449.35825147  -1152449.35976727  -1152449.35976727
  Force two-norm initial, final = 0.17209508 5.0571867e-05
  Force max component initial, final = 0.069745509 8.6140575e-06
  Final line search alpha, max atom move = 1.0000000 8.6140575e-06
  Iterations, force evaluations = 210 420

MPI task timing breakdown:
Section |  min time  |  avg time  |  max time  |%varavg| %total
---------------------------------------------------------------
Pair    | 0.63813    | 1.7587     | 2.2949     |  35.8 | 72.51
Neigh   | 0          | 0          | 0          |   0.0 |  0.00
Comm    | 0.041145   | 0.39344    | 1.1964     |  53.2 | 16.22
Output  | 0          | 0          | 0          |   0.0 |  0.00
Modify  | 2.7392e-05 | 0.0034499  | 0.0073897  |   2.8 |  0.14
Other   |            | 0.2699     |            |       | 11.13

Nlocal:        2776.45 ave        3953 max           0 min
Histogram: 8 4 4 0 4 12 8 0 30 34
Nghost:        3878.97 ave        5429 max         232 min
Histogram: 8 0 8 0 16 0 8 8 16 40
Neighs:        79213.5 ave      115201 max           0 min
Histogram: 8 4 4 0 10 6 8 8 24 32

Total # of neighbors = 8238205
Ave neighs/atom = 28.530481
Neighbor list builds = 0
Dangerous builds = 0
The dot product: -2.08846736808753e-08
Setting atom values ...
  1 settings made for x
  1 settings made for y
  1 settings made for z
Setting up cg style minimization ...
  Unit style    : metal
  Current step  : 1792
Per MPI rank memory allocation (min/avg/max) = 5.441 | 5.816 | 6.074 Mbytes
Step PotEng KinEng TotEng v_fx v_fy v_fz 
    1792   -1152449.3            0   -1152449.3 -0.002539684 0.00064860994  0.013729091 
    1987   -1152449.3            0   -1152449.3 -8.6329752e-06 -1.8552224e-06 3.2709095e-05 
Loop time of 2.27188 on 104 procs for 195 steps with 288751 atoms

99.9% CPU use with 104 MPI tasks x 1 OpenMP threads

Minimization stats:
  Stopping criterion = energy tolerance
  Energy initial, next-to-last, final = 
     -1152449.34132753   -1152449.3432331   -1152449.3432331
  Force two-norm initial, final = 0.17192215 0.00010956059
  Force max component initial, final = 0.073079702 3.2709095e-05
  Final line search alpha, max atom move = 1.0000000 3.2709095e-05
  Iterations, force evaluations = 195 390

MPI task timing breakdown:
Section |  min time  |  avg time  |  max time  |%varavg| %total
---------------------------------------------------------------
Pair    | 0.60477    | 1.6476     | 2.1316     |  34.4 | 72.52
Neigh   | 0          | 0          | 0          |   0.0 |  0.00
Comm    | 0.046058   | 0.37158    | 1.1186     |  51.4 | 16.36
Output  | 0          | 0          | 0          |   0.0 |  0.00
Modify  | 2.4162e-05 | 0.0032084  | 0.0068855  |   2.7 |  0.14
Other   |            | 0.2495     |            |       | 10.98

Nlocal:        2776.45 ave        3951 max           0 min
Histogram: 8 4 4 0 4 12 8 0 30 34
Nghost:        3878.99 ave        5429 max         232 min
Histogram: 8 0 8 0 16 0 8 8 16 40
Neighs:        79213.5 ave      115126 max           0 min
Histogram: 8 4 4 0 10 6 8 8 24 32

Total # of neighbors = 8238203
Ave neighs/atom = 28.530474
Neighbor list builds = 0
Dangerous builds = 0
The dot product: 2.36163265106749e-07
Setting atom values ...
  1 settings made for x
  1 settings made for y
  1 settings made for z
Setting up cg style minimization ...
  Unit style    : metal
  Current step  : 1987
Per MPI rank memory allocation (min/avg/max) = 5.441 | 5.816 | 6.074 Mbytes
Step PotEng KinEng TotEng v_fx v_fy v_fz 
    1987   -1152449.3            0   -1152449.3  0.011484906   0.03019677  0.033669031 
    2000   -1152449.3            0   -1152449.3 -0.00077553987 -0.00030146193 0.0021815755 
    2177   -1152449.3            0   -1152449.3 2.0174671e-05 1.8830968e-06 -7.2029371e-05 
Loop time of 2.19979 on 104 procs for 190 steps with 288751 atoms

99.9% CPU use with 104 MPI tasks x 1 OpenMP threads

Minimization stats:
  Stopping criterion = energy tolerance
  Energy initial, next-to-last, final = 
      -1152449.3236078  -1152449.32616108  -1152449.32616108
  Force two-norm initial, final = 0.17818021 0.00018146602
  Force max component initial, final = 0.079867884 7.2029371e-05
  Final line search alpha, max atom move = 1.0000000 7.2029371e-05
  Iterations, force evaluations = 190 380

MPI task timing breakdown:
Section |  min time  |  avg time  |  max time  |%varavg| %total
---------------------------------------------------------------
Pair    | 0.5758     | 1.5921     | 2.0833     |  34.1 | 72.38
Neigh   | 0          | 0          | 0          |   0.0 |  0.00
Comm    | 0.034405   | 0.35671    | 1.0779     |  50.3 | 16.22
Output  | 8.7357e-05 | 9.7357e-05 | 0.00015973 |   0.0 |  0.00
Modify  | 2.4249e-05 | 0.0031245  | 0.0066767  |   2.6 |  0.14
Other   |            | 0.2478     |            |       | 11.26

Nlocal:        2776.45 ave        3950 max           0 min
Histogram: 8 4 4 0 4 12 8 0 28 36
Nghost:        3879.07 ave        5429 max         232 min
Histogram: 8 0 8 0 16 0 8 8 16 40
Neighs:        79213.5 ave      115097 max           0 min
Histogram: 8 4 4 0 10 6 8 8 24 32

Total # of neighbors = 8238205
Ave neighs/atom = 28.530481
Neighbor list builds = 0
Dangerous builds = 0
The dot product: -8.10236912390353e-07
Setting atom values ...
  1 settings made for x
  1 settings made for y
  1 settings made for z
Setting up cg style minimization ...
  Unit style    : metal
  Current step  : 2177
Per MPI rank memory allocation (min/avg/max) = 5.441 | 5.816 | 6.074 Mbytes
Step PotEng KinEng TotEng v_fx v_fy v_fz 
    2177   -1152449.3            0   -1152449.3   0.01830707  0.058840106  0.046678198 
    2392   -1152449.3            0   -1152449.3 4.7228077e-06 1.1744889e-06 -1.2850404e-05 
Loop time of 2.49791 on 104 procs for 215 steps with 288751 atoms

99.9% CPU use with 104 MPI tasks x 1 OpenMP threads

Minimization stats:
  Stopping criterion = energy tolerance
  Energy initial, next-to-last, final = 
     -1152449.30558574  -1152449.30849375  -1152449.30849375
  Force two-norm initial, final = 0.18922241 0.00010087905
  Force max component initial, final = 0.089230113 2.0692241e-05
  Final line search alpha, max atom move = 1.0000000 2.0692241e-05
  Iterations, force evaluations = 215 430

MPI task timing breakdown:
Section |  min time  |  avg time  |  max time  |%varavg| %total
---------------------------------------------------------------
Pair    | 0.65335    | 1.8095     | 2.3608     |  36.5 | 72.44
Neigh   | 0          | 0          | 0          |   0.0 |  0.00
Comm    | 0.042626   | 0.40837    | 1.222      |  53.6 | 16.35
Output  | 0          | 0          | 0          |   0.0 |  0.00
Modify  | 2.7905e-05 | 0.0035321  | 0.007565   |   2.8 |  0.14
Other   |            | 0.2765     |            |       | 11.07

Nlocal:        2776.45 ave        3951 max           0 min
Histogram: 8 4 4 0 4 12 8 0 30 34
Nghost:        3879.09 ave        5429 max         232 min
Histogram: 8 0 8 0 16 0 8 8 16 40
Neighs:        79213.5 ave      115135 max           0 min
Histogram: 8 4 4 0 10 6 8 8 24 32

Total # of neighbors = 8238206
Ave neighs/atom = 28.530485
Neighbor list builds = 0
Dangerous builds = 0
The dot product: -1.15305890224767e-07
Setting atom values ...
  1 settings made for x
  1 settings made for y
  1 settings made for z
Setting up cg style minimization ...
  Unit style    : metal
  Current step  : 2392
Per MPI rank memory allocation (min/avg/max) = 5.441 | 5.816 | 6.074 Mbytes
Step PotEng KinEng TotEng v_fx v_fy v_fz 
    2392   -1152449.3            0   -1152449.3  0.016272713  0.068176766  0.041259804 
    2602   -1152449.3            0   -1152449.3 -8.2827628e-06 4.1237631e-06 2.8084913e-05 
Loop time of 2.431 on 104 procs for 210 steps with 288751 atoms

99.9% CPU use with 104 MPI tasks x 1 OpenMP threads

Minimization stats:
  Stopping criterion = energy tolerance
  Energy initial, next-to-last, final = 
     -1152449.28687986  -1152449.28971172  -1152449.28971172
  Force two-norm initial, final = 0.19146078 0.00012131638
  Force max component initial, final = 0.098169301 3.2857440e-05
  Final line search alpha, max atom move = 1.0000000 3.2857440e-05
  Iterations, force evaluations = 210 420

MPI task timing breakdown:
Section |  min time  |  avg time  |  max time  |%varavg| %total
---------------------------------------------------------------
Pair    | 0.63577    | 1.7595     | 2.3014     |  35.9 | 72.38
Neigh   | 0          | 0          | 0          |   0.0 |  0.00
Comm    | 0.044841   | 0.39398    | 1.1919     |  53.1 | 16.21
Output  | 0          | 0          | 0          |   0.0 |  0.00
Modify  | 2.6734e-05 | 0.0034487  | 0.0073741  |   2.8 |  0.14
Other   |            | 0.2741     |            |       | 11.27

Nlocal:        2776.45 ave        3954 max           0 min
Histogram: 8 4 4 0 4 12 8 0 30 34
Nghost:        3879.12 ave        5427 max         232 min
Histogram: 8 0 8 0 16 0 8 8 16 40
Neighs:        79213.5 ave      115236 max           0 min
Histogram: 8 4 4 0 10 6 8 8 24 32

Total # of neighbors = 8238204
Ave neighs/atom = 28.530478
Neighbor list builds = 0
Dangerous builds = 0
The dot product: 3.80639499857564e-07
Setting atom values ...
  1 settings made for x
  1 settings made for y
  1 settings made for z
Setting up cg style minimization ...
  Unit style    : metal
  Current step  : 2602
Per MPI rank memory allocation (min/avg/max) = 5.441 | 5.816 | 6.074 Mbytes
Step PotEng KinEng TotEng v_fx v_fy v_fz 
    2602   -1152449.3            0   -1152449.3  0.011379684  0.065416616  0.032244431 
    2820   -1152449.3            0   -1152449.3 -4.9697708e-06 2.8912374e-06 1.5111267e-05 
Loop time of 2.52224 on 104 procs for 218 steps with 288751 atoms

99.9% CPU use with 104 MPI tasks x 1 OpenMP threads

Minimization stats:
  Stopping criterion = energy tolerance
  Energy initial, next-to-last, final = 
      -1152449.2670459  -1152449.26971344  -1152449.26971344
  Force two-norm initial, final = 0.18851665 8.2473720e-05
  Force max component initial, final = 0.10536675 2.3124064e-05
  Final line search alpha, max atom move = 1.0000000 2.3124064e-05
  Iterations, force evaluations = 218 436

MPI task timing breakdown:
Section |  min time  |  avg time  |  max time  |%varavg| %total
---------------------------------------------------------------
Pair    | 0.66016    | 1.8331     | 2.393      |  36.8 | 72.68
Neigh   | 0          | 0          | 0          |   0.0 |  0.00
Comm    | 0.040702   | 0.41278    | 1.2544     |  54.3 | 16.37
Output  | 0          | 0          | 0          |   0.0 |  0.00
Modify  | 2.7848e-05 | 0.0035893  | 0.0076828  |   2.8 |  0.14
Other   |            | 0.2727     |            |       | 10.81

Nlocal:        2776.45 ave        3956 max           0 min
Histogram: 8 4 4 0 4 12 8 0 30 34
Nghost:        3879.12 ave        5426 max         232 min
Histogram: 8 0 8 0 16 0 8 8 16 40
Neighs:        79213.5 ave      115302 max           0 min
Histogram: 8 4 4 0 10 6 8 8 24 32

Total # of neighbors = 8238209
Ave neighs/atom = 28.530495
Neighbor list builds = 0
Dangerous builds = 0
The dot product: 2.06290554726549e-07
Setting atom values ...
  1 settings made for x
  1 settings made for y
  1 settings made for z
Setting up cg style minimization ...
  Unit style    : metal
  Current step  : 2820
Per MPI rank memory allocation (min/avg/max) = 5.441 | 5.816 | 6.074 Mbytes
Step PotEng KinEng TotEng v_fx v_fy v_fz 
    2820   -1152449.2            0   -1152449.2 0.0060125905  0.057239598  0.026012571 
    3000   -1152449.2            0   -1152449.2 6.5423829e-06 -1.9846524e-06 -1.6457171e-05 
    3049   -1152449.2            0   -1152449.2 3.2762976e-06 4.4505654e-08 -7.5182097e-06 
Loop time of 2.65967 on 104 procs for 229 steps with 288751 atoms

99.9% CPU use with 104 MPI tasks x 1 OpenMP threads

Minimization stats:
  Stopping criterion = energy tolerance
  Energy initial, next-to-last, final = 
     -1152449.24606657  -1152449.24843915  -1152449.24843915
  Force two-norm initial, final = 0.18419657 4.0118495e-05
  Force max component initial, final = 0.11084628 7.5399299e-06
  Final line search alpha, max atom move = 1.0000000 7.5399299e-06
  Iterations, force evaluations = 229 458

MPI task timing breakdown:
Section |  min time  |  avg time  |  max time  |%varavg| %total
---------------------------------------------------------------
Pair    | 0.69427    | 1.9188     | 2.5085     |  37.5 | 72.14
Neigh   | 0          | 0          | 0          |   0.0 |  0.00
Comm    | 0.048919   | 0.43151    | 1.3001     |  55.4 | 16.22
Output  | 9.8458e-05 | 0.00010521 | 0.00023942 |   0.0 |  0.00
Modify  | 2.7856e-05 | 0.0037656  | 0.0080326  |   2.9 |  0.14
Other   |            | 0.3055     |            |       | 11.49

Nlocal:        2776.45 ave        3958 max           0 min
Histogram: 8 4 4 0 4 12 8 3 27 34
Nghost:        3879.12 ave        5425 max         232 min
Histogram: 8 0 8 0 16 0 8 8 16 40
Neighs:        79213.5 ave      115366 max           0 min
Histogram: 8 4 4 0 10 6 8 8 24 32

Total # of neighbors = 8238207
Ave neighs/atom = 28.530488
Neighbor list builds = 0
Dangerous builds = 0
The dot product: -6.87828270315756e-08
Setting atom values ...
  1 settings made for x
  1 settings made for y
  1 settings made for z
Setting up cg style minimization ...
  Unit style    : metal
  Current step  : 3049
Per MPI rank memory allocation (min/avg/max) = 5.441 | 5.816 | 6.074 Mbytes
Step PotEng KinEng TotEng v_fx v_fy v_fz 
    3049   -1152449.2            0   -1152449.2 0.0021585645  0.045753208  0.020086204 
    3216   -1152449.2            0   -1152449.2 1.0890939e-06 4.2765439e-06 -3.4503846e-08 
Loop time of 1.93502 on 104 procs for 167 steps with 288751 atoms

99.9% CPU use with 104 MPI tasks x 1 OpenMP threads

Minimization stats:
  Stopping criterion = energy tolerance
  Energy initial, next-to-last, final = 
     -1152449.22373104   -1152449.2259234   -1152449.2259234
  Force two-norm initial, final = 0.17956471 0.00030814108
  Force max component initial, final = 0.11512153 3.2185740e-05
  Final line search alpha, max atom move = 1.0000000 3.2185740e-05
  Iterations, force evaluations = 167 334

MPI task timing breakdown:
Section |  min time  |  avg time  |  max time  |%varavg| %total
---------------------------------------------------------------
Pair    | 0.50592    | 1.4067     | 1.8315     |  32.1 | 72.70
Neigh   | 0          | 0          | 0          |   0.0 |  0.00
Comm    | 0.030472   | 0.31854    | 0.97842    |  47.7 | 16.46
Output  | 0          | 0          | 0          |   0.0 |  0.00
Modify  | 2.023e-05  | 0.0027488  | 0.0059296  |   2.5 |  0.14
Other   |            | 0.207      |            |       | 10.70

Nlocal:        2776.45 ave        3958 max           0 min
Histogram: 8 4 4 0 4 12 8 3 27 34
Nghost:        3879.12 ave        5425 max         232 min
Histogram: 8 0 8 0 16 0 8 8 16 40
Neighs:        79213.6 ave      115367 max           0 min
Histogram: 8 4 4 0 10 6 8 8 24 32

Total # of neighbors = 8238210
Ave neighs/atom = 28.530499
Neighbor list builds = 0
Dangerous builds = 0
The dot product: 5.382521604416e-08
Setting atom values ...
  1 settings made for x
  1 settings made for y
  1 settings made for z
Setting up cg style minimization ...
  Unit style    : metal
  Current step  : 3216
Per MPI rank memory allocation (min/avg/max) = 5.441 | 5.816 | 6.074 Mbytes
Step PotEng KinEng TotEng v_fx v_fy v_fz 
    3216   -1152449.2            0   -1152449.2 -0.0019196108  0.037625942  0.019964963 
    3388   -1152449.2            0   -1152449.2 2.9184074e-05 7.6954807e-06 -5.5637925e-05 
Loop time of 1.98731 on 104 procs for 172 steps with 288751 atoms

99.9% CPU use with 104 MPI tasks x 1 OpenMP threads

Minimization stats:
  Stopping criterion = energy tolerance
  Energy initial, next-to-last, final = 
     -1152449.20026544   -1152449.2025588   -1152449.2025588
  Force two-norm initial, final = 0.17683064 0.00025530142
  Force max component initial, final = 0.1185046 5.6454194e-05
  Final line search alpha, max atom move = 1.0000000 5.6454194e-05
  Iterations, force evaluations = 172 344

MPI task timing breakdown:
Section |  min time  |  avg time  |  max time  |%varavg| %total
---------------------------------------------------------------
Pair    | 0.51884    | 1.4411     | 1.8853     |  32.6 | 72.51
Neigh   | 0          | 0          | 0          |   0.0 |  0.00
Comm    | 0.031459   | 0.32235    | 0.9761     |  48.2 | 16.22
Output  | 0          | 0          | 0          |   0.0 |  0.00
Modify  | 2.2007e-05 | 0.0028309  | 0.0060744  |   2.5 |  0.14
Other   |            | 0.2211     |            |       | 11.12

Nlocal:        2776.45 ave        3959 max           0 min
Histogram: 8 4 4 0 4 12 8 3 27 34
Nghost:        3879.12 ave        5424 max         232 min
Histogram: 8 0 8 0 16 0 8 8 16 40
Neighs:        79213.6 ave      115390 max           0 min
Histogram: 8 4 4 0 10 6 8 8 24 32

Total # of neighbors = 8238210
Ave neighs/atom = 28.530499
Neighbor list builds = 0
Dangerous builds = 0
The dot product: -6.4730996900552e-07
Setting atom values ...
  1 settings made for x
  1 settings made for y
  1 settings made for z
Setting up cg style minimization ...
  Unit style    : metal
  Current step  : 3388
Per MPI rank memory allocation (min/avg/max) = 5.441 | 5.816 | 6.074 Mbytes
Step PotEng KinEng TotEng v_fx v_fy v_fz 
    3388   -1152449.2            0   -1152449.2 -0.0078311774  0.035694638  0.026561744 
    3575   -1152449.2            0   -1152449.2 4.7497932e-06 5.1186187e-06 -7.1822669e-06 
Loop time of 2.18126 on 104 procs for 187 steps with 288751 atoms

99.9% CPU use with 104 MPI tasks x 1 OpenMP threads

Minimization stats:
  Stopping criterion = energy tolerance
  Energy initial, next-to-last, final = 
     -1152449.17622647  -1152449.17861291  -1152449.17861291
  Force two-norm initial, final = 0.1763552 0.00014199561
  Force max component initial, final = 0.12142277 3.0707685e-05
  Final line search alpha, max atom move = 1.0000000 3.0707685e-05
  Iterations, force evaluations = 187 374

MPI task timing breakdown:
Section |  min time  |  avg time  |  max time  |%varavg| %total
---------------------------------------------------------------
Pair    | 0.56809    | 1.5757     | 2.0505     |  34.1 | 72.24
Neigh   | 0          | 0          | 0          |   0.0 |  0.00
Comm    | 0.035352   | 0.35523    | 1.0852     |  50.2 | 16.29
Output  | 0          | 0          | 0          |   0.0 |  0.00
Modify  | 2.3478e-05 | 0.003073   | 0.0065543  |   2.6 |  0.14
Other   |            | 0.2473     |            |       | 11.34

Nlocal:        2776.45 ave        3959 max           0 min
Histogram: 8 4 4 0 4 12 8 2 28 34
Nghost:        3879.09 ave        5424 max         232 min
Histogram: 8 0 8 0 16 0 8 8 16 40
Neighs:        79213.6 ave      115393 max           0 min
Histogram: 8 4 4 0 10 6 8 8 24 32

Total # of neighbors = 8238213
Ave neighs/atom = 28.530509
Neighbor list builds = 0
Dangerous builds = 0
The dot product: -5.89600057491738e-08
Setting atom values ...
  1 settings made for x
  1 settings made for y
  1 settings made for z
Setting up cg style minimization ...
  Unit style    : metal
[...]

Nlocal:        2776.45 ave        3961 max           0 min
Histogram: 8 4 4 0 6 10 8 4 26 34
Nghost:        3879.01 ave        5424 max         232 min
Histogram: 8 0 8 0 16 0 8 8 16 40
Neighs:        79213.2 ave      115479 max           0 min
Histogram: 8 4 4 0 10 6 8 8 24 32

Total # of neighbors = 8238177
Ave neighs/atom = 28.530384
Neighbor list builds = 0
Dangerous builds = 0
The dot product: -4.18657739520393e-07
Setting atom values ...
  1 settings made for x
  1 settings made for y
  1 settings made for z
Setting up cg style minimization ...
  Unit style    : metal
  Current step  : 4251
Per MPI rank memory allocation (min/avg/max) = 5.441 | 5.816 | 6.074 Mbytes
Step PotEng KinEng TotEng v_fx v_fy v_fz 
    4251     -1152449            0     -1152449 -0.070621394  0.010133702 -0.070667128 
    4433     -1152449            0     -1152449 7.416295e-06 1.3968332e-07 -5.5940863e-06 
Loop time of 2.09253 on 104 procs for 182 steps with 288751 atoms

99.9% CPU use with 104 MPI tasks x 1 OpenMP threads

Minimization stats:
  Stopping criterion = energy tolerance
  Energy initial, next-to-last, final = 
     -1152448.98033067  -1152448.98286605  -1152448.98286605
  Force two-norm initial, final = 0.21468729 0.00015961759
  Force max component initial, final = 0.1761368 1.2034810e-05
  Final line search alpha, max atom move = 1.0000000 1.2034810e-05
  Iterations, force evaluations = 182 364

MPI task timing breakdown:
Section |  min time  |  avg time  |  max time  |%varavg| %total
---------------------------------------------------------------
Pair    | 0.55062    | 1.5214     | 1.982      |  33.4 | 72.71
Neigh   | 0          | 0          | 0          |   0.0 |  0.00
Comm    | 0.032009   | 0.34105    | 1.0347     |  49.0 | 16.30
Output  | 0          | 0          | 0          |   0.0 |  0.00
Modify  | 2.2962e-05 | 0.002987   | 0.0063717  |   2.6 |  0.14
Other   |            | 0.2271     |            |       | 10.85

Nlocal:        2776.45 ave        3961 max           0 min
Histogram: 8 4 4 0 6 10 8 4 26 34
Nghost:        3879.09 ave        5424 max         232 min
Histogram: 8 0 8 0 16 0 8 8 16 40
Neighs:        79213.2 ave      115479 max           0 min
Histogram: 8 4 4 0 10 6 8 8 24 32

Total # of neighbors = 8238176
Ave neighs/atom = 28.530381
Neighbor list builds = 0
Dangerous builds = 0
The dot product: -2.49450039491675e-08
Setting atom values ...
  1 settings made for x
  1 settings made for y
  1 settings made for z
Setting up cg style minimization ...
  Unit style    : metal
  Current step  : 4433
Per MPI rank memory allocation (min/avg/max) = 5.441 | 5.816 | 6.074 Mbytes
Step PotEng KinEng TotEng v_fx v_fy v_fz 
    4433   -1152448.9            0   -1152448.9 -0.064604162 0.0063484205 -0.081361068 
    4693     -1152449            0     -1152449 2.8681119e-05 -3.2251192e-08 -9.2598114e-06 
Loop time of 3.00418 on 104 procs for 260 steps with 288751 atoms

99.9% CPU use with 104 MPI tasks x 1 OpenMP threads

Minimization stats:
  Stopping criterion = energy tolerance
  Energy initial, next-to-last, final = 
     -1152448.94480377  -1152448.98018757  -1152448.98018757
  Force two-norm initial, final = 0.21986548 0.00010740882
  Force max component initial, final = 0.18092698 2.8681119e-05
  Final line search alpha, max atom move = 1.0000000 2.8681119e-05
  Iterations, force evaluations = 260 520

MPI task timing breakdown:
Section |  min time  |  avg time  |  max time  |%varavg| %total
---------------------------------------------------------------
Pair    | 0.79243    | 2.1746     | 2.8332     |  39.7 | 72.39
Neigh   | 2.0291e-05 | 0.005929   | 0.0085848  |   3.2 |  0.20
Comm    | 0.050082   | 0.48784    | 1.4689     |  58.7 | 16.24
Output  | 0          | 0          | 0          |   0.0 |  0.00
Modify  | 3.3794e-05 | 0.0042668  | 0.0090738  |   3.1 |  0.14
Other   |            | 0.3315     |            |       | 11.04

Nlocal:        2776.45 ave        3960 max           0 min
Histogram: 8 4 4 0 4 12 8 4 26 34
Nghost:        3879.09 ave        5424 max         232 min
Histogram: 8 0 8 0 16 0 8 8 16 40
Neighs:        79213.3 ave      115472 max           0 min
Histogram: 8 4 4 0 10 6 8 8 24 32

Total # of neighbors = 8238179
Ave neighs/atom = 28.530391
Neighbor list builds = 2
Dangerous builds = 0
The dot product: 1.47425516315983e-07
Setting atom values ...
  1 settings made for x
  1 settings made for y
  1 settings made for z
Setting up cg style minimization ...
  Unit style    : metal
  Current step  : 4693
Per MPI rank memory allocation (min/avg/max) = 5.441 | 5.816 | 6.074 Mbytes
Step PotEng KinEng TotEng v_fx v_fy v_fz 
    4693     -1152449            0     -1152449  -0.03721931 -0.0078133117  -0.13744143 
    4913     -1152449            0     -1152449 5.911595e-07 6.1131593e-08 1.036696e-06 
Loop time of 2.53308 on 104 procs for 220 steps with 288751 atoms

99.9% CPU use with 104 MPI tasks x 1 OpenMP threads

Minimization stats:
  Stopping criterion = energy tolerance
  Energy initial, next-to-last, final = 
      -1152448.9578421  -1152448.96151287  -1152448.96151287
  Force two-norm initial, final = 0.25117437 5.1578451e-05
  Force max component initial, final = 0.19076291 1.7197324e-05
  Final line search alpha, max atom move = 1.0000000 1.7197324e-05
  Iterations, force evaluations = 220 440

MPI task timing breakdown:
Section |  min time  |  avg time  |  max time  |%varavg| %total
---------------------------------------------------------------
Pair    | 0.66247    | 1.8387     | 2.3965     |  36.8 | 72.59
Neigh   | 0          | 0          | 0          |   0.0 |  0.00
Comm    | 0.038396   | 0.41311    | 1.2479     |  54.1 | 16.31
Output  | 0          | 0          | 0          |   0.0 |  0.00
Modify  | 2.8741e-05 | 0.0036083  | 0.0076885  |   2.8 |  0.14
Other   |            | 0.2777     |            |       | 10.96

Nlocal:        2776.45 ave        3961 max           0 min
Histogram: 8 4 4 0 6 10 8 4 26 34
Nghost:        3879.05 ave        5424 max         232 min
Histogram: 8 0 8 0 16 0 8 8 16 40
Neighs:        79213.3 ave      115484 max           0 min
Histogram: 8 4 4 0 10 6 8 8 24 32

Total # of neighbors = 8238182
Ave neighs/atom = 28.530402
Neighbor list builds = 0
Dangerous builds = 0
The dot product: -3.1921329202115e-08
Setting atom values ...
  1 settings made for x
  1 settings made for y
  1 settings made for z
Setting up cg style minimization ...
  Unit style    : metal
  Current step  : 4913
Per MPI rank memory allocation (min/avg/max) = 5.441 | 5.816 | 6.074 Mbytes
Step PotEng KinEng TotEng v_fx v_fy v_fz 
    4913   -1152448.9            0   -1152448.9  -0.01659619 -0.0073445417 -0.067729985 
    5000   -1152448.9            0   -1152448.9 8.0738437e-06 4.9037798e-06 4.5731933e-05 
    5068   -1152448.9            0   -1152448.9 2.8536172e-05 6.4749063e-07 1.3776311e-06 
Loop time of 1.78596 on 104 procs for 155 steps with 288751 atoms

99.9% CPU use with 104 MPI tasks x 1 OpenMP threads

Minimization stats:
  Stopping criterion = energy tolerance
  Energy initial, next-to-last, final = 
     -1152448.93905972  -1152448.94140166  -1152448.94140166
  Force two-norm initial, final = 0.22290119 0.00014067834
  Force max component initial, final = 0.19336016 2.8536172e-05
  Final line search alpha, max atom move = 1.0000000 2.8536172e-05
  Iterations, force evaluations = 155 310

MPI task timing breakdown:
Section |  min time  |  avg time  |  max time  |%varavg| %total
---------------------------------------------------------------
Pair    | 0.46638    | 1.2962     | 1.6925     |  30.9 | 72.58
Neigh   | 0          | 0          | 0          |   0.0 |  0.00
Comm    | 0.027936   | 0.29148    | 0.87526    |  45.1 | 16.32
Output  | 0.00010577 | 0.00010882 | 0.0002487  |   0.0 |  0.01
Modify  | 1.9104e-05 | 0.0025423  | 0.005419   |   2.4 |  0.14
Other   |            | 0.1956     |            |       | 10.95

Nlocal:        2776.45 ave        3961 max           0 min
Histogram: 8 4 4 0 6 10 8 4 26 34
Nghost:        3879.07 ave        5424 max         232 min
Histogram: 8 0 8 0 16 0 8 8 16 40
Neighs:        79213.3 ave      115508 max           0 min
Histogram: 8 4 4 0 10 6 8 8 24 32

Total # of neighbors = 8238186
Ave neighs/atom = 28.530415
Neighbor list builds = 0
Dangerous builds = 0
The dot product: -8.57753218861687e-08
Setting atom values ...
  1 settings made for x
  1 settings made for y
  1 settings made for z
Setting up cg style minimization ...
  Unit style    : metal
  Current step  : 5068
Per MPI rank memory allocation (min/avg/max) = 5.441 | 5.816 | 6.074 Mbytes
Step PotEng KinEng TotEng v_fx v_fy v_fz 
    5068   -1152448.9            0   -1152448.9 -0.008313869 -0.0054420156 -0.041294032 
    5212   -1152448.9            0   -1152448.9 7.4916131e-06 5.642182e-08 -8.3646477e-07 
Loop time of 1.70718 on 104 procs for 144 steps with 288751 atoms

99.9% CPU use with 104 MPI tasks x 1 OpenMP threads

Minimization stats:
  Stopping criterion = energy tolerance
  Energy initial, next-to-last, final = 
     -1152448.91896354  -1152448.92125429  -1152448.92125429
  Force two-norm initial, final = 0.22092895 0.00017032948
  Force max component initial, final = 0.19575755 2.5857390e-05
  Final line search alpha, max atom move = 1.0000000 2.5857390e-05
  Iterations, force evaluations = 144 288

MPI task timing breakdown:
Section |  min time  |  avg time  |  max time  |%varavg| %total
---------------------------------------------------------------
Pair    | 0.44501    | 1.2094     | 1.5761     |  29.5 | 70.84
Neigh   | 0          | 0          | 0          |   0.0 |  0.00
Comm    | 0.025143   | 0.27596    | 0.82102    |  42.9 | 16.16
Output  | 0          | 0          | 0          |   0.0 |  0.00
Modify  | 1.8775e-05 | 0.002371   | 0.0050563  |   2.3 |  0.14
Other   |            | 0.2194     |            |       | 12.85

Nlocal:        2776.45 ave        3961 max           0 min
Histogram: 8 4 4 0 6 10 8 4 26 34
Nghost:        3879.05 ave        5424 max         232 min
Histogram: 8 0 8 0 16 0 8 8 16 40
Neighs:        79213.3 ave      115506 max           0 min
Histogram: 8 4 4 0 10 6 8 8 24 32

Total # of neighbors = 8238183
Ave neighs/atom = 28.530405
Neighbor list builds = 0
Dangerous builds = 0
The dot product: -2.53059501523719e-09
Setting atom values ...
  1 settings made for x
  1 settings made for y
  1 settings made for z
Setting up cg style minimization ...
  Unit style    : metal
  Current step  : 5212
Per MPI rank memory allocation (min/avg/max) = 5.441 | 5.816 | 6.074 Mbytes
Step PotEng KinEng TotEng v_fx v_fy v_fz 
    5212   -1152448.9            0   -1152448.9 -0.005336344 -0.0043739787 -0.030014592 
    5407   -1152448.9            0   -1152448.9 -1.9372909e-06 6.6230545e-07 5.0084755e-06 
Loop time of 2.24671 on 104 procs for 195 steps with 288751 atoms

99.9% CPU use with 104 MPI tasks x 1 OpenMP threads

Minimization stats:
  Stopping criterion = energy tolerance
  Energy initial, next-to-last, final = 
     -1152448.89898307  -1152448.90094742  -1152448.90094742
  Force two-norm initial, final = 0.22060891 5.2366735e-05
  Force max component initial, final = 0.19827432 1.9887961e-05
  Final line search alpha, max atom move = 1.0000000 1.9887961e-05
  Iterations, force evaluations = 195 390

MPI task timing breakdown:
Section |  min time  |  avg time  |  max time  |%varavg| %total
---------------------------------------------------------------
Pair    | 0.59611    | 1.6332     | 2.124      |  34.4 | 72.69
Neigh   | 0          | 0          | 0          |   0.0 |  0.00
Comm    | 0.034642   | 0.36507    | 1.0977     |  50.6 | 16.25
Output  | 0          | 0          | 0          |   0.0 |  0.00
Modify  | 2.4321e-05 | 0.0032022  | 0.0068099  |   2.7 |  0.14
Other   |            | 0.2452     |            |       | 10.91

Nlocal:        2776.45 ave        3960 max           0 min
Histogram: 8 4 4 0 4 12 8 4 26 34
Nghost:        3879.05 ave        5424 max         232 min
Histogram: 8 0 8 0 16 0 8 8 16 40
Neighs:        79213.3 ave      115478 max           0 min
Histogram: 8 4 4 0 10 6 8 8 24 32

Total # of neighbors = 8238182
Ave neighs/atom = 28.530402
Neighbor list builds = 0
Dangerous builds = 0
The dot product: -2.29272048497902e-08
Setting atom values ...
  1 settings made for x
  1 settings made for y
  1 settings made for z
Setting up cg style minimization ...
  Unit style    : metal
  Current step  : 5407
Per MPI rank memory allocation (min/avg/max) = 5.441 | 5.816 | 6.074 Mbytes
Step PotEng KinEng TotEng v_fx v_fy v_fz 
    5407   -1152448.9            0   -1152448.9 -0.004068957 -0.0030772179 -0.019939735 
    5584   -1152448.9            0   -1152448.9 2.9010579e-05 4.1332496e-06 2.2876111e-05 
Loop time of 2.04137 on 104 procs for 177 steps with 288751 atoms

99.9% CPU use with 104 MPI tasks x 1 OpenMP threads

Minimization stats:
  Stopping criterion = energy tolerance
  Energy initial, next-to-last, final = 
      -1152448.8775314  -1152448.87934303  -1152448.87934303
  Force two-norm initial, final = 0.21942307 0.00014283712
  Force max component initial, final = 0.20082733 2.9010579e-05
  Final line search alpha, max atom move = 1.0000000 2.9010579e-05
  Iterations, force evaluations = 177 354

MPI task timing breakdown:
Section |  min time  |  avg time  |  max time  |%varavg| %total
---------------------------------------------------------------
Pair    | 0.53448    | 1.4818     | 1.9334     |  33.0 | 72.59
Neigh   | 0          | 0          | 0          |   0.0 |  0.00
Comm    | 0.031219   | 0.33459    | 1.0071     |  48.3 | 16.39
Output  | 0          | 0          | 0          |   0.0 |  0.00
Modify  | 2.2319e-05 | 0.0029085  | 0.0062509  |   2.6 |  0.14
Other   |            | 0.2221     |            |       | 10.88

Nlocal:        2776.45 ave        3960 max           0 min
Histogram: 8 4 4 0 4 12 8 4 26 34
Nghost:        3879.12 ave        5424 max         232 min
Histogram: 8 0 8 0 16 0 8 8 16 40
Neighs:        79213.3 ave      115476 max           0 min
Histogram: 8 4 4 0 10 6 8 8 24 32

Total # of neighbors = 8238180
Ave neighs/atom = 28.530395
Neighbor list builds = 0
Dangerous builds = 0
The dot product: -4.24679464513999e-08
Setting atom values ...
  1 settings made for x
  1 settings made for y
  1 settings made for z
Setting up cg style minimization ...
  Unit style    : metal
  Current step  : 5584
Per MPI rank memory allocation (min/avg/max) = 5.441 | 5.816 | 6.074 Mbytes
Step PotEng KinEng TotEng v_fx v_fy v_fz 
    5584   -1152448.9            0   -1152448.9 -0.0029930083 -0.0020874759 -0.013200735 
    5773   -1152448.9            0   -1152448.9 -1.2032172e-06 1.6734011e-06 1.1159792e-05 
Loop time of 2.17629 on 104 procs for 189 steps with 288751 atoms

99.9% CPU use with 104 MPI tasks x 1 OpenMP threads

Minimization stats:
  Stopping criterion = energy tolerance
  Energy initial, next-to-last, final = 
     -1152448.85390516    -1152448.855831    -1152448.855831
  Force two-norm initial, final = 0.2234097 9.4218867e-05
  Force max component initial, final = 0.20338901 1.9241596e-05
  Final line search alpha, max atom move = 1.0000000 1.9241596e-05
  Iterations, force evaluations = 189 378

MPI task timing breakdown:
Section |  min time  |  avg time  |  max time  |%varavg| %total
---------------------------------------------------------------
Pair    | 0.5695     | 1.5792     | 2.0591     |  34.1 | 72.57
Neigh   | 0          | 0          | 0          |   0.0 |  0.00
Comm    | 0.032882   | 0.3545     | 1.0679     |  50.0 | 16.29
Output  | 0          | 0          | 0          |   0.0 |  0.00
Modify  | 2.3268e-05 | 0.0031003  | 0.0065994  |   2.6 |  0.14
Other   |            | 0.2395     |            |       | 11.00

Nlocal:        2776.45 ave        3960 max           0 min
Histogram: 8 4 4 0 4 12 8 4 26 34
Nghost:        3879.12 ave        5424 max         232 min
Histogram: 8 0 8 0 16 0 8 8 16 40
Neighs:        79213.3 ave      115475 max           0 min
Histogram: 8 4 4 0 10 6 8 8 24 32

Total # of neighbors = 8238179
Ave neighs/atom = 28.530391
Neighbor list builds = 0
Dangerous builds = 0
The dot product: -8.75475278014149e-09
Setting atom values ...
  1 settings made for x
  1 settings made for y
  1 settings made for z
Setting up cg style minimization ...
  Unit style    : metal
  Current step  : 5773
Per MPI rank memory allocation (min/avg/max) = 5.441 | 5.816 | 6.074 Mbytes
Step PotEng KinEng TotEng v_fx v_fy v_fz 
    5773   -1152448.8            0   -1152448.8 -0.0024180829 -0.0015466802 -0.0096939018 
    6000   -1152448.8            0   -1152448.8 2.6337254e-06 -1.0482195e-06 -7.2235499e-06 
    6039   -1152448.8            0   -1152448.8 -4.3866659e-08 3.7000052e-08 2.4746383e-07 
Loop time of 3.06912 on 104 procs for 266 steps with 288751 atoms

99.9% CPU use with 104 MPI tasks x 1 OpenMP threads

Minimization stats:
  Stopping criterion = energy tolerance
  Energy initial, next-to-last, final = 
     -1152448.82815371  -1152448.83019106  -1152448.83019106
  Force two-norm initial, final = 0.22806389 6.2765314e-06
  Force max component initial, final = 0.20599964 1.4618144e-06
  Final line search alpha, max atom move = 1.0000000 1.4618144e-06
  Iterations, force evaluations = 266 532

MPI task timing breakdown:
Section |  min time  |  avg time  |  max time  |%varavg| %total
---------------------------------------------------------------
Pair    | 0.8033     | 2.2237     | 2.898      |  40.4 | 72.45
Neigh   | 0          | 0          | 0          |   0.0 |  0.00
Comm    | 0.046925   | 0.50214    | 1.512      |  59.0 | 16.36
Output  | 0.00015068 | 0.0001537  | 0.00033259 |   0.0 |  0.01
Modify  | 3.2898e-05 | 0.0043634  | 0.0092862  |   3.1 |  0.14
Other   |            | 0.3388     |            |       | 11.04

Nlocal:        2776.45 ave        3960 max           0 min
Histogram: 8 4 4 0 4 12 8 4 26 34
Nghost:        3879.12 ave        5424 max         232 min
Histogram: 8 0 8 0 16 0 8 8 16 40
Neighs:        79213.2 ave      115464 max           0 min
Histogram: 8 4 4 0 10 6 8 8 24 32

Total # of neighbors = 8238176
Ave neighs/atom = 28.530381
Neighbor list builds = 0
Dangerous builds = 0
The dot product: -5.15296728469428e-11
Setting up cg style minimization ...
  Unit style    : metal
  Current step  : 6039
Per MPI rank memory allocation (min/avg/max) = 5.441 | 5.816 | 6.074 Mbytes
Step PotEng KinEng TotEng v_fx v_fy v_fz 
    6039   -1152448.8            0   -1152448.8  0.031079418   -1.3215806   0.20310834 
    6292   -1152449.5            0   -1152449.5 -4.6609376e-05 -1.274082e-06 3.0900661e-06 
Loop time of 2.90306 on 104 procs for 253 steps with 288751 atoms

99.9% CPU use with 104 MPI tasks x 1 OpenMP threads

Minimization stats:
  Stopping criterion = energy tolerance
  Energy initial, next-to-last, final = 
     -1152448.83019106  -1152449.45035283  -1152449.45035283
  Force two-norm initial, final = 1.3374582 0.00021235578
  Force max component initial, final = 1.3215806 5.6108930e-05
  Final line search alpha, max atom move = 1.0000000 5.6108930e-05
  Iterations, force evaluations = 253 501

MPI task timing breakdown:
Section |  min time  |  avg time  |  max time  |%varavg| %total
---------------------------------------------------------------
Pair    | 0.77258    | 2.0963     | 2.7316     |  38.8 | 72.21
Neigh   | 4.0453e-05 | 0.011868   | 0.017219   |   4.5 |  0.41
Comm    | 0.04505    | 0.47128    | 1.4119     |  57.3 | 16.23
Output  | 0          | 0          | 0          |   0.0 |  0.00
Modify  | 2.9248e-05 | 0.0026698  | 0.0068471  |   3.2 |  0.09
Other   |            | 0.321      |            |       | 11.06

Nlocal:        2776.45 ave        3960 max           0 min
Histogram: 8 4 4 0 4 12 8 4 26 34
Nghost:        3879.14 ave        5424 max         232 min
Histogram: 8 0 8 0 16 0 8 8 16 40
Neighs:        79213.4 ave      115439 max           0 min
Histogram: 8 4 4 0 10 6 8 8 24 32

Total # of neighbors = 8238189
Ave neighs/atom = 28.530426
Neighbor list builds = 4
Dangerous builds = 0
