LAMMPS (29 Oct 2020)
OMP_NUM_THREADS environment is not set. Defaulting to 1 thread. (../comm.cpp:94)
  using 1 OpenMP thread(s) per MPI task
OMP_NUM_THREADS environment is not set. Defaulting to 1 thread. (../comm.cpp:94)
  using 1 OpenMP thread(s) per MPI task
Reading data file ...
  orthogonal box = (-122.39241 -121.13707 -37.090501) to (122.39241 121.13707 37.090501)
  13 by 2 by 1 MPI processor grid
  reading atoms ...
  288751 atoms
  read_data CPU = 0.534 seconds
199981 atoms in group inner
88770 atoms in group outer
1 atoms in group carbon
Neighbor list info ...
  update every 1 steps, delay 0 steps, check yes
  max neighbors/atom: 2000, page size: 100000
  master list distance cutoff = 5.6
  ghost atom cutoff = 5.6
  binsize = 2.8, bins = 88 87 27
  1 neighbor lists, perpetual/occasional/extra = 1 0 0
  (1) pair eam/alloy, perpetual
      attributes: half, newton on
      pair build: half/bin/atomonly/newton
      stencil: half/bin/3d/newton
      bin: standard
Setting up cg style minimization ...
  Unit style    : metal
  Current step  : 0
Per MPI rank memory allocation (min/avg/max) = 6.233 | 10.36 | 11.60 Mbytes
Step v_fx v_fy v_fz PotEng KinEng TotEng 
       0   0.47480509   0.31926389  -0.33887642   -1152447.8            0   -1152447.8 
     140 3.1086044e-05 -3.7913599e-05 -8.8937112e-06   -1152449.5            0   -1152449.5 
Loop time of 5.12867 on 26 procs for 140 steps with 288751 atoms

99.9% CPU use with 26 MPI tasks x 1 OpenMP threads

Minimization stats:
  Stopping criterion = energy tolerance
  Energy initial, next-to-last, final = 
     -1152447.83998622  -1152449.45035256  -1152449.45035256
  Force two-norm initial, final = 9.7345007 0.00033977313
  Force max component initial, final = 4.2287208 6.8955347e-05
  Final line search alpha, max atom move = 1.0000000 6.8955347e-05
  Iterations, force evaluations = 140 279

MPI task timing breakdown:
Section |  min time  |  avg time  |  max time  |%varavg| %total
---------------------------------------------------------------
Pair    | 1.9696     | 3.7154     | 4.8458     |  46.9 | 72.44
Neigh   | 0.010497   | 0.030286   | 0.048103   |   5.9 |  0.59
Comm    | 0.086283   | 0.54871    | 1.2247     |  43.3 | 10.70
Output  | 0          | 0          | 0          |   0.0 |  0.00
Modify  | 0.0043295  | 0.0054591  | 0.0081327  |   1.6 |  0.11
Other   |            | 0.8288     |            |       | 16.16

Nlocal:        11105.8 ave       15296 max        4380 min
Histogram: 4 0 0 0 4 0 4 4 8 2
Nghost:        10533.6 ave       14020 max        4076 min
Histogram: 4 0 0 0 4 0 4 2 6 6
Neighs:       316854.0 ave      441501 max      114725 min
Histogram: 4 0 0 0 4 0 4 4 8 2

Total # of neighbors = 8238197
Ave neighs/atom = 28.530454
Neighbor list builds = 2
Dangerous builds = 1
Setting atom values ...
  1 settings made for x
  1 settings made for y
  1 settings made for z
Setting up cg style minimization ...
  Unit style    : metal
  Current step  : 140
Per MPI rank memory allocation (min/avg/max) = 6.233 | 10.36 | 11.60 Mbytes
Step PotEng KinEng TotEng v_fx v_fy v_fz 
     140   -1152449.4            0   -1152449.4  0.023198962 -0.0042300244 -0.048708801 
     334   -1152449.4            0   -1152449.4 -1.6196155e-06 -1.1568106e-06 6.4362257e-07 
Loop time of 6.80823 on 26 procs for 194 steps with 288751 atoms

99.9% CPU use with 26 MPI tasks x 1 OpenMP threads

Minimization stats:
  Stopping criterion = linesearch alpha is zero
  Energy initial, next-to-last, final = 
     -1152449.44454609  -1152449.44849993  -1152449.44849993
  Force two-norm initial, final = 0.29845294 0.00012637465
  Force max component initial, final = 0.13976257 9.3148793e-06
  Final line search alpha, max atom move = 0.5 4.6574396e-06
  Iterations, force evaluations = 194 391

MPI task timing breakdown:
Section |  min time  |  avg time  |  max time  |%varavg| %total
---------------------------------------------------------------
Pair    | 2.6193     | 5.0135     | 6.5065     |  54.4 | 73.64
Neigh   | 0          | 0          | 0          |   0.0 |  0.00
Comm    | 0.10006    | 0.69957    | 1.6483     |  53.3 | 10.28
Output  | 0          | 0          | 0          |   0.0 |  0.00
Modify  | 0.0073922  | 0.011186   | 0.01419    |   1.7 |  0.16
Other   |            | 1.084      |            |       | 15.92

Nlocal:        11105.8 ave       15290 max        4380 min
Histogram: 4 0 0 0 4 0 4 4 8 2
Nghost:        10533.6 ave       14020 max        4076 min
Histogram: 4 0 0 0 4 0 4 2 6 6
Neighs:       316854.0 ave      441335 max      114725 min
Histogram: 4 0 0 0 4 0 4 4 8 2

Total # of neighbors = 8238197
Ave neighs/atom = 28.530454
Neighbor list builds = 0
Dangerous builds = 0
Setting atom values ...
  1 settings made for x
  1 settings made for y
  1 settings made for z
Setting up cg style minimization ...
  Unit style    : metal
  Current step  : 334
Per MPI rank memory allocation (min/avg/max) = 6.233 | 10.36 | 11.60 Mbytes
Step PotEng KinEng TotEng v_fx v_fy v_fz 
     334   -1152449.4            0   -1152449.4  0.018705966 -0.00058529068  -0.04384014 
     425   -1152449.4            0   -1152449.4 -2.3170677e-05 2.8432644e-05 0.00012726954 
Loop time of 3.16691 on 26 procs for 91 steps with 288751 atoms

99.9% CPU use with 26 MPI tasks x 1 OpenMP threads

Minimization stats:
  Stopping criterion = energy tolerance
  Energy initial, next-to-last, final = 
      -1152449.4432964  -1152449.44517329  -1152449.44517329
  Force two-norm initial, final = 0.20731625 0.00045180855
  Force max component initial, final = 0.09575093 0.00012726954
  Final line search alpha, max atom move = 1.0000000 0.00012726954
  Iterations, force evaluations = 91 182

MPI task timing breakdown:
Section |  min time  |  avg time  |  max time  |%varavg| %total
---------------------------------------------------------------
Pair    | 1.2233     | 2.3385     | 3.022      |  37.1 | 73.84
Neigh   | 0          | 0          | 0          |   0.0 |  0.00
Comm    | 0.048186   | 0.32423    | 0.76777    |  36.7 | 10.24
Output  | 0          | 0          | 0          |   0.0 |  0.00
Modify  | 0.0034773  | 0.0052433  | 0.0066543  |   1.2 |  0.17
Other   |            | 0.499      |            |       | 15.76

Nlocal:        11105.8 ave       15289 max        4380 min
Histogram: 4 0 0 0 4 0 4 4 8 2
Nghost:        10533.6 ave       14020 max        4076 min
Histogram: 4 0 0 0 4 0 4 2 6 6
Neighs:       316854.0 ave      441298 max      114725 min
Histogram: 4 0 0 0 4 0 4 4 8 2

Total # of neighbors = 8238196
Ave neighs/atom = 28.530450
Neighbor list builds = 0
Dangerous builds = 0
The dot product: -5.49959877043053e-07
Setting atom values ...
  1 settings made for x
  1 settings made for y
  1 settings made for z
Setting up cg style minimization ...
  Unit style    : metal
  Current step  : 425
Per MPI rank memory allocation (min/avg/max) = 6.233 | 10.36 | 11.60 Mbytes
Step PotEng KinEng TotEng v_fx v_fy v_fz 
     425   -1152449.4            0   -1152449.4  0.022724538 0.0071344539 -0.048616798 
     518   -1152449.4            0   -1152449.4 7.7389033e-06 5.585871e-07 -2.364214e-05 
Loop time of 3.35813 on 26 procs for 93 steps with 288751 atoms

100.0% CPU use with 26 MPI tasks x 1 OpenMP threads

Minimization stats:
  Stopping criterion = linesearch alpha is zero
  Energy initial, next-to-last, final = 
     -1152449.43855592  -1152449.44042687  -1152449.44042687
  Force two-norm initial, final = 0.2063181 0.00035819626
  Force max component initial, final = 0.093409015 7.1043043e-05
  Final line search alpha, max atom move = 0.0625 4.4401902e-06
  Iterations, force evaluations = 93 193

MPI task timing breakdown:
Section |  min time  |  avg time  |  max time  |%varavg| %total
---------------------------------------------------------------
Pair    | 1.2972     | 2.4834     | 3.2128     |  38.3 | 73.95
Neigh   | 0          | 0          | 0          |   0.0 |  0.00
Comm    | 0.047875   | 0.34461    | 0.81591    |  38.1 | 10.26
Output  | 0          | 0          | 0          |   0.0 |  0.00
Modify  | 0.0037339  | 0.0055436  | 0.0070054  |   1.2 |  0.17
Other   |            | 0.5246     |            |       | 15.62

Nlocal:        11105.8 ave       15285 max        4380 min
Histogram: 4 0 0 0 4 0 4 4 8 2
Nghost:        10533.6 ave       14020 max        4076 min
Histogram: 4 0 0 0 4 0 4 2 6 6
Neighs:       316854.0 ave      441165 max      114725 min
Histogram: 4 0 0 0 4 0 4 4 8 2

Total # of neighbors = 8238198
Ave neighs/atom = 28.530457
Neighbor list builds = 0
Dangerous builds = 0
The dot product: 1.47499264721816e-07
Setting atom values ...
  1 settings made for x
  1 settings made for y
  1 settings made for z
Setting up cg style minimization ...
  Unit style    : metal
  Current step  : 518
Per MPI rank memory allocation (min/avg/max) = 6.233 | 10.36 | 11.60 Mbytes
Step PotEng KinEng TotEng v_fx v_fy v_fz 
     518   -1152449.4            0   -1152449.4  0.022903428  0.013597482 -0.050086717 
     609   -1152449.4            0   -1152449.4 5.247044e-06 6.4204268e-06 8.9400389e-06 
Loop time of 3.2816 on 26 procs for 91 steps with 288751 atoms

100.0% CPU use with 26 MPI tasks x 1 OpenMP threads

Minimization stats:
  Stopping criterion = linesearch alpha is zero
  Energy initial, next-to-last, final = 
     -1152449.43252745  -1152449.43437852  -1152449.43437852
  Force two-norm initial, final = 0.20367192 0.00044312449
  Force max component initial, final = 0.089684393 9.4043343e-05
  Final line search alpha, max atom move = 0.0625 5.8777089e-06
  Iterations, force evaluations = 91 189

MPI task timing breakdown:
Section |  min time  |  avg time  |  max time  |%varavg| %total
---------------------------------------------------------------
Pair    | 1.2679     | 2.4256     | 3.1386     |  37.8 | 73.91
Neigh   | 0          | 0          | 0          |   0.0 |  0.00
Comm    | 0.047079   | 0.33595    | 0.79479    |  37.5 | 10.24
Output  | 0          | 0          | 0          |   0.0 |  0.00
Modify  | 0.0035107  | 0.0054161  | 0.0068812  |   1.2 |  0.17
Other   |            | 0.5147     |            |       | 15.68

Nlocal:        11105.8 ave       15284 max        4380 min
Histogram: 4 0 0 0 4 0 4 4 8 2
Nghost:        10533.6 ave       14020 max        4076 min
Histogram: 4 0 0 0 4 0 4 2 6 6
Neighs:       316854.0 ave      441127 max      114725 min
Histogram: 4 0 0 0 4 0 4 4 8 2

Total # of neighbors = 8238199
Ave neighs/atom = 28.530461
Neighbor list builds = 0
Dangerous builds = 0
The dot product: -2.84829837479934e-08
Setting atom values ...
  1 settings made for x
  1 settings made for y
  1 settings made for z
Setting up cg style minimization ...
  Unit style    : metal
  Current step  : 609
Per MPI rank memory allocation (min/avg/max) = 6.233 | 10.36 | 11.60 Mbytes
Step PotEng KinEng TotEng v_fx v_fy v_fz 
     609   -1152449.4            0   -1152449.4  0.018891207  0.015860159  -0.04763647 
     772   -1152449.4            0   -1152449.4 -3.9685451e-06 -3.2138718e-06 1.1681498e-05 
Loop time of 5.65812 on 26 procs for 163 steps with 288751 atoms

99.9% CPU use with 26 MPI tasks x 1 OpenMP threads

Minimization stats:
  Stopping criterion = energy tolerance
  Energy initial, next-to-last, final = 
     -1152449.42523808  -1152449.42705138  -1152449.42705138
  Force two-norm initial, final = 0.19980178 0.00022247023
  Force max component initial, final = 0.085607415 2.6878353e-05
  Final line search alpha, max atom move = 1.0000000 2.6878353e-05
  Iterations, force evaluations = 163 326

MPI task timing breakdown:
Section |  min time  |  avg time  |  max time  |%varavg| %total
---------------------------------------------------------------
Pair    | 2.1822     | 4.1864     | 5.4064     |  49.8 | 73.99
Neigh   | 0          | 0          | 0          |   0.0 |  0.00
Comm    | 0.082991   | 0.58021    | 1.3854     |  50.2 | 10.25
Output  | 0          | 0          | 0          |   0.0 |  0.00
Modify  | 0.0060261  | 0.0093322  | 0.011855   |   1.6 |  0.16
Other   |            | 0.8822     |            |       | 15.59

Nlocal:        11105.8 ave       15280 max        4380 min
Histogram: 4 0 0 0 4 0 4 4 6 4
Nghost:        10533.6 ave       14020 max        4076 min
Histogram: 4 0 0 0 4 0 4 2 6 6
Neighs:       316854.0 ave      440987 max      114725 min
Histogram: 4 0 0 0 4 0 4 4 8 2

Total # of neighbors = 8238199
Ave neighs/atom = 28.530461
Neighbor list builds = 0
Dangerous builds = 0
The dot product: -8.32496676951476e-08
Setting atom values ...
  1 settings made for x
  1 settings made for y
  1 settings made for z
Setting up cg style minimization ...
  Unit style    : metal
  Current step  : 772
Per MPI rank memory allocation (min/avg/max) = 6.233 | 10.36 | 11.60 Mbytes
Step PotEng KinEng TotEng v_fx v_fy v_fz 
     772   -1152449.4            0   -1152449.4  0.013831657  0.015068351 -0.042898524 
     895   -1152449.4            0   -1152449.4 -1.8593549e-06 -2.715642e-06 7.3665565e-05 
Loop time of 4.2671 on 26 procs for 123 steps with 288751 atoms

100.0% CPU use with 26 MPI tasks x 1 OpenMP threads

Minimization stats:
  Stopping criterion = energy tolerance
  Energy initial, next-to-last, final = 
     -1152449.41666021  -1152449.41842409  -1152449.41842409
  Force two-norm initial, final = 0.19573144 0.00032868232
  Force max component initial, final = 0.082000802 7.3665565e-05
  Final line search alpha, max atom move = 1.0000000 7.3665565e-05
  Iterations, force evaluations = 123 246

MPI task timing breakdown:
Section |  min time  |  avg time  |  max time  |%varavg| %total
---------------------------------------------------------------
Pair    | 1.6455     | 3.1528     | 4.0773     |  43.1 | 73.89
Neigh   | 0          | 0          | 0          |   0.0 |  0.00
Comm    | 0.061896   | 0.43703    | 1.0355     |  42.9 | 10.24
Output  | 0          | 0          | 0          |   0.0 |  0.00
Modify  | 0.0045614  | 0.0070494  | 0.0089788  |   1.4 |  0.17
Other   |            | 0.6703     |            |       | 15.71

Nlocal:        11105.8 ave       15279 max        4380 min
Histogram: 4 0 0 0 4 0 4 4 6 4
Nghost:        10533.6 ave       14020 max        4076 min
Histogram: 4 0 0 0 4 0 4 2 6 6
Neighs:       316854.0 ave      440936 max      114725 min
Histogram: 4 0 0 0 4 0 4 4 8 2

Total # of neighbors = 8238202
Ave neighs/atom = 28.530471
Neighbor list builds = 0
Dangerous builds = 0
The dot product: -4.32808828799298e-07
Setting atom values ...
  1 settings made for x
  1 settings made for y
  1 settings made for z
Setting up cg style minimization ...
  Unit style    : metal
  Current step  : 895
Per MPI rank memory allocation (min/avg/max) = 6.233 | 10.36 | 11.60 Mbytes
Step PotEng KinEng TotEng v_fx v_fy v_fz 
     895   -1152449.4            0   -1152449.4 0.0091094103  0.012609343  -0.03738166 
    1000   -1152449.4            0   -1152449.4 -6.3623626e-06 -3.1359939e-06 -4.8358618e-05 
    1041   -1152449.4            0   -1152449.4 -1.9365917e-06 -2.7996487e-06 9.5096907e-06 
Loop time of 5.28096 on 26 procs for 146 steps with 288751 atoms

99.9% CPU use with 26 MPI tasks x 1 OpenMP threads

Minimization stats:
  Stopping criterion = linesearch alpha is zero
  Energy initial, next-to-last, final = 
     -1152449.40673457  -1152449.40846685  -1152449.40846685
  Force two-norm initial, final = 0.19216816 0.00034045903
  Force max component initial, final = 0.078892135 5.9296639e-05
  Final line search alpha, max atom move = 0.0625 3.7060399e-06
  Iterations, force evaluations = 146 303

MPI task timing breakdown:
Section |  min time  |  avg time  |  max time  |%varavg| %total
---------------------------------------------------------------
Pair    | 2.0296     | 3.8936     | 5.051      |  48.0 | 73.73
Neigh   | 0          | 0          | 0          |   0.0 |  0.00
Comm    | 0.076349   | 0.54284    | 1.2897     |  47.7 | 10.28
Output  | 0.00013721 | 0.00013831 | 0.00015203 |   0.0 |  0.00
Modify  | 0.0055848  | 0.0086832  | 0.011012   |   1.5 |  0.16
Other   |            | 0.8357     |            |       | 15.83

Nlocal:        11105.8 ave       15275 max        4380 min
Histogram: 4 0 0 0 4 0 4 4 6 4
Nghost:        10533.6 ave       14020 max        4076 min
Histogram: 4 0 0 0 4 0 4 2 6 6
Neighs:       316854.0 ave      440787 max      114725 min
Histogram: 4 0 0 0 4 0 4 4 8 2

Total # of neighbors = 8238206
Ave neighs/atom = 28.530485
Neighbor list builds = 0
Dangerous builds = 0
The dot product: -5.10542203448514e-08
Setting atom values ...
  1 settings made for x
  1 settings made for y
  1 settings made for z
Setting up cg style minimization ...
  Unit style    : metal
  Current step  : 1041
Per MPI rank memory allocation (min/avg/max) = 6.233 | 10.36 | 11.60 Mbytes
Step PotEng KinEng TotEng v_fx v_fy v_fz 
    1041   -1152449.4            0   -1152449.4 0.0047627837 0.0093633573 -0.033010508 
    1219   -1152449.4            0   -1152449.4 3.516459e-08 -3.3620575e-06 2.6143089e-05 
Loop time of 6.25966 on 26 procs for 178 steps with 288751 atoms

99.9% CPU use with 26 MPI tasks x 1 OpenMP threads

Minimization stats:
  Stopping criterion = linesearch alpha is zero
  Energy initial, next-to-last, final = 
     -1152449.39545136  -1152449.39718166  -1152449.39718166
  Force two-norm initial, final = 0.18952322 0.00014792412
  Force max component initial, final = 0.081239921 2.6143089e-05
  Final line search alpha, max atom move = 0.5 1.3071544e-05
  Iterations, force evaluations = 178 361

MPI task timing breakdown:
Section |  min time  |  avg time  |  max time  |%varavg| %total
---------------------------------------------------------------
Pair    | 2.4116     | 4.6313     | 5.9794     |  52.4 | 73.99
Neigh   | 0          | 0          | 0          |   0.0 |  0.00
Comm    | 0.092516   | 0.64387    | 1.5193     |  51.9 | 10.29
Output  | 0          | 0          | 0          |   0.0 |  0.00
Modify  | 0.0067376  | 0.010341   | 0.013113   |   1.6 |  0.17
Other   |            | 0.9741     |            |       | 15.56

Nlocal:        11105.8 ave       15273 max        4380 min
Histogram: 4 0 0 0 4 0 4 4 6 4
Nghost:        10533.6 ave       14020 max        4076 min
Histogram: 4 0 0 0 4 0 4 2 6 6
Neighs:       316854.0 ave      440729 max      114725 min
Histogram: 4 0 0 0 4 0 4 4 8 2

Total # of neighbors = 8238204
Ave neighs/atom = 28.530478
Neighbor list builds = 0
Dangerous builds = 0
The dot product: -1.43996678768434e-07
Setting atom values ...
  1 settings made for x
  1 settings made for y
  1 settings made for z
Setting up cg style minimization ...
  Unit style    : metal
  Current step  : 1219
Per MPI rank memory allocation (min/avg/max) = 6.233 | 10.36 | 11.60 Mbytes
Step PotEng KinEng TotEng v_fx v_fy v_fz 
    1219   -1152449.4            0   -1152449.4 0.00052046053 0.0059348843 -0.030448783 
    1362   -1152449.4            0   -1152449.4 3.6217742e-06 5.4702566e-06 -9.5730325e-06 
Loop time of 5.05598 on 26 procs for 143 steps with 288751 atoms

100.0% CPU use with 26 MPI tasks x 1 OpenMP threads

Minimization stats:
  Stopping criterion = linesearch alpha is zero
  Energy initial, next-to-last, final = 
     -1152449.38285178  -1152449.38468021  -1152449.38468021
  Force two-norm initial, final = 0.18746294 0.00030384743
  Force max component initial, final = 0.085161994 6.6111792e-05
  Final line search alpha, max atom move = 0.125 8.2639740e-06
  Iterations, force evaluations = 143 291

MPI task timing breakdown:
Section |  min time  |  avg time  |  max time  |%varavg| %total
---------------------------------------------------------------
Pair    | 1.9566     | 3.7357     | 4.8339     |  47.0 | 73.89
Neigh   | 0          | 0          | 0          |   0.0 |  0.00
Comm    | 0.073545   | 0.51954    | 1.2203     |  46.6 | 10.28
Output  | 0          | 0          | 0          |   0.0 |  0.00
Modify  | 0.0053929  | 0.0083404  | 0.010566   |   1.5 |  0.16
Other   |            | 0.7924     |            |       | 15.67

Nlocal:        11105.8 ave       15270 max        4380 min
Histogram: 4 0 0 0 4 0 4 4 6 4
Nghost:        10533.6 ave       14020 max        4076 min
Histogram: 4 0 0 0 4 0 4 2 6 6
Neighs:       316854.0 ave      440640 max      114725 min
Histogram: 4 0 0 0 4 0 4 4 8 2

Total # of neighbors = 8238202
Ave neighs/atom = 28.530471
Neighbor list builds = 0
Dangerous builds = 0
The dot product: 5.67520858305047e-08
Setting atom values ...
  1 settings made for x
  1 settings made for y
  1 settings made for z
Setting up cg style minimization ...
  Unit style    : metal
  Current step  : 1362
Per MPI rank memory allocation (min/avg/max) = 6.233 | 10.36 | 11.60 Mbytes
Step PotEng KinEng TotEng v_fx v_fy v_fz 
    1362   -1152449.4            0   -1152449.4 -0.0061301574 0.0022591576 -0.035545254 
    1531   -1152449.4            0   -1152449.4 -6.7193423e-06 9.4298675e-06 -6.8354002e-05 
Loop time of 5.93526 on 26 procs for 169 steps with 288751 atoms

100.0% CPU use with 26 MPI tasks x 1 OpenMP threads

Minimization stats:
  Stopping criterion = linesearch alpha is zero
  Energy initial, next-to-last, final = 
     -1152449.36924183  -1152449.37117519  -1152449.37117519
  Force two-norm initial, final = 0.18628857 0.0002464574
  Force max component initial, final = 0.089517983 6.8354002e-05
  Final line search alpha, max atom move = 0.125 8.5442503e-06
  Iterations, force evaluations = 169 343

MPI task timing breakdown:
Section |  min time  |  avg time  |  max time  |%varavg| %total
---------------------------------------------------------------
Pair    | 2.2936     | 4.3909     | 5.6727     |  50.7 | 73.98
Neigh   | 0          | 0          | 0          |   0.0 |  0.00
Comm    | 0.085659   | 0.60562    | 1.4445     |  50.8 | 10.20
Output  | 0          | 0          | 0          |   0.0 |  0.00
Modify  | 0.0063701  | 0.0098357  | 0.012443   |   1.6 |  0.17
Other   |            | 0.9289     |            |       | 15.65

Nlocal:        11105.8 ave       15270 max        4380 min
Histogram: 4 0 0 0 4 0 4 4 6 4
Nghost:        10533.6 ave       14020 max        4076 min
Histogram: 4 0 0 0 4 0 4 2 6 6
Neighs:       316854.0 ave      440646 max      114725 min
Histogram: 4 0 0 0 4 0 4 4 8 2

Total # of neighbors = 8238204
Ave neighs/atom = 28.530478
Neighbor list builds = 0
Dangerous builds = 0
The dot product: 6.76272035774411e-07
Setting atom values ...
  1 settings made for x
  1 settings made for y
  1 settings made for z
Setting up cg style minimization ...
  Unit style    : metal
  Current step  : 1531
Per MPI rank memory allocation (min/avg/max) = 6.233 | 10.36 | 11.60 Mbytes
Step PotEng KinEng TotEng v_fx v_fy v_fz 
    1531   -1152449.4            0   -1152449.4 -0.010631755 0.00062369638 -0.036214995 
    1694   -1152449.4            0   -1152449.4 -1.2666385e-05 2.3462529e-05 -0.00011918057 
Loop time of 5.74882 on 26 procs for 163 steps with 288751 atoms

100.0% CPU use with 26 MPI tasks x 1 OpenMP threads

Minimization stats:
  Stopping criterion = linesearch alpha is zero
  Energy initial, next-to-last, final = 
     -1152449.35464247   -1152449.3566924   -1152449.3566924
  Force two-norm initial, final = 0.18478032 0.00030329562
  Force max component initial, final = 0.094528803 0.00011918057
  Final line search alpha, max atom move = 0.125 1.4897571e-05
  Iterations, force evaluations = 163 331

MPI task timing breakdown:
Section |  min time  |  avg time  |  max time  |%varavg| %total
---------------------------------------------------------------
Pair    | 2.2181     | 4.2452     | 5.4977     |  50.1 | 73.85
Neigh   | 0          | 0          | 0          |   0.0 |  0.00
Comm    | 0.082605   | 0.58884    | 1.3949     |  49.7 | 10.24
Output  | 0          | 0          | 0          |   0.0 |  0.00
Modify  | 0.0062119  | 0.0094859  | 0.012017   |   1.6 |  0.17
Other   |            | 0.9053     |            |       | 15.75

Nlocal:        11105.8 ave       15268 max        4380 min
Histogram: 4 0 0 0 4 0 4 4 6 4
Nghost:        10533.7 ave       14020 max        4076 min
Histogram: 4 0 0 0 4 0 4 2 6 6
Neighs:       316854.0 ave      440590 max      114725 min
Histogram: 4 0 0 0 4 0 4 4 8 2

Total # of neighbors = 8238205
Ave neighs/atom = 28.530481
Neighbor list builds = 0
Dangerous builds = 0
The dot product: 1.34637021553947e-06
Setting atom values ...
  1 settings made for x
  1 settings made for y
  1 settings made for z
Setting up cg style minimization ...
  Unit style    : metal
  Current step  : 1694
Per MPI rank memory allocation (min/avg/max) = 6.233 | 10.36 | 11.60 Mbytes
Step PotEng KinEng TotEng v_fx v_fy v_fz 
    1694   -1152449.3            0   -1152449.3 -0.013971926 0.00020897655 -0.035809134 
    1857   -1152449.3            0   -1152449.3 1.4017692e-05 -6.8362571e-06 5.4199338e-05 
Loop time of 5.65787 on 26 procs for 163 steps with 288751 atoms

99.9% CPU use with 26 MPI tasks x 1 OpenMP threads

Minimization stats:
  Stopping criterion = energy tolerance
  Energy initial, next-to-last, final = 
     -1152449.33915787  -1152449.34110092  -1152449.34110092
  Force two-norm initial, final = 0.1830361 0.00028288233
  Force max component initial, final = 0.09943613 5.5688739e-05
  Final line search alpha, max atom move = 1.0000000 5.5688739e-05
  Iterations, force evaluations = 163 326

MPI task timing breakdown:
Section |  min time  |  avg time  |  max time  |%varavg| %total
---------------------------------------------------------------
Pair    | 2.184      | 4.1783     | 5.4046     |  49.6 | 73.85
Neigh   | 0          | 0          | 0          |   0.0 |  0.00
Comm    | 0.083238   | 0.57919    | 1.3669     |  49.1 | 10.24
Output  | 0          | 0          | 0          |   0.0 |  0.00
Modify  | 0.0060436  | 0.0093274  | 0.011857   |   1.6 |  0.16
Other   |            | 0.891      |            |       | 15.75

Nlocal:        11105.8 ave       15266 max        4380 min
Histogram: 4 0 0 0 4 0 4 4 6 4
Nghost:        10533.8 ave       14020 max        4076 min
Histogram: 4 0 0 0 4 0 4 2 6 6
Neighs:       316854.0 ave      440546 max      114725 min
Histogram: 4 0 0 0 4 0 4 4 8 2

Total # of neighbors = 8238207
Ave neighs/atom = 28.530488
Neighbor list builds = 0
Dangerous builds = 0
The dot product: -5.99902765757744e-07
Setting atom values ...
  1 settings made for x
  1 settings made for y
  1 settings made for z
Setting up cg style minimization ...
  Unit style    : metal
  Current step  : 1857
Per MPI rank memory allocation (min/avg/max) = 6.233 | 10.36 | 11.60 Mbytes
Step PotEng KinEng TotEng v_fx v_fy v_fz 
    1857   -1152449.3            0   -1152449.3 -0.012786055 0.00037200574    -0.027969 
    2000   -1152449.3            0   -1152449.3 2.3188877e-05 -2.7224643e-05 0.00011478205 
    2007   -1152449.3            0   -1152449.3 2.339958e-05 -4.1237106e-05 0.00014903612 
Loop time of 5.32691 on 26 procs for 150 steps with 288751 atoms

100.0% CPU use with 26 MPI tasks x 1 OpenMP threads

Minimization stats:
  Stopping criterion = linesearch alpha is zero
  Energy initial, next-to-last, final = 
     -1152449.32237709  -1152449.32421515  -1152449.32421515
  Force two-norm initial, final = 0.18023968 0.00038912044
  Force max component initial, final = 0.10401353 0.00014903612
  Final line search alpha, max atom move = 0.0625 9.3147578e-06
  Iterations, force evaluations = 150 307

MPI task timing breakdown:
Section |  min time  |  avg time  |  max time  |%varavg| %total
---------------------------------------------------------------
Pair    | 2.0512     | 3.9383     | 5.0935     |  48.2 | 73.93
Neigh   | 0          | 0          | 0          |   0.0 |  0.00
Comm    | 0.076696   | 0.54591    | 1.3022     |  48.3 | 10.25
Output  | 0.00028259 | 0.00028366 | 0.00029588 |   0.0 |  0.01
Modify  | 0.005797   | 0.0087882  | 0.011156   |   1.5 |  0.16
Other   |            | 0.8336     |            |       | 15.65

Nlocal:        11105.8 ave       15264 max        4380 min
Histogram: 4 0 0 0 4 0 4 4 6 4
Nghost:        10533.8 ave       14020 max        4076 min
Histogram: 4 0 0 0 4 0 4 2 6 6
Neighs:       316854.0 ave      440448 max      114725 min
Histogram: 4 0 0 0 4 0 4 4 8 2

Total # of neighbors = 8238209
Ave neighs/atom = 28.530495
Neighbor list builds = 0
Dangerous builds = 0
The dot product: -1.33126078125181e-06
Setting atom values ...
  1 settings made for x
  1 settings made for y
  1 settings made for z
Setting up cg style minimization ...
  Unit style    : metal
  Current step  : 2007
Per MPI rank memory allocation (min/avg/max) = 6.233 | 10.36 | 11.60 Mbytes
Step PotEng KinEng TotEng v_fx v_fy v_fz 
    2007   -1152449.3            0   -1152449.3 -0.010395117 0.00063426528 -0.020757873 
    2162   -1152449.3            0   -1152449.3 6.1067589e-06 -1.7922389e-05 5.0709128e-05 
Loop time of 5.49162 on 26 procs for 155 steps with 288751 atoms

100.0% CPU use with 26 MPI tasks x 1 OpenMP threads

Minimization stats:
  Stopping criterion = linesearch alpha is zero
  Energy initial, next-to-last, final = 
      -1152449.3042277   -1152449.3060148   -1152449.3060148
  Force two-norm initial, final = 0.17800886 0.00033716057
  Force max component initial, final = 0.10783048 5.7852895e-05
  Final line search alpha, max atom move = 0.0625 3.6158059e-06
  Iterations, force evaluations = 155 317

MPI task timing breakdown:
Section |  min time  |  avg time  |  max time  |%varavg| %total
---------------------------------------------------------------
Pair    | 2.1196     | 4.0615     | 5.2501     |  48.9 | 73.96
Neigh   | 0          | 0          | 0          |   0.0 |  0.00
Comm    | 0.079298   | 0.56175    | 1.3338     |  48.8 | 10.23
Output  | 0          | 0          | 0          |   0.0 |  0.00
Modify  | 0.0059008  | 0.0090874  | 0.011517   |   1.5 |  0.17
Other   |            | 0.8592     |            |       | 15.65

Nlocal:        11105.8 ave       15260 max        4380 min
Histogram: 4 0 0 0 4 0 4 4 6 4
Nghost:        10534.0 ave       14021 max        4076 min
Histogram: 4 0 0 0 4 0 4 2 6 6
Neighs:       316854.0 ave      440305 max      114725 min
Histogram: 4 0 0 0 4 0 4 4 8 2

Total # of neighbors = 8238209
Ave neighs/atom = 28.530495
Neighbor list builds = 0
Dangerous builds = 0
The dot product: -4.04719628324252e-07
Setting atom values ...
  1 settings made for x
  1 settings made for y
  1 settings made for z
Setting up cg style minimization ...
  Unit style    : metal
  Current step  : 2162
Per MPI rank memory allocation (min/avg/max) = 6.233 | 10.36 | 11.60 Mbytes
Step PotEng KinEng TotEng v_fx v_fy v_fz 
    2162   -1152449.3            0   -1152449.3 -0.0085950858 0.0010815935 -0.016676627 
    2313   -1152449.3            0   -1152449.3 5.1526047e-06 -4.6501083e-06 1.8147943e-05 
Loop time of 5.3782 on 26 procs for 151 steps with 288751 atoms

100.0% CPU use with 26 MPI tasks x 1 OpenMP threads

Minimization stats:
  Stopping criterion = linesearch alpha is zero
  Energy initial, next-to-last, final = 
     -1152449.28476695  -1152449.28657008  -1152449.28657008
  Force two-norm initial, final = 0.17644377 0.000349089
  Force max component initial, final = 0.11098185 4.3295428e-05
  Final line search alpha, max atom move = 0.0625 2.7059643e-06
  Iterations, force evaluations = 151 309

MPI task timing breakdown:
Section |  min time  |  avg time  |  max time  |%varavg| %total
---------------------------------------------------------------
Pair    | 2.0704     | 3.9714     | 5.1424     |  48.5 | 73.84
Neigh   | 0          | 0          | 0          |   0.0 |  0.00
Comm    | 0.077974   | 0.5534     | 1.3079     |  48.4 | 10.29
Output  | 0          | 0          | 0          |   0.0 |  0.00
Modify  | 0.0057993  | 0.008855   | 0.0112     |   1.5 |  0.16
Other   |            | 0.8445     |            |       | 15.70

Nlocal:        11105.8 ave       15254 max        4380 min
Histogram: 4 0 0 0 4 0 4 4 6 4
Nghost:        10534.0 ave       14021 max        4076 min
Histogram: 4 0 0 0 4 0 4 2 6 6
Neighs:       316854.0 ave      440122 max      114725 min
Histogram: 4 0 0 0 4 0 4 4 8 2

Total # of neighbors = 8238216
Ave neighs/atom = 28.530519
Neighbor list builds = 0
Dangerous builds = 0
The dot product: -1.62522751235381e-07
Setting atom values ...
  1 settings made for x
  1 settings made for y
  1 settings made for z
Setting up cg style minimization ...
  Unit style    : metal
  Current step  : 2313
Per MPI rank memory allocation (min/avg/max) = 6.233 | 10.36 | 11.60 Mbytes
Step PotEng KinEng TotEng v_fx v_fy v_fz 
    2313   -1152449.3            0   -1152449.3 -0.0083536513 0.0017474361 -0.016172262 
    2486   -1152449.3            0   -1152449.3 -1.5258998e-06 -8.7055306e-06 1.421216e-05 
Loop time of 6.04412 on 26 procs for 173 steps with 288751 atoms

100.0% CPU use with 26 MPI tasks x 1 OpenMP threads

Minimization stats:
  Stopping criterion = linesearch alpha is zero
  Energy initial, next-to-last, final = 
     -1152449.26414351  -1152449.26594092  -1152449.26594092
  Force two-norm initial, final = 0.17522518 0.00022324116
  Force max component initial, final = 0.11366516 4.3849530e-05
  Final line search alpha, max atom move = 0.25 1.0962382e-05
  Iterations, force evaluations = 173 349

MPI task timing breakdown:
Section |  min time  |  avg time  |  max time  |%varavg| %total
---------------------------------------------------------------
Pair    | 2.3315     | 4.4686     | 5.777      |  51.4 | 73.93
Neigh   | 0          | 0          | 0          |   0.0 |  0.00
Comm    | 0.086599   | 0.61901    | 1.4665     |  51.2 | 10.24
Output  | 0          | 0          | 0          |   0.0 |  0.00
Modify  | 0.0064925  | 0.0099946  | 0.012693   |   1.6 |  0.17
Other   |            | 0.9465     |            |       | 15.66

Nlocal:        11105.8 ave       15250 max        4380 min
Histogram: 4 0 0 0 4 0 4 4 6 4
Nghost:        10534.0 ave       14021 max        4076 min
Histogram: 4 0 0 0 4 0 4 2 6 6
Neighs:       316854.0 ave      439992 max      114725 min
Histogram: 4 0 0 0 4 0 4 4 7 3

Total # of neighbors = 8238216
Ave neighs/atom = 28.530519
Neighbor list builds = 0
Dangerous builds = 0
The dot product: -1.10064868161906e-07
Setting atom values ...
  1 settings made for x
  1 settings made for y
  1 settings made for z
Setting up cg style minimization ...
  Unit style    : metal
  Current step  : 2486
Per MPI rank memory allocation (min/avg/max) = 6.233 | 10.36 | 11.60 Mbytes
Step PotEng KinEng TotEng v_fx v_fy v_fz 
    2486   -1152449.2            0   -1152449.2 -0.0086303939 0.0021488529 -0.016063179 
    2642   -1152449.2            0   -1152449.2 1.9281492e-06 8.8858394e-06 -1.3138756e-05 
Loop time of 5.43402 on 26 procs for 156 steps with 288751 atoms

100.0% CPU use with 26 MPI tasks x 1 OpenMP threads

Minimization stats:
  Stopping criterion = energy tolerance
  Energy initial, next-to-last, final = 
     -1152449.24232591  -1152449.24413556  -1152449.24413556
  Force two-norm initial, final = 0.17433152 0.00030773694
  Force max component initial, final = 0.11644296 3.5157161e-05
  Final line search alpha, max atom move = 1.0000000 3.5157161e-05
  Iterations, force evaluations = 156 312

MPI task timing breakdown:
Section |  min time  |  avg time  |  max time  |%varavg| %total
---------------------------------------------------------------
Pair    | 2.0958     | 4.0097     | 5.1968     |  48.7 | 73.79
Neigh   | 0          | 0          | 0          |   0.0 |  0.00
Comm    | 0.07732    | 0.55717    | 1.3147     |  48.2 | 10.25
Output  | 0          | 0          | 0          |   0.0 |  0.00
Modify  | 0.0057651  | 0.0089279  | 0.01133    |   1.5 |  0.16
Other   |            | 0.8582     |            |       | 15.79

Nlocal:        11105.8 ave       15250 max        4380 min
Histogram: 4 0 0 0 4 0 4 4 6 4
Nghost:        10534.0 ave       14021 max        4076 min
Histogram: 4 0 0 0 4 0 4 2 6 6
Neighs:       316854.0 ave      439987 max      114725 min
Histogram: 4 0 0 0 4 0 4 4 7 3

Total # of neighbors = 8238215
Ave neighs/atom = 28.530516
Neighbor list builds = 0
Dangerous builds = 0
The dot product: 1.09593920668572e-07
Setting atom values ...
  1 settings made for x
  1 settings made for y
  1 settings made for z
Setting up cg style minimization ...
  Unit style    : metal
  Current step  : 2642
Per MPI rank memory allocation (min/avg/max) = 6.233 | 10.36 | 11.60 Mbytes
Step PotEng KinEng TotEng v_fx v_fy v_fz 
    2642   -1152449.2            0   -1152449.2 -0.010460674 0.0024243331 -0.017749311 
    2822   -1152449.2            0   -1152449.2 -4.3045412e-06 1.565844e-06 -8.2583816e-06 
Loop time of 6.28736 on 26 procs for 180 steps with 288751 atoms

100.0% CPU use with 26 MPI tasks x 1 OpenMP threads

Minimization stats:
  Stopping criterion = linesearch alpha is zero
  Energy initial, next-to-last, final = 
     -1152449.21938675   -1152449.2213523   -1152449.2213523
  Force two-norm initial, final = 0.17373394 0.00018011755
  Force max component initial, final = 0.11900361 3.3478525e-05
  Final line search alpha, max atom move = 0.25 8.3696313e-06
  Iterations, force evaluations = 180 363

MPI task timing breakdown:
Section |  min time  |  avg time  |  max time  |%varavg| %total
---------------------------------------------------------------
Pair    | 2.4257     | 4.6586     | 6.0094     |  52.5 | 74.09
Neigh   | 0          | 0          | 0          |   0.0 |  0.00
Comm    | 0.090876   | 0.64366    | 1.5336     |  52.5 | 10.24
Output  | 0          | 0          | 0          |   0.0 |  0.00
Modify  | 0.0067171  | 0.010406   | 0.013177   |   1.6 |  0.17
Other   |            | 0.9747     |            |       | 15.50

Nlocal:        11105.8 ave       15249 max        4380 min
Histogram: 4 0 0 0 4 0 4 4 6 4
Nghost:        10534.0 ave       14021 max        4076 min
Histogram: 4 0 0 0 4 0 4 2 6 6
Neighs:       316854.0 ave      439945 max      114725 min
Histogram: 4 0 0 0 4 0 4 4 7 3

Total # of neighbors = 8238211
Ave neighs/atom = 28.530502
Neighbor list builds = 0
Dangerous builds = 0
The dot product: 1.16669917286042e-07
Setting atom values ...
  1 settings made for x
  1 settings made for y
  1 settings made for z
Setting up cg style minimization ...
  Unit style    : metal
  Current step  : 2822
Per MPI rank memory allocation (min/avg/max) = 6.233 | 10.36 | 11.60 Mbytes
Step PotEng KinEng TotEng v_fx v_fy v_fz 
    2822   -1152449.2            0   -1152449.2 -0.016503252 0.0032217975 -0.024657985 
    2988   -1152449.2            0   -1152449.2 -5.1505904e-06 -1.6042079e-06 -3.6108419e-06 
Loop time of 5.88122 on 26 procs for 166 steps with 288751 atoms

100.0% CPU use with 26 MPI tasks x 1 OpenMP threads

Minimization stats:
  Stopping criterion = linesearch alpha is zero
  Energy initial, next-to-last, final = 
     -1152449.19576435  -1152449.19794101  -1152449.19794101
  Force two-norm initial, final = 0.17405801 0.00023319531
  Force max component initial, final = 0.12158735 4.8748288e-05
  Final line search alpha, max atom move = 0.125 6.0935360e-06
  Iterations, force evaluations = 166 339

MPI task timing breakdown:
Section |  min time  |  avg time  |  max time  |%varavg| %total
---------------------------------------------------------------
Pair    | 2.2803     | 4.3563     | 5.623      |  50.7 | 74.07
Neigh   | 0          | 0          | 0          |   0.0 |  0.00
Comm    | 0.085176   | 0.60216    | 1.4266     |  51.0 | 10.24
Output  | 0          | 0          | 0          |   0.0 |  0.00
Modify  | 0.0062596  | 0.0097154  | 0.012305   |   1.6 |  0.17
Other   |            | 0.9131     |            |       | 15.53

Nlocal:        11105.8 ave       15249 max        4380 min
Histogram: 4 0 0 0 4 0 4 4 6 4
Nghost:        10534.0 ave       14021 max        4076 min
Histogram: 4 0 0 0 4 0 4 2 6 6
Neighs:       316854.0 ave      439941 max      114725 min
Histogram: 4 0 0 0 4 0 4 4 7 3

Total # of neighbors = 8238213
Ave neighs/atom = 28.530509
Neighbor list builds = 0
Dangerous builds = 0
The dot product: 8.49374767414141e-08
Setting atom values ...
  1 settings made for x
  1 settings made for y
  1 settings made for z
Setting up cg style minimization ...
  Unit style    : metal
  Current step  : 2988
Per MPI rank memory allocation (min/avg/max) = 6.233 | 10.36 | 11.60 Mbytes
Step PotEng KinEng TotEng v_fx v_fy v_fz 
    2988   -1152449.2            0   -1152449.2 -0.022351182  0.004345714 -0.030118437 
    3000   -1152449.2            0   -1152449.2 2.4872591e-05 0.0010437615 -0.0014856708 
    3131   -1152449.2            0   -1152449.2 1.2377179e-05 -5.5593262e-05 9.3734311e-05 
Loop time of 4.96117 on 26 procs for 143 steps with 288751 atoms

100.0% CPU use with 26 MPI tasks x 1 OpenMP threads

Minimization stats:
  Stopping criterion = energy tolerance
  Energy initial, next-to-last, final = 
     -1152449.17170294  -1152449.17386033  -1152449.17386033
  Force two-norm initial, final = 0.17465314 0.00043101055
  Force max component initial, final = 0.12417942 9.3734311e-05
  Final line search alpha, max atom move = 1.0000000 9.3734311e-05
  Iterations, force evaluations = 143 286

MPI task timing breakdown:
Section |  min time  |  avg time  |  max time  |%varavg| %total
---------------------------------------------------------------
Pair    | 1.9196     | 3.6679     | 4.7401     |  46.4 | 73.93
Neigh   | 0          | 0          | 0          |   0.0 |  0.00
Comm    | 0.071616   | 0.50684    | 1.1984     |  46.2 | 10.22
Output  | 0.00018127 | 0.00018229 | 0.00019269 |   0.0 |  0.00
Modify  | 0.0053019  | 0.0081959  | 0.01041    |   1.5 |  0.17
Other   |            | 0.7781     |            |       | 15.68

Nlocal:        11105.8 ave       15250 max        4380 min
Histogram: 4 0 0 0 4 0 4 4 6 4
Nghost:        10534.0 ave       14021 max        4076 min
Histogram: 4 0 0 0 4 0 4 2 6 6
Neighs:       316854.0 ave      439957 max      114725 min
Histogram: 4 0 0 0 4 0 4 4 7 3

Total # of neighbors = 8238215
Ave neighs/atom = 28.530516
Neighbor list builds = 0
Dangerous builds = 0
The dot product: -1.42206016211128e-06
Setting atom values ...
  1 settings made for x
  1 settings made for y
  1 settings made for z
Setting up cg style minimization ...
  Unit style    : metal
  Current step  : 3131
Per MPI rank memory allocation (min/avg/max) = 6.233 | 10.36 | 11.60 Mbytes
Step PotEng KinEng TotEng v_fx v_fy v_fz 
    3131   -1152449.1            0   -1152449.1 -0.023020956 0.0044364757 -0.028158465 
    3297   -1152449.1            0   -1152449.1 5.2013557e-06 -7.1052888e-06 1.4611287e-05 
Loop time of 5.85285 on 26 procs for 166 steps with 288751 atoms

100.0% CPU use with 26 MPI tasks x 1 OpenMP threads

Minimization stats:
  Stopping criterion = linesearch alpha is zero
  Energy initial, next-to-last, final = 
     -1152449.14677584  -1152449.14880595  -1152449.14880595
  Force two-norm initial, final = 0.17422383 0.00020714951
  Force max component initial, final = 0.12714298 2.7501763e-05
  Final line search alpha, max atom move = 0.25 6.8754408e-06
  Iterations, force evaluations = 166 337

MPI task timing breakdown:
Section |  min time  |  avg time  |  max time  |%varavg| %total
---------------------------------------------------------------
Pair    | 2.2543     | 4.3275     | 5.5957     |  50.7 | 73.94
Neigh   | 0          | 0          | 0          |   0.0 |  0.00
Comm    | 0.085019   | 0.60034    | 1.4265     |  50.3 | 10.26
Output  | 0          | 0          | 0          |   0.0 |  0.00
Modify  | 0.0062866  | 0.0096663  | 0.012235   |   1.6 |  0.17
Other   |            | 0.9154     |            |       | 15.64

Nlocal:        11105.8 ave       15250 max        4380 min
Histogram: 4 0 0 0 4 0 4 4 6 4
Nghost:        10534.0 ave       14021 max        4076 min
Histogram: 4 0 0 0 4 0 4 2 6 6
Neighs:       316854.0 ave      439949 max      114725 min
Histogram: 4 0 0 0 4 0 4 4 7 3

Total # of neighbors = 8238215
Ave neighs/atom = 28.530516
Neighbor list builds = 0
Dangerous builds = 0
The dot product: -2.25980495788988e-07
Setting atom values ...
  1 settings made for x
  1 settings made for y
  1 settings made for z
Setting up cg style minimization ...
  Unit style    : metal
  Current step  : 3297
Per MPI rank memory allocation (min/avg/max) = 6.233 | 10.36 | 11.60 Mbytes
Step PotEng KinEng TotEng v_fx v_fy v_fz 
    3297   -1152449.1            0   -1152449.1 -0.020642973 0.0042721809 -0.023660205 
    3456   -1152449.1            0   -1152449.1 7.4565652e-06 -1.3838419e-05 2.4222879e-05 
Loop time of 5.59897 on 26 procs for 159 steps with 288751 atoms

100.0% CPU use with 26 MPI tasks x 1 OpenMP threads

Minimization stats:
  Stopping criterion = linesearch alpha is zero
  Energy initial, next-to-last, final = 
     -1152449.12074475  -1152449.12259886  -1152449.12259886
  Force two-norm initial, final = 0.1734742 0.00024574355
  Force max component initial, final = 0.129894 4.1870209e-05
  Final line search alpha, max atom move = 0.125 5.2337761e-06
  Iterations, force evaluations = 159 323

MPI task timing breakdown:
Section |  min time  |  avg time  |  max time  |%varavg| %total
---------------------------------------------------------------
Pair    | 2.1597     | 4.1414     | 5.3517     |  49.4 | 73.97
Neigh   | 0          | 0          | 0          |   0.0 |  0.00
Comm    | 0.080994   | 0.57242    | 1.3594     |  49.2 | 10.22
Output  | 0          | 0          | 0          |   0.0 |  0.00
Modify  | 0.0060258  | 0.0092438  | 0.011741   |   1.5 |  0.17
Other   |            | 0.8759     |            |       | 15.64

Nlocal:        11105.8 ave       15251 max        4380 min
Histogram: 4 0 0 0 4 0 4 4 6 4
Nghost:        10534.0 ave       14021 max        4076 min
Histogram: 4 0 0 0 4 0 4 2 6 6
Neighs:       316854.0 ave      439980 max      114725 min
Histogram: 4 0 0 0 4 0 4 4 7 3

Total # of neighbors = 8238213
Ave neighs/atom = 28.530509
Neighbor list builds = 0
Dangerous builds = 0
The dot product: -3.16385310184218e-07
Setting atom values ...
  1 settings made for x
  1 settings made for y
  1 settings made for z
Setting up cg style minimization ...
  Unit style    : metal
  Current step  : 3456
Per MPI rank memory allocation (min/avg/max) = 6.233 | 10.36 | 11.60 Mbytes
Step PotEng KinEng TotEng v_fx v_fy v_fz 
    3456   -1152449.1            0   -1152449.1 -0.016443007 0.0034014703 -0.017675476 
    3605   -1152449.1            0   -1152449.1 -1.5984966e-05 4.9124476e-05 -7.2951963e-05 
Loop time of 5.183 on 26 procs for 149 steps with 288751 atoms

100.0% CPU use with 26 MPI tasks x 1 OpenMP threads

Minimization stats:
  Stopping criterion = energy tolerance
  Energy initial, next-to-last, final = 
     -1152449.09339513  -1152449.09512159  -1152449.09512159
  Force two-norm initial, final = 0.17303302 0.00031127158
  Force max component initial, final = 0.13269326 7.2951963e-05
  Final line search alpha, max atom move = 1.0000000 7.2951963e-05
  Iterations, force evaluations = 149 298

MPI task timing breakdown:
Section |  min time  |  avg time  |  max time  |%varavg| %total
---------------------------------------------------------------
Pair    | 1.9933     | 3.8293     | 4.9557     |  47.6 | 73.88
Neigh   | 0          | 0          | 0          |   0.0 |  0.00
Comm    | 0.07427    | 0.53309    | 1.2639     |  47.2 | 10.29
Output  | 0          | 0          | 0          |   0.0 |  0.00
Modify  | 0.0055752  | 0.0085535  | 0.010786   |   1.5 |  0.17
Other   |            | 0.8121     |            |       | 15.67

Nlocal:        11105.8 ave       15251 max        4380 min
Histogram: 4 0 0 0 4 0 4 4 6 4
Nghost:        10534.0 ave       14022 max        4076 min
Histogram: 4 0 0 0 4 0 4 2 6 6
Neighs:       316854.0 ave      439963 max      114725 min
Histogram: 4 0 0 0 4 0 4 4 7 3

Total # of neighbors = 8238212
Ave neighs/atom = 28.530506
Neighbor list builds = 0
Dangerous builds = 0
The dot product: 7.78708958551389e-07
Setting atom values ...
  1 settings made for x
  1 settings made for y
  1 settings made for z
Setting up cg style minimization ...
  Unit style    : metal
  Current step  : 3605
Per MPI rank memory allocation (min/avg/max) = 6.233 | 10.36 | 11.60 Mbytes
Step PotEng KinEng TotEng v_fx v_fy v_fz 
    3605   -1152449.1            0   -1152449.1 -0.011888175 0.0026176605 -0.012349126 
    3783   -1152449.1            0   -1152449.1 -6.2714606e-06 1.7485884e-05 -2.5409196e-05 
Loop time of 6.18534 on 26 procs for 178 steps with 288751 atoms

100.0% CPU use with 26 MPI tasks x 1 OpenMP threads

Minimization stats:
  Stopping criterion = linesearch alpha is zero
  Energy initial, next-to-last, final = 
     -1152449.06470808   -1152449.0663605   -1152449.0663605
  Force two-norm initial, final = 0.17313818 0.0001480676
  Force max component initial, final = 0.13526696 2.5409196e-05
  Final line search alpha, max atom move = 0.5 1.2704598e-05
  Iterations, force evaluations = 178 357

MPI task timing breakdown:
Section |  min time  |  avg time  |  max time  |%varavg| %total
---------------------------------------------------------------
Pair    | 2.3897     | 4.5756     | 5.9124     |  52.0 | 73.97
Neigh   | 0          | 0          | 0          |   0.0 |  0.00
Comm    | 0.088953   | 0.63283    | 1.498      |  51.8 | 10.23
Output  | 0          | 0          | 0          |   0.0 |  0.00
Modify  | 0.0066528  | 0.01022    | 0.012949   |   1.6 |  0.17
Other   |            | 0.9667     |            |       | 15.63

Nlocal:        11105.8 ave       15250 max        4380 min
Histogram: 4 0 0 0 4 0 4 4 6 4
Nghost:        10534.1 ave       14022 max        4076 min
Histogram: 4 0 0 0 4 0 4 2 6 6
Neighs:       316854.0 ave      439928 max      114725 min
Histogram: 4 0 0 0 4 0 4 4 7 3

Total # of neighbors = 8238214
Ave neighs/atom = 28.530512
Neighbor list builds = 0
Dangerous builds = 0
The dot product: 2.33530118333369e-07
Setting atom values ...
  1 settings made for x
  1 settings made for y
  1 settings made for z
Setting up cg style minimization ...
  Unit style    : metal
  Current step  : 3783
Per MPI rank memory allocation (min/avg/max) = 6.233 | 10.36 | 11.60 Mbytes
Step PotEng KinEng TotEng v_fx v_fy v_fz 
    3783     -1152449            0     -1152449 -0.0077256658 0.0019723365 -0.0080354255 
    3947     -1152449            0     -1152449 -2.2200217e-06 1.2910692e-05 -1.6363489e-05 
Loop time of 5.80694 on 26 procs for 164 steps with 288751 atoms

100.0% CPU use with 26 MPI tasks x 1 OpenMP threads

Minimization stats:
  Stopping criterion = linesearch alpha is zero
  Energy initial, next-to-last, final = 
     -1152449.03472832  -1152449.03635781  -1152449.03635781
  Force two-norm initial, final = 0.17374192 0.0002368326
  Force max component initial, final = 0.13772163 1.8404292e-05
  Final line search alpha, max atom move = 0.125 2.3005364e-06
  Iterations, force evaluations = 164 333

MPI task timing breakdown:
Section |  min time  |  avg time  |  max time  |%varavg| %total
---------------------------------------------------------------
Pair    | 2.2398     | 4.2811     | 5.5545     |  50.3 | 73.72
Neigh   | 0          | 0          | 0          |   0.0 |  0.00
Comm    | 0.082998   | 0.59646    | 1.3915     |  49.3 | 10.27
Output  | 0          | 0          | 0          |   0.0 |  0.00
Modify  | 0.0061668  | 0.0095399  | 0.012098   |   1.6 |  0.16
Other   |            | 0.9199     |            |       | 15.84

Nlocal:        11105.8 ave       15250 max        4380 min
Histogram: 4 0 0 0 4 0 4 4 6 4
Nghost:        10534.0 ave       14022 max        4076 min
Histogram: 4 0 0 0 4 0 4 2 6 6
Neighs:       316855.0 ave      439919 max      114725 min
Histogram: 4 0 0 0 4 0 4 4 7 3

Total # of neighbors = 8238218
Ave neighs/atom = 28.530526
Neighbor list builds = 0
Dangerous builds = 0
The dot product: 1.30730060608424e-07
Setting atom values ...
  1 settings made for x
  1 settings made for y
  1 settings made for z
Setting up cg style minimization ...
  Unit style    : metal
  Current step  : 3947
Per MPI rank memory allocation (min/avg/max) = 6.233 | 10.36 | 11.60 Mbytes
Step PotEng KinEng TotEng v_fx v_fy v_fz 
    3947     -1152449            0     -1152449 -0.0045833536 0.0014740151 -0.004963451 
    4000     -1152449            0     -1152449 -2.4423686e-05 0.00014892546 -0.00018301477 
    4099     -1152449            0     -1152449 -1.7078936e-05 5.477825e-05 -7.3194338e-05 
Loop time of 5.39291 on 26 procs for 152 steps with 288751 atoms

100.0% CPU use with 26 MPI tasks x 1 OpenMP threads

Minimization stats:
  Stopping criterion = linesearch alpha is zero
  Energy initial, next-to-last, final = 
     -1152449.00358167  -1152449.00522995  -1152449.00522995
  Force two-norm initial, final = 0.1745069 0.00034597914
  Force max component initial, final = 0.13983192 7.3194338e-05
  Final line search alpha, max atom move = 0.0625 4.5746461e-06
  Iterations, force evaluations = 152 311

MPI task timing breakdown:
Section |  min time  |  avg time  |  max time  |%varavg| %total
---------------------------------------------------------------
Pair    | 2.0799     | 3.9892     | 5.1549     |  48.6 | 73.97
Neigh   | 0          | 0          | 0          |   0.0 |  0.00
Comm    | 0.077441   | 0.55133    | 1.314      |  48.5 | 10.22
Output  | 0.0001426  | 0.00014374 | 0.00016223 |   0.0 |  0.00
Modify  | 0.0057575  | 0.0089097  | 0.011279   |   1.5 |  0.17
Other   |            | 0.8433     |            |       | 15.64

Nlocal:        11105.8 ave       15249 max        4380 min
Histogram: 4 0 0 0 4 0 4 4 6 4
Nghost:        10534.0 ave       14022 max        4076 min
Histogram: 4 0 0 0 4 0 4 2 6 6
Neighs:       316855.0 ave      439875 max      114725 min
Histogram: 4 0 0 0 4 0 4 4 7 3

Total # of neighbors = 8238218
Ave neighs/atom = 28.530526
Neighbor list builds = 0
Dangerous builds = 0
The dot product: 5.42220801424798e-07
Setting atom values ...
  1 settings made for x
  1 settings made for y
  1 settings made for z
Setting up cg style minimization ...
  Unit style    : metal
  Current step  : 4099
Per MPI rank memory allocation (min/avg/max) = 6.233 | 10.36 | 11.60 Mbytes
Step PotEng KinEng TotEng v_fx v_fy v_fz 
    4099     -1152449            0     -1152449 -0.002279776 0.00088792986 -0.0025769822 
    4237     -1152449            0     -1152449 -2.8269782e-05 7.6262171e-05 -0.00010276427 
Loop time of 4.9137 on 26 procs for 138 steps with 288751 atoms

100.0% CPU use with 26 MPI tasks x 1 OpenMP threads

Minimization stats:
  Stopping criterion = linesearch alpha is zero
  Energy initial, next-to-last, final = 
     -1152448.97138284  -1152448.97303175  -1152448.97303175
  Force two-norm initial, final = 0.17536566 0.00041644451
  Force max component initial, final = 0.14174433 0.00010276427
  Final line search alpha, max atom move = 0.0625 6.4227671e-06
  Iterations, force evaluations = 138 283

MPI task timing breakdown:
Section |  min time  |  avg time  |  max time  |%varavg| %total
---------------------------------------------------------------
Pair    | 1.9059     | 3.6384     | 4.6997     |  46.4 | 74.05
Neigh   | 0          | 0          | 0          |   0.0 |  0.00
Comm    | 0.070031   | 0.50334    | 1.1947     |  46.8 | 10.24
Output  | 0          | 0          | 0          |   0.0 |  0.00
Modify  | 0.005277   | 0.0081085  | 0.010273   |   1.5 |  0.17
Other   |            | 0.7639     |            |       | 15.55

Nlocal:        11105.8 ave       15248 max        4380 min
Histogram: 4 0 0 0 4 0 4 4 6 4
Nghost:        10534.0 ave       14022 max        4076 min
Histogram: 4 0 0 0 4 0 4 2 6 6
Neighs:       316855.0 ave      439838 max      114725 min
Histogram: 4 0 0 0 4 0 4 4 7 3

Total # of neighbors = 8238219
Ave neighs/atom = 28.530530
Neighbor list builds = 0
Dangerous builds = 0
The dot product: 7.06680447174209e-07
Setting atom values ...
  1 settings made for x
  1 settings made for y
  1 settings made for z
Setting up cg style minimization ...
  Unit style    : metal
  Current step  : 4237
Per MPI rank memory allocation (min/avg/max) = 6.233 | 10.36 | 11.60 Mbytes
Step PotEng KinEng TotEng v_fx v_fy v_fz 
    4237   -1152448.9            0   -1152448.9 -0.0006384386 4.7626965e-05 -0.00049308252 
    4417   -1152448.9            0   -1152448.9 -1.3822137e-05 3.3694482e-05 -4.5415014e-05 
Loop time of 6.32383 on 26 procs for 180 steps with 288751 atoms

100.0% CPU use with 26 MPI tasks x 1 OpenMP threads

Minimization stats:
  Stopping criterion = linesearch alpha is zero
  Energy initial, next-to-last, final = 
     -1152448.93818425  -1152448.93989858  -1152448.93989858
  Force two-norm initial, final = 0.17623101 0.00021349771
  Force max component initial, final = 0.14344982 4.6516242e-05
  Final line search alpha, max atom move = 0.25 1.1629061e-05
  Iterations, force evaluations = 180 365

MPI task timing breakdown:
Section |  min time  |  avg time  |  max time  |%varavg| %total
---------------------------------------------------------------
Pair    | 2.4435     | 4.6828     | 6.044      |  52.5 | 74.05
Neigh   | 0          | 0          | 0          |   0.0 |  0.00
Comm    | 0.091714   | 0.64577    | 1.5347     |  52.5 | 10.21
Output  | 0          | 0          | 0          |   0.0 |  0.00
Modify  | 0.0070887  | 0.010497   | 0.013265   |   1.6 |  0.17
Other   |            | 0.9848     |            |       | 15.57

Nlocal:        11105.8 ave       15248 max        4380 min
Histogram: 4 0 0 0 4 0 4 4 6 4
Nghost:        10534.0 ave       14022 max        4076 min
Histogram: 4 0 0 0 4 0 4 2 6 6
Neighs:       316854.0 ave      439844 max      114725 min
Histogram: 4 0 0 0 4 0 4 4 7 3

Total # of neighbors = 8238216
Ave neighs/atom = 28.530519
Neighbor list builds = 0
Dangerous builds = 0
The dot product: 3.01791212726761e-07
Setting atom values ...
  1 settings made for x
  1 settings made for y
  1 settings made for z
Setting up cg style minimization ...
  Unit style    : metal
  Current step  : 4417
Per MPI rank memory allocation (min/avg/max) = 6.233 | 10.36 | 11.60 Mbytes
Step PotEng KinEng TotEng v_fx v_fy v_fz 
    4417   -1152448.9            0   -1152448.9 0.00039423305 -0.00083205483 0.0011367173 
    4562   -1152448.9            0   -1152448.9 2.8135149e-05 -6.8854991e-05 9.1012653e-05 
Loop time of 5.15162 on 26 procs for 145 steps with 288751 atoms

100.0% CPU use with 26 MPI tasks x 1 OpenMP threads

Minimization stats:
  Stopping criterion = linesearch alpha is zero
  Energy initial, next-to-last, final = 
     -1152448.90417685  -1152448.90583739  -1152448.90583739
  Force two-norm initial, final = 0.17695983 0.00036212351
  Force max component initial, final = 0.14490332 9.1012653e-05
  Final line search alpha, max atom move = 0.0625 5.6882908e-06
  Iterations, force evaluations = 145 297

MPI task timing breakdown:
Section |  min time  |  avg time  |  max time  |%varavg| %total
---------------------------------------------------------------
Pair    | 1.989      | 3.8156     | 4.9267     |  47.5 | 74.07
Neigh   | 0          | 0          | 0          |   0.0 |  0.00
Comm    | 0.074121   | 0.52653    | 1.2584     |  47.8 | 10.22
Output  | 0          | 0          | 0          |   0.0 |  0.00
Modify  | 0.0055231  | 0.0085083  | 0.010782   |   1.5 |  0.17
Other   |            | 0.801      |            |       | 15.55

Nlocal:        11105.8 ave       15249 max        4380 min
Histogram: 4 0 0 0 4 0 4 4 6 4
Nghost:        10534.0 ave       14022 max        4076 min
Histogram: 4 0 0 0 4 0 4 2 6 6
Neighs:       316854.0 ave      439855 max      114725 min
Histogram: 4 0 0 0 4 0 4 4 7 3

Total # of neighbors = 8238214
Ave neighs/atom = 28.530512
Neighbor list builds = 0
Dangerous builds = 0
The dot product: -5.22234197533334e-07
Setting atom values ...
  1 settings made for x
  1 settings made for y
  1 settings made for z
Setting up cg style minimization ...
  Unit style    : metal
  Current step  : 4562
Per MPI rank memory allocation (min/avg/max) = 6.233 | 10.36 | 11.60 Mbytes
Step PotEng KinEng TotEng v_fx v_fy v_fz 
    4562   -1152448.9            0   -1152448.9 0.0017741953 -0.0027925025 0.0040592607 
    4704   -1152448.9            0   -1152448.9 -1.9641393e-05 7.1610591e-05 -8.6754822e-05 
Loop time of 5.04874 on 26 procs for 142 steps with 288751 atoms

99.9% CPU use with 26 MPI tasks x 1 OpenMP threads

Minimization stats:
  Stopping criterion = linesearch alpha is zero
  Energy initial, next-to-last, final = 
     -1152448.86911848  -1152448.87072717  -1152448.87072717
  Force two-norm initial, final = 0.17812852 0.00036138752
  Force max component initial, final = 0.14656261 8.6754822e-05
  Final line search alpha, max atom move = 0.0625 5.4221764e-06
  Iterations, force evaluations = 142 291

MPI task timing breakdown:
Section |  min time  |  avg time  |  max time  |%varavg| %total
---------------------------------------------------------------
Pair    | 1.9482     | 3.7314     | 4.8246     |  46.9 | 73.91
Neigh   | 0          | 0          | 0          |   0.0 |  0.00
Comm    | 0.073696   | 0.51714    | 1.2186     |  46.6 | 10.24
Output  | 0          | 0          | 0          |   0.0 |  0.00
Modify  | 0.0055919  | 0.0083491  | 0.010593   |   1.5 |  0.17
Other   |            | 0.7918     |            |       | 15.68

Nlocal:        11105.8 ave       15249 max        4380 min
Histogram: 4 0 0 0 4 0 4 4 6 4
Nghost:        10534.0 ave       14022 max        4076 min
Histogram: 4 0 0 0 4 0 4 2 6 6
Neighs:       316854.0 ave      439853 max      114725 min
Histogram: 4 0 0 0 4 0 4 4 7 3

Total # of neighbors = 8238213
Ave neighs/atom = 28.530509
Neighbor list builds = 0
Dangerous builds = 0
The dot product: 4.10717705755508e-07
Setting atom values ...
  1 settings made for x
  1 settings made for y
  1 settings made for z
Setting up cg style minimization ...
  Unit style    : metal
  Current step  : 4704
Per MPI rank memory allocation (min/avg/max) = 6.233 | 10.36 | 11.60 Mbytes
Step PotEng KinEng TotEng v_fx v_fy v_fz 
    4704   -1152448.8            0   -1152448.8 0.0029626706 -0.0048874947 0.0069257011 
    4850   -1152448.8            0   -1152448.8 1.9353713e-05 -5.2274061e-05 6.5889396e-05 
Loop time of 5.20368 on 26 procs for 146 steps with 288751 atoms

100.0% CPU use with 26 MPI tasks x 1 OpenMP threads

Minimization stats:
  Stopping criterion = linesearch alpha is zero
  Energy initial, next-to-last, final = 
     -1152448.83295725  -1152448.83464064  -1152448.83464064
  Force two-norm initial, final = 0.17938009 0.00033255322
  Force max component initial, final = 0.14812319 7.0468572e-05
  Final line search alpha, max atom move = 0.0625 4.4042857e-06
  Iterations, force evaluations = 146 299

MPI task timing breakdown:
Section |  min time  |  avg time  |  max time  |%varavg| %total
---------------------------------------------------------------
Pair    | 2.001      | 3.8444     | 4.9736     |  47.8 | 73.88
Neigh   | 0          | 0          | 0          |   0.0 |  0.00
Comm    | 0.07637    | 0.53381    | 1.2688     |  47.2 | 10.26
Output  | 0          | 0          | 0          |   0.0 |  0.00
Modify  | 0.0056804  | 0.0085783  | 0.010961   |   1.5 |  0.16
Other   |            | 0.8169     |            |       | 15.70

Nlocal:        11105.8 ave       15247 max        4380 min
Histogram: 4 0 0 0 4 0 4 4 6 4
Nghost:        10533.9 ave       14022 max        4076 min
Histogram: 4 0 0 0 4 0 4 2 6 6
Neighs:       316854.0 ave      439774 max      114725 min
Histogram: 4 0 0 0 4 0 4 4 7 3

Total # of neighbors = 8238216
Ave neighs/atom = 28.530519
Neighbor list builds = 0
Dangerous builds = 0
The dot product: -2.86481291063339e-07
Setting atom values ...
  1 settings made for x
  1 settings made for y
  1 settings made for z
Setting up cg style minimization ...
  Unit style    : metal
  Current step  : 4850
Per MPI rank memory allocation (min/avg/max) = 6.233 | 10.36 | 11.60 Mbytes
Step PotEng KinEng TotEng v_fx v_fy v_fz 
    4850   -1152448.8            0   -1152448.8 0.0036024138 -0.0066686096 0.0090609248 
    5000   -1152448.8            0   -1152448.8 8.8330683e-06 -4.2324573e-05 4.8279652e-05 
    5011   -1152448.8            0   -1152448.8 1.2301737e-05 -3.3693765e-05 4.1900674e-05 
Loop time of 5.70266 on 26 procs for 161 steps with 288751 atoms

100.0% CPU use with 26 MPI tasks x 1 OpenMP threads

Minimization stats:
  Stopping criterion = linesearch alpha is zero
  Energy initial, next-to-last, final = 
     -1152448.79604333  -1152448.79767945  -1152448.79767945
  Force two-norm initial, final = 0.1800478 0.00031148754
  Force max component initial, final = 0.1492455 4.4102171e-05
  Final line search alpha, max atom move = 0.125 5.5127713e-06
  Iterations, force evaluations = 161 329

MPI task timing breakdown:
Section |  min time  |  avg time  |  max time  |%varavg| %total
---------------------------------------------------------------
Pair    | 2.1965     | 4.2173     | 5.4494     |  50.0 | 73.95
Neigh   | 0          | 0          | 0          |   0.0 |  0.00
Comm    | 0.08351    | 0.58402    | 1.3881     |  49.7 | 10.24
Output  | 0.00013805 | 0.00013913 | 0.00015233 |   0.0 |  0.00
Modify  | 0.0061829  | 0.0094262  | 0.011957   |   1.6 |  0.17
Other   |            | 0.8917     |            |       | 15.64

Nlocal:        11105.8 ave       15247 max        4380 min
Histogram: 4 0 0 0 4 0 4 4 6 4
Nghost:        10533.9 ave       14022 max        4076 min
Histogram: 4 0 0 0 4 0 4 2 6 6
Neighs:       316854.0 ave      439788 max      114725 min
Histogram: 4 0 0 0 4 0 4 4 7 3

Total # of neighbors = 8238215
Ave neighs/atom = 28.530516
Neighbor list builds = 0
Dangerous builds = 0
The dot product: -1.31322571909826e-07
Setting atom values ...
  1 settings made for x
  1 settings made for y
  1 settings made for z
Setting up cg style minimization ...
  Unit style    : metal
  Current step  : 5011
Per MPI rank memory allocation (min/avg/max) = 6.233 | 10.36 | 11.60 Mbytes
Step PotEng KinEng TotEng v_fx v_fy v_fz 
    5011   -1152448.8            0   -1152448.8 0.0045589002 -0.0094611037   0.01240043 
    5175   -1152448.8            0   -1152448.8 1.1742523e-05 -9.0194299e-06 1.6660135e-05 
Loop time of 5.78472 on 26 procs for 164 steps with 288751 atoms

100.0% CPU use with 26 MPI tasks x 1 OpenMP threads

Minimization stats:
  Stopping criterion = linesearch alpha is zero
  Energy initial, next-to-last, final = 
     -1152448.75807572  -1152448.75969993  -1152448.75969993
  Force two-norm initial, final = 0.18110406 0.00027806478
  Force max component initial, final = 0.15064222 5.9701452e-05
  Final line search alpha, max atom move = 0.125 7.4626815e-06
  Iterations, force evaluations = 164 333

MPI task timing breakdown:
Section |  min time  |  avg time  |  max time  |%varavg| %total
---------------------------------------------------------------
Pair    | 2.233      | 4.2775     | 5.5309     |  50.3 | 73.94
Neigh   | 0          | 0          | 0          |   0.0 |  0.00
Comm    | 0.084174   | 0.59335    | 1.3998     |  49.9 | 10.26
Output  | 0          | 0          | 0          |   0.0 |  0.00
Modify  | 0.006252   | 0.0095407  | 0.01208    |   1.6 |  0.16
Other   |            | 0.9043     |            |       | 15.63

Nlocal:        11105.8 ave       15247 max        4380 min
Histogram: 4 0 0 0 4 0 4 4 6 4
Nghost:        10534.2 ave       14022 max        4076 min
Histogram: 4 0 0 0 4 0 4 2 6 6
Neighs:       316854.0 ave      439790 max      114725 min
Histogram: 4 0 0 0 4 0 4 4 7 3

Total # of neighbors = 8238213
Ave neighs/atom = 28.530509
Neighbor list builds = 0
Dangerous builds = 0
The dot product: -2.70447793037594e-08
Setting atom values ...
  1 settings made for x
  1 settings made for y
  1 settings made for z
Setting up cg style minimization ...
  Unit style    : metal
  Current step  : 5175
Per MPI rank memory allocation (min/avg/max) = 6.233 | 10.36 | 11.60 Mbytes
Step PotEng KinEng TotEng v_fx v_fy v_fz 
    5175   -1152448.7            0   -1152448.7 0.0052281738 -0.012329837  0.015625136 
    5336   -1152448.7            0   -1152448.7 2.5932905e-06 -6.0728098e-06 7.7077596e-06 
Loop time of 5.67051 on 26 procs for 161 steps with 288751 atoms

100.0% CPU use with 26 MPI tasks x 1 OpenMP threads

Minimization stats:
  Stopping criterion = linesearch alpha is zero
  Energy initial, next-to-last, final = 
      -1152448.7191356  -1152448.72088081  -1152448.72088081
  Force two-norm initial, final = 0.18165573 0.00015925982
  Force max component initial, final = 0.15171673 1.0631144e-05
  Final line search alpha, max atom move = 0.25 2.6577860e-06
  Iterations, force evaluations = 161 327

MPI task timing breakdown:
Section |  min time  |  avg time  |  max time  |%varavg| %total
---------------------------------------------------------------
Pair    | 2.1894     | 4.1923     | 5.4198     |  49.7 | 73.93
Neigh   | 0          | 0          | 0          |   0.0 |  0.00
Comm    | 0.082675   | 0.57962    | 1.3776     |  49.6 | 10.22
Output  | 0          | 0          | 0          |   0.0 |  0.00
Modify  | 0.0060599  | 0.009363   | 0.01188    |   1.6 |  0.17
Other   |            | 0.8893     |            |       | 15.68

Nlocal:        11105.8 ave       15247 max        4380 min
Histogram: 4 0 0 0 4 0 4 4 6 4
Nghost:        10534.2 ave       14022 max        4076 min
Histogram: 4 0 0 0 4 0 4 2 6 6
Neighs:       316854.0 ave      439798 max      114725 min
Histogram: 4 0 0 0 4 0 4 4 7 3

Total # of neighbors = 8238211
Ave neighs/atom = 28.530502
Neighbor list builds = 0
Dangerous builds = 0
The dot product: -1.01659978631881e-08
Setting atom values ...
  1 settings made for x
  1 settings made for y
  1 settings made for z
Setting up cg style minimization ...
  Unit style    : metal
  Current step  : 5336
Per MPI rank memory allocation (min/avg/max) = 6.233 | 10.36 | 11.60 Mbytes
Step PotEng KinEng TotEng v_fx v_fy v_fz 
    5336   -1152448.7            0   -1152448.7 0.0055887422 -0.014357252  0.017815021 
    5486   -1152448.7            0   -1152448.7 -1.8341283e-05 4.1329086e-05 -5.275318e-05 
Loop time of 5.39847 on 26 procs for 150 steps with 288751 atoms

100.0% CPU use with 26 MPI tasks x 1 OpenMP threads

Minimization stats:
  Stopping criterion = linesearch alpha is zero
  Energy initial, next-to-last, final = 
     -1152448.67980228  -1152448.68153641  -1152448.68153641
  Force two-norm initial, final = 0.18071121 0.00020500563
  Force max component initial, final = 0.15187996 5.2753180e-05
  Final line search alpha, max atom move = 0.25 1.3188295e-05
  Iterations, force evaluations = 150 311

MPI task timing breakdown:
Section |  min time  |  avg time  |  max time  |%varavg| %total
---------------------------------------------------------------
Pair    | 2.0867     | 3.9973     | 5.1627     |  48.7 | 74.05
Neigh   | 0          | 0          | 0          |   0.0 |  0.00
Comm    | 0.078558   | 0.55196    | 1.3144     |  49.1 | 10.22
Output  | 0          | 0          | 0          |   0.0 |  0.00
Modify  | 0.005743   | 0.0088991  | 0.011314   |   1.5 |  0.16
Other   |            | 0.8403     |            |       | 15.57

Nlocal:        11105.8 ave       15248 max        4380 min
Histogram: 4 0 0 0 4 0 4 4 6 4
Nghost:        10534.1 ave       14022 max        4076 min
Histogram: 4 0 0 0 4 0 4 2 6 6
Neighs:       316854.0 ave      439829 max      114725 min
Histogram: 4 0 0 0 4 0 4 4 7 3

Total # of neighbors = 8238208
Ave neighs/atom = 28.530492
Neighbor list builds = 0
Dangerous builds = 0
The dot product: -6.10769795770215e-09
Setting atom values ...
  1 settings made for x
  1 settings made for y
  1 settings made for z
Setting up cg style minimization ...
  Unit style    : metal
  Current step  : 5486
Per MPI rank memory allocation (min/avg/max) = 6.233 | 10.36 | 11.60 Mbytes
Step PotEng KinEng TotEng v_fx v_fy v_fz 
    5486   -1152448.6            0   -1152448.6 0.0058379078 -0.017307587  0.020890511 
    5623   -1152448.6            0   -1152448.6 -1.8903105e-06 6.8522711e-06 -7.9951349e-06 
Loop time of 4.84044 on 26 procs for 137 steps with 288751 atoms

100.0% CPU use with 26 MPI tasks x 1 OpenMP threads

Minimization stats:
  Stopping criterion = linesearch alpha is zero
  Energy initial, next-to-last, final = 
     -1152448.64004967  -1152448.64194313  -1152448.64194313
  Force two-norm initial, final = 0.17981602 0.00022500423
  Force max component initial, final = 0.15178936 1.6536123e-05
  Final line search alpha, max atom move = 0.125 2.0670154e-06
  Iterations, force evaluations = 137 279

MPI task timing breakdown:
Section |  min time  |  avg time  |  max time  |%varavg| %total
---------------------------------------------------------------
Pair    | 1.8694     | 3.581      | 4.6247     |  46.0 | 73.98
Neigh   | 0          | 0          | 0          |   0.0 |  0.00
Comm    | 0.071417   | 0.49595    | 1.1742     |  45.9 | 10.25
Output  | 0          | 0          | 0          |   0.0 |  0.00
Modify  | 0.0051786  | 0.0079995  | 0.010185   |   1.4 |  0.17
Other   |            | 0.7555     |            |       | 15.61

Nlocal:        11105.8 ave       15247 max        4380 min
Histogram: 4 0 0 0 4 0 4 4 6 4
Nghost:        10534.1 ave       14022 max        4076 min
Histogram: 4 0 0 0 4 0 4 2 6 6
Neighs:       316854.0 ave      439815 max      114725 min
Histogram: 4 0 0 0 4 0 4 4 7 3

Total # of neighbors = 8238202
Ave neighs/atom = 28.530471
Neighbor list builds = 0
Dangerous builds = 0
The dot product: -7.65475780491597e-09
Setting atom values ...
  1 settings made for x
  1 settings made for y
  1 settings made for z
Setting up cg style minimization ...
  Unit style    : metal
  Current step  : 5623
Per MPI rank memory allocation (min/avg/max) = 6.233 | 10.36 | 11.60 Mbytes
Step PotEng KinEng TotEng v_fx v_fy v_fz 
    5623   -1152448.6            0   -1152448.6 0.0084425829 -0.019246739  0.024566756 
    5816   -1152448.6            0   -1152448.6 -1.5085819e-05 1.8719758e-05 -2.842378e-05 
Loop time of 6.89354 on 26 procs for 193 steps with 288751 atoms

100.0% CPU use with 26 MPI tasks x 1 OpenMP threads

Minimization stats:
  Stopping criterion = linesearch alpha is zero
  Energy initial, next-to-last, final = 
     -1152448.60079577     -1152448.60317     -1152448.60317
  Force two-norm initial, final = 0.17880648 0.00030368881
  Force max component initial, final = 0.15029208 3.9113289e-05
  Final line search alpha, max atom move = 0.125 4.8891612e-06
  Iterations, force evaluations = 193 397

MPI task timing breakdown:
Section |  min time  |  avg time  |  max time  |%varavg| %total
---------------------------------------------------------------
Pair    | 2.6609     | 5.1036     | 6.5927     |  55.0 | 74.03
Neigh   | 0          | 0          | 0          |   0.0 |  0.00
Comm    | 0.098332   | 0.70626    | 1.6851     |  55.6 | 10.25
Output  | 0          | 0          | 0          |   0.0 |  0.00
Modify  | 0.0074113  | 0.0114     | 0.014458   |   1.7 |  0.17
Other   |            | 1.072      |            |       | 15.56

Nlocal:        11105.8 ave       15246 max        4380 min
Histogram: 4 0 0 0 4 0 4 4 6 4
Nghost:        10534.2 ave       14022 max        4076 min
Histogram: 4 0 0 0 4 0 4 2 6 6
Neighs:       316854.0 ave      439769 max      114725 min
Histogram: 4 0 0 0 4 0 4 4 7 3

Total # of neighbors = 8238204
Ave neighs/atom = 28.530478
Neighbor list builds = 0
Dangerous builds = 0
The dot product: -3.06096667210413e-08
Setting atom values ...
  1 settings made for x
  1 settings made for y
  1 settings made for z
Setting up cg style minimization ...
  Unit style    : metal
  Current step  : 5816
Per MPI rank memory allocation (min/avg/max) = 6.233 | 10.36 | 11.60 Mbytes
Step PotEng KinEng TotEng v_fx v_fy v_fz 
    5816   -1152448.6            0   -1152448.6  0.011384648 -0.018838644  0.026149021 
    6000   -1152448.6            0   -1152448.6 -1.4857264e-05 8.0580408e-06 -1.7810445e-05 
    6044   -1152448.6            0   -1152448.6 -2.9599368e-06 2.0489686e-06 -3.9861954e-06 
Loop time of 7.9584 on 26 procs for 228 steps with 288751 atoms

100.0% CPU use with 26 MPI tasks x 1 OpenMP threads

Minimization stats:
  Stopping criterion = linesearch alpha is zero
  Energy initial, next-to-last, final = 
     -1152448.56364862  -1152448.57375022  -1152448.57375022
  Force two-norm initial, final = 0.18206598 0.00018443575
  Force max component initial, final = 0.14696957 6.6249373e-06
  Final line search alpha, max atom move = 0.25 1.6562343e-06
  Iterations, force evaluations = 228 459

MPI task timing breakdown:
Section |  min time  |  avg time  |  max time  |%varavg| %total
---------------------------------------------------------------
Pair    | 3.0683     | 5.8804     | 7.5908     |  58.8 | 73.89
Neigh   | 0.0037315  | 0.0098084  | 0.01365    |   3.1 |  0.12
Comm    | 0.11681    | 0.81396    | 1.938      |  59.0 | 10.23
Output  | 0.00014627 | 0.00014735 | 0.00016288 |   0.0 |  0.00
Modify  | 0.0085125  | 0.013131   | 0.016649   |   1.8 |  0.16
Other   |            | 1.241      |            |       | 15.59

Nlocal:        11105.8 ave       15247 max        4380 min
Histogram: 4 0 0 0 4 0 4 4 6 4
Nghost:        10534.2 ave       14022 max        4076 min
Histogram: 4 0 0 0 4 0 4 2 6 6
Neighs:       316854.0 ave      439800 max      114725 min
Histogram: 4 0 0 0 4 0 4 4 7 3

Total # of neighbors = 8238194
Ave neighs/atom = 28.530443
Neighbor list builds = 1
Dangerous builds = 0
The dot product: 6.71500773446171e-08
Setting atom values ...
  1 settings made for x
  1 settings made for y
  1 settings made for z
Setting up cg style minimization ...
  Unit style    : metal
  Current step  : 6044
Per MPI rank memory allocation (min/avg/max) = 6.233 | 10.36 | 11.60 Mbytes
Step PotEng KinEng TotEng v_fx v_fy v_fz 
    6044   -1152448.5            0   -1152448.5 0.0058698673 -0.012355894   0.01550858 
    6202   -1152448.6            0   -1152448.6 1.3040127e-05 -2.3617026e-05 3.0818182e-05 
Loop time of 5.49307 on 26 procs for 158 steps with 288751 atoms

100.0% CPU use with 26 MPI tasks x 1 OpenMP threads

Minimization stats:
  Stopping criterion = energy tolerance
  Energy initial, next-to-last, final = 
     -1152448.54778967  -1152448.55026609  -1152448.55026609
  Force two-norm initial, final = 0.17919319 0.0003576916
  Force max component initial, final = 0.14721524 3.0818182e-05
  Final line search alpha, max atom move = 1.0000000 3.0818182e-05
  Iterations, force evaluations = 158 316

MPI task timing breakdown:
Section |  min time  |  avg time  |  max time  |%varavg| %total
---------------------------------------------------------------
Pair    | 2.119      | 4.0622     | 5.252      |  48.9 | 73.95
Neigh   | 0          | 0          | 0          |   0.0 |  0.00
Comm    | 0.079129   | 0.56137    | 1.3397     |  48.6 | 10.22
Output  | 0          | 0          | 0          |   0.0 |  0.00
Modify  | 0.005861   | 0.0090572  | 0.011472   |   1.5 |  0.16
Other   |            | 0.8604     |            |       | 15.66

Nlocal:        11105.8 ave       15259 max        4380 min
Histogram: 4 0 0 0 4 0 4 4 6 4
Nghost:        10533.8 ave       14021 max        4076 min
Histogram: 4 0 0 0 4 0 4 2 6 6
Neighs:       316854.0 ave      440161 max      114725 min
Histogram: 4 0 0 0 4 0 4 4 7 3

Total # of neighbors = 8238193
Ave neighs/atom = 28.530440
Neighbor list builds = 0
Dangerous builds = 0
The dot product: -2.03158799039895e-07
Setting atom values ...
  1 settings made for x
  1 settings made for y
  1 settings made for z
Setting up cg style minimization ...
  Unit style    : metal
  Current step  : 6202
Per MPI rank memory allocation (min/avg/max) = 6.233 | 10.36 | 11.60 Mbytes
Step PotEng KinEng TotEng v_fx v_fy v_fz 
    6202   -1152448.5            0   -1152448.5 0.0071473845 -0.028007812  0.030776814 
    6379   -1152448.5            0   -1152448.5 1.974098e-05 -4.1670915e-05 5.1607346e-05 
Loop time of 6.2382 on 26 procs for 177 steps with 288751 atoms

99.9% CPU use with 26 MPI tasks x 1 OpenMP threads

Minimization stats:
  Stopping criterion = linesearch alpha is zero
  Energy initial, next-to-last, final = 
     -1152448.52573522  -1152448.52813778  -1152448.52813778
  Force two-norm initial, final = 0.17684937 0.00031600153
  Force max component initial, final = 0.14501678 5.2186779e-05
[...]

Nlocal:        11105.8 ave       15301 max        4380 min
Histogram: 4 0 0 0 4 0 4 4 8 2
Nghost:        10533.0 ave       14020 max        4076 min
Histogram: 4 0 0 0 4 0 4 2 6 6
Neighs:       316854.0 ave      441713 max      114725 min
Histogram: 4 0 0 0 4 0 4 4 8 2

Total # of neighbors = 8238214
Ave neighs/atom = 28.530512
Neighbor list builds = 0
Dangerous builds = 0
The dot product: -1.8083152485015e-07
Setting atom values ...
  1 settings made for x
  1 settings made for y
  1 settings made for z
Setting up cg style minimization ...
  Unit style    : metal
  Current step  : 13214
Per MPI rank memory allocation (min/avg/max) = 6.233 | 10.36 | 11.60 Mbytes
Step PotEng KinEng TotEng v_fx v_fy v_fz 
   13214   -1152448.7            0   -1152448.7  0.056176068 -0.014849537 -0.045405067 
   13398   -1152448.7            0   -1152448.7 4.6083743e-07 -2.6395363e-05 5.0325567e-05 
Loop time of 6.53425 on 26 procs for 184 steps with 288751 atoms

100.0% CPU use with 26 MPI tasks x 1 OpenMP threads

Minimization stats:
  Stopping criterion = linesearch alpha is zero
  Energy initial, next-to-last, final = 
     -1152448.72135932  -1152448.72303672  -1152448.72303672
  Force two-norm initial, final = 0.15986292 0.00021726699
  Force max component initial, final = 0.085896115 5.5116131e-05
  Final line search alpha, max atom move = 0.25 1.3779033e-05
  Iterations, force evaluations = 184 377

MPI task timing breakdown:
Section |  min time  |  avg time  |  max time  |%varavg| %total
---------------------------------------------------------------
Pair    | 2.4998     | 4.8095     | 6.2494     |  53.3 | 73.60
Neigh   | 0          | 0          | 0          |   0.0 |  0.00
Comm    | 0.094071   | 0.66879    | 1.5785     |  52.3 | 10.24
Output  | 0          | 0          | 0          |   0.0 |  0.00
Modify  | 0.006936   | 0.010704   | 0.013633   |   1.7 |  0.16
Other   |            | 1.045      |            |       | 16.00

Nlocal:        11105.8 ave       15301 max        4380 min
Histogram: 4 0 0 0 4 0 4 4 8 2
Nghost:        10533.0 ave       14020 max        4076 min
Histogram: 4 0 0 0 4 0 4 2 6 6
Neighs:       316854.0 ave      441708 max      114725 min
Histogram: 4 0 0 0 4 0 4 4 8 2

Total # of neighbors = 8238211
Ave neighs/atom = 28.530502
Neighbor list builds = 0
Dangerous builds = 0
The dot product: -2.48281259479928e-07
Setting atom values ...
  1 settings made for x
  1 settings made for y
  1 settings made for z
Setting up cg style minimization ...
  Unit style    : metal
  Current step  : 13398
Per MPI rank memory allocation (min/avg/max) = 6.233 | 10.36 | 11.60 Mbytes
Step PotEng KinEng TotEng v_fx v_fy v_fz 
   13398   -1152448.7            0   -1152448.7  0.070055214 -0.019391381 -0.057220349 
   13624   -1152448.7            0   -1152448.7 8.9682378e-06 -4.4606755e-05 7.4525406e-05 
Loop time of 7.94096 on 26 procs for 226 steps with 288751 atoms

100.0% CPU use with 26 MPI tasks x 1 OpenMP threads

Minimization stats:
  Stopping criterion = linesearch alpha is zero
  Energy initial, next-to-last, final = 
     -1152448.68772396  -1152448.70721178  -1152448.70721178
  Force two-norm initial, final = 0.17262536 0.00025153603
  Force max component initial, final = 0.082711608 7.4525406e-05
  Final line search alpha, max atom move = 0.125 9.3156758e-06
  Iterations, force evaluations = 226 457

MPI task timing breakdown:
Section |  min time  |  avg time  |  max time  |%varavg| %total
---------------------------------------------------------------
Pair    | 3.0425     | 5.8334     | 7.5778     |  58.6 | 73.46
Neigh   | 0.0037669  | 0.009828   | 0.013738   |   3.1 |  0.12
Comm    | 0.11539    | 0.81189    | 1.9009     |  57.3 | 10.22
Output  | 0          | 0          | 0          |   0.0 |  0.00
Modify  | 0.0084958  | 0.013046   | 0.016526   |   1.8 |  0.16
Other   |            | 1.273      |            |       | 16.03

Nlocal:        11105.8 ave       15301 max        4380 min
Histogram: 4 0 0 0 4 0 4 4 8 2
Nghost:        10533.2 ave       14020 max        4076 min
Histogram: 4 0 0 0 4 0 4 2 6 6
Neighs:       316854.0 ave      441701 max      114725 min
Histogram: 4 0 0 0 4 0 4 4 8 2

Total # of neighbors = 8238210
Ave neighs/atom = 28.530499
Neighbor list builds = 1
Dangerous builds = 0
The dot product: -1.00889661162833e-06
Setting atom values ...
  1 settings made for x
  1 settings made for y
  1 settings made for z
Setting up cg style minimization ...
  Unit style    : metal
  Current step  : 13624
Per MPI rank memory allocation (min/avg/max) = 6.233 | 10.36 | 11.60 Mbytes
Step PotEng KinEng TotEng v_fx v_fy v_fz 
   13624   -1152448.7            0   -1152448.7  0.073311973 -0.025476815 -0.059103775 
   13742   -1152448.7            0   -1152448.7 -5.512403e-06 -1.1065639e-05 3.046956e-05 
Loop time of 4.18321 on 26 procs for 118 steps with 288751 atoms

100.0% CPU use with 26 MPI tasks x 1 OpenMP threads

Minimization stats:
  Stopping criterion = linesearch alpha is zero
  Energy initial, next-to-last, final = 
     -1152448.68528771  -1152448.68646826  -1152448.68646826
  Force two-norm initial, final = 0.15915761 0.00017849136
  Force max component initial, final = 0.073311973 3.0469560e-05
  Final line search alpha, max atom move = 0.25 7.6173900e-06
  Iterations, force evaluations = 118 241

MPI task timing breakdown:
Section |  min time  |  avg time  |  max time  |%varavg| %total
---------------------------------------------------------------
Pair    | 1.5998     | 3.0795     | 3.9987     |  42.7 | 73.62
Neigh   | 0          | 0          | 0          |   0.0 |  0.00
Comm    | 0.061676   | 0.42704    | 1.0054     |  41.7 | 10.21
Output  | 0          | 0          | 0          |   0.0 |  0.00
Modify  | 0.0044432  | 0.0068601  | 0.0087159  |   1.4 |  0.16
Other   |            | 0.6698     |            |       | 16.01

Nlocal:        11105.8 ave       15298 max        4380 min
Histogram: 4 0 0 0 4 0 4 4 8 2
Nghost:        10533.7 ave       14020 max        4076 min
Histogram: 4 0 0 0 4 0 4 2 6 6
Neighs:       316854.0 ave      441605 max      114725 min
Histogram: 4 0 0 0 4 0 4 4 8 2

Total # of neighbors = 8238214
Ave neighs/atom = 28.530512
Neighbor list builds = 0
Dangerous builds = 0
The dot product: -1.08799493315988e-07
Setting atom values ...
  1 settings made for x
  1 settings made for y
  1 settings made for z
Setting up cg style minimization ...
  Unit style    : metal
  Current step  : 13742
Per MPI rank memory allocation (min/avg/max) = 6.233 | 10.36 | 11.60 Mbytes
Step PotEng KinEng TotEng v_fx v_fy v_fz 
   13742   -1152448.7            0   -1152448.7  0.046828135 -0.014549101 -0.042260519 
   13846   -1152448.7            0   -1152448.7 4.0865822e-05 -2.0594397e-05 -2.1027898e-05 
Loop time of 3.70535 on 26 procs for 104 steps with 288751 atoms

100.0% CPU use with 26 MPI tasks x 1 OpenMP threads

Minimization stats:
  Stopping criterion = linesearch alpha is zero
  Energy initial, next-to-last, final = 
     -1152448.66369308  -1152448.66456138  -1152448.66456138
  Force two-norm initial, final = 0.1408117 0.00029612117
  Force max component initial, final = 0.068334988 5.6143147e-05
  Final line search alpha, max atom move = 0.125 7.0178934e-06
  Iterations, force evaluations = 104 213

MPI task timing breakdown:
Section |  min time  |  avg time  |  max time  |%varavg| %total
---------------------------------------------------------------
Pair    | 1.4165     | 2.7256     | 3.5428     |  40.1 | 73.56
Neigh   | 0          | 0          | 0          |   0.0 |  0.00
Comm    | 0.053773   | 0.37884    | 0.89208    |  39.3 | 10.22
Output  | 0          | 0          | 0          |   0.0 |  0.00
Modify  | 0.0039895  | 0.006122   | 0.0077186  |   1.2 |  0.17
Other   |            | 0.5948     |            |       | 16.05

Nlocal:        11105.8 ave       15298 max        4380 min
Histogram: 4 0 0 0 4 0 4 4 8 2
Nghost:        10533.7 ave       14020 max        4076 min
Histogram: 4 0 0 0 4 0 4 2 6 6
Neighs:       316855.0 ave      441609 max      114725 min
Histogram: 4 0 0 0 4 0 4 4 8 2

Total # of neighbors = 8238219
Ave neighs/atom = 28.530530
Neighbor list builds = 0
Dangerous builds = 0
The dot product: 2.90559197638911e-07
Setting atom values ...
  1 settings made for x
  1 settings made for y
  1 settings made for z
Setting up cg style minimization ...
  Unit style    : metal
  Current step  : 13846
Per MPI rank memory allocation (min/avg/max) = 6.233 | 10.36 | 11.60 Mbytes
Step PotEng KinEng TotEng v_fx v_fy v_fz 
   13846   -1152448.6            0   -1152448.6  0.042613485 -0.011797405 -0.041756445 
   13980   -1152448.6            0   -1152448.6 -2.1152678e-05  3.64995e-05 -4.0722723e-05 
Loop time of 4.80158 on 26 procs for 134 steps with 288751 atoms

100.0% CPU use with 26 MPI tasks x 1 OpenMP threads

Minimization stats:
  Stopping criterion = linesearch alpha is zero
  Energy initial, next-to-last, final = 
     -1152448.64078028  -1152448.64160473  -1152448.64160473
  Force two-norm initial, final = 0.13805947 0.00031548675
  Force max component initial, final = 0.066913273 9.0831786e-05
  Final line search alpha, max atom move = 0.125 1.1353973e-05
  Iterations, force evaluations = 134 277

MPI task timing breakdown:
Section |  min time  |  avg time  |  max time  |%varavg| %total
---------------------------------------------------------------
Pair    | 1.8392     | 3.5366     | 4.5896     |  45.7 | 73.66
Neigh   | 0          | 0          | 0          |   0.0 |  0.00
Comm    | 0.072138   | 0.49075    | 1.1544     |  44.7 | 10.22
Output  | 0          | 0          | 0          |   0.0 |  0.00
Modify  | 0.0050999  | 0.0078863  | 0.010063   |   1.5 |  0.16
Other   |            | 0.7663     |            |       | 15.96

Nlocal:        11105.8 ave       15298 max        4380 min
Histogram: 4 0 0 0 4 0 4 4 8 2
Nghost:        10533.7 ave       14020 max        4076 min
Histogram: 4 0 0 0 4 0 4 2 6 6
Neighs:       316855.0 ave      441610 max      114725 min
Histogram: 4 0 0 0 4 0 4 4 8 2

Total # of neighbors = 8238220
Ave neighs/atom = 28.530533
Neighbor list builds = 0
Dangerous builds = 0
The dot product: -1.54781725017369e-07
Setting atom values ...
  1 settings made for x
  1 settings made for y
  1 settings made for z
Setting up cg style minimization ...
  Unit style    : metal
  Current step  : 13980
Per MPI rank memory allocation (min/avg/max) = 6.233 | 10.36 | 11.60 Mbytes
Step PotEng KinEng TotEng v_fx v_fy v_fz 
   13980   -1152448.6            0   -1152448.6  0.040517701 -0.0095058154 -0.043443048 
   14000   -1152448.6            0   -1152448.6 -0.00012132907 -0.00012303613 0.00043364367 
   14081   -1152448.6            0   -1152448.6 -2.9016222e-05 -1.0989398e-05 6.6769824e-05 
Loop time of 3.63216 on 26 procs for 101 steps with 288751 atoms

100.0% CPU use with 26 MPI tasks x 1 OpenMP threads

Minimization stats:
  Stopping criterion = linesearch alpha is zero
  Energy initial, next-to-last, final = 
     -1152448.61684269  -1152448.61763335  -1152448.61763335
  Force two-norm initial, final = 0.13644752 0.000433164
  Force max component initial, final = 0.065500877 9.6499095e-05
  Final line search alpha, max atom move = 0.0625 6.0311934e-06
  Iterations, force evaluations = 101 209

MPI task timing breakdown:
Section |  min time  |  avg time  |  max time  |%varavg| %total
---------------------------------------------------------------
Pair    | 1.3898     | 2.674      | 3.4727     |  39.8 | 73.62
Neigh   | 0          | 0          | 0          |   0.0 |  0.00
Comm    | 0.053129   | 0.37149    | 0.87293    |  38.9 | 10.23
Output  | 0.00014253 | 0.0001434  | 0.00015651 |   0.0 |  0.00
Modify  | 0.0038773  | 0.0059544  | 0.0075758  |   1.3 |  0.16
Other   |            | 0.5806     |            |       | 15.99

Nlocal:        11105.8 ave       15298 max        4380 min
Histogram: 4 0 0 0 4 0 4 4 8 2
Nghost:        10533.7 ave       14020 max        4076 min
Histogram: 4 0 0 0 4 0 4 2 6 6
Neighs:       316855.0 ave      441611 max      114725 min
Histogram: 4 0 0 0 4 0 4 4 8 2

Total # of neighbors = 8238223
Ave neighs/atom = 28.530544
Neighbor list builds = 0
Dangerous builds = 0
The dot product: -1.35749544201538e-07
Setting atom values ...
  1 settings made for x
  1 settings made for y
  1 settings made for z
Setting up cg style minimization ...
  Unit style    : metal
  Current step  : 14081
Per MPI rank memory allocation (min/avg/max) = 6.233 | 10.36 | 11.60 Mbytes
Step PotEng KinEng TotEng v_fx v_fy v_fz 
   14081   -1152448.6            0   -1152448.6   0.03794045 -0.0064811061 -0.045795831 
   14189   -1152448.6            0   -1152448.6 1.2232957e-05 1.0285332e-05 -3.954652e-05 
Loop time of 3.87904 on 26 procs for 108 steps with 288751 atoms

100.0% CPU use with 26 MPI tasks x 1 OpenMP threads

Minimization stats:
  Stopping criterion = linesearch alpha is zero
  Energy initial, next-to-last, final = 
     -1152448.59196471  -1152448.59272813  -1152448.59272813
  Force two-norm initial, final = 0.13509673 0.00038810615
  Force max component initial, final = 0.064250459 8.4387510e-05
  Final line search alpha, max atom move = 0.0625 5.2742194e-06
  Iterations, force evaluations = 108 223

MPI task timing breakdown:
Section |  min time  |  avg time  |  max time  |%varavg| %total
---------------------------------------------------------------
Pair    | 1.4843     | 2.8524     | 3.7095     |  41.2 | 73.53
Neigh   | 0          | 0          | 0          |   0.0 |  0.00
Comm    | 0.05747    | 0.39777    | 0.93207    |  40.2 | 10.25
Output  | 0          | 0          | 0          |   0.0 |  0.00
Modify  | 0.004134   | 0.0063631  | 0.0080943  |   1.3 |  0.16
Other   |            | 0.6225     |            |       | 16.05

Nlocal:        11105.8 ave       15299 max        4380 min
Histogram: 4 0 0 0 4 0 4 4 8 2
Nghost:        10533.7 ave       14020 max        4076 min
Histogram: 4 0 0 0 4 0 4 2 6 6
Neighs:       316855.0 ave      441653 max      114725 min
Histogram: 4 0 0 0 4 0 4 4 8 2

Total # of neighbors = 8238223
Ave neighs/atom = 28.530544
Neighbor list builds = 0
Dangerous builds = 0
The dot product: 5.43132208720803e-08
Setting atom values ...
  1 settings made for x
  1 settings made for y
  1 settings made for z
Setting up cg style minimization ...
  Unit style    : metal
  Current step  : 14189
Per MPI rank memory allocation (min/avg/max) = 6.233 | 10.36 | 11.60 Mbytes
Step PotEng KinEng TotEng v_fx v_fy v_fz 
   14189   -1152448.6            0   -1152448.6  0.033985659 -0.0017469296 -0.049367775 
   14428   -1152448.7            0   -1152448.7 7.2135347e-05 -7.0295819e-05 2.8527542e-05 
Loop time of 8.30897 on 26 procs for 239 steps with 288751 atoms

100.0% CPU use with 26 MPI tasks x 1 OpenMP threads

Minimization stats:
  Stopping criterion = energy tolerance
  Energy initial, next-to-last, final = 
     -1152448.56630515  -1152448.65446514  -1152448.65446514
  Force two-norm initial, final = 0.1348474 0.0003937861
  Force max component initial, final = 0.062956082 0.00013747889
  Final line search alpha, max atom move = 1.0000000 0.00013747889
  Iterations, force evaluations = 239 477

MPI task timing breakdown:
Section |  min time  |  avg time  |  max time  |%varavg| %total
---------------------------------------------------------------
Pair    | 3.1814     | 6.0922     | 7.8988     |  59.8 | 73.32
Neigh   | 0.01117    | 0.029539   | 0.041007   |   5.3 |  0.36
Comm    | 0.1225     | 0.85019    | 1.9888     |  58.5 | 10.23
Output  | 0          | 0          | 0          |   0.0 |  0.00
Modify  | 0.0087712  | 0.013536   | 0.017236   |   1.9 |  0.16
Other   |            | 1.324      |            |       | 15.93

Nlocal:        11105.8 ave       15296 max        4380 min
Histogram: 4 0 0 0 4 0 4 4 8 2
Nghost:        10533.7 ave       14020 max        4076 min
Histogram: 4 0 0 0 4 0 4 2 6 6
Neighs:       316853.0 ave      441533 max      114725 min
Histogram: 4 0 0 0 4 0 4 4 8 2

Total # of neighbors = 8238183
Ave neighs/atom = 28.530405
Neighbor list builds = 3
Dangerous builds = 0
The dot product: -2.33318705403664e-05
Setting atom values ...
  1 settings made for x
  1 settings made for y
  1 settings made for z
Setting up cg style minimization ...
  Unit style    : metal
  Current step  : 14428
Per MPI rank memory allocation (min/avg/max) = 6.233 | 10.36 | 11.60 Mbytes
Step PotEng KinEng TotEng v_fx v_fy v_fz 
   14428   -1152448.6            0   -1152448.6  0.027938589 -0.0068336604 -0.031035992 
   14570   -1152448.6            0   -1152448.6 1.8906397e-05 1.6131137e-05 -7.9554973e-05 
Loop time of 5.04884 on 26 procs for 142 steps with 288751 atoms

100.0% CPU use with 26 MPI tasks x 1 OpenMP threads

Minimization stats:
  Stopping criterion = linesearch alpha is zero
  Energy initial, next-to-last, final = 
     -1152448.64062982  -1152448.64190744  -1152448.64190744
  Force two-norm initial, final = 0.14694598 0.00035051445
  Force max component initial, final = 0.097136872 7.9554973e-05
  Final line search alpha, max atom move = 0.0625 4.9721858e-06
  Iterations, force evaluations = 142 291

MPI task timing breakdown:
Section |  min time  |  avg time  |  max time  |%varavg| %total
---------------------------------------------------------------
Pair    | 1.9317     | 3.717      | 4.8275     |  46.9 | 73.62
Neigh   | 0          | 0          | 0          |   0.0 |  0.00
Comm    | 0.073693   | 0.51579    | 1.2184     |  46.0 | 10.22
Output  | 0          | 0          | 0          |   0.0 |  0.00
Modify  | 0.0053763  | 0.0082787  | 0.010536   |   1.5 |  0.16
Other   |            | 0.8078     |            |       | 16.00

Nlocal:        11105.8 ave       15299 max        4380 min
Histogram: 4 0 0 0 4 0 4 4 8 2
Nghost:        10533.6 ave       14020 max        4076 min
Histogram: 4 0 0 0 4 0 4 2 6 6
Neighs:       316854.0 ave      441634 max      114725 min
Histogram: 4 0 0 0 4 0 4 4 8 2

Total # of neighbors = 8238207
Ave neighs/atom = 28.530488
Neighbor list builds = 0
Dangerous builds = 0
The dot product: 8.93168136823528e-07
Setting atom values ...
  1 settings made for x
  1 settings made for y
  1 settings made for z
Setting up cg style minimization ...
  Unit style    : metal
  Current step  : 14570
Per MPI rank memory allocation (min/avg/max) = 6.233 | 10.36 | 11.60 Mbytes
Step PotEng KinEng TotEng v_fx v_fy v_fz 
   14570   -1152448.6            0   -1152448.6  0.063921225 -0.049356304  0.025942757 
   14665   -1152448.6            0   -1152448.6 -3.7564188e-05 4.123314e-05 -5.0569408e-05 
Loop time of 3.38803 on 26 procs for 95 steps with 288751 atoms

100.0% CPU use with 26 MPI tasks x 1 OpenMP threads

Minimization stats:
  Stopping criterion = linesearch alpha is zero
  Energy initial, next-to-last, final = 
     -1152448.62646635  -1152448.62759793  -1152448.62759793
  Force two-norm initial, final = 0.16751164 0.00025691744
  Force max component initial, final = 0.098173934 8.3370217e-05
  Final line search alpha, max atom move = 0.125 1.0421277e-05
  Iterations, force evaluations = 95 195

MPI task timing breakdown:
Section |  min time  |  avg time  |  max time  |%varavg| %total
---------------------------------------------------------------
Pair    | 1.2974     | 2.4946     | 3.2389     |  38.4 | 73.63
Neigh   | 0          | 0          | 0          |   0.0 |  0.00
Comm    | 0.049785   | 0.34662    | 0.81475    |  37.5 | 10.23
Output  | 0          | 0          | 0          |   0.0 |  0.00
Modify  | 0.0035981  | 0.0055567  | 0.0070814  |   1.3 |  0.16
Other   |            | 0.5413     |            |       | 15.98

Nlocal:        11105.8 ave       15299 max        4380 min
Histogram: 4 0 0 0 4 0 4 4 8 2
Nghost:        10533.6 ave       14020 max        4076 min
Histogram: 4 0 0 0 4 0 4 2 6 6
Neighs:       316854.0 ave      441633 max      114725 min
Histogram: 4 0 0 0 4 0 4 4 8 2

Total # of neighbors = 8238205
Ave neighs/atom = 28.530481
Neighbor list builds = 0
Dangerous builds = 0
The dot product: -7.44449432656152e-07
