LAMMPS (29 Oct 2020)
OMP_NUM_THREADS environment is not set. Defaulting to 1 thread. (../comm.cpp:94)
  using 1 OpenMP thread(s) per MPI task
OMP_NUM_THREADS environment is not set. Defaulting to 1 thread. (../comm.cpp:94)
  using 1 OpenMP thread(s) per MPI task
Reading data file ...
  orthogonal box = (-122.39241 -121.13707 -37.090501) to (122.39241 121.13707 37.090501)
  13 by 4 by 2 MPI processor grid
  reading atoms ...
  288751 atoms
  read_data CPU = 0.437 seconds
199981 atoms in group inner
88770 atoms in group outer
1 atoms in group carbon
Neighbor list info ...
  update every 1 steps, delay 0 steps, check yes
  max neighbors/atom: 2000, page size: 100000
  master list distance cutoff = 5.6
  ghost atom cutoff = 5.6
  binsize = 2.8, bins = 88 87 27
  1 neighbor lists, perpetual/occasional/extra = 1 0 0
  (1) pair eam/alloy, perpetual
      attributes: half, newton on
      pair build: half/bin/atomonly/newton
      stencil: half/bin/3d/newton
      bin: standard
Setting up cg style minimization ...
  Unit style    : metal
  Current step  : 0
Per MPI rank memory allocation (min/avg/max) = 5.441 | 5.816 | 6.074 Mbytes
Step v_fx v_fy v_fz PotEng KinEng TotEng 
       0   0.12639685     -29.9831    50.294429   -1152433.3            0   -1152433.3 
     155 -1.6864763e-05 -3.0784632e-05 7.4603283e-05   -1152449.5            0   -1152449.5 
Loop time of 1.82501 on 104 procs for 155 steps with 288751 atoms

99.8% CPU use with 104 MPI tasks x 1 OpenMP threads

Minimization stats:
  Stopping criterion = energy tolerance
  Energy initial, next-to-last, final = 
       -1152433.342954  -1152449.45035268  -1152449.45035268
  Force two-norm initial, final = 87.753814 0.00022733232
  Force max component initial, final = 57.438100 7.4603283e-05
  Final line search alpha, max atom move = 1.0000000 7.4603283e-05
  Iterations, force evaluations = 155 302

MPI task timing breakdown:
Section |  min time  |  avg time  |  max time  |%varavg| %total
---------------------------------------------------------------
Pair    | 0.48376    | 1.2855     | 1.6697     |  30.0 | 70.44
Neigh   | 5.4465e-05 | 0.015594   | 0.024473   |   5.2 |  0.85
Comm    | 0.034349   | 0.29968    | 0.87097    |  43.3 | 16.42
Output  | 0          | 0          | 0          |   0.0 |  0.00
Modify  | 1.7078e-05 | 0.0016486  | 0.0041819  |   2.5 |  0.09
Other   |            | 0.2226     |            |       | 12.20

Nlocal:        2776.45 ave        3961 max           0 min
Histogram: 8 4 4 0 6 10 8 2 28 34
Nghost:        3879.01 ave        5424 max         232 min
Histogram: 8 0 8 0 16 0 8 8 16 40
Neighs:        79213.5 ave      115455 max           0 min
Histogram: 8 4 4 0 10 6 8 8 24 32

Total # of neighbors = 8238208
Ave neighs/atom = 28.530492
Neighbor list builds = 5
Dangerous builds = 0
Setting atom values ...
  1 settings made for x
  1 settings made for y
  1 settings made for z
Setting up cg style minimization ...
  Unit style    : metal
  Current step  : 155
Per MPI rank memory allocation (min/avg/max) = 5.441 | 5.816 | 6.074 Mbytes
Step PotEng KinEng TotEng v_fx v_fy v_fz 
     155   -1152449.4            0   -1152449.4 -0.0077557411 0.0064580479 0.0012814225 
     294   -1152449.5            0   -1152449.5 1.2597204e-06 1.3963912e-06 7.5992243e-06 
Loop time of 1.65369 on 104 procs for 139 steps with 288751 atoms

99.8% CPU use with 104 MPI tasks x 1 OpenMP threads

Minimization stats:
  Stopping criterion = energy tolerance
  Energy initial, next-to-last, final = 
     -1152449.44945409  -1152449.45006295  -1152449.45006295
  Force two-norm initial, final = 0.11534691 0.00013298861
  Force max component initial, final = 0.051692654 7.5992243e-06
  Final line search alpha, max atom move = 1.0000000 7.5992243e-06
  Iterations, force evaluations = 139 278

MPI task timing breakdown:
Section |  min time  |  avg time  |  max time  |%varavg| %total
---------------------------------------------------------------
Pair    | 0.42572    | 1.1806     | 1.5279     |  29.3 | 71.39
Neigh   | 0          | 0          | 0          |   0.0 |  0.00
Comm    | 0.027      | 0.26925    | 0.80391    |  42.5 | 16.28
Output  | 0          | 0          | 0          |   0.0 |  0.00
Modify  | 1.6267e-05 | 0.0023014  | 0.0049054  |   2.2 |  0.14
Other   |            | 0.2015     |            |       | 12.19

Nlocal:        2776.45 ave        3961 max           0 min
Histogram: 8 4 4 0 6 10 8 2 28 34
Nghost:        3879.01 ave        5425 max         232 min
Histogram: 8 0 8 0 16 0 8 8 16 40
Neighs:        79213.4 ave      115455 max           0 min
Histogram: 8 4 4 0 10 6 8 8 24 32

Total # of neighbors = 8238198
Ave neighs/atom = 28.530457
Neighbor list builds = 0
Dangerous builds = 0
Setting atom values ...
  1 settings made for x
  1 settings made for y
  1 settings made for z
Setting up cg style minimization ...
  Unit style    : metal
  Current step  : 294
Per MPI rank memory allocation (min/avg/max) = 5.441 | 5.816 | 6.074 Mbytes
Step PotEng KinEng TotEng v_fx v_fy v_fz 
     294   -1152449.4            0   -1152449.4 -0.018698758  0.018064495 0.0026655816 
     399   -1152449.4            0   -1152449.4 3.3581448e-06 -1.3835817e-08  1.21683e-05 
Loop time of 1.26406 on 104 procs for 105 steps with 288751 atoms

99.8% CPU use with 104 MPI tasks x 1 OpenMP threads

Minimization stats:
  Stopping criterion = energy tolerance
  Energy initial, next-to-last, final = 
     -1152449.44670638  -1152449.44838211  -1152449.44838211
  Force two-norm initial, final = 0.19211731 0.00027549097
  Force max component initial, final = 0.080094663 1.5279863e-05
  Final line search alpha, max atom move = 1.0000000 1.5279863e-05
  Iterations, force evaluations = 105 210

MPI task timing breakdown:
Section |  min time  |  avg time  |  max time  |%varavg| %total
---------------------------------------------------------------
Pair    | 0.32447    | 0.89209    | 1.1575     |  25.2 | 70.57
Neigh   | 0          | 0          | 0          |   0.0 |  0.00
Comm    | 0.024791   | 0.20684    | 0.61249    |  36.7 | 16.36
Output  | 0          | 0          | 0          |   0.0 |  0.00
Modify  | 1.3829e-05 | 0.0017466  | 0.0037429  |   2.0 |  0.14
Other   |            | 0.1634     |            |       | 12.93

Nlocal:        2776.45 ave        3961 max           0 min
Histogram: 8 4 4 0 6 10 8 2 28 34
Nghost:        3879.01 ave        5426 max         232 min
Histogram: 8 0 8 0 16 0 8 8 16 40
Neighs:        79213.5 ave      115455 max           0 min
Histogram: 8 4 4 0 10 6 8 8 24 32

Total # of neighbors = 8238199
Ave neighs/atom = 28.530461
Neighbor list builds = 0
Dangerous builds = 0
The dot product: -2.62440227451157e-08
Setting atom values ...
  1 settings made for x
  1 settings made for y
  1 settings made for z
Setting up cg style minimization ...
  Unit style    : metal
  Current step  : 399
Per MPI rank memory allocation (min/avg/max) = 5.441 | 5.816 | 6.074 Mbytes
Step PotEng KinEng TotEng v_fx v_fy v_fz 
     399   -1152449.4            0   -1152449.4 -0.023606256  0.026753332  0.002642935 
     516   -1152449.4            0   -1152449.4 -2.9959632e-06 1.1010886e-06 -1.0880122e-05 
Loop time of 1.39503 on 104 procs for 117 steps with 288751 atoms

99.9% CPU use with 104 MPI tasks x 1 OpenMP threads

Minimization stats:
  Stopping criterion = energy tolerance
  Energy initial, next-to-last, final = 
     -1152449.44354933  -1152449.44522693  -1152449.44522693
  Force two-norm initial, final = 0.19232884 0.0001721467
  Force max component initial, final = 0.076192118 2.0279667e-05
  Final line search alpha, max atom move = 1.0000000 2.0279667e-05
  Iterations, force evaluations = 117 234

MPI task timing breakdown:
Section |  min time  |  avg time  |  max time  |%varavg| %total
---------------------------------------------------------------
Pair    | 0.35539    | 0.99334    | 1.3009     |  26.9 | 71.21
Neigh   | 0          | 0          | 0          |   0.0 |  0.00
Comm    | 0.022359   | 0.22805    | 0.67907    |  38.9 | 16.35
Output  | 0          | 0          | 0          |   0.0 |  0.00
Modify  | 1.4198e-05 | 0.0019442  | 0.0041238  |   2.1 |  0.14
Other   |            | 0.1717     |            |       | 12.31

Nlocal:        2776.45 ave        3961 max           0 min
Histogram: 8 4 4 0 6 10 8 2 28 34
Nghost:        3879.01 ave        5427 max         232 min
Histogram: 8 0 8 0 16 0 8 8 16 40
Neighs:        79213.5 ave      115455 max           0 min
Histogram: 8 4 4 0 10 6 8 8 24 32

Total # of neighbors = 8238201
Ave neighs/atom = 28.530467
Neighbor list builds = 0
Dangerous builds = 0
The dot product: 3.29116595796835e-08
Setting atom values ...
  1 settings made for x
  1 settings made for y
  1 settings made for z
Setting up cg style minimization ...
  Unit style    : metal
  Current step  : 516
Per MPI rank memory allocation (min/avg/max) = 5.441 | 5.816 | 6.074 Mbytes
Step PotEng KinEng TotEng v_fx v_fy v_fz 
     516   -1152449.4            0   -1152449.4 -0.025611202  0.033906036 0.0039099048 
     643   -1152449.4            0   -1152449.4 -1.5192806e-06 2.8887599e-07 -1.0427447e-05 
Loop time of 1.52436 on 104 procs for 127 steps with 288751 atoms

99.9% CPU use with 104 MPI tasks x 1 OpenMP threads

Minimization stats:
  Stopping criterion = energy tolerance
  Energy initial, next-to-last, final = 
      -1152449.4389093  -1152449.44057843  -1152449.44057843
  Force two-norm initial, final = 0.19190398 0.00010346672
  Force max component initial, final = 0.073414919 2.2581802e-05
  Final line search alpha, max atom move = 1.0000000 2.2581802e-05
  Iterations, force evaluations = 127 254

MPI task timing breakdown:
Section |  min time  |  avg time  |  max time  |%varavg| %total
---------------------------------------------------------------
Pair    | 0.40408    | 1.0762     | 1.3944     |  27.4 | 70.60
Neigh   | 0          | 0          | 0          |   0.0 |  0.00
Comm    | 0.027094   | 0.2481     | 0.7256     |  39.9 | 16.28
Output  | 0          | 0          | 0          |   0.0 |  0.00
Modify  | 1.539e-05  | 0.0021151  | 0.0050373  |   2.2 |  0.14
Other   |            | 0.198      |            |       | 12.99

Nlocal:        2776.45 ave        3961 max           0 min
Histogram: 8 4 4 0 6 10 8 2 28 34
Nghost:        3879.01 ave        5427 max         232 min
Histogram: 8 0 8 0 16 0 8 8 16 40
Neighs:        79213.5 ave      115455 max           0 min
Histogram: 8 4 4 0 10 6 8 8 24 32

Total # of neighbors = 8238201
Ave neighs/atom = 28.530467
Neighbor list builds = 0
Dangerous builds = 0
The dot product: 2.67778296777644e-08
Setting atom values ...
  1 settings made for x
  1 settings made for y
  1 settings made for z
Setting up cg style minimization ...
  Unit style    : metal
  Current step  : 643
Per MPI rank memory allocation (min/avg/max) = 5.441 | 5.816 | 6.074 Mbytes
Step PotEng KinEng TotEng v_fx v_fy v_fz 
     643   -1152449.4            0   -1152449.4 -0.025940338   0.03945757 0.0061522195 
     809   -1152449.4            0   -1152449.4 -9.3926675e-08 5.8780777e-07 3.554754e-06 
Loop time of 1.96539 on 104 procs for 166 steps with 288751 atoms

99.9% CPU use with 104 MPI tasks x 1 OpenMP threads

Minimization stats:
  Stopping criterion = energy tolerance
  Energy initial, next-to-last, final = 
     -1152449.43275226  -1152449.43440602  -1152449.43440602
  Force two-norm initial, final = 0.19100534 1.4204198e-05
  Force max component initial, final = 0.073770379 3.5547540e-06
  Final line search alpha, max atom move = 1.0000000 3.5547540e-06
  Iterations, force evaluations = 166 332

MPI task timing breakdown:
Section |  min time  |  avg time  |  max time  |%varavg| %total
---------------------------------------------------------------
Pair    | 0.50485    | 1.4041     | 1.8362     |  32.0 | 71.44
Neigh   | 0          | 0          | 0          |   0.0 |  0.00
Comm    | 0.029287   | 0.32018    | 0.94317    |  46.3 | 16.29
Output  | 0          | 0          | 0          |   0.0 |  0.00
Modify  | 1.9378e-05 | 0.0027484  | 0.0058802  |   2.5 |  0.14
Other   |            | 0.2384     |            |       | 12.13

Nlocal:        2776.45 ave        3961 max           0 min
Histogram: 8 4 4 0 6 10 8 2 28 34
Nghost:        3879.01 ave        5427 max         232 min
Histogram: 8 0 8 0 16 0 8 8 16 40
Neighs:        79213.5 ave      115455 max           0 min
Histogram: 8 4 4 0 10 6 8 8 24 32

Total # of neighbors = 8238200
Ave neighs/atom = 28.530464
Neighbor list builds = 0
Dangerous builds = 0
The dot product: -3.91872453151818e-09
Setting atom values ...
  1 settings made for x
  1 settings made for y
  1 settings made for z
Setting up cg style minimization ...
  Unit style    : metal
  Current step  : 809
Per MPI rank memory allocation (min/avg/max) = 5.441 | 5.816 | 6.074 Mbytes
Step PotEng KinEng TotEng v_fx v_fy v_fz 
     809   -1152449.4            0   -1152449.4  -0.02554219  0.043951537 0.0091156043 
     939   -1152449.4            0   -1152449.4 1.6697373e-06 -1.0007749e-06 1.8607918e-05 
Loop time of 1.52785 on 104 procs for 130 steps with 288751 atoms

99.9% CPU use with 104 MPI tasks x 1 OpenMP threads

Minimization stats:
  Stopping criterion = energy tolerance
  Energy initial, next-to-last, final = 
     -1152449.42504363  -1152449.42667922  -1152449.42667922
  Force two-norm initial, final = 0.18988985 9.3180311e-05
  Force max component initial, final = 0.073449881 1.8607918e-05
  Final line search alpha, max atom move = 1.0000000 1.8607918e-05
  Iterations, force evaluations = 130 260

MPI task timing breakdown:
Section |  min time  |  avg time  |  max time  |%varavg| %total
---------------------------------------------------------------
Pair    | 0.3975     | 1.0949     | 1.4216     |  28.2 | 71.66
Neigh   | 0          | 0          | 0          |   0.0 |  0.00
Comm    | 0.025092   | 0.2502     | 0.74658    |  40.9 | 16.38
Output  | 0          | 0          | 0          |   0.0 |  0.00
Modify  | 1.5673e-05 | 0.0021593  | 0.0046017  |   2.2 |  0.14
Other   |            | 0.1806     |            |       | 11.82

Nlocal:        2776.45 ave        3961 max           0 min
Histogram: 8 4 4 0 6 10 8 2 28 34
Nghost:        3879.01 ave        5427 max         232 min
Histogram: 8 0 8 0 16 0 8 8 16 40
Neighs:        79213.5 ave      115455 max           0 min
Histogram: 8 4 4 0 10 6 8 8 24 32

Total # of neighbors = 8238202
Ave neighs/atom = 28.530471
Neighbor list builds = 0
Dangerous builds = 0
The dot product: -3.84864623701823e-08
Setting atom values ...
  1 settings made for x
  1 settings made for y
  1 settings made for z
Setting up cg style minimization ...
  Unit style    : metal
  Current step  : 939
Per MPI rank memory allocation (min/avg/max) = 5.441 | 5.816 | 6.074 Mbytes
Step PotEng KinEng TotEng v_fx v_fy v_fz 
     939   -1152449.4            0   -1152449.4 -0.024911276  0.047954808  0.012625435 
    1000   -1152449.4            0   -1152449.4 5.4523994e-06 -2.1519531e-05 -0.00014711275 
    1047   -1152449.4            0   -1152449.4 4.2730542e-06 -3.323527e-06 6.2027067e-05 
Loop time of 1.27875 on 104 procs for 108 steps with 288751 atoms

99.9% CPU use with 104 MPI tasks x 1 OpenMP threads

Minimization stats:
  Stopping criterion = energy tolerance
  Energy initial, next-to-last, final = 
     -1152449.41575791   -1152449.4173749   -1152449.4173749
  Force two-norm initial, final = 0.18874112 0.0002450225
  Force max component initial, final = 0.072549548 6.2027067e-05
  Final line search alpha, max atom move = 1.0000000 6.2027067e-05
  Iterations, force evaluations = 108 216

MPI task timing breakdown:
Section |  min time  |  avg time  |  max time  |%varavg| %total
---------------------------------------------------------------
Pair    | 0.331      | 0.91627    | 1.187      |  25.8 | 71.65
Neigh   | 0          | 0          | 0          |   0.0 |  0.00
Comm    | 0.020976   | 0.20778    | 0.6219     |  37.3 | 16.25
Output  | 0.00032078 | 0.00032928 | 0.00045489 |   0.0 |  0.03
Modify  | 1.2844e-05 | 0.0017957  | 0.0038653  |   2.0 |  0.14
Other   |            | 0.1526     |            |       | 11.93

Nlocal:        2776.45 ave        3961 max           0 min
Histogram: 8 4 4 0 6 10 8 2 28 34
Nghost:        3879.01 ave        5426 max         232 min
Histogram: 8 0 8 0 16 0 8 8 16 40
Neighs:        79213.5 ave      115455 max           0 min
Histogram: 8 4 4 0 10 6 8 8 24 32

Total # of neighbors = 8238201
Ave neighs/atom = 28.530467
Neighbor list builds = 0
Dangerous builds = 0
The dot product: -9.88412293685618e-08
Setting atom values ...
  1 settings made for x
  1 settings made for y
  1 settings made for z
Setting up cg style minimization ...
  Unit style    : metal
  Current step  : 1047
Per MPI rank memory allocation (min/avg/max) = 5.441 | 5.816 | 6.074 Mbytes
Step PotEng KinEng TotEng v_fx v_fy v_fz 
    1047   -1152449.4            0   -1152449.4 -0.024299726  0.052054244  0.016738312 
    1197   -1152449.4            0   -1152449.4 1.2318555e-06 -2.176221e-06 6.4771865e-06 
Loop time of 1.74545 on 104 procs for 150 steps with 288751 atoms

99.9% CPU use with 104 MPI tasks x 1 OpenMP threads

Minimization stats:
  Stopping criterion = energy tolerance
  Energy initial, next-to-last, final = 
     -1152449.40488105  -1152449.40648215  -1152449.40648215
  Force two-norm initial, final = 0.18775681 4.7991458e-05
  Force max component initial, final = 0.071128211 6.4771865e-06
  Final line search alpha, max atom move = 1.0000000 6.4771865e-06
  Iterations, force evaluations = 150 300

MPI task timing breakdown:
Section |  min time  |  avg time  |  max time  |%varavg| %total
---------------------------------------------------------------
Pair    | 0.45596    | 1.2612     | 1.6353     |  30.3 | 72.25
Neigh   | 0          | 0          | 0          |   0.0 |  0.00
Comm    | 0.025971   | 0.28561    | 0.85636    |  44.5 | 16.36
Output  | 0          | 0          | 0          |   0.0 |  0.00
Modify  | 1.9759e-05 | 0.0024888  | 0.0053262  |   2.3 |  0.14
Other   |            | 0.1962     |            |       | 11.24

Nlocal:        2776.45 ave        3961 max           0 min
Histogram: 8 4 4 0 6 10 8 2 28 34
Nghost:        3879.01 ave        5424 max         232 min
Histogram: 8 0 8 0 16 0 8 8 16 40
Neighs:        79213.5 ave      115455 max           0 min
Histogram: 8 4 4 0 10 6 8 8 24 32

Total # of neighbors = 8238200
Ave neighs/atom = 28.530464
Neighbor list builds = 0
Dangerous builds = 0
The dot product: -1.89710359691996e-08
Setting atom values ...
  1 settings made for x
  1 settings made for y
  1 settings made for z
Setting up cg style minimization ...
  Unit style    : metal
  Current step  : 1197
Per MPI rank memory allocation (min/avg/max) = 5.441 | 5.816 | 6.074 Mbytes
Step PotEng KinEng TotEng v_fx v_fy v_fz 
    1197   -1152449.4            0   -1152449.4 -0.023822608  0.056911436   0.02153172 
    1368   -1152449.4            0   -1152449.4 7.5692544e-07 -2.1303982e-06 -6.0934952e-06 
Loop time of 2.001 on 104 procs for 171 steps with 288751 atoms

99.9% CPU use with 104 MPI tasks x 1 OpenMP threads

Minimization stats:
  Stopping criterion = energy tolerance
  Energy initial, next-to-last, final = 
     -1152449.39241342  -1152449.39400759  -1152449.39400759
  Force two-norm initial, final = 0.18716837 2.3400600e-05
  Force max component initial, final = 0.069102581 6.0934952e-06
  Final line search alpha, max atom move = 1.0000000 6.0934952e-06
  Iterations, force evaluations = 171 342

MPI task timing breakdown:
Section |  min time  |  avg time  |  max time  |%varavg| %total
---------------------------------------------------------------
Pair    | 0.51847    | 1.4461     | 1.8743     |  32.3 | 72.27
Neigh   | 0          | 0          | 0          |   0.0 |  0.00
Comm    | 0.030769   | 0.32764    | 0.99535    |  47.6 | 16.37
Output  | 0          | 0          | 0          |   0.0 |  0.00
Modify  | 2.0083e-05 | 0.002823   | 0.0059985  |   2.5 |  0.14
Other   |            | 0.2244     |            |       | 11.21

Nlocal:        2776.45 ave        3961 max           0 min
Histogram: 8 4 4 0 6 10 8 2 28 34
Nghost:        3879.05 ave        5424 max         232 min
Histogram: 8 0 8 0 16 0 8 8 16 40
Neighs:        79213.4 ave      115455 max           0 min
Histogram: 8 4 4 0 10 6 8 8 24 32

Total # of neighbors = 8238198
Ave neighs/atom = 28.530457
Neighbor list builds = 0
Dangerous builds = 0
The dot product: -1.68416118923421e-08
Setting atom values ...
  1 settings made for x
  1 settings made for y
  1 settings made for z
Setting up cg style minimization ...
  Unit style    : metal
  Current step  : 1368
Per MPI rank memory allocation (min/avg/max) = 5.441 | 5.816 | 6.074 Mbytes
Step PotEng KinEng TotEng v_fx v_fy v_fz 
    1368   -1152449.4            0   -1152449.4 -0.023454265  0.063309913  0.027489797 
    1515   -1152449.4            0   -1152449.4 -2.3114776e-06 5.5571338e-06 -7.167564e-06 
Loop time of 1.72701 on 104 procs for 147 steps with 288751 atoms

99.9% CPU use with 104 MPI tasks x 1 OpenMP threads

Minimization stats:
  Stopping criterion = energy tolerance
  Energy initial, next-to-last, final = 
     -1152449.37838043  -1152449.37998973  -1152449.37998973
  Force two-norm initial, final = 0.18737716 4.2553253e-05
  Force max component initial, final = 0.06630613 8.3617918e-06
  Final line search alpha, max atom move = 1.0000000 8.3617918e-06
  Iterations, force evaluations = 147 294

MPI task timing breakdown:
Section |  min time  |  avg time  |  max time  |%varavg| %total
---------------------------------------------------------------
Pair    | 0.44544    | 1.2406     | 1.6155     |  30.2 | 71.84
Neigh   | 0          | 0          | 0          |   0.0 |  0.00
Comm    | 0.026494   | 0.28283    | 0.8443     |  43.9 | 16.38
Output  | 0          | 0          | 0          |   0.0 |  0.00
Modify  | 1.7474e-05 | 0.0024387  | 0.005195   |   2.3 |  0.14
Other   |            | 0.2011     |            |       | 11.65

Nlocal:        2776.45 ave        3961 max           0 min
Histogram: 8 4 4 0 6 10 8 2 28 34
Nghost:        3879.05 ave        5424 max         232 min
Histogram: 8 0 8 0 16 0 8 8 16 40
Neighs:        79213.4 ave      115455 max           0 min
Histogram: 8 4 4 0 10 6 8 8 24 32

Total # of neighbors = 8238198
Ave neighs/atom = 28.530457
Neighbor list builds = 0
Dangerous builds = 0
The dot product: 3.95764422782576e-08
Setting atom values ...
  1 settings made for x
  1 settings made for y
  1 settings made for z
Setting up cg style minimization ...
  Unit style    : metal
  Current step  : 1515
Per MPI rank memory allocation (min/avg/max) = 5.441 | 5.816 | 6.074 Mbytes
Step PotEng KinEng TotEng v_fx v_fy v_fz 
    1515   -1152449.4            0   -1152449.4 -0.023610619  0.074672227  0.038020266 
    1726   -1152449.4            0   -1152449.4 -1.4098194e-06 3.6410859e-06 -5.7773746e-06 
Loop time of 2.50895 on 104 procs for 211 steps with 288751 atoms

99.9% CPU use with 104 MPI tasks x 1 OpenMP threads

Minimization stats:
  Stopping criterion = energy tolerance
  Energy initial, next-to-last, final = 
     -1152449.36286837  -1152449.36461452  -1152449.36461452
  Force two-norm initial, final = 0.19052912 3.2896073e-05
  Force max component initial, final = 0.074672227 7.2401746e-06
  Final line search alpha, max atom move = 1.0000000 7.2401746e-06
  Iterations, force evaluations = 211 422

MPI task timing breakdown:
Section |  min time  |  avg time  |  max time  |%varavg| %total
---------------------------------------------------------------
Pair    | 0.63959    | 1.7857     | 2.3128     |  36.1 | 71.17
Neigh   | 0          | 0          | 0          |   0.0 |  0.00
Comm    | 0.040667   | 0.40938    | 1.2147     |  52.4 | 16.32
Output  | 0          | 0          | 0          |   0.0 |  0.00
Modify  | 2.4631e-05 | 0.0034982  | 0.0075187  |   2.8 |  0.14
Other   |            | 0.3103     |            |       | 12.37

Nlocal:        2776.45 ave        3961 max           0 min
Histogram: 8 4 4 0 6 10 8 2 28 34
Nghost:        3879.05 ave        5424 max         232 min
Histogram: 8 0 8 0 16 0 8 8 16 40
Neighs:        79213.4 ave      115455 max           0 min
Histogram: 8 4 4 0 10 6 8 8 24 32

Total # of neighbors = 8238197
Ave neighs/atom = 28.530454
Neighbor list builds = 0
Dangerous builds = 0
The dot product: 1.92699659106295e-08
Setting atom values ...
  1 settings made for x
  1 settings made for y
  1 settings made for z
Setting up cg style minimization ...
  Unit style    : metal
  Current step  : 1726
Per MPI rank memory allocation (min/avg/max) = 5.441 | 5.816 | 6.074 Mbytes
Step PotEng KinEng TotEng v_fx v_fy v_fz 
    1726   -1152449.3            0   -1152449.3 -0.023556488   0.10247163  0.062675742 
    1909   -1152449.4            0   -1152449.4 -6.6476537e-08 1.1711851e-05 5.1002133e-05 
Loop time of 2.13252 on 104 procs for 183 steps with 288751 atoms

99.9% CPU use with 104 MPI tasks x 1 OpenMP threads

Minimization stats:
  Stopping criterion = energy tolerance
  Energy initial, next-to-last, final = 
     -1152449.34635791   -1152449.3508864   -1152449.3508864
  Force two-norm initial, final = 0.20594493 0.00018561058
  Force max component initial, final = 0.10247163 5.1002133e-05
  Final line search alpha, max atom move = 1.0000000 5.1002133e-05
  Iterations, force evaluations = 183 366

MPI task timing breakdown:
Section |  min time  |  avg time  |  max time  |%varavg| %total
---------------------------------------------------------------
Pair    | 0.55519    | 1.5367     | 1.9973     |  33.3 | 72.06
Neigh   | 0          | 0          | 0          |   0.0 |  0.00
Comm    | 0.036606   | 0.34882    | 1.0417     |  48.9 | 16.36
Output  | 0          | 0          | 0          |   0.0 |  0.00
Modify  | 2.393e-05  | 0.0030354  | 0.0064737  |   2.6 |  0.14
Other   |            | 0.2439     |            |       | 11.44

Nlocal:        2776.45 ave        3961 max           0 min
Histogram: 8 4 4 0 6 10 8 2 28 34
Nghost:        3879.05 ave        5427 max         232 min
Histogram: 8 0 8 0 16 0 8 8 16 40
Neighs:        79213.4 ave      115455 max           0 min
Histogram: 8 4 4 0 10 6 8 8 24 32

Total # of neighbors = 8238192
Ave neighs/atom = 28.530436
Neighbor list builds = 0
Dangerous builds = 0
The dot product: 2.60655206357692e-06
Setting atom values ...
  1 settings made for x
  1 settings made for y
  1 settings made for z
Setting up cg style minimization ...
  Unit style    : metal
  Current step  : 1909
Per MPI rank memory allocation (min/avg/max) = 5.441 | 5.816 | 6.074 Mbytes
Step PotEng KinEng TotEng v_fx v_fy v_fz 
    1909   -1152449.3            0   -1152449.3   0.02373588   0.21796604    0.1388891 
    2000   -1152449.3            0   -1152449.3 -7.1357808e-05 -0.00022901091 -0.00035562983 
    2127   -1152449.3            0   -1152449.3 2.461989e-06 -1.804731e-05 8.500848e-06 
Loop time of 2.59998 on 104 procs for 218 steps with 288751 atoms

99.9% CPU use with 104 MPI tasks x 1 OpenMP threads

Minimization stats:
  Stopping criterion = energy tolerance
  Energy initial, next-to-last, final = 
     -1152449.33554612  -1152449.34591666  -1152449.34591666
  Force two-norm initial, final = 0.2993251 0.0001305215
  Force max component initial, final = 0.21796604 1.9511374e-05
  Final line search alpha, max atom move = 1.0000000 1.9511374e-05
  Iterations, force evaluations = 218 436

MPI task timing breakdown:
Section |  min time  |  avg time  |  max time  |%varavg| %total
---------------------------------------------------------------
Pair    | 0.66299    | 1.8404     | 2.4103     |  36.6 | 70.78
Neigh   | 1.0214e-05 | 0.0029387  | 0.0042747  |   2.2 |  0.11
Comm    | 0.038587   | 0.42464    | 1.2414     |  52.3 | 16.33
Output  | 0.00026353 | 0.00027128 | 0.00040783 |   0.0 |  0.01
Modify  | 2.5171e-05 | 0.0036069  | 0.0076638  |   2.8 |  0.14
Other   |            | 0.3281     |            |       | 12.62

Nlocal:        2776.45 ave        3961 max           0 min
Histogram: 8 4 4 0 6 10 8 2 28 34
Nghost:        3879.05 ave        5428 max         232 min
Histogram: 8 0 8 0 16 0 8 8 16 40
Neighs:        79213.4 ave      115457 max           0 min
Histogram: 8 4 4 0 10 6 8 8 24 32

Total # of neighbors = 8238196
Ave neighs/atom = 28.530450
Neighbor list builds = 1
Dangerous builds = 0
The dot product: -8.84940742078168e-07
Setting atom values ...
  1 settings made for x
  1 settings made for y
  1 settings made for z
Setting up cg style minimization ...
  Unit style    : metal
  Current step  : 2127
Per MPI rank memory allocation (min/avg/max) = 5.441 | 5.816 | 6.074 Mbytes
Step PotEng KinEng TotEng v_fx v_fy v_fz 
    2127   -1152449.3            0   -1152449.3  0.070484279   0.17560656  0.080090166 
    2372   -1152449.3            0   -1152449.3 1.6677452e-05 2.8662847e-05 2.7073703e-05 
Loop time of 2.87349 on 104 procs for 245 steps with 288751 atoms

99.9% CPU use with 104 MPI tasks x 1 OpenMP threads

Minimization stats:
  Stopping criterion = energy tolerance
  Energy initial, next-to-last, final = 
     -1152449.33327838   -1152449.3446846   -1152449.3446846
  Force two-norm initial, final = 0.2475891 0.00022043547
  Force max component initial, final = 0.17560656 2.8662847e-05
  Final line search alpha, max atom move = 1.0000000 2.8662847e-05
  Iterations, force evaluations = 245 490

MPI task timing breakdown:
Section |  min time  |  avg time  |  max time  |%varavg| %total
---------------------------------------------------------------
Pair    | 0.74632    | 2.0592     | 2.6829     |  38.8 | 71.66
Neigh   | 1.0725e-05 | 0.0029391  | 0.0042673  |   2.2 |  0.10
Comm    | 0.045059   | 0.47019    | 1.3997     |  56.3 | 16.36
Output  | 0          | 0          | 0          |   0.0 |  0.00
Modify  | 2.8398e-05 | 0.0040551  | 0.0086712  |   3.0 |  0.14
Other   |            | 0.3371     |            |       | 11.73

Nlocal:        2776.45 ave        3960 max           0 min
Histogram: 8 4 4 0 4 12 8 2 28 34
Nghost:        3879.03 ave        5424 max         232 min
Histogram: 8 0 8 0 16 0 8 8 16 40
Neighs:        79213.4 ave      115438 max           0 min
Histogram: 8 4 4 0 10 6 8 8 24 32

Total # of neighbors = 8238189
Ave neighs/atom = 28.530426
Neighbor list builds = 1
Dangerous builds = 0
The dot product: 4.1632414581693e-06
Setting atom values ...
  1 settings made for x
  1 settings made for y
  1 settings made for z
Setting up cg style minimization ...
  Unit style    : metal
  Current step  : 2372
Per MPI rank memory allocation (min/avg/max) = 5.441 | 5.816 | 6.074 Mbytes
Step PotEng KinEng TotEng v_fx v_fy v_fz 
    2372   -1152449.3            0   -1152449.3 -0.049965536 -0.030009354 -0.047935622 
    2503   -1152449.3            0   -1152449.3 2.6329101e-05 -8.2350535e-07 3.8366529e-05 
Loop time of 1.53324 on 104 procs for 131 steps with 288751 atoms

99.9% CPU use with 104 MPI tasks x 1 OpenMP threads

Minimization stats:
  Stopping criterion = energy tolerance
  Energy initial, next-to-last, final = 
     -1152449.34688122  -1152449.34819022  -1152449.34819022
  Force two-norm initial, final = 0.14637272 0.0001498553
  Force max component initial, final = 0.049965536 3.8366529e-05
  Final line search alpha, max atom move = 1.0000000 3.8366529e-05
  Iterations, force evaluations = 131 262

MPI task timing breakdown:
Section |  min time  |  avg time  |  max time  |%varavg| %total
---------------------------------------------------------------
Pair    | 0.39808    | 1.1059     | 1.441      |  28.3 | 72.13
Neigh   | 0          | 0          | 0          |   0.0 |  0.00
Comm    | 0.02308    | 0.24964    | 0.75014    |  41.6 | 16.28
Output  | 0          | 0          | 0          |   0.0 |  0.00
Modify  | 1.5562e-05 | 0.0021729  | 0.0046146  |   2.2 |  0.14
Other   |            | 0.1755     |            |       | 11.44

Nlocal:        2776.45 ave        3961 max           0 min
Histogram: 8 4 4 0 6 10 8 2 28 34
Nghost:        3879.09 ave        5425 max         232 min
Histogram: 8 0 8 0 16 0 8 8 16 40
Neighs:        79213.4 ave      115455 max           0 min
Histogram: 8 4 4 0 10 6 8 8 24 32

Total # of neighbors = 8238192
Ave neighs/atom = 28.530436
Neighbor list builds = 0
Dangerous builds = 0
The dot product: -3.72292687814033e-07
Setting atom values ...
  1 settings made for x
  1 settings made for y
  1 settings made for z
Setting up cg style minimization ...
  Unit style    : metal
  Current step  : 2503
Per MPI rank memory allocation (min/avg/max) = 5.441 | 5.816 | 6.074 Mbytes
Step PotEng KinEng TotEng v_fx v_fy v_fz 
    2503   -1152449.3            0   -1152449.3 -0.0066499517 0.0096288285 -0.017493089 
    2679   -1152449.4            0   -1152449.4 1.3057109e-05 9.350203e-06 1.2631248e-05 
Loop time of 2.04641 on 104 procs for 176 steps with 288751 atoms

99.9% CPU use with 104 MPI tasks x 1 OpenMP threads

Minimization stats:
  Stopping criterion = energy tolerance
  Energy initial, next-to-last, final = 
     -1152449.34955186  -1152449.35045794  -1152449.35045794
  Force two-norm initial, final = 0.12492298 0.00013813473
  Force max component initial, final = 0.047678218 1.5834661e-05
  Final line search alpha, max atom move = 1.0000000 1.5834661e-05
  Iterations, force evaluations = 176 352

MPI task timing breakdown:
Section |  min time  |  avg time  |  max time  |%varavg| %total
---------------------------------------------------------------
Pair    | 0.53406    | 1.4775     | 1.9212     |  32.8 | 72.20
Neigh   | 0          | 0          | 0          |   0.0 |  0.00
Comm    | 0.031029   | 0.33523    | 1.0089     |  48.0 | 16.38
Output  | 0          | 0          | 0          |   0.0 |  0.00
Modify  | 2.0425e-05 | 0.0029125  | 0.0062295  |   2.5 |  0.14
Other   |            | 0.2307     |            |       | 11.27

Nlocal:        2776.45 ave        3961 max           0 min
Histogram: 8 4 4 0 6 10 8 2 28 34
Nghost:        3879.09 ave        5426 max         232 min
Histogram: 8 0 8 0 16 0 8 8 16 40
Neighs:        79213.4 ave      115445 max           0 min
Histogram: 8 4 4 0 10 6 8 8 24 32

Total # of neighbors = 8238193
Ave neighs/atom = 28.530440
Neighbor list builds = 0
Dangerous builds = 0
The dot product: 1.32500766164737e-08
Setting atom values ...
  1 settings made for x
  1 settings made for y
  1 settings made for z
Setting up cg style minimization ...
  Unit style    : metal
  Current step  : 2679
Per MPI rank memory allocation (min/avg/max) = 5.441 | 5.816 | 6.074 Mbytes
Step PotEng KinEng TotEng v_fx v_fy v_fz 
    2679   -1152449.4            0   -1152449.4 -0.010221297 0.0063221008 -0.020376258 
    2875   -1152449.4            0   -1152449.4 -6.1101079e-06 -2.0444469e-06 -7.6780448e-06 
Loop time of 2.29784 on 104 procs for 196 steps with 288751 atoms

99.9% CPU use with 104 MPI tasks x 1 OpenMP threads

Minimization stats:
  Stopping criterion = energy tolerance
  Energy initial, next-to-last, final = 
      -1152449.3506092  -1152449.35151132  -1152449.35151132
  Force two-norm initial, final = 0.12557955 8.1648010e-05
  Force max component initial, final = 0.047079471 1.1456474e-05
  Final line search alpha, max atom move = 1.0000000 1.1456474e-05
  Iterations, force evaluations = 196 392

MPI task timing breakdown:
Section |  min time  |  avg time  |  max time  |%varavg| %total
---------------------------------------------------------------
Pair    | 0.59501    | 1.659      | 2.1543     |  34.7 | 72.20
Neigh   | 0          | 0          | 0          |   0.0 |  0.00
Comm    | 0.036158   | 0.37575    | 1.1377     |  50.7 | 16.35
Output  | 0          | 0          | 0          |   0.0 |  0.00
Modify  | 2.2935e-05 | 0.0032438  | 0.0068967  |   2.7 |  0.14
Other   |            | 0.2598     |            |       | 11.31

Nlocal:        2776.45 ave        3961 max           0 min
Histogram: 8 4 4 0 6 10 8 2 28 34
Nghost:        3879.09 ave        5424 max         232 min
Histogram: 8 0 8 0 16 0 8 8 16 40
Neighs:        79213.4 ave      115457 max           0 min
Histogram: 8 4 4 0 10 6 8 8 24 32

Total # of neighbors = 8238189
Ave neighs/atom = 28.530426
Neighbor list builds = 0
Dangerous builds = 0
The dot product: 3.91792359872607e-09
Setting atom values ...
  1 settings made for x
  1 settings made for y
  1 settings made for z
Setting up cg style minimization ...
  Unit style    : metal
  Current step  : 2875
Per MPI rank memory allocation (min/avg/max) = 5.441 | 5.816 | 6.074 Mbytes
Step PotEng KinEng TotEng v_fx v_fy v_fz 
    2875   -1152449.4            0   -1152449.4 -0.0094883623 0.0065629642 -0.019514889 
    3000   -1152449.4            0   -1152449.4 0.00010275756 7.6236269e-05 9.6989261e-05 
    3098   -1152449.4            0   -1152449.4 7.4547397e-06 2.3046007e-06 9.5405956e-06 
Loop time of 2.6064 on 104 procs for 223 steps with 288751 atoms

99.9% CPU use with 104 MPI tasks x 1 OpenMP threads

Minimization stats:
  Stopping criterion = energy tolerance
  Energy initial, next-to-last, final = 
     -1152449.35035445  -1152449.35124987  -1152449.35124987
  Force two-norm initial, final = 0.12516479 3.0250283e-05
  Force max component initial, final = 0.046480138 9.5405956e-06
  Final line search alpha, max atom move = 1.0000000 9.5405956e-06
  Iterations, force evaluations = 223 446

MPI task timing breakdown:
Section |  min time  |  avg time  |  max time  |%varavg| %total
---------------------------------------------------------------
Pair    | 0.67381    | 1.8755     | 2.4494     |  37.0 | 71.96
Neigh   | 0          | 0          | 0          |   0.0 |  0.00
Comm    | 0.039174   | 0.42732    | 1.2831     |  54.2 | 16.39
Output  | 0.00015293 | 0.00016154 | 0.00029889 |   0.0 |  0.01
Modify  | 2.6634e-05 | 0.0036978  | 0.0079041  |   2.9 |  0.14
Other   |            | 0.2997     |            |       | 11.50

Nlocal:        2776.45 ave        3961 max           0 min
Histogram: 8 4 4 0 6 10 8 2 28 34
Nghost:        3879.05 ave        5424 max         232 min
Histogram: 8 0 8 0 16 0 8 8 16 40
Neighs:        79213.4 ave      115465 max           0 min
Histogram: 8 4 4 0 10 6 8 8 24 32

Total # of neighbors = 8238191
Ave neighs/atom = 28.530433
Neighbor list builds = 0
Dangerous builds = 0
The dot product: -4.36519098210193e-09
Setting atom values ...
  1 settings made for x
  1 settings made for y
  1 settings made for z
Setting up cg style minimization ...
  Unit style    : metal
  Current step  : 3098
Per MPI rank memory allocation (min/avg/max) = 5.441 | 5.816 | 6.074 Mbytes
Step PotEng KinEng TotEng v_fx v_fy v_fz 
    3098   -1152449.3            0   -1152449.3 -0.0085609721 0.0064577411 -0.018080609 
    3283   -1152449.3            0   -1152449.3 -1.4317518e-05 -1.278614e-05 -1.184787e-05 
Loop time of 2.18615 on 104 procs for 185 steps with 288751 atoms

99.9% CPU use with 104 MPI tasks x 1 OpenMP threads

Minimization stats:
  Stopping criterion = energy tolerance
  Energy initial, next-to-last, final = 
     -1152449.34875643  -1152449.34963975  -1152449.34963975
  Force two-norm initial, final = 0.12425432 0.0001170259
  Force max component initial, final = 0.045829523 3.0018567e-05
  Final line search alpha, max atom move = 1.0000000 3.0018567e-05
  Iterations, force evaluations = 185 370

MPI task timing breakdown:
Section |  min time  |  avg time  |  max time  |%varavg| %total
---------------------------------------------------------------
Pair    | 0.56375    | 1.566      | 2.0424     |  33.7 | 71.63
Neigh   | 0          | 0          | 0          |   0.0 |  0.00
Comm    | 0.037005   | 0.35695    | 1.0792     |  49.2 | 16.33
Output  | 0          | 0          | 0          |   0.0 |  0.00
Modify  | 2.1516e-05 | 0.0030667  | 0.0064967  |   2.6 |  0.14
Other   |            | 0.2602     |            |       | 11.90

Nlocal:        2776.45 ave        3961 max           0 min
Histogram: 8 4 4 0 6 10 8 2 28 34
Nghost:        3879.01 ave        5424 max         232 min
Histogram: 8 0 8 0 16 0 8 8 16 40
Neighs:        79213.4 ave      115465 max           0 min
Histogram: 8 4 4 0 10 6 8 8 24 32

Total # of neighbors = 8238191
Ave neighs/atom = 28.530433
Neighbor list builds = 0
Dangerous builds = 0
The dot product: 1.64247912483587e-09
Setting atom values ...
  1 settings made for x
  1 settings made for y
  1 settings made for z
Setting up cg style minimization ...
  Unit style    : metal
  Current step  : 3283
Per MPI rank memory allocation (min/avg/max) = 5.441 | 5.816 | 6.074 Mbytes
Step PotEng KinEng TotEng v_fx v_fy v_fz 
    3283   -1152449.3            0   -1152449.3 -0.0076236901 0.0060818297 -0.016406354 
    3469   -1152449.3            0   -1152449.3 2.0908518e-05 8.7490268e-06 2.5083813e-05 
Loop time of 2.16872 on 104 procs for 186 steps with 288751 atoms

99.9% CPU use with 104 MPI tasks x 1 OpenMP threads

Minimization stats:
  Stopping criterion = energy tolerance
  Energy initial, next-to-last, final = 
     -1152449.34580364  -1152449.34667305  -1152449.34667305
  Force two-norm initial, final = 0.12325561 0.00010945789
  Force max component initial, final = 0.045126376 2.5083813e-05
  Final line search alpha, max atom move = 1.0000000 2.5083813e-05
  Iterations, force evaluations = 186 372

MPI task timing breakdown:
Section |  min time  |  avg time  |  max time  |%varavg| %total
---------------------------------------------------------------
Pair    | 0.56374    | 1.5679     | 2.0365     |  33.9 | 72.30
Neigh   | 0          | 0          | 0          |   0.0 |  0.00
Comm    | 0.037837   | 0.35555    | 1.0623     |  49.9 | 16.39
Output  | 0          | 0          | 0          |   0.0 |  0.00
Modify  | 2.3368e-05 | 0.0030886  | 0.006616   |   2.6 |  0.14
Other   |            | 0.2421     |            |       | 11.16

Nlocal:        2776.45 ave        3960 max           0 min
Histogram: 8 4 4 0 4 12 8 2 28 34
Nghost:        3879.01 ave        5424 max         232 min
Histogram: 8 0 8 0 16 0 8 8 16 40
Neighs:        79213.4 ave      115434 max           0 min
Histogram: 8 4 4 0 10 6 8 8 24 32

Total # of neighbors = 8238190
Ave neighs/atom = 28.530429
Neighbor list builds = 0
Dangerous builds = 0
The dot product: -7.50464498699058e-09
Setting atom values ...
  1 settings made for x
  1 settings made for y
  1 settings made for z
Setting up cg style minimization ...
  Unit style    : metal
  Current step  : 3469
Per MPI rank memory allocation (min/avg/max) = 5.441 | 5.816 | 6.074 Mbytes
Step PotEng KinEng TotEng v_fx v_fy v_fz 
    3469   -1152449.3            0   -1152449.3 -0.0067626641 0.0054589625 -0.014639056 
    3628   -1152449.3            0   -1152449.3 4.0302289e-05 7.2252623e-06 5.5993265e-05 
Loop time of 1.85923 on 104 procs for 159 steps with 288751 atoms

99.9% CPU use with 104 MPI tasks x 1 OpenMP threads

Minimization stats:
  Stopping criterion = energy tolerance
  Energy initial, next-to-last, final = 
     -1152449.34148778  -1152449.34234418  -1152449.34234418
  Force two-norm initial, final = 0.12243046 0.00026288863
  Force max component initial, final = 0.044418146 5.5993265e-05
  Final line search alpha, max atom move = 1.0000000 5.5993265e-05
  Iterations, force evaluations = 159 318

MPI task timing breakdown:
Section |  min time  |  avg time  |  max time  |%varavg| %total
---------------------------------------------------------------
Pair    | 0.47904    | 1.3401     | 1.7466     |  31.3 | 72.08
Neigh   | 0          | 0          | 0          |   0.0 |  0.00
Comm    | 0.028296   | 0.3045     | 0.90781    |  45.4 | 16.38
Output  | 0          | 0          | 0          |   0.0 |  0.00
Modify  | 1.8742e-05 | 0.0026343  | 0.0056129  |   2.4 |  0.14
Other   |            | 0.212      |            |       | 11.40

Nlocal:        2776.45 ave        3960 max           0 min
Histogram: 8 4 4 0 4 12 8 2 28 34
Nghost:        3879.01 ave        5424 max         232 min
Histogram: 8 0 8 0 16 0 8 8 16 40
Neighs:        79213.4 ave      115434 max           0 min
Histogram: 8 4 4 0 10 6 8 8 24 32

Total # of neighbors = 8238191
Ave neighs/atom = 28.530433
Neighbor list builds = 0
Dangerous builds = 0
The dot product: -1.94148029142877e-08
Setting atom values ...
  1 settings made for x
  1 settings made for y
  1 settings made for z
Setting up cg style minimization ...
  Unit style    : metal
  Current step  : 3628
Per MPI rank memory allocation (min/avg/max) = 5.441 | 5.816 | 6.074 Mbytes
Step PotEng KinEng TotEng v_fx v_fy v_fz 
    3628   -1152449.3            0   -1152449.3 -0.0061352447 0.0045136478 -0.012963441 
    3823   -1152449.3            0   -1152449.3 1.0532853e-05 -9.7034693e-07 1.6910232e-05 
Loop time of 2.27208 on 104 procs for 195 steps with 288751 atoms

99.9% CPU use with 104 MPI tasks x 1 OpenMP threads

Minimization stats:
  Stopping criterion = energy tolerance
  Energy initial, next-to-last, final = 
     -1152449.33579395  -1152449.33664299  -1152449.33664299
  Force two-norm initial, final = 0.1219382 8.8191068e-05
  Force max component initial, final = 0.044215834 1.6910232e-05
  Final line search alpha, max atom move = 1.0000000 1.6910232e-05
  Iterations, force evaluations = 195 390

MPI task timing breakdown:
Section |  min time  |  avg time  |  max time  |%varavg| %total
---------------------------------------------------------------
Pair    | 0.58965    | 1.6368     | 2.1315     |  34.6 | 72.04
Neigh   | 0          | 0          | 0          |   0.0 |  0.00
Comm    | 0.034161   | 0.37133    | 1.1133     |  50.7 | 16.34
Output  | 0          | 0          | 0          |   0.0 |  0.00
Modify  | 2.2755e-05 | 0.0032342  | 0.0069122  |   2.7 |  0.14
Other   |            | 0.2608     |            |       | 11.48

Nlocal:        2776.45 ave        3960 max           0 min
Histogram: 8 4 4 0 4 12 8 2 28 34
Nghost:        3879.05 ave        5424 max         232 min
Histogram: 8 0 8 0 16 0 8 8 16 40
Neighs:        79213.4 ave      115434 max           0 min
Histogram: 8 4 4 0 10 6 8 8 24 32

Total # of neighbors = 8238192
Ave neighs/atom = 28.530436
Neighbor list builds = 0
Dangerous builds = 0
The dot product: -5.34269245958572e-09
Setting atom values ...
  1 settings made for x
  1 settings made for y
  1 settings made for z
Setting up cg style minimization ...
  Unit style    : metal
  Current step  : 3823
Per MPI rank memory allocation (min/avg/max) = 5.441 | 5.816 | 6.074 Mbytes
Step PotEng KinEng TotEng v_fx v_fy v_fz 
    3823   -1152449.3            0   -1152449.3 -0.0057967196 0.0032467769 -0.011463209 
    3994   -1152449.3            0   -1152449.3 4.4330042e-05 1.8477215e-05 5.3433259e-05 
Loop time of 1.99486 on 104 procs for 171 steps with 288751 atoms

99.9% CPU use with 104 MPI tasks x 1 OpenMP threads

Minimization stats:
  Stopping criterion = energy tolerance
  Energy initial, next-to-last, final = 
      -1152449.3287039  -1152449.32955016  -1152449.32955016
  Force two-norm initial, final = 0.12185813 0.00019676515
  Force max component initial, final = 0.044038864 5.3433259e-05
  Final line search alpha, max atom move = 1.0000000 5.3433259e-05
  Iterations, force evaluations = 171 342

MPI task timing breakdown:
Section |  min time  |  avg time  |  max time  |%varavg| %total
---------------------------------------------------------------
Pair    | 0.51684    | 1.4432     | 1.8816     |  32.5 | 72.35
Neigh   | 0          | 0          | 0          |   0.0 |  0.00
Comm    | 0.030314   | 0.3259     | 0.97239    |  47.5 | 16.34
Output  | 0          | 0          | 0          |   0.0 |  0.00
Modify  | 1.9968e-05 | 0.0028309  | 0.0060452  |   2.5 |  0.14
Other   |            | 0.2229     |            |       | 11.17

Nlocal:        2776.45 ave        3960 max           0 min
Histogram: 8 4 4 0 4 12 8 2 28 34
Nghost:        3879.03 ave        5424 max         232 min
Histogram: 8 0 8 0 16 0 8 8 16 40
Neighs:        79213.4 ave      115434 max           0 min
Histogram: 8 4 4 0 10 6 8 8 24 32

Total # of neighbors = 8238190
Ave neighs/atom = 28.530429
Neighbor list builds = 0
Dangerous builds = 0
The dot product: -1.5084332718652e-08
Setting atom values ...
  1 settings made for x
  1 settings made for y
  1 settings made for z
Setting up cg style minimization ...
  Unit style    : metal
  Current step  : 3994
Per MPI rank memory allocation (min/avg/max) = 5.441 | 5.816 | 6.074 Mbytes
Step PotEng KinEng TotEng v_fx v_fy v_fz 
    3994   -1152449.3            0   -1152449.3 -0.005699242 0.0017289049 -0.010127791 
    4000   -1152449.3            0   -1152449.3 0.00024940487 0.00012263911 0.00028616998 
    4176   -1152449.3            0   -1152449.3 1.7218406e-06 4.9537142e-06 -1.276722e-06 
Loop time of 2.15066 on 104 procs for 182 steps with 288751 atoms

99.9% CPU use with 104 MPI tasks x 1 OpenMP threads

Minimization stats:
  Stopping criterion = energy tolerance
  Energy initial, next-to-last, final = 
      -1152449.3201878  -1152449.32103766  -1152449.32103766
  Force two-norm initial, final = 0.12211416 0.00011522281
  Force max component initial, final = 0.043901002 7.7840271e-06
  Final line search alpha, max atom move = 1.0000000 7.7840271e-06
  Iterations, force evaluations = 182 364

MPI task timing breakdown:
Section |  min time  |  avg time  |  max time  |%varavg| %total
---------------------------------------------------------------
Pair    | 0.55094    | 1.5286     | 1.9953     |  33.4 | 71.07
Neigh   | 0          | 0          | 0          |   0.0 |  0.00
Comm    | 0.03126    | 0.35064    | 1.0412     |  48.5 | 16.30
Output  | 0.0001721  | 0.00017739 | 0.00024124 |   0.0 |  0.01
Modify  | 2.1481e-05 | 0.0030242  | 0.0064566  |   2.6 |  0.14
Other   |            | 0.2683     |            |       | 12.47

Nlocal:        2776.45 ave        3960 max           0 min
Histogram: 8 4 4 0 4 12 8 2 28 34
Nghost:        3879.01 ave        5424 max         232 min
Histogram: 8 0 8 0 16 0 8 8 16 40
Neighs:        79213.3 ave      115434 max           0 min
Histogram: 8 4 4 0 10 6 8 8 24 32

Total # of neighbors = 8238188
Ave neighs/atom = 28.530422
Neighbor list builds = 0
Dangerous builds = 0
The dot product: 3.21490141834288e-10
Setting atom values ...
  1 settings made for x
  1 settings made for y
  1 settings made for z
Setting up cg style minimization ...
  Unit style    : metal
  Current step  : 4176
Per MPI rank memory allocation (min/avg/max) = 5.441 | 5.816 | 6.074 Mbytes
Step PotEng KinEng TotEng v_fx v_fy v_fz 
    4176   -1152449.3            0   -1152449.3 -0.0059384333 -8.9337182e-05 -0.0090664088 
    4356   -1152449.3            0   -1152449.3 -6.1369398e-06 2.1606049e-07 -9.6139628e-06 
Loop time of 2.10926 on 104 procs for 180 steps with 288751 atoms

99.9% CPU use with 104 MPI tasks x 1 OpenMP threads

Minimization stats:
  Stopping criterion = energy tolerance
  Energy initial, next-to-last, final = 
     -1152449.31021454  -1152449.31107114  -1152449.31107114
  Force two-norm initial, final = 0.12266117 0.00012532066
  Force max component initial, final = 0.043698717 9.8119006e-06
  Final line search alpha, max atom move = 1.0000000 9.8119006e-06
  Iterations, force evaluations = 180 360

MPI task timing breakdown:
Section |  min time  |  avg time  |  max time  |%varavg| %total
---------------------------------------------------------------
Pair    | 0.54613    | 1.5245     | 1.9902     |  33.3 | 72.27
Neigh   | 0          | 0          | 0          |   0.0 |  0.00
Comm    | 0.03126    | 0.3448     | 1.0408     |  49.0 | 16.35
Output  | 0          | 0          | 0          |   0.0 |  0.00
Modify  | 2.092e-05  | 0.0029739  | 0.0063204  |   2.6 |  0.14
Other   |            | 0.237      |            |       | 11.24

Nlocal:        2776.45 ave        3960 max           0 min
Histogram: 8 4 4 0 4 12 8 2 28 34
Nghost:        3879.01 ave        5424 max         232 min
Histogram: 8 0 8 0 16 0 8 8 16 40
Neighs:        79213.4 ave      115439 max           0 min
Histogram: 8 4 4 0 10 6 8 8 24 32

Total # of neighbors = 8238189
Ave neighs/atom = 28.530426
Neighbor list builds = 0
Dangerous builds = 0
The dot product: 3.18397560893603e-09
Setting atom values ...
  1 settings made for x
  1 settings made for y
  1 settings made for z
Setting up cg style minimization ...
  Unit style    : metal
  Current step  : 4356
Per MPI rank memory allocation (min/avg/max) = 5.441 | 5.816 | 6.074 Mbytes
Step PotEng KinEng TotEng v_fx v_fy v_fz 
    4356   -1152449.3            0   -1152449.3 -0.0064634039 -0.0020992834 -0.0082924189 
    4546   -1152449.3            0   -1152449.3 -4.5126963e-06 -2.242687e-05 1.0836582e-05 
Loop time of 2.23062 on 104 procs for 190 steps with 288751 atoms

99.9% CPU use with 104 MPI tasks x 1 OpenMP threads

Minimization stats:
  Stopping criterion = energy tolerance
  Energy initial, next-to-last, final = 
     -1152449.29875554  -1152449.29961847  -1152449.29961847
  Force two-norm initial, final = 0.12332798 9.7213534e-05
  Force max component initial, final = 0.043516758 2.2426870e-05
  Final line search alpha, max atom move = 1.0000000 2.2426870e-05
  Iterations, force evaluations = 190 380

MPI task timing breakdown:
Section |  min time  |  avg time  |  max time  |%varavg| %total
---------------------------------------------------------------
Pair    | 0.57493    | 1.5957     | 2.0853     |  34.2 | 71.54
Neigh   | 0          | 0          | 0          |   0.0 |  0.00
Comm    | 0.032279   | 0.36476    | 1.0793     |  49.4 | 16.35
Output  | 0          | 0          | 0          |   0.0 |  0.00
Modify  | 2.2521e-05 | 0.0031525  | 0.0067145  |   2.6 |  0.14
Other   |            | 0.267      |            |       | 11.97

Nlocal:        2776.45 ave        3960 max           0 min
Histogram: 8 4 4 0 4 12 8 2 28 34
Nghost:        3879.11 ave        5424 max         232 min
Histogram: 8 0 8 0 16 0 8 8 16 40
Neighs:        79213.4 ave      115439 max           0 min
Histogram: 8 4 4 0 10 6 8 8 24 32

Total # of neighbors = 8238189
Ave neighs/atom = 28.530426
Neighbor list builds = 0
Dangerous builds = 0
The dot product: 3.14593881153465e-09
Setting atom values ...
  1 settings made for x
  1 settings made for y
  1 settings made for z
Setting up cg style minimization ...
  Unit style    : metal
  Current step  : 4546
Per MPI rank memory allocation (min/avg/max) = 5.441 | 5.816 | 6.074 Mbytes
Step PotEng KinEng TotEng v_fx v_fy v_fz 
    4546   -1152449.3            0   -1152449.3 -0.0073901935 -0.0042465225 -0.0080334853 
    4733   -1152449.3            0   -1152449.3 -1.2426432e-07 7.6413547e-06 -6.252245e-06 
Loop time of 2.20996 on 104 procs for 187 steps with 288751 atoms

99.9% CPU use with 104 MPI tasks x 1 OpenMP threads

Minimization stats:
  Stopping criterion = energy tolerance
  Energy initial, next-to-last, final = 
     -1152449.28579026  -1152449.28665552  -1152449.28665552
  Force two-norm initial, final = 0.12398785 9.7760715e-05
  Force max component initial, final = 0.043344776 7.6413547e-06
  Final line search alpha, max atom move = 1.0000000 7.6413547e-06
  Iterations, force evaluations = 187 374

MPI task timing breakdown:
Section |  min time  |  avg time  |  max time  |%varavg| %total
---------------------------------------------------------------
Pair    | 0.56829    | 1.5786     | 2.0646     |  33.8 | 71.43
Neigh   | 0          | 0          | 0          |   0.0 |  0.00
Comm    | 0.03436    | 0.35956    | 1.0864     |  49.4 | 16.27
Output  | 0          | 0          | 0          |   0.0 |  0.00
Modify  | 2.1901e-05 | 0.0031014  | 0.0065858  |   2.6 |  0.14
Other   |            | 0.2687     |            |       | 12.16

Nlocal:        2776.45 ave        3960 max           0 min
Histogram: 8 4 4 0 4 12 8 2 28 34
Nghost:        3879.12 ave        5424 max         232 min
Histogram: 8 0 8 0 16 0 8 8 16 40
Neighs:        79213.3 ave      115439 max           0 min
Histogram: 8 4 4 0 10 6 8 8 24 32

Total # of neighbors = 8238187
Ave neighs/atom = 28.530419
Neighbor list builds = 0
Dangerous builds = 0
The dot product: -7.82975478402332e-10
Setting atom values ...
  1 settings made for x
  1 settings made for y
  1 settings made for z
Setting up cg style minimization ...
  Unit style    : metal
  Current step  : 4733
Per MPI rank memory allocation (min/avg/max) = 5.441 | 5.816 | 6.074 Mbytes
Step PotEng KinEng TotEng v_fx v_fy v_fz 
    4733   -1152449.3            0   -1152449.3 -0.0088556419 -0.0063082911 -0.0086862972 
    4907   -1152449.3            0   -1152449.3 -1.6675341e-05 -1.712631e-05 -1.2196537e-05 
Loop time of 2.0468 on 104 procs for 174 steps with 288751 atoms

99.9% CPU use with 104 MPI tasks x 1 OpenMP threads

Minimization stats:
  Stopping criterion = energy tolerance
  Energy initial, next-to-last, final = 
     -1152449.27131508  -1152449.27217567  -1152449.27217567
  Force two-norm initial, final = 0.12455229 0.00016572916
  Force max component initial, final = 0.043136852 1.9124372e-05
  Final line search alpha, max atom move = 1.0000000 1.9124372e-05
  Iterations, force evaluations = 174 348

MPI task timing breakdown:
Section |  min time  |  avg time  |  max time  |%varavg| %total
---------------------------------------------------------------
Pair    | 0.52717    | 1.4677     | 1.9164     |  32.8 | 71.71
Neigh   | 0          | 0          | 0          |   0.0 |  0.00
Comm    | 0.031838   | 0.3352     | 0.99749    |  47.6 | 16.38
Output  | 0          | 0          | 0          |   0.0 |  0.00
Modify  | 2.0365e-05 | 0.0028854  | 0.0061795  |   2.5 |  0.14
Other   |            | 0.241      |            |       | 11.77

Nlocal:        2776.45 ave        3960 max           0 min
Histogram: 8 4 4 0 4 12 8 2 28 34
Nghost:        3879.11 ave        5424 max         232 min
Histogram: 8 0 8 0 16 0 8 8 16 40
Neighs:        79213.3 ave      115443 max           0 min
Histogram: 8 4 4 0 10 6 8 8 24 32

Total # of neighbors = 8238186
Ave neighs/atom = 28.530415
Neighbor list builds = 0
Dangerous builds = 0
The dot product: 2.1936715378207e-08
Setting atom values ...
  1 settings made for x
  1 settings made for y
  1 settings made for z
Setting up cg style minimization ...
  Unit style    : metal
  Current step  : 4907
Per MPI rank memory allocation (min/avg/max) = 5.441 | 5.816 | 6.074 Mbytes
Step PotEng KinEng TotEng v_fx v_fy v_fz 
    4907   -1152449.3            0   -1152449.3  -0.01103727 -0.0081607005 -0.010637755 
    5000   -1152449.3            0   -1152449.3 5.0161757e-05 4.5354765e-05 4.179675e-05 
    5096   -1152449.3            0   -1152449.3 1.9391866e-05 5.628824e-06 2.5590025e-05 
Loop time of 2.21089 on 104 procs for 189 steps with 288751 atoms

99.9% CPU use with 104 MPI tasks x 1 OpenMP threads

Minimization stats:
  Stopping criterion = energy tolerance
  Energy initial, next-to-last, final = 
     -1152449.25535513  -1152449.25620296  -1152449.25620296
  Force two-norm initial, final = 0.12512555 0.00010074503
  Force max component initial, final = 0.04419997 2.5590025e-05
  Final line search alpha, max atom move = 1.0000000 2.5590025e-05
  Iterations, force evaluations = 189 378

MPI task timing breakdown:
Section |  min time  |  avg time  |  max time  |%varavg| %total
---------------------------------------------------------------
Pair    | 0.57214    | 1.5966     | 2.0764     |  34.2 | 72.22
Neigh   | 0          | 0          | 0          |   0.0 |  0.00
Comm    | 0.035319   | 0.36239    | 1.0795     |  49.9 | 16.39
Output  | 0.00017783 | 0.00018638 | 0.00031485 |   0.0 |  0.01
Modify  | 2.2073e-05 | 0.0031252  | 0.0066796  |   2.6 |  0.14
Other   |            | 0.2485     |            |       | 11.24

Nlocal:        2776.45 ave        3960 max           0 min
Histogram: 8 4 4 0 4 12 8 2 28 34
Nghost:        3879.11 ave        5424 max         232 min
Histogram: 8 0 8 0 16 0 8 8 16 40
Neighs:        79213.3 ave      115442 max           0 min
Histogram: 8 4 4 0 10 6 8 8 24 32

Total # of neighbors = 8238187
Ave neighs/atom = 28.530419
Neighbor list builds = 0
Dangerous builds = 0
The dot product: -3.75799895516213e-08
Setting atom values ...
  1 settings made for x
  1 settings made for y
  1 settings made for z
Setting up cg style minimization ...
  Unit style    : metal
  Current step  : 5096
Per MPI rank memory allocation (min/avg/max) = 5.441 | 5.816 | 6.074 Mbytes
Step PotEng KinEng TotEng v_fx v_fy v_fz 
    5096   -1152449.2            0   -1152449.2 -0.014259147 -0.0096210251 -0.014564023 
    5284   -1152449.2            0   -1152449.2 -8.1186173e-06 -2.2141961e-06 -1.0878269e-05 
Loop time of 2.18285 on 104 procs for 188 steps with 288751 atoms

99.9% CPU use with 104 MPI tasks x 1 OpenMP threads

Minimization stats:
  Stopping criterion = energy tolerance
  Energy initial, next-to-last, final = 
     -1152449.23799279  -1152449.23882889  -1152449.23882889
  Force two-norm initial, final = 0.12631762 8.9293864e-05
  Force max component initial, final = 0.047461776 1.4640080e-05
  Final line search alpha, max atom move = 1.0000000 1.4640080e-05
  Iterations, force evaluations = 188 376

MPI task timing breakdown:
Section |  min time  |  avg time  |  max time  |%varavg| %total
---------------------------------------------------------------
Pair    | 0.56815    | 1.5805     | 2.0572     |  34.0 | 72.40
Neigh   | 0          | 0          | 0          |   0.0 |  0.00
Comm    | 0.033112   | 0.35766    | 1.0767     |  50.1 | 16.38
Output  | 0          | 0          | 0          |   0.0 |  0.00
Modify  | 2.2043e-05 | 0.0031164  | 0.0067211  |   2.6 |  0.14
Other   |            | 0.2416     |            |       | 11.07

Nlocal:        2776.45 ave        3960 max           0 min
Histogram: 8 4 4 0 4 12 8 2 28 34
Nghost:        3879.12 ave        5424 max         232 min
Histogram: 8 0 8 0 16 0 8 8 16 40
Neighs:        79213.3 ave      115442 max           0 min
Histogram: 8 4 4 0 10 6 8 8 24 32

Total # of neighbors = 8238185
Ave neighs/atom = 28.530412
Neighbor list builds = 0
Dangerous builds = 0
The dot product: 2.86280846127367e-08
Setting atom values ...
  1 settings made for x
  1 settings made for y
  1 settings made for z
Setting up cg style minimization ...
  Unit style    : metal
  Current step  : 5284
Per MPI rank memory allocation (min/avg/max) = 5.441 | 5.816 | 6.074 Mbytes
Step PotEng KinEng TotEng v_fx v_fy v_fz 
    5284   -1152449.2            0   -1152449.2 -0.019328118 -0.010407073 -0.022036674 
    5557   -1152449.3            0   -1152449.3 -1.3785953e-05 2.2593464e-07 -2.1794717e-05 
Loop time of 3.18544 on 104 procs for 273 steps with 288751 atoms

99.9% CPU use with 104 MPI tasks x 1 OpenMP threads

Minimization stats:
  Stopping criterion = energy tolerance
  Energy initial, next-to-last, final = 
     -1152449.21945572  -1152449.25004324  -1152449.25004324
  Force two-norm initial, final = 0.13032517 7.4704861e-05
  Force max component initial, final = 0.050703076 2.1794717e-05
  Final line search alpha, max atom move = 1.0000000 2.1794717e-05
  Iterations, force evaluations = 273 544

MPI task timing breakdown:
Section |  min time  |  avg time  |  max time  |%varavg| %total
---------------------------------------------------------------
Pair    | 0.83052    | 2.2988     | 2.9854     |  40.8 | 72.17
Neigh   | 2.0451e-05 | 0.0058778  | 0.0085691  |   3.2 |  0.18
Comm    | 0.051335   | 0.5203     | 1.5547     |  59.6 | 16.33
Output  | 0          | 0          | 0          |   0.0 |  0.00
Modify  | 3.1661e-05 | 0.0044939  | 0.0096058  |   3.2 |  0.14
Other   |            | 0.356      |            |       | 11.17

Nlocal:        2776.45 ave        3960 max           0 min
Histogram: 8 4 4 0 4 12 8 2 28 34
Nghost:        3879.11 ave        5424 max         232 min
Histogram: 8 0 8 0 16 0 8 8 16 40
Neighs:        79213.1 ave      115442 max           0 min
Histogram: 8 4 4 0 10 6 8 8 24 32

Total # of neighbors = 8238166
Ave neighs/atom = 28.530346
Neighbor list builds = 2
Dangerous builds = 0
The dot product: 2.08535302936068e-06
Setting atom values ...
  1 settings made for x
  1 settings made for y
  1 settings made for z
Setting up cg style minimization ...
  Unit style    : metal
  Current step  : 5557
Per MPI rank memory allocation (min/avg/max) = 5.441 | 5.816 | 6.074 Mbytes
Step PotEng KinEng TotEng v_fx v_fy v_fz 
    5557   -1152449.2            0   -1152449.2 -0.027996226 -0.033891006 -0.023841749 
    5771   -1152449.2            0   -1152449.2 2.6961082e-05 -2.7436435e-06 6.1469719e-05 
Loop time of 2.47865 on 104 procs for 214 steps with 288751 atoms

99.9% CPU use with 104 MPI tasks x 1 OpenMP threads

Minimization stats:
  Stopping criterion = energy tolerance
  Energy initial, next-to-last, final = 
     -1152449.24563966  -1152449.24930777  -1152449.24930777
  Force two-norm initial, final = 0.15068071 0.00018772011
  Force max component initial, final = 0.055788518 6.1469719e-05
  Final line search alpha, max atom move = 1.0000000 6.1469719e-05
  Iterations, force evaluations = 214 428

MPI task timing breakdown:
Section |  min time  |  avg time  |  max time  |%varavg| %total
---------------------------------------------------------------
Pair    | 0.64894    | 1.7931     | 2.3344     |  36.1 | 72.34
Neigh   | 0          | 0          | 0          |   0.0 |  0.00
Comm    | 0.03738    | 0.40615    | 1.219      |  53.0 | 16.39
Output  | 0          | 0          | 0          |   0.0 |  0.00
Modify  | 2.7133e-05 | 0.003544   | 0.0076039  |   2.8 |  0.14
Other   |            | 0.2758     |            |       | 11.13

Nlocal:        2776.45 ave        3960 max           0 min
Histogram: 8 4 4 0 4 12 8 2 28 34
Nghost:        3879.01 ave        5424 max         232 min
Histogram: 8 0 8 0 16 0 8 8 16 40
Neighs:        79213.3 ave      115434 max           0 min
Histogram: 8 4 4 0 10 6 8 8 24 32

Total # of neighbors = 8238183
Ave neighs/atom = 28.530405
Neighbor list builds = 0
Dangerous builds = 0
The dot product: -2.07470718005247e-06
Setting atom values ...
  1 settings made for x
  1 settings made for y
  1 settings made for z
Setting up cg style minimization ...
  Unit style    : metal
  Current step  : 5771
Per MPI rank memory allocation (min/avg/max) = 5.441 | 5.816 | 6.074 Mbytes
Step PotEng KinEng TotEng v_fx v_fy v_fz 
    5771   -1152449.3            0   -1152449.3 -0.014953957 -0.038235925 0.0010826307 
    5905   -1152449.3            0   -1152449.3 1.7015223e-05 1.8483167e-05 2.3985412e-05 
Loop time of 1.57591 on 104 procs for 134 steps with 288751 atoms

99.9% CPU use with 104 MPI tasks x 1 OpenMP threads

Minimization stats:
  Stopping criterion = energy tolerance
  Energy initial, next-to-last, final = 
     -1152449.25028465  -1152449.25219073  -1152449.25219073
  Force two-norm initial, final = 0.15359203 0.00026265313
  Force max component initial, final = 0.055083931 5.4645074e-05
  Final line search alpha, max atom move = 1.0000000 5.4645074e-05
  Iterations, force evaluations = 134 268

MPI task timing breakdown:
Section |  min time  |  avg time  |  max time  |%varavg| %total
---------------------------------------------------------------
Pair    | 0.40713    | 1.1345     | 1.4808     |  28.8 | 71.99
Neigh   | 0          | 0          | 0          |   0.0 |  0.00
Comm    | 0.026035   | 0.25675    | 0.77195    |  42.3 | 16.29
Output  | 0          | 0          | 0          |   0.0 |  0.00
Modify  | 1.5985e-05 | 0.0022174  | 0.004705   |   2.2 |  0.14
Other   |            | 0.1824     |            |       | 11.58

Nlocal:        2776.45 ave        3961 max           0 min
Histogram: 8 4 4 0 6 10 8 2 28 34
Nghost:        3879.09 ave        5424 max         232 min
Histogram: 8 0 8 0 16 0 8 8 16 40
Neighs:        79213.3 ave      115455 max           0 min
Histogram: 8 4 4 0 10 6 8 8 24 32

Total # of neighbors = 8238186
Ave neighs/atom = 28.530415
Neighbor list builds = 0
Dangerous builds = 0
The dot product: -3.7902802769391e-07
Setting atom values ...
  1 settings made for x
  1 settings made for y
  1 settings made for z
Setting up cg style minimization ...
  Unit style    : metal
  Current step  : 5905
Per MPI rank memory allocation (min/avg/max) = 5.441 | 5.816 | 6.074 Mbytes
Step PotEng KinEng TotEng v_fx v_fy v_fz 
    5905   -1152449.3            0   -1152449.3   -0.0142666  -0.04933354  0.012775287 
    6000   -1152449.3            0   -1152449.3 -1.7986667e-06 4.3979063e-06 -9.1329922e-06 
    6042   -1152449.3            0   -1152449.3 -1.6792158e-06 1.159841e-08 -4.3836404e-06 
Loop time of 1.59597 on 104 procs for 137 steps with 288751 atoms

99.9% CPU use with 104 MPI tasks x 1 OpenMP threads

Minimization stats:
  Stopping criterion = energy tolerance
  Energy initial, next-to-last, final = 
     -1152449.25427258  -1152449.25547267  -1152449.25547267
  Force two-norm initial, final = 0.1522482 2.4168446e-05
  Force max component initial, final = 0.05545327 4.3836404e-06
  Final line search alpha, max atom move = 1.0000000 4.3836404e-06
  Iterations, force evaluations = 137 274

MPI task timing breakdown:
Section |  min time  |  avg time  |  max time  |%varavg| %total
---------------------------------------------------------------
Pair    | 0.41574    | 1.1507     | 1.5038     |  28.9 | 72.10
Neigh   | 0          | 0          | 0          |   0.0 |  0.00
Comm    | 0.023221   | 0.26067    | 0.7823     |  42.4 | 16.33
Output  | 0.00024128 | 0.00025006 | 0.00038893 |   0.0 |  0.02
Modify  | 1.6444e-05 | 0.0022717  | 0.0048557  |   2.2 |  0.14
Other   |            | 0.1821     |            |       | 11.41

Nlocal:        2776.45 ave        3961 max           0 min
Histogram: 8 4 4 0 6 10 8 2 28 34
Nghost:        3879.09 ave        5424 max         232 min
Histogram: 8 0 8 0 16 0 8 8 16 40
Neighs:        79213.3 ave      115455 max           0 min
Histogram: 8 4 4 0 10 6 8 8 24 32

Total # of neighbors = 8238182
Ave neighs/atom = 28.530402
Neighbor list builds = 0
Dangerous builds = 0
The dot product: 1.63971384171827e-08
Setting atom values ...
  1 settings made for x
  1 settings made for y
  1 settings made for z
Setting up cg style minimization ...
  Unit style    : metal
  Current step  : 6042
Per MPI rank memory allocation (min/avg/max) = 5.441 | 5.816 | 6.074 Mbytes
Step PotEng KinEng TotEng v_fx v_fy v_fz 
    6042   -1152449.3            0   -1152449.3 -0.013638813 -0.057469414  0.020576513 
    6351   -1152449.3            0   -1152449.3 -5.5893586e-07 3.3317222e-07 -1.8064673e-06 
Loop time of 3.62841 on 104 procs for 309 steps with 288751 atoms

99.9% CPU use with 104 MPI tasks x 1 OpenMP threads

Minimization stats:
  Stopping criterion = energy tolerance
  Energy initial, next-to-last, final = 
     -1152449.25693267  -1152449.29756032  -1152449.29756032
  Force two-norm initial, final = 0.1574819 8.4548951e-06
  Force max component initial, final = 0.057469414 1.8064673e-06
  Final line search alpha, max atom move = 1.0000000 1.8064673e-06
  Iterations, force evaluations = 309 617

MPI task timing breakdown:
Section |  min time  |  avg time  |  max time  |%varavg| %total
---------------------------------------------------------------
Pair    | 0.93632    | 2.6084     | 3.4074     |  43.5 | 71.89
Neigh   | 1.019e-05  | 0.0029405  | 0.0043073  |   2.2 |  0.08
Comm    | 0.054089   | 0.59183    | 1.7694     |  63.8 | 16.31
Output  | 0          | 0          | 0          |   0.0 |  0.00
Modify  | 3.565e-05  | 0.005097   | 0.010818   |   3.4 |  0.14
Other   |            | 0.4201     |            |       | 11.58

Nlocal:        2776.45 ave        3961 max           0 min
Histogram: 8 4 4 0 6 10 8 2 28 34
Nghost:        3879.09 ave        5424 max         232 min
Histogram: 8 0 8 0 16 0 8 8 16 40
Neighs:        79213.4 ave      115455 max           0 min
Histogram: 8 4 4 0 10 6 8 8 24 32

Total # of neighbors = 8238197
Ave neighs/atom = 28.530454
Neighbor list builds = 1
Dangerous builds = 0
The dot product: 3.8115947507431e-08
Setting atom values ...
  1 settings made for x
  1 settings made for y
  1 settings made for z
Setting up cg style minimization ...
  Unit style    : metal
  Current step  : 6351
Per MPI rank memory allocation (min/avg/max) = 5.441 | 5.816 | 6.074 Mbytes
Step PotEng KinEng TotEng v_fx v_fy v_fz 
    6351   -1152449.3            0   -1152449.3  0.028773533  0.058990627  0.058770499 
    6565   -1152449.3            0   -1152449.3 6.1503967e-06 -3.8062642e-06 2.186212e-05 
Loop time of 2.49684 on 104 procs for 214 steps with 288751 atoms

99.9% CPU use with 104 MPI tasks x 1 OpenMP threads

Minimization stats:
  Stopping criterion = energy tolerance
  Energy initial, next-to-last, final = 
     -1152449.30887565  -1152449.31115743  -1152449.31115743
  Force two-norm initial, final = 0.16258893 7.7185046e-05
  Force max component initial, final = 0.058990627 2.3453910e-05
  Final line search alpha, max atom move = 1.0000000 2.3453910e-05
  Iterations, force evaluations = 214 428

MPI task timing breakdown:
Section |  min time  |  avg time  |  max time  |%varavg| %total
---------------------------------------------------------------
Pair    | 0.64718    | 1.801      | 2.3375     |  36.2 | 72.13
Neigh   | 0          | 0          | 0          |   0.0 |  0.00
Comm    | 0.037475   | 0.40964    | 1.227      |  53.1 | 16.41
Output  | 0          | 0          | 0          |   0.0 |  0.00
Modify  | 2.4919e-05 | 0.0035425  | 0.0076034  |   2.8 |  0.14
Other   |            | 0.2827     |            |       | 11.32

Nlocal:        2776.45 ave        3959 max           0 min
Histogram: 8 4 4 0 4 12 8 6 24 34
Nghost:        3879.07 ave        5426 max         232 min
Histogram: 8 0 8 0 16 0 8 8 16 40
Neighs:        79213.4 ave      115390 max           0 min
Histogram: 8 4 4 0 10 6 8 8 24 32

Total # of neighbors = 8238197
Ave neighs/atom = 28.530454
Neighbor list builds = 0
Dangerous builds = 0
The dot product: 9.41858246859909e-08
Setting atom values ...
  1 settings made for x
  1 settings made for y
  1 settings made for z
Setting up cg style minimization ...
  Unit style    : metal
  Current step  : 6565
Per MPI rank memory allocation (min/avg/max) = 5.441 | 5.816 | 6.074 Mbytes
Step PotEng KinEng TotEng v_fx v_fy v_fz 
    6565   -1152449.3            0   -1152449.3 -0.0060476223 -0.071122708  0.027070815 
    6800   -1152449.3            0   -1152449.3 -9.4062106e-07 2.1421991e-06 -4.2853357e-06 
Loop time of 2.75851 on 104 procs for 235 steps with 288751 atoms

99.9% CPU use with 104 MPI tasks x 1 OpenMP threads

Minimization stats:
  Stopping criterion = energy tolerance
  Energy initial, next-to-last, final = 
     -1152449.32050394  -1152449.32174833  -1152449.32174833
  Force two-norm initial, final = 0.16163229 1.7108038e-05
  Force max component initial, final = 0.071122708 4.2853357e-06
  Final line search alpha, max atom move = 1.0000000 4.2853357e-06
  Iterations, force evaluations = 235 470

MPI task timing breakdown:
Section |  min time  |  avg time  |  max time  |%varavg| %total
---------------------------------------------------------------
Pair    | 0.71151    | 1.9849     | 2.5798     |  37.8 | 71.96
Neigh   | 0          | 0          | 0          |   0.0 |  0.00
Comm    | 0.045967   | 0.45101    | 1.3621     |  55.3 | 16.35
Output  | 0          | 0          | 0          |   0.0 |  0.00
Modify  | 2.7187e-05 | 0.0038886  | 0.0082666  |   2.9 |  0.14
Other   |            | 0.3187     |            |       | 11.55

Nlocal:        2776.45 ave        3960 max           0 min
Histogram: 8 4 4 0 4 12 8 4 26 34
Nghost:        3879.01 ave        5428 max         232 min
Histogram: 8 0 8 0 16 0 8 8 16 40
Neighs:        79213.4 ave      115422 max           0 min
Histogram: 8 4 4 0 10 6 8 8 24 32

Total # of neighbors = 8238195
Ave neighs/atom = 28.530447
Neighbor list builds = 0
Dangerous builds = 0
The dot product: -1.81384517964144e-08
Setting atom values ...
  1 settings made for x
  1 settings made for y
  1 settings made for z
Setting up cg style minimization ...
  Unit style    : metal
  Current step  : 6800
Per MPI rank memory allocation (min/avg/max) = 5.441 | 5.816 | 6.074 Mbytes
Step PotEng KinEng TotEng v_fx v_fy v_fz 
    6800   -1152449.3            0   -1152449.3 -0.00050616391 -0.053803992  0.031373802 
    6988   -1152449.3            0   -1152449.3 3.4649384e-06 1.1212372e-05 3.8135968e-06 
Loop time of 2.18448 on 104 procs for 188 steps with 288751 atoms

99.9% CPU use with 104 MPI tasks x 1 OpenMP threads

Minimization stats:
  Stopping criterion = energy tolerance
  Energy initial, next-to-last, final = 
     -1152449.32952499  -1152449.33070922  -1152449.33070922
  Force two-norm initial, final = 0.15650684 8.5299758e-05
  Force max component initial, final = 0.054020932 1.1960890e-05
  Final line search alpha, max atom move = 1.0000000 1.1960890e-05
  Iterations, force evaluations = 188 376

MPI task timing breakdown:
Section |  min time  |  avg time  |  max time  |%varavg| %total
---------------------------------------------------------------
Pair    | 0.56863    | 1.5805     | 2.0546     |  34.0 | 72.35
Neigh   | 0          | 0          | 0          |   0.0 |  0.00
Comm    | 0.034252   | 0.35834    | 1.075      |  50.0 | 16.40
Output  | 0          | 0          | 0          |   0.0 |  0.00
Modify  | 2.2059e-05 | 0.0031179  | 0.0067198  |   2.6 |  0.14
Other   |            | 0.2426     |            |       | 11.10

Nlocal:        2776.45 ave        3961 max           0 min
Histogram: 8 4 4 0 6 10 8 4 26 34
Nghost:        3879.07 ave        5429 max         232 min
Histogram: 8 0 8 0 16 0 8 8 16 40
Neighs:        79213.4 ave      115445 max           0 min
Histogram: 8 4 4 0 10 6 8 8 24 32

Total # of neighbors = 8238197
Ave neighs/atom = 28.530454
Neighbor list builds = 0
Dangerous builds = 0
The dot product: -2.26115726846208e-08
Setting atom values ...
  1 settings made for x
  1 settings made for y
  1 settings made for z
Setting up cg style minimization ...
  Unit style    : metal
  Current step  : 6988
Per MPI rank memory allocation (min/avg/max) = 5.441 | 5.816 | 6.074 Mbytes
Step PotEng KinEng TotEng v_fx v_fy v_fz 
    6988   -1152449.3            0   -1152449.3 -0.0012616392 -0.058231881  0.030913043 
    7000   -1152449.3            0   -1152449.3 0.0005764327 0.00046175246 0.0014877655 
    7180   -1152449.3            0   -1152449.3 2.758874e-06 6.0309136e-06 4.838984e-06 
Loop time of 2.2609 on 104 procs for 192 steps with 288751 atoms

99.9% CPU use with 104 MPI tasks x 1 OpenMP threads

Minimization stats:
  Stopping criterion = energy tolerance
  Energy initial, next-to-last, final = 
     -1152449.33685248  -1152449.33806864  -1152449.33806864
  Force two-norm initial, final = 0.15887074 8.0877598e-05
  Force max component initial, final = 0.058231881 1.0566774e-05
  Final line search alpha, max atom move = 1.0000000 1.0566774e-05
  Iterations, force evaluations = 192 384

MPI task timing breakdown:
Section |  min time  |  avg time  |  max time  |%varavg| %total
---------------------------------------------------------------
Pair    | 0.58084    | 1.626      | 2.1073     |  34.5 | 71.92
Neigh   | 0          | 0          | 0          |   0.0 |  0.00
Comm    | 0.035351   | 0.36992    | 1.0957     |  50.0 | 16.36
Output  | 0.00014644 | 0.00015417 | 0.0002237  |   0.0 |  0.01
Modify  | 2.2469e-05 | 0.0031737  | 0.0067794  |   2.6 |  0.14
Other   |            | 0.2617     |            |       | 11.57

Nlocal:        2776.45 ave        3961 max           0 min
Histogram: 8 4 4 0 6 10 8 4 26 34
Nghost:        3879.07 ave        5429 max         232 min
Histogram: 8 0 8 0 16 0 8 8 16 40
Neighs:        79213.4 ave      115445 max           0 min
Histogram: 8 4 4 0 10 6 8 8 24 32

Total # of neighbors = 8238197
Ave neighs/atom = 28.530454
Neighbor list builds = 0
Dangerous builds = 0
The dot product: -1.2265563266748e-08
Setting atom values ...
  1 settings made for x
  1 settings made for y
  1 settings made for z
Setting up cg style minimization ...
  Unit style    : metal
  Current step  : 7180
Per MPI rank memory allocation (min/avg/max) = 5.441 | 5.816 | 6.074 Mbytes
Step PotEng KinEng TotEng v_fx v_fy v_fz 
    7180   -1152449.3            0   -1152449.3 -0.0012982404 -0.058781116  0.030122065 
    7360   -1152449.3            0   -1152449.3 2.3940113e-06 -2.0060421e-05 1.8899656e-05 
[...]
Histogram: 8 4 4 0 6 10 8 4 26 34
Nghost:        3879.09 ave        5424 max         232 min
Histogram: 8 0 8 0 16 0 8 8 16 40
Neighs:        79213.5 ave      115382 max           0 min
Histogram: 8 4 4 0 10 6 8 8 24 32

Total # of neighbors = 8238200
Ave neighs/atom = 28.530464
Neighbor list builds = 0
Dangerous builds = 0
The dot product: -1.46100622085354e-08
Setting atom values ...
  1 settings made for x
  1 settings made for y
  1 settings made for z
Setting up cg style minimization ...
  Unit style    : metal
  Current step  : 27047
Per MPI rank memory allocation (min/avg/max) = 5.441 | 5.816 | 6.074 Mbytes
Step PotEng KinEng TotEng v_fx v_fy v_fz 
   27047   -1152449.4            0   -1152449.4 -0.029760594 0.0082296617 -0.042296726 
   27215   -1152449.4            0   -1152449.4 -4.2843003e-05 -6.3619266e-05 -6.0997385e-05 
Loop time of 1.98697 on 104 procs for 168 steps with 288751 atoms

99.9% CPU use with 104 MPI tasks x 1 OpenMP threads

Minimization stats:
  Stopping criterion = energy tolerance
  Energy initial, next-to-last, final = 
     -1152449.43343121  -1152449.43488108  -1152449.43488108
  Force two-norm initial, final = 0.1737189 0.00026960466
  Force max component initial, final = 0.074382091 7.6657186e-05
  Final line search alpha, max atom move = 1.0000000 7.6657186e-05
  Iterations, force evaluations = 168 336

MPI task timing breakdown:
Section |  min time  |  avg time  |  max time  |%varavg| %total
---------------------------------------------------------------
Pair    | 0.50893    | 1.4177     | 1.8598     |  32.2 | 71.35
Neigh   | 0          | 0          | 0          |   0.0 |  0.00
Comm    | 0.038906   | 0.32746    | 0.97106    |  46.4 | 16.48
Output  | 0          | 0          | 0          |   0.0 |  0.00
Modify  | 1.9674e-05 | 0.0027727  | 0.0059046  |   2.5 |  0.14
Other   |            | 0.239      |            |       | 12.03

Nlocal:        2776.45 ave        3961 max           0 min
Histogram: 8 4 4 0 6 10 8 4 26 34
Nghost:        3879.09 ave        5424 max         232 min
Histogram: 8 0 8 0 16 0 8 8 16 40
Neighs:        79213.5 ave      115382 max           0 min
Histogram: 8 4 4 0 10 6 8 8 24 32

Total # of neighbors = 8238200
Ave neighs/atom = 28.530464
Neighbor list builds = 0
Dangerous builds = 0
The dot product: 3.21855784146211e-07
Setting atom values ...
  1 settings made for x
  1 settings made for y
  1 settings made for z
Setting up cg style minimization ...
  Unit style    : metal
  Current step  : 27215
Per MPI rank memory allocation (min/avg/max) = 5.441 | 5.816 | 6.074 Mbytes
Step PotEng KinEng TotEng v_fx v_fy v_fz 
   27215   -1152449.4            0   -1152449.4 -0.028471405  0.011933177 -0.040555028 
   27391   -1152449.4            0   -1152449.4 -1.0462788e-06 8.8828385e-06 -1.4733898e-06 
Loop time of 2.04879 on 104 procs for 176 steps with 288751 atoms

99.9% CPU use with 104 MPI tasks x 1 OpenMP threads

Minimization stats:
  Stopping criterion = energy tolerance
  Energy initial, next-to-last, final = 
     -1152449.42793935  -1152449.42934149  -1152449.42934149
  Force two-norm initial, final = 0.171041 0.00018077429
  Force max component initial, final = 0.073589805 1.7960162e-05
  Final line search alpha, max atom move = 1.0000000 1.7960162e-05
  Iterations, force evaluations = 176 352

MPI task timing breakdown:
Section |  min time  |  avg time  |  max time  |%varavg| %total
---------------------------------------------------------------
Pair    | 0.53219    | 1.4778     | 1.9259     |  32.8 | 72.13
Neigh   | 0          | 0          | 0          |   0.0 |  0.00
Comm    | 0.036418   | 0.33487    | 0.99979    |  48.3 | 16.34
Output  | 0          | 0          | 0          |   0.0 |  0.00
Modify  | 2.0426e-05 | 0.0029104  | 0.0061871  |   2.5 |  0.14
Other   |            | 0.2332     |            |       | 11.38

Nlocal:        2776.45 ave        3960 max           0 min
Histogram: 8 4 4 0 4 12 8 4 26 34
Nghost:        3879.12 ave        5425 max         232 min
Histogram: 8 0 8 0 16 0 8 8 16 40
Neighs:        79213.5 ave      115353 max           0 min
Histogram: 8 4 4 0 10 6 8 8 24 32

Total # of neighbors = 8238205
Ave neighs/atom = 28.530481
Neighbor list builds = 0
Dangerous builds = 0
The dot product: 7.96414183477046e-10
Setting atom values ...
  1 settings made for x
  1 settings made for y
  1 settings made for z
Setting up cg style minimization ...
  Unit style    : metal
  Current step  : 27391
Per MPI rank memory allocation (min/avg/max) = 5.441 | 5.816 | 6.074 Mbytes
Step PotEng KinEng TotEng v_fx v_fy v_fz 
   27391   -1152449.4            0   -1152449.4 -0.026846033  0.016684593  -0.03831395 
   27584   -1152449.4            0   -1152449.4 8.9380479e-06 2.6545864e-05 1.2831628e-05 
Loop time of 2.2747 on 104 procs for 193 steps with 288751 atoms

99.9% CPU use with 104 MPI tasks x 1 OpenMP threads

Minimization stats:
  Stopping criterion = energy tolerance
  Energy initial, next-to-last, final = 
     -1152449.42084596  -1152449.42219376  -1152449.42219376
  Force two-norm initial, final = 0.16832487 0.00010822867
  Force max component initial, final = 0.072772996 2.6545864e-05
  Final line search alpha, max atom move = 1.0000000 2.6545864e-05
  Iterations, force evaluations = 193 386

MPI task timing breakdown:
Section |  min time  |  avg time  |  max time  |%varavg| %total
---------------------------------------------------------------
Pair    | 0.58376    | 1.6272     | 2.134      |  34.6 | 71.53
Neigh   | 0          | 0          | 0          |   0.0 |  0.00
Comm    | 0.035907   | 0.37573    | 1.1089     |  49.7 | 16.52
Output  | 0          | 0          | 0          |   0.0 |  0.00
Modify  | 2.3747e-05 | 0.0031872  | 0.006814   |   2.7 |  0.14
Other   |            | 0.2686     |            |       | 11.81

Nlocal:        2776.45 ave        3960 max           0 min
Histogram: 8 4 4 0 4 12 8 4 26 34
Nghost:        3879.16 ave        5426 max         232 min
Histogram: 8 0 8 0 16 0 8 8 16 40
Neighs:        79213.5 ave      115356 max           0 min
Histogram: 8 4 4 0 10 6 8 8 24 32

Total # of neighbors = 8238206
Ave neighs/atom = 28.530485
Neighbor list builds = 0
Dangerous builds = 0
The dot product: -4.82960046040746e-08
Setting atom values ...
  1 settings made for x
  1 settings made for y
  1 settings made for z
Setting up cg style minimization ...
  Unit style    : metal
  Current step  : 27584
Per MPI rank memory allocation (min/avg/max) = 5.441 | 5.816 | 6.074 Mbytes
Step PotEng KinEng TotEng v_fx v_fy v_fz 
   27584   -1152449.4            0   -1152449.4 -0.024849827  0.022704692 -0.035525513 
   27767   -1152449.4            0   -1152449.4 4.9073174e-06 -2.7022962e-05 6.9621084e-06 
Loop time of 2.12751 on 104 procs for 183 steps with 288751 atoms

99.9% CPU use with 104 MPI tasks x 1 OpenMP threads

Minimization stats:
  Stopping criterion = energy tolerance
  Energy initial, next-to-last, final = 
     -1152449.41221915  -1152449.41351139  -1152449.41351139
  Force two-norm initial, final = 0.1659393 0.00013095017
  Force max component initial, final = 0.071933794 2.7022962e-05
  Final line search alpha, max atom move = 1.0000000 2.7022962e-05
  Iterations, force evaluations = 183 366

MPI task timing breakdown:
Section |  min time  |  avg time  |  max time  |%varavg| %total
---------------------------------------------------------------
Pair    | 0.55345    | 1.536      | 1.9997     |  33.4 | 72.20
Neigh   | 0          | 0          | 0          |   0.0 |  0.00
Comm    | 0.041802   | 0.34663    | 1.0477     |  49.3 | 16.29
Output  | 0          | 0          | 0          |   0.0 |  0.00
Modify  | 2.1614e-05 | 0.0030318  | 0.0064615  |   2.6 |  0.14
Other   |            | 0.2418     |            |       | 11.37

Nlocal:        2776.45 ave        3960 max           0 min
Histogram: 8 4 4 0 4 12 8 4 26 34
Nghost:        3879.20 ave        5426 max         232 min
Histogram: 8 0 8 0 16 0 8 8 16 40
Neighs:        79213.5 ave      115361 max           0 min
Histogram: 8 4 4 0 10 6 8 8 24 32

Total # of neighbors = 8238207
Ave neighs/atom = 28.530488
Neighbor list builds = 0
Dangerous builds = 0
The dot product: -4.54364196665968e-08
Setting atom values ...
  1 settings made for x
  1 settings made for y
  1 settings made for z
Setting up cg style minimization ...
  Unit style    : metal
  Current step  : 27767
Per MPI rank memory allocation (min/avg/max) = 5.441 | 5.816 | 6.074 Mbytes
Step PotEng KinEng TotEng v_fx v_fy v_fz 
   27767   -1152449.4            0   -1152449.4 -0.021840343  0.031752302 -0.031272796 
   27919   -1152449.4            0   -1152449.4 -2.7953488e-05 2.0593633e-06 -4.0099542e-05 
Loop time of 1.77707 on 104 procs for 152 steps with 288751 atoms

99.9% CPU use with 104 MPI tasks x 1 OpenMP threads

Minimization stats:
  Stopping criterion = energy tolerance
  Energy initial, next-to-last, final = 
     -1152449.40223524  -1152449.40349529  -1152449.40349529
  Force two-norm initial, final = 0.16485668 0.00024240161
  Force max component initial, final = 0.071612052 4.0099542e-05
  Final line search alpha, max atom move = 1.0000000 4.0099542e-05
  Iterations, force evaluations = 152 304

MPI task timing breakdown:
Section |  min time  |  avg time  |  max time  |%varavg| %total
---------------------------------------------------------------
Pair    | 0.462      | 1.2811     | 1.6745     |  30.5 | 72.09
Neigh   | 0          | 0          | 0          |   0.0 |  0.00
Comm    | 0.030015   | 0.29094    | 0.8683     |  44.9 | 16.37
Output  | 0          | 0          | 0          |   0.0 |  0.00
Modify  | 1.8003e-05 | 0.0025189  | 0.0053564  |   2.4 |  0.14
Other   |            | 0.2025     |            |       | 11.40

Nlocal:        2776.45 ave        3960 max           0 min
Histogram: 8 4 4 0 4 12 8 4 26 34
Nghost:        3879.20 ave        5426 max         232 min
Histogram: 8 0 8 0 16 0 8 8 16 40
Neighs:        79213.5 ave      115361 max           0 min
Histogram: 8 4 4 0 10 6 8 8 24 32

Total # of neighbors = 8238204
Ave neighs/atom = 28.530478
Neighbor list builds = 0
Dangerous builds = 0
The dot product: 1.1768849846462e-07
Setting atom values ...
  1 settings made for x
  1 settings made for y
  1 settings made for z
Setting up cg style minimization ...
  Unit style    : metal
  Current step  : 27919
Per MPI rank memory allocation (min/avg/max) = 5.441 | 5.816 | 6.074 Mbytes
Step PotEng KinEng TotEng v_fx v_fy v_fz 
   27919   -1152449.4            0   -1152449.4 -0.018263543   0.04282838 -0.026237944 
   27980   -1152449.4            0   -1152449.4 -1.5613136e-05 -1.6260494e-05 -2.2438276e-05 
Loop time of 0.720254 on 104 procs for 61 steps with 288751 atoms

99.9% CPU use with 104 MPI tasks x 1 OpenMP threads

Minimization stats:
  Stopping criterion = energy tolerance
  Energy initial, next-to-last, final = 
     -1152449.39132227   -1152449.3928146   -1152449.3928146
  Force two-norm initial, final = 0.167477 0.00014186353
  Force max component initial, final = 0.071392744 2.4675461e-05
  Final line search alpha, max atom move = 1.0000000 2.4675461e-05
  Iterations, force evaluations = 61 122

MPI task timing breakdown:
Section |  min time  |  avg time  |  max time  |%varavg| %total
---------------------------------------------------------------
Pair    | 0.19091    | 0.5171     | 0.67304    |  19.1 | 71.79
Neigh   | 0          | 0          | 0          |   0.0 |  0.00
Comm    | 0.014824   | 0.11726    | 0.34979    |  28.4 | 16.28
Output  | 0          | 0          | 0          |   0.0 |  0.00
Modify  | 8.1166e-06 | 0.0010154  | 0.0021577  |   1.5 |  0.14
Other   |            | 0.08488    |            |       | 11.78

Nlocal:        2776.45 ave        3960 max           0 min
Histogram: 8 4 4 0 4 12 8 4 26 34
Nghost:        3879.18 ave        5425 max         232 min
Histogram: 8 0 8 0 16 0 8 8 16 40
Neighs:        79213.5 ave      115361 max           0 min
Histogram: 8 4 4 0 10 6 8 8 24 32

Total # of neighbors = 8238204
Ave neighs/atom = 28.530478
Neighbor list builds = 0
Dangerous builds = 0
The dot product: -1.38271122521905e-07
Setting atom values ...
  1 settings made for x
  1 settings made for y
  1 settings made for z
Setting up cg style minimization ...
  Unit style    : metal
  Current step  : 27980
Per MPI rank memory allocation (min/avg/max) = 5.441 | 5.816 | 6.074 Mbytes
Step PotEng KinEng TotEng v_fx v_fy v_fz 
   27980   -1152449.4            0   -1152449.4  -0.01517602  0.053119264 -0.022123503 
   28000   -1152449.4            0   -1152449.4 -0.0002096431 -0.00036518095 -0.00029937302 
   28145   -1152449.4            0   -1152449.4 -1.6831554e-06 1.2447781e-05 -2.49094e-06 
Loop time of 1.95415 on 104 procs for 165 steps with 288751 atoms

99.9% CPU use with 104 MPI tasks x 1 OpenMP threads

Minimization stats:
  Stopping criterion = energy tolerance
  Energy initial, next-to-last, final = 
     -1152449.38080884  -1152449.38279676  -1152449.38279676
  Force two-norm initial, final = 0.17129379 0.00017683752
  Force max component initial, final = 0.070046118 2.2950718e-05
  Final line search alpha, max atom move = 1.0000000 2.2950718e-05
  Iterations, force evaluations = 165 330

MPI task timing breakdown:
Section |  min time  |  avg time  |  max time  |%varavg| %total
---------------------------------------------------------------
Pair    | 0.49813    | 1.3949     | 1.8242     |  32.1 | 71.38
Neigh   | 0          | 0          | 0          |   0.0 |  0.00
Comm    | 0.034189   | 0.3204     | 0.94308    |  45.8 | 16.40
Output  | 0.00015076 | 0.00016005 | 0.0002355  |   0.0 |  0.01
Modify  | 1.9318e-05 | 0.0027337  | 0.005845   |   2.5 |  0.14
Other   |            | 0.236      |            |       | 12.08

Nlocal:        2776.45 ave        3960 max           0 min
Histogram: 8 4 4 0 4 12 8 4 26 34
Nghost:        3879.18 ave        5425 max         232 min
Histogram: 8 0 8 0 16 0 8 8 16 40
Neighs:        79213.5 ave      115361 max           0 min
Histogram: 8 4 4 0 10 6 8 8 24 32

Total # of neighbors = 8238206
Ave neighs/atom = 28.530485
Neighbor list builds = 0
Dangerous builds = 0
The dot product: 2.15420392954221e-07
Setting atom values ...
  1 settings made for x
  1 settings made for y
  1 settings made for z
Setting up cg style minimization ...
  Unit style    : metal
  Current step  : 28145
Per MPI rank memory allocation (min/avg/max) = 5.441 | 5.816 | 6.074 Mbytes
Step PotEng KinEng TotEng v_fx v_fy v_fz 
   28145   -1152449.4            0   -1152449.4 -0.014774912  0.052445697 -0.022065802 
   28201   -1152449.4            0   -1152449.4 -3.0672818e-05 2.8301148e-06 -4.4143985e-05 
Loop time of 0.655808 on 104 procs for 56 steps with 288751 atoms

99.9% CPU use with 104 MPI tasks x 1 OpenMP threads

Minimization stats:
  Stopping criterion = energy tolerance
  Energy initial, next-to-last, final = 
     -1152449.37165324  -1152449.37328793  -1152449.37328793
  Force two-norm initial, final = 0.16719417 0.00024376915
  Force max component initial, final = 0.070084088 5.9500912e-05
  Final line search alpha, max atom move = 1.0000000 5.9500912e-05
  Iterations, force evaluations = 56 112

MPI task timing breakdown:
Section |  min time  |  avg time  |  max time  |%varavg| %total
---------------------------------------------------------------
Pair    | 0.17011    | 0.47293    | 0.61761    |  18.6 | 72.11
Neigh   | 0          | 0          | 0          |   0.0 |  0.00
Comm    | 0.0096807  | 0.10698    | 0.32164    |  27.4 | 16.31
Output  | 0          | 0          | 0          |   0.0 |  0.00
Modify  | 7.3368e-06 | 0.00093402 | 0.002001   |   0.0 |  0.14
Other   |            | 0.07497    |            |       | 11.43

Nlocal:        2776.45 ave        3960 max           0 min
Histogram: 8 4 4 0 4 12 8 4 26 34
Nghost:        3879.20 ave        5426 max         232 min
Histogram: 8 0 8 0 16 0 8 8 16 40
Neighs:        79213.5 ave      115361 max           0 min
Histogram: 8 4 4 0 10 6 8 8 24 32

Total # of neighbors = 8238205
Ave neighs/atom = 28.530481
Neighbor list builds = 0
Dangerous builds = 0
The dot product: 5.38653816428583e-08
Setting atom values ...
  1 settings made for x
  1 settings made for y
  1 settings made for z
Setting up cg style minimization ...
  Unit style    : metal
  Current step  : 28201
Per MPI rank memory allocation (min/avg/max) = 5.441 | 5.816 | 6.074 Mbytes
Step PotEng KinEng TotEng v_fx v_fy v_fz 
   28201   -1152449.4            0   -1152449.4 -0.014754961  0.049281247 -0.022334913 
   28284   -1152449.4            0   -1152449.4 1.8858207e-05 4.0294114e-06 2.7028914e-05 
Loop time of 0.977293 on 104 procs for 83 steps with 288751 atoms

99.9% CPU use with 104 MPI tasks x 1 OpenMP threads

Minimization stats:
  Stopping criterion = energy tolerance
  Energy initial, next-to-last, final = 
     -1152449.36223108  -1152449.36366947  -1152449.36366947
  Force two-norm initial, final = 0.16290017 0.00016458422
  Force max component initial, final = 0.069807135 3.0065690e-05
  Final line search alpha, max atom move = 1.0000000 3.0065690e-05
  Iterations, force evaluations = 83 166

MPI task timing breakdown:
Section |  min time  |  avg time  |  max time  |%varavg| %total
---------------------------------------------------------------
Pair    | 0.2527     | 0.7017     | 0.91978    |  22.7 | 71.80
Neigh   | 0          | 0          | 0          |   0.0 |  0.00
Comm    | 0.019503   | 0.16044    | 0.48209    |  32.9 | 16.42
Output  | 0          | 0          | 0          |   0.0 |  0.00
Modify  | 1.0097e-05 | 0.0013801  | 0.0029449  |   1.8 |  0.14
Other   |            | 0.1138     |            |       | 11.64

Nlocal:        2776.45 ave        3960 max           0 min
Histogram: 8 4 4 0 4 12 8 4 26 34
Nghost:        3879.20 ave        5426 max         232 min
Histogram: 8 0 8 0 16 0 8 8 16 40
Neighs:        79213.5 ave      115361 max           0 min
Histogram: 8 4 4 0 10 6 8 8 24 32

Total # of neighbors = 8238206
Ave neighs/atom = 28.530485
Neighbor list builds = 0
Dangerous builds = 0
The dot product: 1.15584882276801e-08
Setting atom values ...
  1 settings made for x
  1 settings made for y
  1 settings made for z
Setting up cg style minimization ...
  Unit style    : metal
  Current step  : 28284
Per MPI rank memory allocation (min/avg/max) = 5.441 | 5.816 | 6.074 Mbytes
Step PotEng KinEng TotEng v_fx v_fy v_fz 
   28284   -1152449.4            0   -1152449.4 -0.014155639  0.048073641 -0.021702003 
   28409   -1152449.4            0   -1152449.4 1.2110468e-05 -1.1830155e-05 1.7753471e-05 
Loop time of 1.48956 on 104 procs for 125 steps with 288751 atoms

99.9% CPU use with 104 MPI tasks x 1 OpenMP threads

Minimization stats:
  Stopping criterion = energy tolerance
  Energy initial, next-to-last, final = 
     -1152449.35227831  -1152449.35365304  -1152449.35365304
  Force two-norm initial, final = 0.16002252 0.00018719388
  Force max component initial, final = 0.069180249 2.1014755e-05
  Final line search alpha, max atom move = 1.0000000 2.1014755e-05
  Iterations, force evaluations = 125 250

MPI task timing breakdown:
Section |  min time  |  avg time  |  max time  |%varavg| %total
---------------------------------------------------------------
Pair    | 0.38445    | 1.0533     | 1.3757     |  27.6 | 70.71
Neigh   | 0          | 0          | 0          |   0.0 |  0.00
Comm    | 0.023353   | 0.24089    | 0.71036    |  40.4 | 16.17
Output  | 0          | 0          | 0          |   0.0 |  0.00
Modify  | 1.4512e-05 | 0.0020682  | 0.0044142  |   2.1 |  0.14
Other   |            | 0.1933     |            |       | 12.98

Nlocal:        2776.45 ave        3960 max           0 min
Histogram: 8 4 4 0 4 12 8 4 26 34
Nghost:        3879.20 ave        5426 max         232 min
Histogram: 8 0 8 0 16 0 8 8 16 40
Neighs:        79213.5 ave      115361 max           0 min
Histogram: 8 4 4 0 10 6 8 8 24 32

Total # of neighbors = 8238203
Ave neighs/atom = 28.530474
Neighbor list builds = 0
Dangerous builds = 0
The dot product: -1.09329220689158e-07
