LAMMPS (29 Oct 2020)
OMP_NUM_THREADS environment is not set. Defaulting to 1 thread. (../comm.cpp:94)
  using 1 OpenMP thread(s) per MPI task
OMP_NUM_THREADS environment is not set. Defaulting to 1 thread. (../comm.cpp:94)
  using 1 OpenMP thread(s) per MPI task
Reading data file ...
  orthogonal box = (-122.39241 -121.13707 -37.090501) to (122.39241 121.13707 37.090501)
  13 by 4 by 2 MPI processor grid
  reading atoms ...
  288751 atoms
  read_data CPU = 0.462 seconds
199981 atoms in group inner
88770 atoms in group outer
1 atoms in group carbon
Neighbor list info ...
  update every 1 steps, delay 0 steps, check yes
  max neighbors/atom: 2000, page size: 100000
  master list distance cutoff = 5.6
  ghost atom cutoff = 5.6
  binsize = 2.8, bins = 88 87 27
  1 neighbor lists, perpetual/occasional/extra = 1 0 0
  (1) pair eam/alloy, perpetual
      attributes: half, newton on
      pair build: half/bin/atomonly/newton
      stencil: half/bin/3d/newton
      bin: standard
Setting up cg style minimization ...
  Unit style    : metal
  Current step  : 0
Per MPI rank memory allocation (min/avg/max) = 5.441 | 5.816 | 6.074 Mbytes
Step v_fx v_fy v_fz PotEng KinEng TotEng 
       0    0.3224723  -0.48422844  -0.49269377   -1152447.8            0   -1152447.8 
     193 -2.3925691e-06 3.9311719e-07 -3.972997e-06   -1152449.5            0   -1152449.5 
Loop time of 2.26521 on 104 procs for 193 steps with 288751 atoms

99.8% CPU use with 104 MPI tasks x 1 OpenMP threads

Minimization stats:
  Stopping criterion = energy tolerance
  Energy initial, next-to-last, final = 
     -1152447.84698339  -1152449.45035286  -1152449.45035286
  Force two-norm initial, final = 9.7882989 2.1424051e-05
  Force max component initial, final = 5.2457620 3.9729970e-06
  Final line search alpha, max atom move = 1.0000000 3.9729970e-06
  Iterations, force evaluations = 193 385

MPI task timing breakdown:
Section |  min time  |  avg time  |  max time  |%varavg| %total
---------------------------------------------------------------
Pair    | 0.60329    | 1.6232     | 2.101      |  33.7 | 71.66
Neigh   | 2.1454e-05 | 0.0058375  | 0.0086494  |   3.2 |  0.26
Comm    | 0.038205   | 0.36844    | 1.1049     |  50.5 | 16.27
Output  | 0          | 0          | 0          |   0.0 |  0.00
Modify  | 2.1767e-05 | 0.0020739  | 0.0053622  |   2.8 |  0.09
Other   |            | 0.2656     |            |       | 11.73

Nlocal:        2776.45 ave        3961 max           0 min
Histogram: 8 4 4 0 6 10 8 2 28 34
Nghost:        3879.01 ave        5424 max         232 min
Histogram: 8 0 8 0 16 0 8 8 16 40
Neighs:        79213.7 ave      115455 max           0 min
Histogram: 8 4 4 0 10 6 8 8 24 32

Total # of neighbors = 8238222
Ave neighs/atom = 28.530540
Neighbor list builds = 2
Dangerous builds = 0
Setting atom values ...
  1 settings made for x
  1 settings made for y
  1 settings made for z
Setting up cg style minimization ...
  Unit style    : metal
  Current step  : 193
Per MPI rank memory allocation (min/avg/max) = 5.441 | 5.816 | 6.074 Mbytes
Step PotEng KinEng TotEng v_fx v_fy v_fz 
     193   -1152449.4            0   -1152449.4 0.00026199637 -0.0097109883 -0.008719589 
     390   -1152449.5            0   -1152449.5 -3.7636247e-06 9.1201785e-07 6.7028562e-06 
Loop time of 2.31819 on 104 procs for 197 steps with 288751 atoms

99.9% CPU use with 104 MPI tasks x 1 OpenMP threads

Minimization stats:
  Stopping criterion = energy tolerance
  Energy initial, next-to-last, final = 
     -1152449.44959012   -1152449.4500825   -1152449.4500825
  Force two-norm initial, final = 0.10181415 5.3463250e-05
  Force max component initial, final = 0.051609384 6.7028562e-06
  Final line search alpha, max atom move = 1.0000000 6.7028562e-06
  Iterations, force evaluations = 197 394

MPI task timing breakdown:
Section |  min time  |  avg time  |  max time  |%varavg| %total
---------------------------------------------------------------
Pair    | 0.60696    | 1.6676     | 2.184      |  34.6 | 71.93
Neigh   | 0          | 0          | 0          |   0.0 |  0.00
Comm    | 0.036484   | 0.38242    | 1.1512     |  51.0 | 16.50
Output  | 0          | 0          | 0          |   0.0 |  0.00
Modify  | 2.4693e-05 | 0.003254   | 0.0069269  |   2.7 |  0.14
Other   |            | 0.265      |            |       | 11.43

Nlocal:        2776.45 ave        3961 max           0 min
Histogram: 8 4 4 0 6 10 8 2 28 34
Nghost:        3879.01 ave        5424 max         232 min
Histogram: 8 0 8 0 16 0 8 8 16 40
Neighs:        79213.4 ave      115455 max           0 min
Histogram: 8 4 4 0 10 6 8 8 24 32

Total # of neighbors = 8238197
Ave neighs/atom = 28.530454
Neighbor list builds = 0
Dangerous builds = 0
Setting atom values ...
  1 settings made for x
  1 settings made for y
  1 settings made for z
Setting up cg style minimization ...
  Unit style    : metal
  Current step  : 390
Per MPI rank memory allocation (min/avg/max) = 5.441 | 5.816 | 6.074 Mbytes
Step PotEng KinEng TotEng v_fx v_fy v_fz 
     390   -1152449.4            0   -1152449.4 -0.0004652936 -0.020421824 -0.018574173 
     581   -1152449.4            0   -1152449.4 -1.7469265e-05 2.1700912e-06 3.3909636e-05 
Loop time of 2.25336 on 104 procs for 191 steps with 288751 atoms

99.9% CPU use with 104 MPI tasks x 1 OpenMP threads

Minimization stats:
  Stopping criterion = energy tolerance
  Energy initial, next-to-last, final = 
     -1152449.44665075  -1152449.44825724  -1152449.44825724
  Force two-norm initial, final = 0.18518802 0.0001092619
  Force max component initial, final = 0.093940431 3.3909636e-05
  Final line search alpha, max atom move = 1.0000000 3.3909636e-05
  Iterations, force evaluations = 191 382

MPI task timing breakdown:
Section |  min time  |  avg time  |  max time  |%varavg| %total
---------------------------------------------------------------
Pair    | 0.58847    | 1.6077     | 2.0876     |  34.0 | 71.35
Neigh   | 0          | 0          | 0          |   0.0 |  0.00
Comm    | 0.035816   | 0.36395    | 1.1072     |  50.6 | 16.15
Output  | 0          | 0          | 0          |   0.0 |  0.00
Modify  | 2.5233e-05 | 0.0031491  | 0.006743   |   2.7 |  0.14
Other   |            | 0.2785     |            |       | 12.36

Nlocal:        2776.45 ave        3961 max           0 min
Histogram: 8 4 4 0 6 10 8 2 28 34
Nghost:        3879.01 ave        5424 max         232 min
Histogram: 8 0 8 0 16 0 8 8 16 40
Neighs:        79213.4 ave      115455 max           0 min
Histogram: 8 4 4 0 10 6 8 8 24 32

Total # of neighbors = 8238198
Ave neighs/atom = 28.530457
Neighbor list builds = 0
Dangerous builds = 0
The dot product: -7.13165737748705e-08
Setting atom values ...
  1 settings made for x
  1 settings made for y
  1 settings made for z
Setting up cg style minimization ...
  Unit style    : metal
  Current step  : 581
Per MPI rank memory allocation (min/avg/max) = 5.441 | 5.816 | 6.074 Mbytes
Step PotEng KinEng TotEng v_fx v_fy v_fz 
     581   -1152449.4            0   -1152449.4 -0.0022135323 -0.026620743 -0.024926032 
     748   -1152449.4            0   -1152449.4 -1.7241051e-05 -1.5983933e-06 3.5220687e-05 
Loop time of 1.92951 on 104 procs for 167 steps with 288751 atoms

99.9% CPU use with 104 MPI tasks x 1 OpenMP threads

Minimization stats:
  Stopping criterion = energy tolerance
  Energy initial, next-to-last, final = 
     -1152449.44328021  -1152449.44489397  -1152449.44489397
  Force two-norm initial, final = 0.1866714 0.00020940963
  Force max component initial, final = 0.092456679 5.0229823e-05
  Final line search alpha, max atom move = 1.0000000 5.0229823e-05
  Iterations, force evaluations = 167 334

MPI task timing breakdown:
Section |  min time  |  avg time  |  max time  |%varavg| %total
---------------------------------------------------------------
Pair    | 0.50949    | 1.4087     | 1.8302     |  31.9 | 73.01
Neigh   | 0          | 0          | 0          |   0.0 |  0.00
Comm    | 0.028933   | 0.31275    | 0.95411    |  48.2 | 16.21
Output  | 0          | 0          | 0          |   0.0 |  0.00
Modify  | 1.9803e-05 | 0.0027611  | 0.0059453  |   2.5 |  0.14
Other   |            | 0.2053     |            |       | 10.64

Nlocal:        2776.45 ave        3961 max           0 min
Histogram: 8 4 4 0 6 10 8 2 28 34
Nghost:        3879.01 ave        5424 max         232 min
Histogram: 8 0 8 0 16 0 8 8 16 40
Neighs:        79213.4 ave      115455 max           0 min
Histogram: 8 4 4 0 10 6 8 8 24 32

Total # of neighbors = 8238196
Ave neighs/atom = 28.530450
Neighbor list builds = 0
Dangerous builds = 0
The dot product: -1.22639180854476e-07
Setting atom values ...
  1 settings made for x
  1 settings made for y
  1 settings made for z
Setting up cg style minimization ...
  Unit style    : metal
  Current step  : 748
Per MPI rank memory allocation (min/avg/max) = 5.441 | 5.816 | 6.074 Mbytes
Step PotEng KinEng TotEng v_fx v_fy v_fz 
     748   -1152449.4            0   -1152449.4 -0.006839112  -0.03159437 -0.026941882 
     901   -1152449.4            0   -1152449.4 -1.1808848e-05 -3.756135e-06 2.5489637e-05 
Loop time of 1.77105 on 104 procs for 153 steps with 288751 atoms

99.9% CPU use with 104 MPI tasks x 1 OpenMP threads

Minimization stats:
  Stopping criterion = energy tolerance
  Energy initial, next-to-last, final = 
     -1152449.43858141   -1152449.4402043   -1152449.4402043
  Force two-norm initial, final = 0.18713052 0.00011709422
  Force max component initial, final = 0.089007405 2.5489637e-05
  Final line search alpha, max atom move = 1.0000000 2.5489637e-05
  Iterations, force evaluations = 153 306

MPI task timing breakdown:
Section |  min time  |  avg time  |  max time  |%varavg| %total
---------------------------------------------------------------
Pair    | 0.4689     | 1.2839     | 1.6663     |  30.4 | 72.49
Neigh   | 0          | 0          | 0          |   0.0 |  0.00
Comm    | 0.028191   | 0.28841    | 0.87596    |  45.5 | 16.28
Output  | 0          | 0          | 0          |   0.0 |  0.00
Modify  | 1.8451e-05 | 0.0025236  | 0.0054253  |   2.4 |  0.14
Other   |            | 0.1962     |            |       | 11.08

Nlocal:        2776.45 ave        3961 max           0 min
Histogram: 8 4 4 0 6 10 8 2 28 34
Nghost:        3879.01 ave        5429 max         232 min
Histogram: 8 0 8 0 16 0 8 8 16 40
Neighs:        79213.4 ave      115455 max           0 min
Histogram: 8 4 4 0 10 6 8 8 24 32

Total # of neighbors = 8238195
Ave neighs/atom = 28.530447
Neighbor list builds = 0
Dangerous builds = 0
The dot product: -9.47363628411449e-08
Setting atom values ...
  1 settings made for x
  1 settings made for y
  1 settings made for z
Setting up cg style minimization ...
  Unit style    : metal
  Current step  : 901
Per MPI rank memory allocation (min/avg/max) = 5.441 | 5.816 | 6.074 Mbytes
Step PotEng KinEng TotEng v_fx v_fy v_fz 
     901   -1152449.4            0   -1152449.4 -0.011218638 -0.032431961 -0.023844701 
    1000   -1152449.4            0   -1152449.4 -2.9767289e-05 -4.6547604e-06 8.5757133e-05 
    1092   -1152449.4            0   -1152449.4 -3.5806228e-06 -5.5996294e-07 1.0315382e-05 
Loop time of 2.21966 on 104 procs for 191 steps with 288751 atoms

99.9% CPU use with 104 MPI tasks x 1 OpenMP threads

Minimization stats:
  Stopping criterion = energy tolerance
  Energy initial, next-to-last, final = 
     -1152449.43257805  -1152449.43417968  -1152449.43417968
  Force two-norm initial, final = 0.18574286 4.4643829e-05
  Force max component initial, final = 0.084961162 1.0315382e-05
  Final line search alpha, max atom move = 1.0000000 1.0315382e-05
  Iterations, force evaluations = 191 382

MPI task timing breakdown:
Section |  min time  |  avg time  |  max time  |%varavg| %total
---------------------------------------------------------------
Pair    | 0.58361    | 1.6114     | 2.0963     |  34.1 | 72.60
Neigh   | 0          | 0          | 0          |   0.0 |  0.00
Comm    | 0.03312    | 0.35967    | 1.0952     |  50.8 | 16.20
Output  | 9.9555e-05 | 0.00010836 | 0.00022651 |   0.0 |  0.00
Modify  | 2.5679e-05 | 0.0031477  | 0.0067266  |   2.7 |  0.14
Other   |            | 0.2453     |            |       | 11.05

Nlocal:        2776.45 ave        3961 max           0 min
Histogram: 8 4 4 0 6 10 8 2 28 34
Nghost:        3879.01 ave        5429 max         232 min
Histogram: 8 0 8 0 16 0 8 8 16 40
Neighs:        79213.4 ave      115455 max           0 min
Histogram: 8 4 4 0 10 6 8 8 24 32

Total # of neighbors = 8238197
Ave neighs/atom = 28.530454
Neighbor list builds = 0
Dangerous builds = 0
The dot product: -3.58439826206881e-08
Setting atom values ...
  1 settings made for x
  1 settings made for y
  1 settings made for z
Setting up cg style minimization ...
  Unit style    : metal
  Current step  : 1092
Per MPI rank memory allocation (min/avg/max) = 5.441 | 5.816 | 6.074 Mbytes
Step PotEng KinEng TotEng v_fx v_fy v_fz 
    1092   -1152449.4            0   -1152449.4 -0.013764128 -0.030703039 -0.018498104 
    1202   -1152449.4            0   -1152449.4 6.3369746e-06 -4.3914658e-06 -3.3596642e-05 
Loop time of 1.26506 on 104 procs for 110 steps with 288751 atoms

99.9% CPU use with 104 MPI tasks x 1 OpenMP threads

Minimization stats:
  Stopping criterion = energy tolerance
  Energy initial, next-to-last, final = 
     -1152449.42520599  -1152449.42677463  -1152449.42677463
  Force two-norm initial, final = 0.1836839 0.00020100091
  Force max component initial, final = 0.081504217 3.3596642e-05
  Final line search alpha, max atom move = 1.0000000 3.3596642e-05
  Iterations, force evaluations = 110 220

MPI task timing breakdown:
Section |  min time  |  avg time  |  max time  |%varavg| %total
---------------------------------------------------------------
Pair    | 0.33729    | 0.9229     | 1.1992     |  25.8 | 72.95
Neigh   | 0          | 0          | 0          |   0.0 |  0.00
Comm    | 0.01889    | 0.20434    | 0.62819    |  39.0 | 16.15
Output  | 0          | 0          | 0          |   0.0 |  0.00
Modify  | 1.3792e-05 | 0.0018154  | 0.0038991  |   2.0 |  0.14
Other   |            | 0.136      |            |       | 10.75

Nlocal:        2776.45 ave        3961 max           0 min
Histogram: 8 4 4 0 6 10 8 2 28 34
Nghost:        3879.01 ave        5429 max         232 min
Histogram: 8 0 8 0 16 0 8 8 16 40
Neighs:        79213.4 ave      115455 max           0 min
Histogram: 8 4 4 0 10 6 8 8 24 32

Total # of neighbors = 8238198
Ave neighs/atom = 28.530457
Neighbor list builds = 0
Dangerous builds = 0
The dot product: 1.04295880133734e-07
Setting atom values ...
  1 settings made for x
  1 settings made for y
  1 settings made for z
Setting up cg style minimization ...
  Unit style    : metal
  Current step  : 1202
Per MPI rank memory allocation (min/avg/max) = 5.441 | 5.816 | 6.074 Mbytes
Step PotEng KinEng TotEng v_fx v_fy v_fz 
    1202   -1152449.4            0   -1152449.4  -0.01444267 -0.027675597 -0.012957502 
    1364   -1152449.4            0   -1152449.4 2.6402443e-06 1.388608e-06 -7.4060885e-06 
Loop time of 1.87722 on 104 procs for 162 steps with 288751 atoms

99.9% CPU use with 104 MPI tasks x 1 OpenMP threads

Minimization stats:
  Stopping criterion = energy tolerance
  Energy initial, next-to-last, final = 
      -1152449.4164133  -1152449.41795076  -1152449.41795076
  Force two-norm initial, final = 0.18160179 4.1044578e-05
  Force max component initial, final = 0.079090722 7.8136747e-06
  Final line search alpha, max atom move = 1.0000000 7.8136747e-06
  Iterations, force evaluations = 162 324

MPI task timing breakdown:
Section |  min time  |  avg time  |  max time  |%varavg| %total
---------------------------------------------------------------
Pair    | 0.49394    | 1.3629     | 1.7745     |  31.3 | 72.60
Neigh   | 0          | 0          | 0          |   0.0 |  0.00
Comm    | 0.027267   | 0.30413    | 0.93176    |  47.2 | 16.20
Output  | 0          | 0          | 0          |   0.0 |  0.00
Modify  | 1.9578e-05 | 0.0026786  | 0.0057484  |   2.4 |  0.14
Other   |            | 0.2075     |            |       | 11.05

Nlocal:        2776.45 ave        3961 max           0 min
Histogram: 8 4 4 0 6 10 8 2 28 34
Nghost:        3879.01 ave        5429 max         232 min
Histogram: 8 0 8 0 16 0 8 8 16 40
Neighs:        79213.5 ave      115455 max           0 min
Histogram: 8 4 4 0 10 6 8 8 24 32

Total # of neighbors = 8238199
Ave neighs/atom = 28.530461
Neighbor list builds = 0
Dangerous builds = 0
The dot product: 1.23599393433417e-08
Setting atom values ...
  1 settings made for x
  1 settings made for y
  1 settings made for z
Setting up cg style minimization ...
  Unit style    : metal
  Current step  : 1364
Per MPI rank memory allocation (min/avg/max) = 5.441 | 5.816 | 6.074 Mbytes
Step PotEng KinEng TotEng v_fx v_fy v_fz 
    1364   -1152449.4            0   -1152449.4 -0.013519919  -0.02360435 -0.0078075606 
    1503   -1152449.4            0   -1152449.4 -1.587798e-06 -1.6842966e-06 2.2738183e-06 
Loop time of 1.60689 on 104 procs for 139 steps with 288751 atoms

99.9% CPU use with 104 MPI tasks x 1 OpenMP threads

Minimization stats:
  Stopping criterion = energy tolerance
  Energy initial, next-to-last, final = 
     -1152449.40616684  -1152449.40768651  -1152449.40768651
  Force two-norm initial, final = 0.17971635 8.5547212e-05
  Force max component initial, final = 0.077792526 1.8542917e-05
  Final line search alpha, max atom move = 1.0000000 1.8542917e-05
  Iterations, force evaluations = 139 278

MPI task timing breakdown:
Section |  min time  |  avg time  |  max time  |%varavg| %total
---------------------------------------------------------------
Pair    | 0.42765    | 1.1675     | 1.5149     |  29.0 | 72.66
Neigh   | 0          | 0          | 0          |   0.0 |  0.00
Comm    | 0.024154   | 0.26152    | 0.79568    |  43.3 | 16.27
Output  | 0          | 0          | 0          |   0.0 |  0.00
Modify  | 1.7189e-05 | 0.0022945  | 0.0049299  |   2.3 |  0.14
Other   |            | 0.1756     |            |       | 10.93

Nlocal:        2776.45 ave        3961 max           0 min
Histogram: 8 4 4 0 6 10 8 2 28 34
Nghost:        3879.01 ave        5429 max         232 min
Histogram: 8 0 8 0 16 0 8 8 16 40
Neighs:        79213.5 ave      115455 max           0 min
Histogram: 8 4 4 0 10 6 8 8 24 32

Total # of neighbors = 8238202
Ave neighs/atom = 28.530471
Neighbor list builds = 0
Dangerous builds = 0
The dot product: -2.53487482458838e-09
Setting atom values ...
  1 settings made for x
  1 settings made for y
  1 settings made for z
Setting up cg style minimization ...
  Unit style    : metal
  Current step  : 1503
Per MPI rank memory allocation (min/avg/max) = 5.441 | 5.816 | 6.074 Mbytes
Step PotEng KinEng TotEng v_fx v_fy v_fz 
    1503   -1152449.4            0   -1152449.4 -0.010680796 -0.017581083 -0.0030604558 
    1615   -1152449.4            0   -1152449.4 2.2236362e-05 7.384109e-06 -8.242133e-05 
Loop time of 1.30438 on 104 procs for 112 steps with 288751 atoms

99.9% CPU use with 104 MPI tasks x 1 OpenMP threads

Minimization stats:
  Stopping criterion = energy tolerance
  Energy initial, next-to-last, final = 
     -1152449.39446685  -1152449.39599768  -1152449.39599768
  Force two-norm initial, final = 0.17803245 0.00024602453
  Force max component initial, final = 0.077633064 8.2421330e-05
  Final line search alpha, max atom move = 1.0000000 8.2421330e-05
  Iterations, force evaluations = 112 224

MPI task timing breakdown:
Section |  min time  |  avg time  |  max time  |%varavg| %total
---------------------------------------------------------------
Pair    | 0.34505    | 0.94793    | 1.2325     |  26.0 | 72.67
Neigh   | 0          | 0          | 0          |   0.0 |  0.00
Comm    | 0.019451   | 0.21066    | 0.64005    |  39.5 | 16.15
Output  | 0          | 0          | 0          |   0.0 |  0.00
Modify  | 1.3934e-05 | 0.0018564  | 0.0039566  |   2.0 |  0.14
Other   |            | 0.1439     |            |       | 11.03

Nlocal:        2776.45 ave        3961 max           0 min
Histogram: 8 4 4 0 6 10 8 2 28 34
Nghost:        3879.01 ave        5429 max         232 min
Histogram: 8 0 8 0 16 0 8 8 16 40
Neighs:        79213.5 ave      115455 max           0 min
Histogram: 8 4 4 0 10 6 8 8 24 32

Total # of neighbors = 8238203
Ave neighs/atom = 28.530474
Neighbor list builds = 0
Dangerous builds = 0
The dot product: 2.06437767656244e-08
Setting atom values ...
  1 settings made for x
  1 settings made for y
  1 settings made for z
Setting up cg style minimization ...
  Unit style    : metal
  Current step  : 1615
Per MPI rank memory allocation (min/avg/max) = 5.441 | 5.816 | 6.074 Mbytes
Step PotEng KinEng TotEng v_fx v_fy v_fz 
    1615   -1152449.4            0   -1152449.4 -0.0061046094 -0.0091369592 0.0018993632 
    1756   -1152449.4            0   -1152449.4 -1.0288711e-05 -6.4317145e-06 2.9581095e-05 
Loop time of 1.62726 on 104 procs for 141 steps with 288751 atoms

99.9% CPU use with 104 MPI tasks x 1 OpenMP threads

Minimization stats:
  Stopping criterion = energy tolerance
  Energy initial, next-to-last, final = 
     -1152449.38136118  -1152449.38295727  -1152449.38295727
  Force two-norm initial, final = 0.17687655 0.0002014735
  Force max component initial, final = 0.078911889 3.2595492e-05
  Final line search alpha, max atom move = 1.0000000 3.2595492e-05
  Iterations, force evaluations = 141 282

MPI task timing breakdown:
Section |  min time  |  avg time  |  max time  |%varavg| %total
---------------------------------------------------------------
Pair    | 0.43378    | 1.1879     | 1.5413     |  29.3 | 73.00
Neigh   | 0          | 0          | 0          |   0.0 |  0.00
Comm    | 0.024517   | 0.26545    | 0.80984    |  44.1 | 16.31
Output  | 0          | 0          | 0          |   0.0 |  0.00
Modify  | 1.7212e-05 | 0.0023211  | 0.0049587  |   2.3 |  0.14
Other   |            | 0.1716     |            |       | 10.54

Nlocal:        2776.45 ave        3960 max           0 min
Histogram: 8 4 4 0 4 12 8 3 27 34
Nghost:        3878.97 ave        5429 max         232 min
Histogram: 8 0 8 0 16 0 8 8 16 40
Neighs:        79213.5 ave      115412 max           0 min
Histogram: 8 4 4 0 10 6 8 8 24 32

Total # of neighbors = 8238203
Ave neighs/atom = 28.530474
Neighbor list builds = 0
Dangerous builds = 0
The dot product: 8.24665335367767e-09
Setting atom values ...
  1 settings made for x
  1 settings made for y
  1 settings made for z
Setting up cg style minimization ...
  Unit style    : metal
  Current step  : 1756
Per MPI rank memory allocation (min/avg/max) = 5.441 | 5.816 | 6.074 Mbytes
Step PotEng KinEng TotEng v_fx v_fy v_fz 
    1756   -1152449.4            0   -1152449.4 -0.00032224992 0.0030448361 0.0094058665 
    1932   -1152449.4            0   -1152449.4 1.0048899e-05 7.8595525e-06 -2.4544776e-05 
Loop time of 2.07888 on 104 procs for 176 steps with 288751 atoms

99.9% CPU use with 104 MPI tasks x 1 OpenMP threads

Minimization stats:
  Stopping criterion = energy tolerance
  Energy initial, next-to-last, final = 
     -1152449.36697886  -1152449.36886038  -1152449.36886038
  Force two-norm initial, final = 0.17680103 0.00018408702
  Force max component initial, final = 0.081796882 2.8365746e-05
  Final line search alpha, max atom move = 1.0000000 2.8365746e-05
  Iterations, force evaluations = 176 352

MPI task timing breakdown:
Section |  min time  |  avg time  |  max time  |%varavg| %total
---------------------------------------------------------------
Pair    | 0.54021    | 1.4853     | 1.9462     |  32.7 | 71.45
Neigh   | 0          | 0          | 0          |   0.0 |  0.00
Comm    | 0.029906   | 0.34396    | 1.0297     |  47.6 | 16.55
Output  | 0          | 0          | 0          |   0.0 |  0.00
Modify  | 2.3778e-05 | 0.0029009  | 0.0061968  |   2.5 |  0.14
Other   |            | 0.2467     |            |       | 11.87

Nlocal:        2776.45 ave        3959 max           0 min
Histogram: 8 4 4 0 4 12 8 3 27 34
Nghost:        3878.99 ave        5429 max         232 min
Histogram: 8 0 8 0 16 0 8 8 16 40
Neighs:        79213.5 ave      115383 max           0 min
Histogram: 8 4 4 0 10 6 8 8 24 32

Total # of neighbors = 8238205
Ave neighs/atom = 28.530481
Neighbor list builds = 0
Dangerous builds = 0
The dot product: -4.61694343920888e-08
Setting atom values ...
  1 settings made for x
  1 settings made for y
  1 settings made for z
Setting up cg style minimization ...
  Unit style    : metal
  Current step  : 1932
Per MPI rank memory allocation (min/avg/max) = 5.441 | 5.816 | 6.074 Mbytes
Step PotEng KinEng TotEng v_fx v_fy v_fz 
    1932   -1152449.4            0   -1152449.4 0.0056474204  0.022561228  0.023555056 
    2000   -1152449.4            0   -1152449.4 3.3907814e-05 1.6681163e-06 -0.00012988679 
    2137   -1152449.4            0   -1152449.4 -6.605284e-06 -1.1146179e-06 2.3700761e-05 
Loop time of 2.35833 on 104 procs for 205 steps with 288751 atoms

99.9% CPU use with 104 MPI tasks x 1 OpenMP threads

Minimization stats:
  Stopping criterion = energy tolerance
  Energy initial, next-to-last, final = 
     -1152449.35178858  -1152449.35391329  -1152449.35391329
  Force two-norm initial, final = 0.17933858 9.1620450e-05
  Force max component initial, final = 0.086942638 2.3700761e-05
  Final line search alpha, max atom move = 1.0000000 2.3700761e-05
  Iterations, force evaluations = 205 410

MPI task timing breakdown:
Section |  min time  |  avg time  |  max time  |%varavg| %total
---------------------------------------------------------------
Pair    | 0.62977    | 1.7192     | 2.2336     |  35.2 | 72.90
Neigh   | 0          | 0          | 0          |   0.0 |  0.00
Comm    | 0.035158   | 0.38245    | 1.167      |  52.9 | 16.22
Output  | 9.692e-05  | 9.9004e-05 | 0.00020655 |   0.0 |  0.00
Modify  | 2.516e-05  | 0.0033808  | 0.0072256  |   2.7 |  0.14
Other   |            | 0.2532     |            |       | 10.74

Nlocal:        2776.45 ave        3959 max           0 min
Histogram: 8 4 4 0 4 12 8 4 26 34
Nghost:        3879.00 ave        5429 max         232 min
Histogram: 8 0 8 0 16 0 8 8 16 40
Neighs:        79213.5 ave      115383 max           0 min
Histogram: 8 4 4 0 10 6 8 8 24 32

Total # of neighbors = 8238204
Ave neighs/atom = 28.530478
Neighbor list builds = 0
Dangerous builds = 0
The dot product: 1.88928158182596e-07
Setting atom values ...
  1 settings made for x
  1 settings made for y
  1 settings made for z
Setting up cg style minimization ...
  Unit style    : metal
  Current step  : 2137
Per MPI rank memory allocation (min/avg/max) = 5.441 | 5.816 | 6.074 Mbytes
Step PotEng KinEng TotEng v_fx v_fy v_fz 
    2137   -1152449.3            0   -1152449.3 0.0072678704  0.037679721  0.031155461 
    2362   -1152449.3            0   -1152449.3 4.8088836e-06 1.9013679e-07 -1.5919358e-05 
Loop time of 2.61017 on 104 procs for 225 steps with 288751 atoms

99.9% CPU use with 104 MPI tasks x 1 OpenMP threads

Minimization stats:
  Stopping criterion = energy tolerance
  Energy initial, next-to-last, final = 
     -1152449.33585225   -1152449.3381524   -1152449.3381524
  Force two-norm initial, final = 0.18286064 4.9887869e-05
  Force max component initial, final = 0.093541333 1.5919358e-05
  Final line search alpha, max atom move = 1.0000000 1.5919358e-05
  Iterations, force evaluations = 225 450

MPI task timing breakdown:
Section |  min time  |  avg time  |  max time  |%varavg| %total
---------------------------------------------------------------
Pair    | 0.68692    | 1.8913     | 2.4595     |  36.8 | 72.46
Neigh   | 0          | 0          | 0          |   0.0 |  0.00
Comm    | 0.038667   | 0.42073    | 1.2783     |  55.4 | 16.12
Output  | 0          | 0          | 0          |   0.0 |  0.00
Modify  | 2.7163e-05 | 0.0036994  | 0.0078928  |   2.9 |  0.14
Other   |            | 0.2944     |            |       | 11.28

Nlocal:        2776.45 ave        3959 max           0 min
Histogram: 8 4 4 0 4 12 8 3 27 34
Nghost:        3879.04 ave        5428 max         232 min
Histogram: 8 0 8 0 16 0 8 8 16 40
Neighs:        79213.5 ave      115383 max           0 min
Histogram: 8 4 4 0 10 6 8 8 24 32

Total # of neighbors = 8238205
Ave neighs/atom = 28.530481
Neighbor list builds = 0
Dangerous builds = 0
The dot product: -1.41345350191145e-07
Setting atom values ...
  1 settings made for x
  1 settings made for y
  1 settings made for z
Setting up cg style minimization ...
  Unit style    : metal
  Current step  : 2362
Per MPI rank memory allocation (min/avg/max) = 5.441 | 5.816 | 6.074 Mbytes
Step PotEng KinEng TotEng v_fx v_fy v_fz 
    2362   -1152449.3            0   -1152449.3 0.0058120268  0.042135511  0.028540458 
    2554   -1152449.3            0   -1152449.3 -7.3282896e-06 4.9881348e-07 2.2297636e-05 
Loop time of 2.22936 on 104 procs for 192 steps with 288751 atoms

99.9% CPU use with 104 MPI tasks x 1 OpenMP threads

Minimization stats:
  Stopping criterion = energy tolerance
  Energy initial, next-to-last, final = 
     -1152449.31902107  -1152449.32120838  -1152449.32120838
  Force two-norm initial, final = 0.18310326 0.00014246269
  Force max component initial, final = 0.099917082 3.3546077e-05
  Final line search alpha, max atom move = 1.0000000 3.3546077e-05
  Iterations, force evaluations = 192 384

MPI task timing breakdown:
Section |  min time  |  avg time  |  max time  |%varavg| %total
---------------------------------------------------------------
Pair    | 0.58836    | 1.6105     | 2.0949     |  34.1 | 72.24
Neigh   | 0          | 0          | 0          |   0.0 |  0.00
Comm    | 0.032677   | 0.36296    | 1.0986     |  50.7 | 16.28
Output  | 0          | 0          | 0          |   0.0 |  0.00
Modify  | 2.3555e-05 | 0.0031611  | 0.0068103  |   2.7 |  0.14
Other   |            | 0.2528     |            |       | 11.34

Nlocal:        2776.45 ave        3960 max           0 min
Histogram: 8 4 4 0 4 12 8 3 27 34
Nghost:        3879.10 ave        5426 max         232 min
Histogram: 8 0 8 0 16 0 8 8 16 40
Neighs:        79213.5 ave      115426 max           0 min
Histogram: 8 4 4 0 10 6 8 8 24 32

Total # of neighbors = 8238204
Ave neighs/atom = 28.530478
Neighbor list builds = 0
Dangerous builds = 0
The dot product: 1.88120644862996e-07
Setting atom values ...
  1 settings made for x
  1 settings made for y
  1 settings made for z
Setting up cg style minimization ...
  Unit style    : metal
  Current step  : 2554
Per MPI rank memory allocation (min/avg/max) = 5.441 | 5.816 | 6.074 Mbytes
Step PotEng KinEng TotEng v_fx v_fy v_fz 
    2554   -1152449.3            0   -1152449.3  0.003881789   0.03902537  0.021858422 
    2750   -1152449.3            0   -1152449.3 6.2844159e-06 1.1459206e-08 -1.6989618e-05 
Loop time of 2.26638 on 104 procs for 196 steps with 288751 atoms

99.9% CPU use with 104 MPI tasks x 1 OpenMP threads

Minimization stats:
  Stopping criterion = energy tolerance
  Energy initial, next-to-last, final = 
     -1152449.30088921   -1152449.3029498   -1152449.3029498
  Force two-norm initial, final = 0.18110466 0.00012606806
  Force max component initial, final = 0.10522926 2.0897540e-05
  Final line search alpha, max atom move = 1.0000000 2.0897540e-05
  Iterations, force evaluations = 196 392

MPI task timing breakdown:
Section |  min time  |  avg time  |  max time  |%varavg| %total
---------------------------------------------------------------
Pair    | 0.59979    | 1.6501     | 2.1434     |  34.4 | 72.81
Neigh   | 0          | 0          | 0          |   0.0 |  0.00
Comm    | 0.037932   | 0.36527    | 1.1125     |  51.8 | 16.12
Output  | 0          | 0          | 0          |   0.0 |  0.00
Modify  | 2.3539e-05 | 0.0032274  | 0.006864   |   2.7 |  0.14
Other   |            | 0.2478     |            |       | 10.93

Nlocal:        2776.45 ave        3960 max           0 min
Histogram: 8 4 4 0 4 12 8 3 27 34
Nghost:        3879.10 ave        5425 max         232 min
Histogram: 8 0 8 0 16 0 8 8 16 40
Neighs:        79213.5 ave      115430 max           0 min
Histogram: 8 4 4 0 10 6 8 8 24 32

Total # of neighbors = 8238209
Ave neighs/atom = 28.530495
Neighbor list builds = 0
Dangerous builds = 0
The dot product: -1.27431432917827e-07
Setting atom values ...
  1 settings made for x
  1 settings made for y
  1 settings made for z
Setting up cg style minimization ...
  Unit style    : metal
  Current step  : 2750
Per MPI rank memory allocation (min/avg/max) = 5.441 | 5.816 | 6.074 Mbytes
Step PotEng KinEng TotEng v_fx v_fy v_fz 
    2750   -1152449.3            0   -1152449.3 0.0019836039   0.03347912   0.01685571 
    2936   -1152449.3            0   -1152449.3 -9.6583079e-06 -3.899372e-06 2.172657e-05 
Loop time of 2.13918 on 104 procs for 186 steps with 288751 atoms

99.9% CPU use with 104 MPI tasks x 1 OpenMP threads

Minimization stats:
  Stopping criterion = energy tolerance
  Energy initial, next-to-last, final = 
     -1152449.28142472   -1152449.2834247   -1152449.2834247
  Force two-norm initial, final = 0.1788443 0.00015876889
  Force max component initial, final = 0.10944879 2.4591021e-05
  Final line search alpha, max atom move = 1.0000000 2.4591021e-05
  Iterations, force evaluations = 186 372

MPI task timing breakdown:
Section |  min time  |  avg time  |  max time  |%varavg| %total
---------------------------------------------------------------
Pair    | 0.56699    | 1.5564     | 2.0215     |  33.5 | 72.76
Neigh   | 0          | 0          | 0          |   0.0 |  0.00
Comm    | 0.031791   | 0.34615    | 1.0558     |  50.3 | 16.18
Output  | 0          | 0          | 0          |   0.0 |  0.00
Modify  | 2.2879e-05 | 0.0030603  | 0.0065466  |   2.6 |  0.14
Other   |            | 0.2336     |            |       | 10.92

Nlocal:        2776.45 ave        3960 max           0 min
Histogram: 8 4 4 0 4 12 8 2 28 34
Nghost:        3879.12 ave        5424 max         232 min
Histogram: 8 0 8 0 16 0 8 8 16 40
Neighs:        79213.6 ave      115430 max           0 min
Histogram: 8 4 4 0 10 6 8 8 24 32

Total # of neighbors = 8238212
Ave neighs/atom = 28.530506
Neighbor list builds = 0
Dangerous builds = 0
The dot product: 1.29235848823614e-07
Setting atom values ...
  1 settings made for x
  1 settings made for y
  1 settings made for z
Setting up cg style minimization ...
  Unit style    : metal
  Current step  : 2936
Per MPI rank memory allocation (min/avg/max) = 5.441 | 5.816 | 6.074 Mbytes
Step PotEng KinEng TotEng v_fx v_fy v_fz 
    2936   -1152449.3            0   -1152449.3 -0.00022047737  0.027817432  0.015109876 
    3000   -1152449.3            0   -1152449.3 9.9513823e-05 2.6172368e-05 -0.00022016382 
    3139   -1152449.3            0   -1152449.3 2.0838908e-07 2.0786559e-07 -3.8075161e-07 
Loop time of 2.36625 on 104 procs for 203 steps with 288751 atoms

99.9% CPU use with 104 MPI tasks x 1 OpenMP threads

Minimization stats:
  Stopping criterion = energy tolerance
  Energy initial, next-to-last, final = 
     -1152449.26076455  -1152449.26268175  -1152449.26268175
  Force two-norm initial, final = 0.1768289 0.00010353709
  Force max component initial, final = 0.11280864 1.0725871e-05
  Final line search alpha, max atom move = 1.0000000 1.0725871e-05
  Iterations, force evaluations = 203 406

MPI task timing breakdown:
Section |  min time  |  avg time  |  max time  |%varavg| %total
---------------------------------------------------------------
Pair    | 0.61991    | 1.7129     | 2.2325     |  35.1 | 72.39
Neigh   | 0          | 0          | 0          |   0.0 |  0.00
Comm    | 0.034852   | 0.38396    | 1.1697     |  52.7 | 16.23
Output  | 0.0001028  | 0.00010579 | 0.00021336 |   0.0 |  0.00
Modify  | 2.4501e-05 | 0.0033557  | 0.0071752  |   2.7 |  0.14
Other   |            | 0.2659     |            |       | 11.24

Nlocal:        2776.45 ave        3960 max           0 min
Histogram: 8 4 4 0 4 12 8 2 28 34
Nghost:        3879.12 ave        5424 max         232 min
Histogram: 8 0 8 0 16 0 8 8 16 40
Neighs:        79213.6 ave      115432 max           0 min
Histogram: 8 4 4 0 10 6 8 8 24 32

Total # of neighbors = 8238217
Ave neighs/atom = 28.530523
Neighbor list builds = 0
Dangerous builds = 0
The dot product: -1.325709626123e-09
Setting atom values ...
  1 settings made for x
  1 settings made for y
  1 settings made for z
Setting up cg style minimization ...
  Unit style    : metal
  Current step  : 3139
Per MPI rank memory allocation (min/avg/max) = 5.441 | 5.816 | 6.074 Mbytes
Step PotEng KinEng TotEng v_fx v_fy v_fz 
    3139   -1152449.2            0   -1152449.2 -0.0019478192  0.022696001   0.01411849 
    3324   -1152449.2            0   -1152449.2 2.1429331e-05 2.8430907e-06 -4.616091e-05 
Loop time of 2.13627 on 104 procs for 185 steps with 288751 atoms

99.9% CPU use with 104 MPI tasks x 1 OpenMP threads

Minimization stats:
  Stopping criterion = energy tolerance
  Energy initial, next-to-last, final = 
     -1152449.23885666  -1152449.24073652  -1152449.24073652
  Force two-norm initial, final = 0.17520897 0.00015958526
  Force max component initial, final = 0.11584729 4.6160910e-05
  Final line search alpha, max atom move = 1.0000000 4.6160910e-05
  Iterations, force evaluations = 185 370

MPI task timing breakdown:
Section |  min time  |  avg time  |  max time  |%varavg| %total
---------------------------------------------------------------
Pair    | 0.56595    | 1.5546     | 2.0216     |  33.6 | 72.77
Neigh   | 0          | 0          | 0          |   0.0 |  0.00
Comm    | 0.031211   | 0.34704    | 1.0589     |  50.4 | 16.24
Output  | 0          | 0          | 0          |   0.0 |  0.00
Modify  | 2.3011e-05 | 0.0030483  | 0.0065292  |   2.6 |  0.14
Other   |            | 0.2315     |            |       | 10.84

Nlocal:        2776.45 ave        3959 max           0 min
Histogram: 8 4 4 0 4 12 8 2 28 34
Nghost:        3879.12 ave        5424 max         232 min
Histogram: 8 0 8 0 16 0 8 8 16 40
Neighs:        79213.6 ave      115410 max           0 min
Histogram: 8 4 4 0 10 6 8 8 24 32

Total # of neighbors = 8238212
Ave neighs/atom = 28.530506
Neighbor list builds = 0
Dangerous builds = 0
The dot product: -3.91040152357025e-07
Setting atom values ...
  1 settings made for x
  1 settings made for y
  1 settings made for z
Setting up cg style minimization ...
  Unit style    : metal
  Current step  : 3324
Per MPI rank memory allocation (min/avg/max) = 5.441 | 5.816 | 6.074 Mbytes
Step PotEng KinEng TotEng v_fx v_fy v_fz 
    3324   -1152449.2            0   -1152449.2 -0.0040440261  0.019873782  0.015592318 
    3531   -1152449.2            0   -1152449.2 1.4486507e-05 2.2274156e-06 -2.9353765e-05 
Loop time of 2.4085 on 104 procs for 207 steps with 288751 atoms

99.9% CPU use with 104 MPI tasks x 1 OpenMP threads

Minimization stats:
  Stopping criterion = energy tolerance
  Energy initial, next-to-last, final = 
      -1152449.2157965  -1152449.21781656  -1152449.21781656
  Force two-norm initial, final = 0.17423413 9.9854540e-05
  Force max component initial, final = 0.11865965 2.9353765e-05
  Final line search alpha, max atom move = 1.0000000 2.9353765e-05
  Iterations, force evaluations = 207 414

MPI task timing breakdown:
Section |  min time  |  avg time  |  max time  |%varavg| %total
---------------------------------------------------------------
Pair    | 0.63412    | 1.7473     | 2.2848     |  35.5 | 72.55
Neigh   | 0          | 0          | 0          |   0.0 |  0.00
Comm    | 0.035044   | 0.39099    | 1.186      |  53.2 | 16.23
Output  | 0          | 0          | 0          |   0.0 |  0.00
Modify  | 2.58e-05   | 0.0034077  | 0.0073067  |   2.8 |  0.14
Other   |            | 0.2668     |            |       | 11.08

Nlocal:        2776.45 ave        3959 max           0 min
Histogram: 8 4 4 0 4 12 8 2 28 34
Nghost:        3879.12 ave        5424 max         232 min
Histogram: 8 0 8 0 16 0 8 8 16 40
Neighs:        79213.6 ave      115410 max           0 min
Histogram: 8 4 4 0 10 6 8 8 24 32

Total # of neighbors = 8238211
Ave neighs/atom = 28.530502
Neighbor list builds = 0
Dangerous builds = 0
The dot product: -3.35302746464895e-07
Setting atom values ...
  1 settings made for x
  1 settings made for y
  1 settings made for z
Setting up cg style minimization ...
  Unit style    : metal
  Current step  : 3531
Per MPI rank memory allocation (min/avg/max) = 5.441 | 5.816 | 6.074 Mbytes
Step PotEng KinEng TotEng v_fx v_fy v_fz 
    3531   -1152449.2            0   -1152449.2 -0.0085821045   0.02169649  0.023020766 
    3759   -1152449.2            0   -1152449.2 9.2896172e-07 -7.8505569e-07 -2.0302479e-06 
Loop time of 2.63621 on 104 procs for 228 steps with 288751 atoms

99.9% CPU use with 104 MPI tasks x 1 OpenMP threads

Minimization stats:
  Stopping criterion = energy tolerance
  Energy initial, next-to-last, final = 
     -1152449.19206017  -1152449.19428014  -1152449.19428014
  Force two-norm initial, final = 0.17435901 3.7475968e-05
  Force max component initial, final = 0.12119075 8.8896474e-06
  Final line search alpha, max atom move = 1.0000000 8.8896474e-06
  Iterations, force evaluations = 228 456

MPI task timing breakdown:
Section |  min time  |  avg time  |  max time  |%varavg| %total
---------------------------------------------------------------
Pair    | 0.69509    | 1.9197     | 2.4997     |  37.4 | 72.82
Neigh   | 0          | 0          | 0          |   0.0 |  0.00
Comm    | 0.038239   | 0.43216    | 1.3199     |  55.9 | 16.39
Output  | 0          | 0          | 0          |   0.0 |  0.00
Modify  | 2.7524e-05 | 0.0037673  | 0.0081304  |   2.9 |  0.14
Other   |            | 0.2805     |            |       | 10.64

Nlocal:        2776.45 ave        3959 max           0 min
Histogram: 8 4 4 0 4 12 8 2 28 34
Nghost:        3879.09 ave        5424 max         232 min
Histogram: 8 0 8 0 16 0 8 8 16 40
Neighs:        79213.6 ave      115406 max           0 min
Histogram: 8 4 4 0 10 6 8 8 24 32

Total # of neighbors = 8238212
Ave neighs/atom = 28.530506
Neighbor list builds = 0
Dangerous builds = 0
The dot product: -3.76064595128157e-08
Setting atom values ...
  1 settings made for x
  1 settings made for y
  1 settings made for z
Setting up cg style minimization ...
  Unit style    : metal
  Current step  : 3759
Per MPI rank memory allocation (min/avg/max) = 5.441 | 5.816 | 6.074 Mbytes
Step PotEng KinEng TotEng v_fx v_fy v_fz 
    3759   -1152449.2            0   -1152449.2 -0.013456618  0.024934859  0.029717035 
    3921   -1152449.2            0   -1152449.2 -2.2044243e-05 -3.5382039e-06 3.8412532e-05 
Loop time of 1.87411 on 104 procs for 162 steps with 288751 atoms

99.9% CPU use with 104 MPI tasks x 1 OpenMP threads

Minimization stats:
  Stopping criterion = energy tolerance
  Energy initial, next-to-last, final = 
     -1152449.16788287  -1152449.17006812  -1152449.17006812
  Force two-norm initial, final = 0.17517404 0.00025274043
  Force max component initial, final = 0.12388438 3.8412532e-05
  Final line search alpha, max atom move = 1.0000000 3.8412532e-05
  Iterations, force evaluations = 162 324

MPI task timing breakdown:
Section |  min time  |  avg time  |  max time  |%varavg| %total
---------------------------------------------------------------
Pair    | 0.49731    | 1.3617     | 1.7714     |  31.2 | 72.66
Neigh   | 0          | 0          | 0          |   0.0 |  0.00
Comm    | 0.028175   | 0.30226    | 0.92227    |  47.1 | 16.13
Output  | 0          | 0          | 0          |   0.0 |  0.00
Modify  | 1.9645e-05 | 0.002673   | 0.0057309  |   2.4 |  0.14
Other   |            | 0.2075     |            |       | 11.07

Nlocal:        2776.45 ave        3959 max           0 min
Histogram: 8 4 4 0 4 12 8 2 28 34
Nghost:        3879.07 ave        5424 max         232 min
Histogram: 8 0 8 0 16 0 8 8 16 40
Neighs:        79213.6 ave      115406 max           0 min
Histogram: 8 4 4 0 10 6 8 8 24 32

Total # of neighbors = 8238216
Ave neighs/atom = 28.530519
Neighbor list builds = 0
Dangerous builds = 0
The dot product: 5.87812576760595e-07
Setting atom values ...
  1 settings made for x
  1 settings made for y
  1 settings made for z
Setting up cg style minimization ...
  Unit style    : metal
  Current step  : 3921
Per MPI rank memory allocation (min/avg/max) = 5.441 | 5.816 | 6.074 Mbytes
Step PotEng KinEng TotEng v_fx v_fy v_fz 
    3921   -1152449.1            0   -1152449.1 -0.014498861  0.023777197  0.028156533 
    4000   -1152449.1            0   -1152449.1 0.00019034969 3.8837714e-05 -0.00030656991 
    4099   -1152449.1            0   -1152449.1 -2.6787973e-06 -3.0862748e-06 3.8579003e-06 
Loop time of 2.05592 on 104 procs for 178 steps with 288751 atoms

99.9% CPU use with 104 MPI tasks x 1 OpenMP threads

Minimization stats:
  Stopping criterion = energy tolerance
  Energy initial, next-to-last, final = 
     -1152449.14281544  -1152449.14487235  -1152449.14487235
  Force two-norm initial, final = 0.17468344 0.00016384958
  Force max component initial, final = 0.12694973 2.1107129e-05
  Final line search alpha, max atom move = 1.0000000 2.1107129e-05
  Iterations, force evaluations = 178 356

MPI task timing breakdown:
Section |  min time  |  avg time  |  max time  |%varavg| %total
---------------------------------------------------------------
Pair    | 0.54464    | 1.4949     | 1.9441     |  32.9 | 72.71
Neigh   | 0          | 0          | 0          |   0.0 |  0.00
Comm    | 0.031032   | 0.33515    | 1.0163     |  49.1 | 16.30
Output  | 0.00010206 | 0.00010528 | 0.00022137 |   0.0 |  0.01
Modify  | 2.2174e-05 | 0.0029281  | 0.0062422  |   2.6 |  0.14
Other   |            | 0.2228     |            |       | 10.84

Nlocal:        2776.45 ave        3959 max           0 min
Histogram: 8 4 4 0 4 12 8 2 28 34
Nghost:        3879.03 ave        5424 max         232 min
Histogram: 8 0 8 0 16 0 8 8 16 40
Neighs:        79213.6 ave      115410 max           0 min
Histogram: 8 4 4 0 10 6 8 8 24 32

Total # of neighbors = 8238215
Ave neighs/atom = 28.530516
Neighbor list builds = 0
Dangerous builds = 0
The dot product: 3.84584684608691e-08
Setting atom values ...
  1 settings made for x
  1 settings made for y
  1 settings made for z
Setting up cg style minimization ...
  Unit style    : metal
  Current step  : 4099
Per MPI rank memory allocation (min/avg/max) = 5.441 | 5.816 | 6.074 Mbytes
Step PotEng KinEng TotEng v_fx v_fy v_fz 
    4099   -1152449.1            0   -1152449.1 -0.013529725  0.020293734  0.023733772 
    4284   -1152449.1            0   -1152449.1 -1.2166866e-05 5.6657352e-07 1.8844421e-05 
Loop time of 2.16224 on 104 procs for 185 steps with 288751 atoms

99.9% CPU use with 104 MPI tasks x 1 OpenMP threads

Minimization stats:
  Stopping criterion = energy tolerance
  Energy initial, next-to-last, final = 
      -1152449.1166341  -1152449.11850057  -1152449.11850057
  Force two-norm initial, final = 0.17382242 0.00012629335
  Force max component initial, final = 0.12990515 3.2880307e-05
  Final line search alpha, max atom move = 1.0000000 3.2880307e-05
  Iterations, force evaluations = 185 370

MPI task timing breakdown:
Section |  min time  |  avg time  |  max time  |%varavg| %total
---------------------------------------------------------------
Pair    | 0.56268    | 1.5605     | 2.0276     |  33.5 | 72.17
Neigh   | 0          | 0          | 0          |   0.0 |  0.00
Comm    | 0.031851   | 0.35168    | 1.0712     |  50.0 | 16.26
Output  | 0          | 0          | 0          |   0.0 |  0.00
Modify  | 2.2001e-05 | 0.0030687  | 0.0065848  |   2.6 |  0.14
Other   |            | 0.2469     |            |       | 11.42

Nlocal:        2776.45 ave        3958 max           0 min
Histogram: 8 4 4 0 4 12 8 2 28 34
Nghost:        3879.03 ave        5425 max         232 min
Histogram: 8 0 8 0 16 0 8 8 16 40
Neighs:        79213.6 ave      115379 max           0 min
Histogram: 8 4 4 0 10 6 8 8 24 32

Total # of neighbors = 8238213
Ave neighs/atom = 28.530509
Neighbor list builds = 0
Dangerous builds = 0
The dot product: 2.50227143183547e-07
Setting atom values ...
  1 settings made for x
  1 settings made for y
  1 settings made for z
Setting up cg style minimization ...
  Unit style    : metal
  Current step  : 4284
Per MPI rank memory allocation (min/avg/max) = 5.441 | 5.816 | 6.074 Mbytes
Step PotEng KinEng TotEng v_fx v_fy v_fz 
    4284   -1152449.1            0   -1152449.1 -0.010944188  0.015851807  0.017829233 
    4451   -1152449.1            0   -1152449.1 1.6117773e-06 -2.5257856e-06 -2.6476314e-06 
Loop time of 1.94687 on 104 procs for 167 steps with 288751 atoms

99.9% CPU use with 104 MPI tasks x 1 OpenMP threads

Minimization stats:
  Stopping criterion = energy tolerance
  Energy initial, next-to-last, final = 
     -1152449.08911213  -1152449.09084735  -1152449.09084735
  Force two-norm initial, final = 0.17328658 0.00019660566
  Force max component initial, final = 0.13282081 2.6356817e-05
  Final line search alpha, max atom move = 1.0000000 2.6356817e-05
  Iterations, force evaluations = 167 334

MPI task timing breakdown:
Section |  min time  |  avg time  |  max time  |%varavg| %total
---------------------------------------------------------------
Pair    | 0.51123    | 1.4032     | 1.8273     |  31.9 | 72.08
Neigh   | 0          | 0          | 0          |   0.0 |  0.00
Comm    | 0.029934   | 0.31688    | 0.95278    |  46.9 | 16.28
Output  | 0          | 0          | 0          |   0.0 |  0.00
Modify  | 2.1329e-05 | 0.0027522  | 0.0058887  |   2.5 |  0.14
Other   |            | 0.224      |            |       | 11.51

Nlocal:        2776.45 ave        3958 max           0 min
Histogram: 8 4 4 0 4 12 8 2 28 34
Nghost:        3879.03 ave        5425 max         232 min
Histogram: 8 0 8 0 16 0 8 8 16 40
Neighs:        79213.6 ave      115381 max           0 min
Histogram: 8 4 4 0 10 6 8 8 24 32

Total # of neighbors = 8238213
Ave neighs/atom = 28.530509
Neighbor list builds = 0
Dangerous builds = 0
The dot product: -3.88442118383005e-08
Setting atom values ...
  1 settings made for x
  1 settings made for y
  1 settings made for z
Setting up cg style minimization ...
  Unit style    : metal
  Current step  : 4451
Per MPI rank memory allocation (min/avg/max) = 5.441 | 5.816 | 6.074 Mbytes
Step PotEng KinEng TotEng v_fx v_fy v_fz 
    4451   -1152449.1            0   -1152449.1 -0.0080757001  0.011365503  0.012435877 
    4611   -1152449.1            0   -1152449.1 1.736678e-06 3.2447072e-06 -2.1261317e-06 
Loop time of 1.8653 on 104 procs for 160 steps with 288751 atoms

99.9% CPU use with 104 MPI tasks x 1 OpenMP threads

Minimization stats:
  Stopping criterion = energy tolerance
  Energy initial, next-to-last, final = 
     -1152449.06024851  -1152449.06190647  -1152449.06190647
  Force two-norm initial, final = 0.17330813 0.00023390967
  Force max component initial, final = 0.1354563 2.9752995e-05
  Final line search alpha, max atom move = 1.0000000 2.9752995e-05
  Iterations, force evaluations = 160 320

MPI task timing breakdown:
Section |  min time  |  avg time  |  max time  |%varavg| %total
---------------------------------------------------------------
Pair    | 0.49131    | 1.3561     | 1.7658     |  31.3 | 72.70
Neigh   | 0          | 0          | 0          |   0.0 |  0.00
Comm    | 0.029683   | 0.30227    | 0.91427    |  47.0 | 16.20
Output  | 0          | 0          | 0          |   0.0 |  0.00
Modify  | 2.0112e-05 | 0.002637   | 0.0056307  |   2.4 |  0.14
Other   |            | 0.2043     |            |       | 10.95

Nlocal:        2776.45 ave        3958 max           0 min
Histogram: 8 4 4 0 4 12 8 2 28 34
Nghost:        3879.03 ave        5425 max         232 min
Histogram: 8 0 8 0 16 0 8 8 16 40
Neighs:        79213.6 ave      115381 max           0 min
Histogram: 8 4 4 0 10 6 8 8 24 32

Total # of neighbors = 8238214
Ave neighs/atom = 28.530512
Neighbor list builds = 0
Dangerous builds = 0
The dot product: -1.20548751342336e-08
Setting atom values ...
  1 settings made for x
  1 settings made for y
  1 settings made for z
Setting up cg style minimization ...
  Unit style    : metal
  Current step  : 4611
Per MPI rank memory allocation (min/avg/max) = 5.441 | 5.816 | 6.074 Mbytes
Step PotEng KinEng TotEng v_fx v_fy v_fz 
    4611     -1152449            0     -1152449 -0.0055222346 0.0074749679 0.0081378138 
    4801     -1152449            0     -1152449 5.4931506e-06 3.7323866e-06 -7.1486104e-06 
Loop time of 2.19279 on 104 procs for 190 steps with 288751 atoms

99.9% CPU use with 104 MPI tasks x 1 OpenMP threads

Minimization stats:
  Stopping criterion = energy tolerance
  Energy initial, next-to-last, final = 
     -1152449.03009277  -1152449.03173401  -1152449.03173401
  Force two-norm initial, final = 0.17387815 0.00011323967
  Force max component initial, final = 0.13793479 2.1428974e-05
  Final line search alpha, max atom move = 1.0000000 2.1428974e-05
  Iterations, force evaluations = 190 380

MPI task timing breakdown:
Section |  min time  |  avg time  |  max time  |%varavg| %total
---------------------------------------------------------------
Pair    | 0.58265    | 1.5924     | 2.0737     |  33.9 | 72.62
Neigh   | 0          | 0          | 0          |   0.0 |  0.00
Comm    | 0.032144   | 0.35676    | 1.0852     |  50.7 | 16.27
Output  | 0          | 0          | 0          |   0.0 |  0.00
Modify  | 2.3147e-05 | 0.0031278  | 0.0066688  |   2.6 |  0.14
Other   |            | 0.2405     |            |       | 10.97

Nlocal:        2776.45 ave        3958 max           0 min
Histogram: 8 4 4 0 4 12 8 2 28 34
Nghost:        3878.93 ave        5425 max         232 min
Histogram: 8 0 8 0 16 0 8 8 16 40
Neighs:        79213.6 ave      115375 max           0 min
Histogram: 8 4 4 0 10 6 8 8 24 32

Total # of neighbors = 8238218
Ave neighs/atom = 28.530526
Neighbor list builds = 0
Dangerous builds = 0
The dot product: -5.44239939397487e-08
Setting atom values ...
  1 settings made for x
  1 settings made for y
  1 settings made for z
Setting up cg style minimization ...
  Unit style    : metal
  Current step  : 4801
Per MPI rank memory allocation (min/avg/max) = 5.441 | 5.816 | 6.074 Mbytes
Step PotEng KinEng TotEng v_fx v_fy v_fz 
    4801     -1152449            0     -1152449 -0.0036465958 0.0045649133  0.005174182 
    5000     -1152449            0     -1152449 -5.6703217e-06 -1.7403801e-06 7.362017e-06 
    5042     -1152449            0     -1152449 -1.237057e-06 -5.4904685e-07 1.5930236e-06 
Loop time of 2.78568 on 104 procs for 241 steps with 288751 atoms

99.9% CPU use with 104 MPI tasks x 1 OpenMP threads

Minimization stats:
  Stopping criterion = energy tolerance
  Energy initial, next-to-last, final = 
     -1152448.99879559  -1152449.00044462  -1152449.00044462
  Force two-norm initial, final = 0.17461547 1.9944103e-05
  Force max component initial, final = 0.14004707 2.7114175e-06
  Final line search alpha, max atom move = 1.0000000 2.7114175e-06
  Iterations, force evaluations = 241 482

MPI task timing breakdown:
Section |  min time  |  avg time  |  max time  |%varavg| %total
---------------------------------------------------------------
Pair    | 0.73368    | 2.0314     | 2.6422     |  38.3 | 72.92
Neigh   | 0          | 0          | 0          |   0.0 |  0.00
Comm    | 0.040505   | 0.45262    | 1.3811     |  57.8 | 16.25
Output  | 9.6245e-05 | 0.00010406 | 0.00024302 |   0.0 |  0.00
Modify  | 2.9101e-05 | 0.0039681  | 0.0084915  |   3.0 |  0.14
Other   |            | 0.2976     |            |       | 10.68

Nlocal:        2776.45 ave        3958 max           0 min
Histogram: 8 4 4 0 4 12 8 2 28 34
Nghost:        3878.96 ave        5425 max         232 min
Histogram: 8 0 8 0 16 0 8 8 16 40
Neighs:        79213.6 ave      115376 max           0 min
Histogram: 8 4 4 0 10 6 8 8 24 32

Total # of neighbors = 8238216
Ave neighs/atom = 28.530519
Neighbor list builds = 0
Dangerous builds = 0
The dot product: 1.16224937496511e-08
Setting atom values ...
  1 settings made for x
  1 settings made for y
  1 settings made for z
Setting up cg style minimization ...
  Unit style    : metal
  Current step  : 5042
Per MPI rank memory allocation (min/avg/max) = 5.441 | 5.816 | 6.074 Mbytes
Step PotEng KinEng TotEng v_fx v_fy v_fz 
    5042     -1152449            0     -1152449 -0.0018882287  0.002550366 0.0026241831 
    5211     -1152449            0     -1152449 -2.7911731e-05 -4.7441775e-06 3.5700609e-05 
Loop time of 1.96051 on 104 procs for 169 steps with 288751 atoms

99.9% CPU use with 104 MPI tasks x 1 OpenMP threads

Minimization stats:
  Stopping criterion = energy tolerance
  Energy initial, next-to-last, final = 
     -1152448.96643825  -1152448.96809694  -1152448.96809694
  Force two-norm initial, final = 0.17546649 0.00023402652
  Force max component initial, final = 0.14195305 3.5700609e-05
  Final line search alpha, max atom move = 1.0000000 3.5700609e-05
  Iterations, force evaluations = 169 338

MPI task timing breakdown:
Section |  min time  |  avg time  |  max time  |%varavg| %total
---------------------------------------------------------------
Pair    | 0.51656    | 1.4225     | 1.8524     |  32.2 | 72.56
Neigh   | 0          | 0          | 0          |   0.0 |  0.00
Comm    | 0.028661   | 0.31961    | 0.97318    |  48.1 | 16.30
Output  | 0          | 0          | 0          |   0.0 |  0.00
Modify  | 2.0919e-05 | 0.0027963  | 0.0060253  |   2.5 |  0.14
Other   |            | 0.2156     |            |       | 11.00

Nlocal:        2776.45 ave        3958 max           0 min
Histogram: 8 4 4 0 4 12 8 2 28 34
Nghost:        3878.98 ave        5425 max         232 min
Histogram: 8 0 8 0 16 0 8 8 16 40
Neighs:        79213.6 ave      115382 max           0 min
Histogram: 8 4 4 0 10 6 8 8 24 32

Total # of neighbors = 8238218
Ave neighs/atom = 28.530526
Neighbor list builds = 0
Dangerous builds = 0
The dot product: 2.48484885760597e-07
Setting atom values ...
  1 settings made for x
  1 settings made for y
  1 settings made for z
Setting up cg style minimization ...
  Unit style    : metal
  Current step  : 5211
Per MPI rank memory allocation (min/avg/max) = 5.441 | 5.816 | 6.074 Mbytes
Step PotEng KinEng TotEng v_fx v_fy v_fz 
    5211   -1152448.9            0   -1152448.9 -0.0003522391 0.0013237156 0.0005384002 
    5410   -1152448.9            0   -1152448.9 -6.2304637e-06 -1.9048424e-06 7.7489179e-06 
Loop time of 2.34266 on 104 procs for 199 steps with 288751 atoms

99.9% CPU use with 104 MPI tasks x 1 OpenMP threads

Minimization stats:
  Stopping criterion = energy tolerance
  Energy initial, next-to-last, final = 
       -1152448.933117  -1152448.93483194  -1152448.93483194
  Force two-norm initial, final = 0.17630493 9.9904398e-05
  Force max component initial, final = 0.14363524 1.1707421e-05
  Final line search alpha, max atom move = 1.0000000 1.1707421e-05
  Iterations, force evaluations = 199 398

MPI task timing breakdown:
Section |  min time  |  avg time  |  max time  |%varavg| %total
---------------------------------------------------------------
Pair    | 0.60777    | 1.6755     | 2.1928     |  34.7 | 71.52
Neigh   | 0          | 0          | 0          |   0.0 |  0.00
Comm    | 0.033687   | 0.38112    | 1.164      |  51.6 | 16.27
Output  | 0          | 0          | 0          |   0.0 |  0.00
Modify  | 2.4997e-05 | 0.0032833  | 0.0070363  |   2.7 |  0.14
Other   |            | 0.2827     |            |       | 12.07

Nlocal:        2776.45 ave        3957 max           0 min
Histogram: 8 4 4 0 4 12 8 2 28 34
Nghost:        3878.95 ave        5425 max         232 min
Histogram: 8 0 8 0 16 0 8 8 16 40
Neighs:        79213.6 ave      115356 max           0 min
Histogram: 8 4 4 0 10 6 8 8 24 32

Total # of neighbors = 8238215
Ave neighs/atom = 28.530516
Neighbor list builds = 0
Dangerous builds = 0
The dot product: 5.1600552116215e-08
Setting atom values ...
  1 settings made for x
  1 settings made for y
  1 settings made for z
Setting up cg style minimization ...
  Unit style    : metal
  Current step  : 5410
Per MPI rank memory allocation (min/avg/max) = 5.441 | 5.816 | 6.074 Mbytes
Step PotEng KinEng TotEng v_fx v_fy v_fz 
    5410   -1152448.9            0   -1152448.9 0.0010255479 0.00066572402 -0.001227844 
    5679   -1152448.9            0   -1152448.9 -1.136026e-06 -5.3799368e-08 1.4069587e-06 
Loop time of 3.10599 on 104 procs for 269 steps with 288751 atoms

99.9% CPU use with 104 MPI tasks x 1 OpenMP threads

Minimization stats:
  Stopping criterion = energy tolerance
  Energy initial, next-to-last, final = 
     -1152448.89898042  -1152448.90061817  -1152448.90061817
  Force two-norm initial, final = 0.17703028 7.0638060e-06
  Force max component initial, final = 0.14506305 1.6296769e-06
  Final line search alpha, max atom move = 1.0000000 1.6296769e-06
  Iterations, force evaluations = 269 538

MPI task timing breakdown:
Section |  min time  |  avg time  |  max time  |%varavg| %total
---------------------------------------------------------------
Pair    | 0.82145    | 2.2577     | 2.9377     |  40.4 | 72.69
Neigh   | 0          | 0          | 0          |   0.0 |  0.00
Comm    | 0.045747   | 0.50758    | 1.5531     |  60.4 | 16.34
Output  | 0          | 0          | 0          |   0.0 |  0.00
Modify  | 3.2937e-05 | 0.0044206  | 0.0094642  |   3.1 |  0.14
Other   |            | 0.3363     |            |       | 10.83

Nlocal:        2776.45 ave        3957 max           0 min
Histogram: 8 4 4 0 4 12 8 2 28 34
Nghost:        3878.92 ave        5425 max         232 min
Histogram: 8 0 8 0 16 0 8 8 16 40
Neighs:        79213.6 ave      115358 max           0 min
Histogram: 8 4 4 0 10 6 8 8 24 32

Total # of neighbors = 8238214
Ave neighs/atom = 28.530512
Neighbor list builds = 0
Dangerous builds = 0
The dot product: 7.92890516655706e-09
Setting atom values ...
  1 settings made for x
  1 settings made for y
  1 settings made for z
Setting up cg style minimization ...
  Unit style    : metal
  Current step  : 5679
Per MPI rank memory allocation (min/avg/max) = 5.441 | 5.816 | 6.074 Mbytes
Step PotEng KinEng TotEng v_fx v_fy v_fz 
    5679   -1152448.9            0   -1152448.9 0.0034930344 0.00028281211 -0.0042534877 
    5874   -1152448.9            0   -1152448.9 1.3987193e-06 7.7540822e-07 -1.6582726e-06 
Loop time of 2.25395 on 104 procs for 195 steps with 288751 atoms

99.9% CPU use with 104 MPI tasks x 1 OpenMP threads

Minimization stats:
  Stopping criterion = energy tolerance
  Energy initial, next-to-last, final = 
     -1152448.86374023  -1152448.86535022  -1152448.86535022
  Force two-norm initial, final = 0.17827258 0.00010262629
  Force max component initial, final = 0.14676474 5.0871765e-06
  Final line search alpha, max atom move = 1.0000000 5.0871765e-06
  Iterations, force evaluations = 195 390

MPI task timing breakdown:
Section |  min time  |  avg time  |  max time  |%varavg| %total
---------------------------------------------------------------
Pair    | 0.59312    | 1.6395     | 2.1377     |  34.3 | 72.74
Neigh   | 0          | 0          | 0          |   0.0 |  0.00
Comm    | 0.03297    | 0.36639    | 1.1176     |  51.7 | 16.26
Output  | 0          | 0          | 0          |   0.0 |  0.00
Modify  | 2.3818e-05 | 0.0032176  | 0.0069385  |   2.7 |  0.14
Other   |            | 0.2448     |            |       | 10.86

Nlocal:        2776.45 ave        3957 max           0 min
Histogram: 8 4 4 0 4 12 8 2 28 34
Nghost:        3878.93 ave        5425 max         232 min
Histogram: 8 0 8 0 16 0 8 8 16 40
Neighs:        79213.6 ave      115360 max           0 min
Histogram: 8 4 4 0 10 6 8 8 24 32

Total # of neighbors = 8238214
Ave neighs/atom = 28.530512
Neighbor list builds = 0
Dangerous builds = 0
The dot product: -7.84097657312869e-09
Setting atom values ...
  1 settings made for x
  1 settings made for y
  1 settings made for z
Setting up cg style minimization ...
  Unit style    : metal
  Current step  : 5874
Per MPI rank memory allocation (min/avg/max) = 5.441 | 5.816 | 6.074 Mbytes
Step PotEng KinEng TotEng v_fx v_fy v_fz 
    5874   -1152448.8            0   -1152448.8 0.0060526901 0.00022671997 -0.0073019284 
    6000   -1152448.8            0   -1152448.8 -2.1246801e-06 3.0694668e-07 2.5894544e-06 
    6066   -1152448.8            0   -1152448.8 1.2596868e-05 6.6650959e-06 -1.4776138e-05 
Loop time of 2.20675 on 104 procs for 192 steps with 288751 atoms

99.9% CPU use with 104 MPI tasks x 1 OpenMP threads

Minimization stats:
  Stopping criterion = energy tolerance
  Energy initial, next-to-last, final = 
     -1152448.82742734  -1152448.82914019  -1152448.82914019
  Force two-norm initial, final = 0.17958349 0.00019550046
  Force max component initial, final = 0.14838529 4.1161256e-05
  Final line search alpha, max atom move = 1.0000000 4.1161256e-05
  Iterations, force evaluations = 192 384

MPI task timing breakdown:
Section |  min time  |  avg time  |  max time  |%varavg| %total
---------------------------------------------------------------
Pair    | 0.58705    | 1.6069     | 2.0906     |  34.0 | 72.82
Neigh   | 0          | 0          | 0          |   0.0 |  0.00
Comm    | 0.032881   | 0.3589     | 1.0942     |  50.9 | 16.26
Output  | 9.5238e-05 | 0.00010537 | 0.00024027 |   0.0 |  0.00
Modify  | 2.3648e-05 | 0.0031639  | 0.0068066  |   2.7 |  0.14
Other   |            | 0.2377     |            |       | 10.77

Nlocal:        2776.45 ave        3956 max           0 min
Histogram: 8 4 4 0 4 12 8 0 30 34
Nghost:        3878.88 ave        5425 max         232 min
Histogram: 8 0 8 0 16 0 8 8 16 40
Neighs:        79213.6 ave      115320 max           0 min
Histogram: 8 4 4 0 10 6 8 8 24 32

Total # of neighbors = 8238216
Ave neighs/atom = 28.530519
Neighbor list builds = 0
Dangerous builds = 0
The dot product: -6.51108655741727e-08
Setting atom values ...
  1 settings made for x
  1 settings made for y
  1 settings made for z
Setting up cg style minimization ...
  Unit style    : metal
  Current step  : 6066
Per MPI rank memory allocation (min/avg/max) = 5.441 | 5.816 | 6.074 Mbytes
Step PotEng KinEng TotEng v_fx v_fy v_fz 
    6066   -1152448.8            0   -1152448.8 0.0078274794 0.00048113605 -0.0093327455 
    6254   -1152448.8            0   -1152448.8 -8.3940756e-06 -1.1717885e-06 9.9634522e-06 
Loop time of 2.19193 on 104 procs for 188 steps with 288751 atoms

99.9% CPU use with 104 MPI tasks x 1 OpenMP threads

Minimization stats:
  Stopping criterion = energy tolerance
  Energy initial, next-to-last, final = 
       -1152448.790401  -1152448.79202509  -1152448.79202509
  Force two-norm initial, final = 0.18018046 0.00014028183
  Force max component initial, final = 0.14945966 9.9634522e-06
  Final line search alpha, max atom move = 1.0000000 9.9634522e-06
  Iterations, force evaluations = 188 376

MPI task timing breakdown:
Section |  min time  |  avg time  |  max time  |%varavg| %total
---------------------------------------------------------------
Pair    | 0.57221    | 1.5896     | 2.0679     |  34.0 | 72.52
Neigh   | 0          | 0          | 0          |   0.0 |  0.00
Comm    | 0.031381   | 0.35962    | 1.0914     |  50.5 | 16.41
Output  | 0          | 0          | 0          |   0.0 |  0.00
Modify  | 2.2848e-05 | 0.0031059  | 0.0066739  |   2.6 |  0.14
Other   |            | 0.2396     |            |       | 10.93

Nlocal:        2776.45 ave        3956 max           0 min
Histogram: 8 4 4 0 4 12 8 0 30 34
Nghost:        3878.89 ave        5425 max         232 min
Histogram: 8 0 8 0 16 0 8 8 16 40
Neighs:        79213.6 ave      115313 max           0 min
Histogram: 8 4 4 0 10 6 8 8 24 32

Total # of neighbors = 8238213
Ave neighs/atom = 28.530509
Neighbor list builds = 0
Dangerous builds = 0
The dot product: 2.93981343174251e-08
Setting atom values ...
  1 settings made for x
  1 settings made for y
  1 settings made for z
Setting up cg style minimization ...
  Unit style    : metal
  Current step  : 6254
Per MPI rank memory allocation (min/avg/max) = 5.441 | 5.816 | 6.074 Mbytes
Step PotEng KinEng TotEng v_fx v_fy v_fz 
    6254   -1152448.8            0   -1152448.8  0.010830972 0.0010287198 -0.012799573 
    6406   -1152448.8            0   -1152448.8 -1.3952628e-05 -3.6108215e-07 1.6555335e-05 
Loop time of 1.76373 on 104 procs for 152 steps with 288751 atoms

99.9% CPU use with 104 MPI tasks x 1 OpenMP threads

Minimization stats:
  Stopping criterion = energy tolerance
  Energy initial, next-to-last, final = 
     -1152448.75226937  -1152448.75389814  -1152448.75389814
  Force two-norm initial, final = 0.18117593 0.00029495199
  Force max component initial, final = 0.1507764 2.4436283e-05
  Final line search alpha, max atom move = 1.0000000 2.4436283e-05
  Iterations, force evaluations = 152 304

MPI task timing breakdown:
Section |  min time  |  avg time  |  max time  |%varavg| %total
---------------------------------------------------------------
Pair    | 0.47551    | 1.28       | 1.6617     |  30.1 | 72.57
Neigh   | 0          | 0          | 0          |   0.0 |  0.00
Comm    | 0.029812   | 0.2862     | 0.87914    |  45.4 | 16.23
Output  | 0          | 0          | 0          |   0.0 |  0.00
Modify  | 1.8792e-05 | 0.0025076  | 0.0053589  |   2.4 |  0.14
Other   |            | 0.1951     |            |       | 11.06

Nlocal:        2776.45 ave        3956 max           0 min
Histogram: 8 4 4 0 4 12 8 0 30 34
Nghost:        3878.88 ave        5425 max         232 min
Histogram: 8 0 8 0 16 0 8 8 16 40
Neighs:        79213.6 ave      115315 max           0 min
Histogram: 8 4 4 0 10 6 8 8 24 32

Total # of neighbors = 8238212
Ave neighs/atom = 28.530506
Neighbor list builds = 0
Dangerous builds = 0
The dot product: 2.79442920079836e-08
Setting atom values ...
  1 settings made for x
  1 settings made for y
  1 settings made for z
Setting up cg style minimization ...
  Unit style    : metal
  Current step  : 6406
Per MPI rank memory allocation (min/avg/max) = 5.441 | 5.816 | 6.074 Mbytes
Step PotEng KinEng TotEng v_fx v_fy v_fz 
    6406   -1152448.7            0   -1152448.7  0.013654779  0.001881013 -0.016031777 
    6607   -1152448.7            0   -1152448.7 -6.9269459e-06 -3.6552165e-06 7.9428116e-06 
Loop time of 2.33458 on 104 procs for 201 steps with 288751 atoms

99.9% CPU use with 104 MPI tasks x 1 OpenMP threads

Minimization stats:
  Stopping criterion = energy tolerance
  Energy initial, next-to-last, final = 
     -1152448.71320464  -1152448.71499445  -1152448.71499445
  Force two-norm initial, final = 0.18167358 0.00014967658
  Force max component initial, final = 0.15186045 1.9528644e-05
  Final line search alpha, max atom move = 1.0000000 1.9528644e-05
  Iterations, force evaluations = 201 402

MPI task timing breakdown:
Section |  min time  |  avg time  |  max time  |%varavg| %total
---------------------------------------------------------------
Pair    | 0.61299    | 1.6989     | 2.2087     |  34.9 | 72.77
Neigh   | 0          | 0          | 0          |   0.0 |  0.00
Comm    | 0.034734   | 0.37965    | 1.1612     |  52.4 | 16.26
Output  | 0          | 0          | 0          |   0.0 |  0.00
Modify  | 2.4585e-05 | 0.0033139  | 0.0071057  |   2.7 |  0.14
Other   |            | 0.2527     |            |       | 10.83

Nlocal:        2776.45 ave        3955 max           0 min
Histogram: 8 4 4 0 4 12 8 0 30 34
Nghost:        3878.86 ave        5425 max         232 min
Histogram: 8 0 8 0 16 0 8 8 16 40
Neighs:        79213.6 ave      115277 max           0 min
Histogram: 8 4 4 0 10 6 8 8 24 32

Total # of neighbors = 8238212
Ave neighs/atom = 28.530506
Neighbor list builds = 0
Dangerous builds = 0
The dot product: 1.19219580172465e-08
Setting atom values ...
  1 settings made for x
  1 settings made for y
  1 settings made for z
Setting up cg style minimization ...
  Unit style    : metal
  Current step  : 6607
Per MPI rank memory allocation (min/avg/max) = 5.441 | 5.816 | 6.074 Mbytes
Step PotEng KinEng TotEng v_fx v_fy v_fz 
    6607   -1152448.7            0   -1152448.7  0.015533435 0.0025518446 -0.018159055 
    6766   -1152448.7            0   -1152448.7 -1.2813234e-05 -8.5567818e-08 1.5124671e-05 
Loop time of 1.83929 on 104 procs for 159 steps with 288751 atoms

99.9% CPU use with 104 MPI tasks x 1 OpenMP threads

Minimization stats:
  Stopping criterion = energy tolerance
  Energy initial, next-to-last, final = 
      -1152448.6738304  -1152448.67557416  -1152448.67557416
  Force two-norm initial, final = 0.18055776 0.0001540387
  Force max component initial, final = 0.1518843 1.5124671e-05
  Final line search alpha, max atom move = 1.0000000 1.5124671e-05
  Iterations, force evaluations = 159 318

MPI task timing breakdown:
Section |  min time  |  avg time  |  max time  |%varavg| %total
---------------------------------------------------------------
Pair    | 0.48752    | 1.3354     | 1.7373     |  31.1 | 72.60
Neigh   | 0          | 0          | 0          |   0.0 |  0.00
Comm    | 0.027303   | 0.29972    | 0.91123    |  46.4 | 16.30
Output  | 0          | 0          | 0          |   0.0 |  0.00
Modify  | 1.9718e-05 | 0.0026193  | 0.0056076  |   2.4 |  0.14
Other   |            | 0.2016     |            |       | 10.96

Nlocal:        2776.45 ave        3956 max           0 min
Histogram: 8 4 4 0 4 12 8 0 30 34
Nghost:        3878.84 ave        5425 max         232 min
Histogram: 8 0 8 0 16 0 8 8 16 40
Neighs:        79213.5 ave      115312 max           0 min
Histogram: 8 4 4 0 10 6 8 8 24 32

Total # of neighbors = 8238205
Ave neighs/atom = 28.530481
Neighbor list builds = 0
Dangerous builds = 0
The dot product: -5.99912840947927e-09
Setting atom values ...
  1 settings made for x
  1 settings made for y
  1 settings made for z
Setting up cg style minimization ...
  Unit style    : metal
  Current step  : 6766
Per MPI rank memory allocation (min/avg/max) = 5.441 | 5.816 | 6.074 Mbytes
Step PotEng KinEng TotEng v_fx v_fy v_fz 
    6766   -1152448.6            0   -1152448.6  0.018291613 0.0037684181  -0.02133829 
    6973   -1152448.6            0   -1152448.6 1.395986e-06 5.0987048e-06 -1.2701952e-06 
Loop time of 2.39599 on 104 procs for 207 steps with 288751 atoms

99.9% CPU use with 104 MPI tasks x 1 OpenMP threads

Minimization stats:
  Stopping criterion = energy tolerance
  Energy initial, next-to-last, final = 
      -1152448.6340786  -1152448.63606553  -1152448.63606553
  Force two-norm initial, final = 0.17965149 0.00014107997
  Force max component initial, final = 0.15169361 2.0710638e-05
  Final line search alpha, max atom move = 1.0000000 2.0710638e-05
  Iterations, force evaluations = 207 414

MPI task timing breakdown:
Section |  min time  |  avg time  |  max time  |%varavg| %total
---------------------------------------------------------------
Pair    | 0.63216    | 1.7423     | 2.2713     |  35.4 | 72.72
Neigh   | 0          | 0          | 0          |   0.0 |  0.00
Comm    | 0.035912   | 0.38788    | 1.1793     |  53.4 | 16.19
Output  | 0          | 0          | 0          |   0.0 |  0.00
Modify  | 2.613e-05  | 0.0034134  | 0.0072938  |   2.8 |  0.14
Other   |            | 0.2624     |            |       | 10.95

Nlocal:        2776.45 ave        3956 max           0 min
Histogram: 8 4 4 0 4 12 8 0 30 34
Nghost:        3878.84 ave        5425 max         232 min
Histogram: 8 0 8 0 16 0 8 8 16 40
Neighs:        79213.5 ave      115311 max           0 min
Histogram: 8 4 4 0 10 6 8 8 24 32

Total # of neighbors = 8238200
Ave neighs/atom = 28.530464
Neighbor list builds = 0
Dangerous builds = 0
The dot product: -6.5208016539534e-09
Setting atom values ...
  1 settings made for x
  1 settings made for y
  1 settings made for z
Setting up cg style minimization ...
  Unit style    : metal
  Current step  : 6973
Per MPI rank memory allocation (min/avg/max) = 5.441 | 5.816 | 6.074 Mbytes
Step PotEng KinEng TotEng v_fx v_fy v_fz 
    6973   -1152448.6            0   -1152448.6  0.020951315 0.0014208595 -0.024700705 
    7000   -1152448.6            0   -1152448.6 0.00038132083 0.00016255324 -0.00043892515 
    7162   -1152448.6            0   -1152448.6 -2.56567e-05 -3.5155598e-06 3.0109997e-05 
Loop time of 2.22087 on 104 procs for 189 steps with 288751 atoms

99.9% CPU use with 104 MPI tasks x 1 OpenMP threads

Minimization stats:
  Stopping criterion = energy tolerance
  Energy initial, next-to-last, final = 
     -1152448.59530206  -1152448.59744586  -1152448.59744586
  Force two-norm initial, final = 0.17781064 0.00021945348
  Force max component initial, final = 0.14923605 3.3099811e-05
  Final line search alpha, max atom move = 1.0000000 3.3099811e-05
  Iterations, force evaluations = 189 378

MPI task timing breakdown:
Section |  min time  |  avg time  |  max time  |%varavg| %total
---------------------------------------------------------------
Pair    | 0.5768     | 1.5923     | 2.0919     |  34.2 | 71.70
Neigh   | 0          | 0          | 0          |   0.0 |  0.00
Comm    | 0.032614   | 0.36306    | 1.0866     |  49.9 | 16.35
Output  | 0.00015452 | 0.00016032 | 0.00024045 |   0.0 |  0.01
Modify  | 2.3239e-05 | 0.0031198  | 0.0066579  |   2.6 |  0.14
Other   |            | 0.2622     |            |       | 11.81

Nlocal:        2776.45 ave        3956 max           0 min
Histogram: 8 4 4 0 4 12 8 0 30 34
Nghost:        3878.80 ave        5425 max         232 min
Histogram: 8 0 8 0 16 0 8 8 16 40
Neighs:        79213.5 ave      115307 max           0 min
Histogram: 8 4 4 0 10 6 8 8 24 32

Total # of neighbors = 8238205
Ave neighs/atom = 28.530481
Neighbor list builds = 0
Dangerous builds = 0
The dot product: -1.75914165716522e-08
Setting atom values ...
  1 settings made for x
  1 settings made for y
  1 settings made for z
Setting up cg style minimization ...
  Unit style    : metal
  Current step  : 7162
Per MPI rank memory allocation (min/avg/max) = 5.441 | 5.816 | 6.074 Mbytes
Step PotEng KinEng TotEng v_fx v_fy v_fz 
    7162   -1152448.6            0   -1152448.6  0.021987537 -0.00050454576 -0.026122474 
    7414   -1152448.6            0   -1152448.6 1.0434697e-05 1.7107627e-06 -1.2237596e-05 
Loop time of 2.94569 on 104 procs for 252 steps with 288751 atoms

99.9% CPU use with 104 MPI tasks x 1 OpenMP threads

Minimization stats:
  Stopping criterion = energy tolerance
  Energy initial, next-to-last, final = 
     -1152448.55834064  -1152448.57009292  -1152448.57009292
  Force two-norm initial, final = 0.18451907 6.1694633e-05
  Force max component initial, final = 0.14662507 1.5897022e-05
  Final line search alpha, max atom move = 1.0000000 1.5897022e-05
  Iterations, force evaluations = 252 504

MPI task timing breakdown:
Section |  min time  |  avg time  |  max time  |%varavg| %total
---------------------------------------------------------------
Pair    | 0.77649    | 2.1257     | 2.7844     |  39.0 | 72.16
Neigh   | 1.0258e-05 | 0.0029669  | 0.0043039  |   2.2 |  0.10
Comm    | 0.043108   | 0.4843     | 1.4622     |  57.9 | 16.44
Output  | 0          | 0          | 0          |   0.0 |  0.00
Modify  | 3.119e-05  | 0.0041468  | 0.0088557  |   3.0 |  0.14
Other   |            | 0.3285     |            |       | 11.15

Nlocal:        2776.45 ave        3956 max           0 min
Histogram: 8 4 4 0 4 12 8 0 30 34
Nghost:        3878.85 ave        5425 max         232 min
Histogram: 8 0 8 0 16 0 8 8 16 40
Neighs:        79213.4 ave      115308 max           0 min
Histogram: 8 4 4 0 10 6 8 8 24 32

Total # of neighbors = 8238195
Ave neighs/atom = 28.530447
Neighbor list builds = 1
Dangerous builds = 0
The dot product: -2.29640319156583e-07
Setting atom values ...
  1 settings made for x
  1 settings made for y
  1 settings made for z
Setting up cg style minimization ...
  Unit style    : metal
  Current step  : 7414
Per MPI rank memory allocation (min/avg/max) = 5.441 | 5.816 | 6.074 Mbytes
Step PotEng KinEng TotEng v_fx v_fy v_fz 
    7414   -1152448.5            0   -1152448.5  0.014534227 0.0020523282 -0.016446883 
    7768   -1152448.5            0   -1152448.5 2.667075e-05 3.5289155e-06 -3.0200684e-05 
[...]
Histogram: 8 0 8 0 16 0 8 8 16 40
Neighs:        79213.2 ave      115462 max           0 min
Histogram: 8 4 4 0 10 6 8 8 24 32

Total # of neighbors = 8238174
Ave neighs/atom = 28.530374
Neighbor list builds = 0
Dangerous builds = 0
The dot product: 3.50338397799201e-09
Setting atom values ...
  1 settings made for x
  1 settings made for y
  1 settings made for z
Setting up cg style minimization ...
  Unit style    : metal
  Current step  : 27474
Per MPI rank memory allocation (min/avg/max) = 5.441 | 5.816 | 6.074 Mbytes
Step PotEng KinEng TotEng v_fx v_fy v_fz 
   27474   -1152449.1            0   -1152449.1 -0.0009123706  0.007279275 0.0096832999 
   27610   -1152449.1            0   -1152449.1 -6.9230119e-06 8.6192375e-06 1.5661045e-05 
Loop time of 1.58339 on 104 procs for 136 steps with 288751 atoms

99.9% CPU use with 104 MPI tasks x 1 OpenMP threads

Minimization stats:
  Stopping criterion = energy tolerance
  Energy initial, next-to-last, final = 
     -1152449.10685251   -1152449.1082115   -1152449.1082115
  Force two-norm initial, final = 0.16203096 0.00026291357
  Force max component initial, final = 0.094535479 1.5661045e-05
  Final line search alpha, max atom move = 1.0000000 1.5661045e-05
  Iterations, force evaluations = 136 272

MPI task timing breakdown:
Section |  min time  |  avg time  |  max time  |%varavg| %total
---------------------------------------------------------------
Pair    | 0.41551    | 1.1439     | 1.4939     |  28.7 | 72.24
Neigh   | 0          | 0          | 0          |   0.0 |  0.00
Comm    | 0.023314   | 0.25589    | 0.77226    |  42.6 | 16.16
Output  | 0          | 0          | 0          |   0.0 |  0.00
Modify  | 1.6434e-05 | 0.0022455  | 0.004778   |   2.2 |  0.14
Other   |            | 0.1814     |            |       | 11.45

Nlocal:        2776.45 ave        3961 max           0 min
Histogram: 8 4 4 0 6 10 8 4 26 34
Nghost:        3879.11 ave        5425 max         232 min
Histogram: 8 0 8 0 16 0 8 8 16 40
Neighs:        79213.2 ave      115462 max           0 min
Histogram: 8 4 4 0 10 6 8 8 24 32

Total # of neighbors = 8238172
Ave neighs/atom = 28.530367
Neighbor list builds = 0
Dangerous builds = 0
The dot product: 2.11481254558897e-08
Setting atom values ...
  1 settings made for x
  1 settings made for y
  1 settings made for z
Setting up cg style minimization ...
  Unit style    : metal
  Current step  : 27610
Per MPI rank memory allocation (min/avg/max) = 5.441 | 5.816 | 6.074 Mbytes
Step PotEng KinEng TotEng v_fx v_fy v_fz 
   27610   -1152449.1            0   -1152449.1 -0.0010740275 0.0061508955 0.0084091094 
   27781   -1152449.1            0   -1152449.1 -2.3010736e-05 3.7057921e-06 2.1119213e-05 
Loop time of 1.98322 on 104 procs for 171 steps with 288751 atoms

99.9% CPU use with 104 MPI tasks x 1 OpenMP threads

Minimization stats:
  Stopping criterion = energy tolerance
  Energy initial, next-to-last, final = 
     -1152449.08706239  -1152449.08845921  -1152449.08845921
  Force two-norm initial, final = 0.16180243 0.00015203716
  Force max component initial, final = 0.095345837 4.4445856e-05
  Final line search alpha, max atom move = 1.0000000 4.4445856e-05
  Iterations, force evaluations = 171 342

MPI task timing breakdown:
Section |  min time  |  avg time  |  max time  |%varavg| %total
---------------------------------------------------------------
Pair    | 0.52419    | 1.4391     | 1.8803     |  32.4 | 72.56
Neigh   | 0          | 0          | 0          |   0.0 |  0.00
Comm    | 0.036436   | 0.32358    | 0.97444    |  48.0 | 16.32
Output  | 0          | 0          | 0          |   0.0 |  0.00
Modify  | 2.049e-05  | 0.0028231  | 0.0060229  |   2.5 |  0.14
Other   |            | 0.2177     |            |       | 10.98

Nlocal:        2776.45 ave        3961 max           0 min
Histogram: 8 4 4 0 6 10 8 4 26 34
Nghost:        3879.11 ave        5425 max         232 min
Histogram: 8 0 8 0 16 0 8 8 16 40
Neighs:        79213.2 ave      115462 max           0 min
Histogram: 8 4 4 0 10 6 8 8 24 32

Total # of neighbors = 8238172
Ave neighs/atom = 28.530367
Neighbor list builds = 0
Dangerous builds = 0
The dot product: -4.21869366242449e-09
Setting atom values ...
  1 settings made for x
  1 settings made for y
  1 settings made for z
Setting up cg style minimization ...
  Unit style    : metal
  Current step  : 27781
Per MPI rank memory allocation (min/avg/max) = 5.441 | 5.816 | 6.074 Mbytes
Step PotEng KinEng TotEng v_fx v_fy v_fz 
   27781   -1152449.1            0   -1152449.1 -0.0012058129  0.005196355 0.0073258251 
   27950   -1152449.1            0   -1152449.1 5.2156706e-05 -4.9013318e-06 -4.3514576e-05 
Loop time of 1.95689 on 104 procs for 169 steps with 288751 atoms

99.9% CPU use with 104 MPI tasks x 1 OpenMP threads

Minimization stats:
  Stopping criterion = energy tolerance
  Energy initial, next-to-last, final = 
     -1152449.06626595  -1152449.06765217  -1152449.06765217
  Force two-norm initial, final = 0.16183334 0.00018707847
  Force max component initial, final = 0.096133013 5.2156706e-05
  Final line search alpha, max atom move = 1.0000000 5.2156706e-05
  Iterations, force evaluations = 169 338

MPI task timing breakdown:
Section |  min time  |  avg time  |  max time  |%varavg| %total
---------------------------------------------------------------
Pair    | 0.51599    | 1.417      | 1.8541     |  32.1 | 72.41
Neigh   | 0          | 0          | 0          |   0.0 |  0.00
Comm    | 0.0292     | 0.31654    | 0.95055    |  47.6 | 16.18
Output  | 0          | 0          | 0          |   0.0 |  0.00
Modify  | 2.072e-05  | 0.0027888  | 0.0059427  |   2.5 |  0.14
Other   |            | 0.2206     |            |       | 11.27

Nlocal:        2776.45 ave        3961 max           0 min
Histogram: 8 4 4 0 6 10 8 4 26 34
Nghost:        3879.11 ave        5425 max         232 min
Histogram: 8 0 8 0 16 0 8 8 16 40
Neighs:        79213.2 ave      115467 max           0 min
Histogram: 8 4 4 0 10 6 8 8 24 32

Total # of neighbors = 8238171
Ave neighs/atom = 28.530364
Neighbor list builds = 0
Dangerous builds = 0
The dot product: 1.65800431721524e-08
Setting atom values ...
  1 settings made for x
  1 settings made for y
  1 settings made for z
Setting up cg style minimization ...
  Unit style    : metal
  Current step  : 27950
Per MPI rank memory allocation (min/avg/max) = 5.441 | 5.816 | 6.074 Mbytes
Step PotEng KinEng TotEng v_fx v_fy v_fz 
   27950     -1152449            0     -1152449 -0.0011107925 0.0042996405 0.0061482467 
   28000     -1152449            0     -1152449 -0.00011767125 2.2478459e-05 0.00011236794 
   28141     -1152449            0     -1152449 -1.8653682e-06 -1.1774805e-06 -1.2779536e-07 
Loop time of 2.21885 on 104 procs for 191 steps with 288751 atoms

99.9% CPU use with 104 MPI tasks x 1 OpenMP threads

Minimization stats:
  Stopping criterion = energy tolerance
  Energy initial, next-to-last, final = 
     -1152449.04430936  -1152449.04566246  -1152449.04566246
  Force two-norm initial, final = 0.16192967 8.5783126e-05
  Force max component initial, final = 0.096814463 1.8974312e-05
  Final line search alpha, max atom move = 1.0000000 1.8974312e-05
  Iterations, force evaluations = 191 382

MPI task timing breakdown:
Section |  min time  |  avg time  |  max time  |%varavg| %total
---------------------------------------------------------------
Pair    | 0.58333    | 1.6064     | 2.1032     |  34.3 | 72.40
Neigh   | 0          | 0          | 0          |   0.0 |  0.00
Comm    | 0.033224   | 0.3651     | 1.1148     |  50.2 | 16.45
Output  | 9.6109e-05 | 0.00010622 | 0.00021858 |   0.0 |  0.00
Modify  | 2.2997e-05 | 0.0031512  | 0.0066861  |   2.6 |  0.14
Other   |            | 0.2441     |            |       | 11.00

Nlocal:        2776.45 ave        3960 max           0 min
Histogram: 8 4 4 0 4 12 8 4 26 34
Nghost:        3879.14 ave        5425 max         232 min
Histogram: 8 0 8 0 16 0 8 8 16 40
Neighs:        79213.2 ave      115442 max           0 min
Histogram: 8 4 4 0 10 6 8 8 24 32

Total # of neighbors = 8238170
Ave neighs/atom = 28.530360
Neighbor list builds = 0
Dangerous builds = 0
The dot product: -3.35357397182343e-09
Setting atom values ...
  1 settings made for x
  1 settings made for y
  1 settings made for z
Setting up cg style minimization ...
  Unit style    : metal
  Current step  : 28141
Per MPI rank memory allocation (min/avg/max) = 5.441 | 5.816 | 6.074 Mbytes
Step PotEng KinEng TotEng v_fx v_fy v_fz 
   28141     -1152449            0     -1152449 -0.00084883294 0.0035217693 0.0049958179 
   28383     -1152449            0     -1152449 -3.6505234e-06 2.7079605e-07 2.9543388e-06 
Loop time of 2.80399 on 104 procs for 242 steps with 288751 atoms

99.9% CPU use with 104 MPI tasks x 1 OpenMP threads

Minimization stats:
  Stopping criterion = energy tolerance
  Energy initial, next-to-last, final = 
     -1152449.02104967  -1152449.02238228  -1152449.02238228
  Force two-norm initial, final = 0.16219407 1.2142372e-05
  Force max component initial, final = 0.097484971 3.6505234e-06
  Final line search alpha, max atom move = 1.0000000 3.6505234e-06
  Iterations, force evaluations = 242 484

MPI task timing breakdown:
Section |  min time  |  avg time  |  max time  |%varavg| %total
---------------------------------------------------------------
Pair    | 0.74003    | 2.0292     | 2.6528     |  38.5 | 72.37
Neigh   | 0          | 0          | 0          |   0.0 |  0.00
Comm    | 0.041823   | 0.45525    | 1.3721     |  56.9 | 16.24
Output  | 0          | 0          | 0          |   0.0 |  0.00
Modify  | 2.9376e-05 | 0.0039922  | 0.0084896  |   3.0 |  0.14
Other   |            | 0.3156     |            |       | 11.25

Nlocal:        2776.45 ave        3960 max           0 min
Histogram: 8 4 4 0 4 12 8 4 26 34
Nghost:        3879.16 ave        5425 max         232 min
Histogram: 8 0 8 0 16 0 8 8 16 40
Neighs:        79213.2 ave      115444 max           0 min
Histogram: 8 4 4 0 10 6 8 8 24 32

Total # of neighbors = 8238171
Ave neighs/atom = 28.530364
Neighbor list builds = 0
Dangerous builds = 0
The dot product: -1.67411360739624e-09
Setting atom values ...
  1 settings made for x
  1 settings made for y
  1 settings made for z
Setting up cg style minimization ...
  Unit style    : metal
  Current step  : 28383
Per MPI rank memory allocation (min/avg/max) = 5.441 | 5.816 | 6.074 Mbytes
Step PotEng KinEng TotEng v_fx v_fy v_fz 
   28383     -1152449            0     -1152449 -0.00024361529 0.0028483071 0.0037254735 
   28567     -1152449            0     -1152449 -4.0461022e-06 4.2406391e-06 8.185987e-06 
Loop time of 2.19437 on 104 procs for 184 steps with 288751 atoms

99.9% CPU use with 104 MPI tasks x 1 OpenMP threads

Minimization stats:
  Stopping criterion = energy tolerance
  Energy initial, next-to-last, final = 
     -1152448.99639833  -1152448.99771279  -1152448.99771279
  Force two-norm initial, final = 0.16262263 0.00011918917
  Force max component initial, final = 0.098089097 3.2493432e-05
  Final line search alpha, max atom move = 1.0000000 3.2493432e-05
  Iterations, force evaluations = 184 368

MPI task timing breakdown:
Section |  min time  |  avg time  |  max time  |%varavg| %total
---------------------------------------------------------------
Pair    | 0.56615    | 1.5564     | 2.0412     |  33.5 | 70.93
Neigh   | 0          | 0          | 0          |   0.0 |  0.00
Comm    | 0.046649   | 0.35591    | 1.0548     |  48.4 | 16.22
Output  | 0          | 0          | 0          |   0.0 |  0.00
Modify  | 2.3346e-05 | 0.0030404  | 0.0064683  |   2.6 |  0.14
Other   |            | 0.279      |            |       | 12.72

Nlocal:        2776.45 ave        3960 max           0 min
Histogram: 8 4 4 0 4 12 8 4 26 34
Nghost:        3879.18 ave        5425 max         232 min
Histogram: 8 0 8 0 16 0 8 8 16 40
Neighs:        79213.2 ave      115446 max           0 min
Histogram: 8 4 4 0 10 6 8 8 24 32

Total # of neighbors = 8238173
Ave neighs/atom = 28.530370
Neighbor list builds = 0
Dangerous builds = 0
The dot product: 2.10314189205509e-09
Setting atom values ...
  1 settings made for x
  1 settings made for y
  1 settings made for z
Setting up cg style minimization ...
  Unit style    : metal
  Current step  : 28567
Per MPI rank memory allocation (min/avg/max) = 5.441 | 5.816 | 6.074 Mbytes
Step PotEng KinEng TotEng v_fx v_fy v_fz 
   28567     -1152449            0     -1152449 0.00056609077   0.00225935 0.0024127811 
   28731     -1152449            0     -1152449 -2.1049404e-05 1.7516363e-07 1.5292877e-05 
Loop time of 1.90496 on 104 procs for 164 steps with 288751 atoms

99.9% CPU use with 104 MPI tasks x 1 OpenMP threads

Minimization stats:
  Stopping criterion = energy tolerance
  Energy initial, next-to-last, final = 
     -1152448.97025464  -1152448.97155447  -1152448.97155447
  Force two-norm initial, final = 0.16325992 0.00027108281
  Force max component initial, final = 0.098649487 6.7041115e-05
  Final line search alpha, max atom move = 1.0000000 6.7041115e-05
  Iterations, force evaluations = 164 328

MPI task timing breakdown:
Section |  min time  |  avg time  |  max time  |%varavg| %total
---------------------------------------------------------------
Pair    | 0.50224    | 1.3766     | 1.802      |  31.6 | 72.26
Neigh   | 0          | 0          | 0          |   0.0 |  0.00
Comm    | 0.028111   | 0.30801    | 0.93112    |  46.9 | 16.17
Output  | 0          | 0          | 0          |   0.0 |  0.00
Modify  | 2.0088e-05 | 0.002714   | 0.0057774  |   2.5 |  0.14
Other   |            | 0.2177     |            |       | 11.43

Nlocal:        2776.45 ave        3960 max           0 min
Histogram: 8 4 4 0 4 12 8 4 26 34
Nghost:        3879.14 ave        5425 max         232 min
Histogram: 8 0 8 0 16 0 8 8 16 40
Neighs:        79213.2 ave      115444 max           0 min
Histogram: 8 4 4 0 10 6 8 8 24 32

Total # of neighbors = 8238171
Ave neighs/atom = 28.530364
Neighbor list builds = 0
Dangerous builds = 0
The dot product: -2.18316162796224e-08
Setting atom values ...
  1 settings made for x
  1 settings made for y
  1 settings made for z
Setting up cg style minimization ...
  Unit style    : metal
  Current step  : 28731
Per MPI rank memory allocation (min/avg/max) = 5.441 | 5.816 | 6.074 Mbytes
Step PotEng KinEng TotEng v_fx v_fy v_fz 
   28731   -1152448.9            0   -1152448.9 0.0013970076 0.0017423424 0.0011743577 
   28929   -1152448.9            0   -1152448.9 1.1306635e-05 -1.2101251e-06 -9.6008152e-06 
Loop time of 2.29447 on 104 procs for 198 steps with 288751 atoms

99.9% CPU use with 104 MPI tasks x 1 OpenMP threads

Minimization stats:
  Stopping criterion = energy tolerance
  Energy initial, next-to-last, final = 
     -1152448.94252695  -1152448.94382146  -1152448.94382146
  Force two-norm initial, final = 0.16419394 8.9693849e-05
  Force max component initial, final = 0.099309738 1.2010863e-05
  Final line search alpha, max atom move = 1.0000000 1.2010863e-05
  Iterations, force evaluations = 198 396

MPI task timing breakdown:
Section |  min time  |  avg time  |  max time  |%varavg| %total
---------------------------------------------------------------
Pair    | 0.60508    | 1.6656     | 2.1744     |  34.9 | 72.59
Neigh   | 0          | 0          | 0          |   0.0 |  0.00
Comm    | 0.040559   | 0.37569    | 1.1294     |  51.7 | 16.37
Output  | 0          | 0          | 0          |   0.0 |  0.00
Modify  | 2.4525e-05 | 0.003271   | 0.0069495  |   2.7 |  0.14
Other   |            | 0.2499     |            |       | 10.89

Nlocal:        2776.45 ave        3960 max           0 min
Histogram: 8 4 4 0 4 12 8 4 26 34
Nghost:        3879.15 ave        5426 max         232 min
Histogram: 8 0 8 0 16 0 8 8 16 40
Neighs:        79213.2 ave      115443 max           0 min
Histogram: 8 4 4 0 10 6 8 8 24 32

Total # of neighbors = 8238172
Ave neighs/atom = 28.530367
Neighbor list builds = 0
Dangerous builds = 0
The dot product: 1.40918711539002e-08
Setting atom values ...
  1 settings made for x
  1 settings made for y
  1 settings made for z
Setting up cg style minimization ...
  Unit style    : metal
  Current step  : 28929
Per MPI rank memory allocation (min/avg/max) = 5.441 | 5.816 | 6.074 Mbytes
Step PotEng KinEng TotEng v_fx v_fy v_fz 
   28929   -1152448.9            0   -1152448.9 0.0020957579 0.0012889405 0.00011030851 
   29000   -1152448.9            0   -1152448.9 -0.00015548493 8.1356614e-05 0.00021268742 
   29112   -1152448.9            0   -1152448.9 8.9109958e-06 1.7221157e-05 1.512112e-05 
Loop time of 2.1287 on 104 procs for 183 steps with 288751 atoms

99.9% CPU use with 104 MPI tasks x 1 OpenMP threads

Minimization stats:
  Stopping criterion = energy tolerance
  Energy initial, next-to-last, final = 
     -1152448.91314694  -1152448.91444063  -1152448.91444063
  Force two-norm initial, final = 0.1652016 0.00013301555
  Force max component initial, final = 0.099765081 1.9714648e-05
  Final line search alpha, max atom move = 1.0000000 1.9714648e-05
  Iterations, force evaluations = 183 366

MPI task timing breakdown:
Section |  min time  |  avg time  |  max time  |%varavg| %total
---------------------------------------------------------------
Pair    | 0.56104    | 1.5348     | 2.0104     |  33.4 | 72.10
Neigh   | 0          | 0          | 0          |   0.0 |  0.00
Comm    | 0.031995   | 0.34329    | 1.0363     |  49.5 | 16.13
Output  | 9.6324e-05 | 9.9094e-05 | 0.0002356  |   0.0 |  0.00
Modify  | 2.2388e-05 | 0.0030318  | 0.0064905  |   2.6 |  0.14
Other   |            | 0.2474     |            |       | 11.62

Nlocal:        2776.45 ave        3960 max           0 min
Histogram: 8 4 4 0 4 12 8 4 26 34
Nghost:        3879.08 ave        5426 max         232 min
Histogram: 8 0 8 0 16 0 8 8 16 40
Neighs:        79213.2 ave      115445 max           0 min
Histogram: 8 4 4 0 10 6 8 8 24 32

Total # of neighbors = 8238170
Ave neighs/atom = 28.530360
Neighbor list builds = 0
Dangerous builds = 0
The dot product: 1.56818851142494e-08
Setting atom values ...
  1 settings made for x
  1 settings made for y
  1 settings made for z
Setting up cg style minimization ...
  Unit style    : metal
  Current step  : 29112
Per MPI rank memory allocation (min/avg/max) = 5.441 | 5.816 | 6.074 Mbytes
Step PotEng KinEng TotEng v_fx v_fy v_fz 
   29112   -1152448.9            0   -1152448.9 0.0023592765 0.00091193687 -0.00054671221 
   29278   -1152448.9            0   -1152448.9 2.3291204e-05 3.3205666e-05 2.4809558e-05 
Loop time of 1.92821 on 104 procs for 166 steps with 288751 atoms

99.9% CPU use with 104 MPI tasks x 1 OpenMP threads

Minimization stats:
  Stopping criterion = energy tolerance
  Energy initial, next-to-last, final = 
     -1152448.88205359  -1152448.88334966  -1152448.88334966
  Force two-norm initial, final = 0.16635701 0.00030540857
  Force max component initial, final = 0.10024661 8.8366903e-05
  Final line search alpha, max atom move = 1.0000000 8.8366903e-05
  Iterations, force evaluations = 166 332

MPI task timing breakdown:
Section |  min time  |  avg time  |  max time  |%varavg| %total
---------------------------------------------------------------
Pair    | 0.50916    | 1.4005     | 1.8259     |  31.9 | 72.63
Neigh   | 0          | 0          | 0          |   0.0 |  0.00
Comm    | 0.037272   | 0.31322    | 0.94487    |  47.5 | 16.24
Output  | 0          | 0          | 0          |   0.0 |  0.00
Modify  | 2.0104e-05 | 0.0027451  | 0.0058852  |   2.5 |  0.14
Other   |            | 0.2117     |            |       | 10.98

Nlocal:        2776.45 ave        3960 max           0 min
Histogram: 8 4 4 0 4 12 8 4 26 34
Nghost:        3879.06 ave        5426 max         232 min
Histogram: 8 0 8 0 16 0 8 8 16 40
Neighs:        79213.2 ave      115444 max           0 min
Histogram: 8 4 4 0 10 6 8 8 24 32

Total # of neighbors = 8238169
Ave neighs/atom = 28.530357
Neighbor list builds = 0
Dangerous builds = 0
The dot product: 3.52833544685531e-08
