LAMMPS (29 Oct 2020)
OMP_NUM_THREADS environment is not set. Defaulting to 1 thread. (../comm.cpp:94)
  using 1 OpenMP thread(s) per MPI task
########
#
########
variable                delta             equal     0.02 # the step size should be larger otherwise the number of
#the energy minimum sites is smaller
variable                iter_tot          equal     150

label                   loop
variable                seed              loop     312 319 #20 simulations
variable                iteration         loop      ${iter_tot} #The maximum ietration number per random direction
variable                iteration         loop      150 
clear
OMP_NUM_THREADS environment is not set. Defaulting to 1 thread. (../comm.cpp:94)
  using 1 OpenMP thread(s) per MPI task
units                   metal
atom_style              atomic
dimension                   3
boundary                p p p
atom_modify             map array sort 0 0.0

read_data               poslmp_carbon.dat
Reading data file ...
  orthogonal box = (-122.39241 -121.13707 -37.090501) to (122.39241 121.13707 37.090501)
  13 by 4 by 2 MPI processor grid
  reading atoms ...
  288751 atoms
  read_data CPU = 0.462 seconds

variable                zmax     equal    zhi
variable                zmin     equal    zlo

region                  inner   cylinder   z  1.16564  0.67298333  100.0  ${zmin}  ${zmax}  units  box
region                  inner   cylinder   z  1.16564  0.67298333  100.0  -37.0905005093422  ${zmax}  units  box
region                  inner   cylinder   z  1.16564  0.67298333  100.0  -37.0905005093422  37.0905005093422  units  box
group                   inner   region     inner
199981 atoms in group inner
group                   outer   subtract   all  inner
88770 atoms in group outer
group                   carbon  type       2
1 atoms in group carbon

pair_style              eam/alloy
pair_coeff              * * FeC-Becquart2013.eam.txt Fe C
neighbor                0.3 bin
neigh_modify            delay 0 check yes every 1

compute                 force     carbon   reduce  sum  fx fy fz
variable                fx    equal    c_force[1]
variable                fy    equal    c_force[2]
variable                fz    equal    c_force[3]

fix                     force    outer    setforce      0.0 0.0 0.0
thermo_style            custom   step     v_fx v_fy v_fz pe ke etotal
min_style               cg
minimize                1.0e-30 1.0e-30 10000 10000
Neighbor list info ...
  update every 1 steps, delay 0 steps, check yes
  max neighbors/atom: 2000, page size: 100000
  master list distance cutoff = 5.6
  ghost atom cutoff = 5.6
  binsize = 2.8, bins = 88 87 27
  1 neighbor lists, perpetual/occasional/extra = 1 0 0
  (1) pair eam/alloy, perpetual
      attributes: half, newton on
      pair build: half/bin/atomonly/newton
      stencil: half/bin/3d/newton
      bin: standard
Per MPI rank memory allocation (min/avg/max) = 5.441 | 5.816 | 6.074 Mbytes
Step v_fx v_fy v_fz PotEng KinEng TotEng 
       0    0.3224723  -0.48422844  -0.49269377   -1152447.8            0   -1152447.8 
     193 -2.3925691e-06 3.9311719e-07 -3.972997e-06   -1152449.5            0   -1152449.5 
Loop time of 2.26521 on 104 procs for 193 steps with 288751 atoms

99.8% CPU use with 104 MPI tasks x 1 OpenMP threads

Minimization stats:
  Stopping criterion = energy tolerance
  Energy initial, next-to-last, final = 
     -1152447.84698339  -1152449.45035286  -1152449.45035286
  Force two-norm initial, final = 9.7882989 2.1424051e-05
  Force max component initial, final = 5.2457620 3.9729970e-06
  Final line search alpha, max atom move = 1.0000000 3.9729970e-06
  Iterations, force evaluations = 193 385

MPI task timing breakdown:
Section |  min time  |  avg time  |  max time  |%varavg| %total
---------------------------------------------------------------
Pair    | 0.60329    | 1.6232     | 2.101      |  33.7 | 71.66
Neigh   | 2.1454e-05 | 0.0058375  | 0.0086494  |   3.2 |  0.26
Comm    | 0.038205   | 0.36844    | 1.1049     |  50.5 | 16.27
Output  | 0          | 0          | 0          |   0.0 |  0.00
Modify  | 2.1767e-05 | 0.0020739  | 0.0053622  |   2.8 |  0.09
Other   |            | 0.2656     |            |       | 11.73

Nlocal:        2776.45 ave        3961 max           0 min
Histogram: 8 4 4 0 6 10 8 2 28 34
Nghost:        3879.01 ave        5424 max         232 min
Histogram: 8 0 8 0 16 0 8 8 16 40
Neighs:        79213.7 ave      115455 max           0 min
Histogram: 8 4 4 0 10 6 8 8 24 32

Total # of neighbors = 8238222
Ave neighs/atom = 28.530540
Neighbor list builds = 2
Dangerous builds = 0
#write_data              minimize.dat
#quit

variable                fx_0  equal    ${fx}
variable                fx_0  equal    -2.39256905606999e-06
variable                fy_0  equal    ${fy}
variable                fy_0  equal    3.9311718591506e-07
variable                fz_0  equal    ${fz}
variable                fz_0  equal    -3.97299696142106e-06

variable                i     equal    288751

variable                x0    equal    x[v_i]
variable                y0    equal    y[v_i]
variable                z0    equal    z[v_i]

variable                x     equal    x[v_i]+v_delta*random(-1.0,1.0,${seed})
variable                x     equal    x[v_i]+v_delta*random(-1.0,1.0,312)
variable                y     equal    y[v_i]+v_delta*random(-1.0,1.0,${seed})
variable                y     equal    y[v_i]+v_delta*random(-1.0,1.0,312)
variable                z     equal    z[v_i]+v_delta*random(-1.0,1.0,${seed})
variable                z     equal    z[v_i]+v_delta*random(-1.0,1.0,312)
variable                x_0    equal     ${x0}
variable                x_0    equal     -0.011575652100788
variable                y_0    equal     ${y0}
variable                y_0    equal     2.01217745260322
variable                z_0    equal     ${z0}
variable                z_0    equal     20.0207960161042
variable                x_1    equal     $x
variable                x_1    equal     -0.00312171552394471
variable                y_1    equal     $y
variable                y_1    equal     2.00758183197105
variable                z_1    equal     $z
variable                z_1    equal     20.0261681636644

set                atom        $i    x  ${x_1}  y  ${y_1}  z  ${z_1}
set                atom        288751    x  ${x_1}  y  ${y_1}  z  ${z_1}
set                atom        288751    x  -0.00312171552394471  y  ${y_1}  z  ${z_1}
set                atom        288751    x  -0.00312171552394471  y  2.00758183197105  z  ${z_1}
set                atom        288751    x  -0.00312171552394471  y  2.00758183197105  z  20.0261681636644
Setting atom values ...
  1 settings made for x
  1 settings made for y
  1 settings made for z
variable           vector_x          equal     ${x_1}-${x_0}
variable           vector_x          equal     -0.00312171552394471-${x_0}
variable           vector_x          equal     -0.00312171552394471--0.011575652100788
variable           vector_y          equal     ${y_1}-${y_0}
variable           vector_y          equal     2.00758183197105-${y_0}
variable           vector_y          equal     2.00758183197105-2.01217745260322
variable           vector_z          equal     ${z_1}-${z_0}
variable           vector_z          equal     20.0261681636644-${z_0}
variable           vector_z          equal     20.0261681636644-20.0207960161042

#dump               1     all   custom   1000   dump_minimize.atom.* id type x y z
#dump_modify        1     element  Fe C
thermo_style       custom   step  pe ke etotal v_fx v_fy v_fz
thermo             1000

fix                hold    carbon   planeforce   ${vector_x}  ${vector_y}  ${vector_z}
fix                hold    carbon   planeforce   0.00845393657684329  ${vector_y}  ${vector_z}
fix                hold    carbon   planeforce   0.00845393657684329  -0.00459562063217023  ${vector_z}
fix                hold    carbon   planeforce   0.00845393657684329  -0.00459562063217023  0.00537214756020177
min_style          cg
minimize           1.0e-30 1.0e-30 10000 10000
Per MPI rank memory allocation (min/avg/max) = 5.441 | 5.816 | 6.074 Mbytes
Step PotEng KinEng TotEng v_fx v_fy v_fz 
     193   -1152449.4            0   -1152449.4 0.00026199637 -0.0097109883 -0.008719589 
     390   -1152449.5            0   -1152449.5 -3.7636247e-06 9.1201785e-07 6.7028562e-06 
Loop time of 2.31819 on 104 procs for 197 steps with 288751 atoms

99.9% CPU use with 104 MPI tasks x 1 OpenMP threads

Minimization stats:
  Stopping criterion = energy tolerance
  Energy initial, next-to-last, final = 
     -1152449.44959012   -1152449.4500825   -1152449.4500825
  Force two-norm initial, final = 0.10181415 5.3463250e-05
  Force max component initial, final = 0.051609384 6.7028562e-06
  Final line search alpha, max atom move = 1.0000000 6.7028562e-06
  Iterations, force evaluations = 197 394

MPI task timing breakdown:
Section |  min time  |  avg time  |  max time  |%varavg| %total
---------------------------------------------------------------
Pair    | 0.60696    | 1.6676     | 2.184      |  34.6 | 71.93
Neigh   | 0          | 0          | 0          |   0.0 |  0.00
Comm    | 0.036484   | 0.38242    | 1.1512     |  51.0 | 16.50
Output  | 0          | 0          | 0          |   0.0 |  0.00
Modify  | 2.4693e-05 | 0.003254   | 0.0069269  |   2.7 |  0.14
Other   |            | 0.265      |            |       | 11.43

Nlocal:        2776.45 ave        3961 max           0 min
Histogram: 8 4 4 0 6 10 8 2 28 34
Nghost:        3879.01 ave        5424 max         232 min
Histogram: 8 0 8 0 16 0 8 8 16 40
Neighs:        79213.4 ave      115455 max           0 min
Histogram: 8 4 4 0 10 6 8 8 24 32

Total # of neighbors = 8238197
Ave neighs/atom = 28.530454
Neighbor list builds = 0
Dangerous builds = 0
unfix              hold

variable           new_x         equal     ${x0}-${x_0}
variable           new_x         equal     -0.00277404132081405-${x_0}
variable           new_x         equal     -0.00277404132081405--0.011575652100788
variable           new_y         equal     ${y0}-${y_0}
variable           new_y         equal     2.00758554288203-${y_0}
variable           new_y         equal     2.00758554288203-2.01217745260322
variable           new_z         equal     ${z0}-${z_0}
variable           new_z         equal     20.0256242170042-${z_0}
variable           new_z         equal     20.0256242170042-20.0207960161042

label iteration
variable           norm          equal     sqrt(${new_x}^2+${new_y}^2+${new_z}^2)
variable           norm          equal     sqrt(0.00880161077997395^2+${new_y}^2+${new_z}^2)
variable           norm          equal     sqrt(0.00880161077997395^2+-0.00459190972118995^2+${new_z}^2)
variable           norm          equal     sqrt(0.00880161077997395^2+-0.00459190972118995^2+0.00482820090000047^2)
variable           unit_x        equal     ${new_x}/${norm}
variable           unit_x        equal     0.00880161077997395/${norm}
variable           unit_x        equal     0.00880161077997395/0.0110392713138358
variable           unit_y        equal     ${new_y}/${norm}
variable           unit_y        equal     -0.00459190972118995/${norm}
variable           unit_y        equal     -0.00459190972118995/0.0110392713138358
variable           unit_z        equal     ${new_z}/${norm}
variable           unit_z        equal     0.00482820090000047/${norm}
variable           unit_z        equal     0.00482820090000047/0.0110392713138358
variable           x_new         equal     ${x0}+${delta}*${unit_x}
variable           x_new         equal     -0.00277404132081405+${delta}*${unit_x}
variable           x_new         equal     -0.00277404132081405+0.02*${unit_x}
variable           x_new         equal     -0.00277404132081405+0.02*0.797299978391025
variable           y_new         equal     ${y0}+${delta}*${unit_y}
variable           y_new         equal     2.00758554288203+${delta}*${unit_y}
variable           y_new         equal     2.00758554288203+0.02*${unit_y}
variable           y_new         equal     2.00758554288203+0.02*-0.415961306742665
variable           z_new         equal     ${z0}+${delta}*${unit_z}
variable           z_new         equal     20.0256242170042+${delta}*${unit_z}
variable           z_new         equal     20.0256242170042+0.02*${unit_z}
variable           z_new         equal     20.0256242170042+0.02*0.437365906022181

set                atom          $i    x  ${x_new}  y  ${y_new}  z   ${z_new}
set                atom          288751    x  ${x_new}  y  ${y_new}  z   ${z_new}
set                atom          288751    x  0.0131719582470064  y  ${y_new}  z   ${z_new}
set                atom          288751    x  0.0131719582470064  y  1.99926631674718  z   ${z_new}
set                atom          288751    x  0.0131719582470064  y  1.99926631674718  z   20.0343715351246
Setting atom values ...
  1 settings made for x
  1 settings made for y
  1 settings made for z

fix                hold    carbon   planeforce   ${new_x}  ${new_y}  ${new_z}
fix                hold    carbon   planeforce   0.00880161077997395  ${new_y}  ${new_z}
fix                hold    carbon   planeforce   0.00880161077997395  -0.00459190972118995  ${new_z}
fix                hold    carbon   planeforce   0.00880161077997395  -0.00459190972118995  0.00482820090000047
min_style          cg
minimize           1.0e-30 1.0e-30 10000 10000
Per MPI rank memory allocation (min/avg/max) = 5.441 | 5.816 | 6.074 Mbytes
Step PotEng KinEng TotEng v_fx v_fy v_fz 
     390   -1152449.4            0   -1152449.4 -0.0004652936 -0.020421824 -0.018574173 
     581   -1152449.4            0   -1152449.4 -1.7469265e-05 2.1700912e-06 3.3909636e-05 
Loop time of 2.25336 on 104 procs for 191 steps with 288751 atoms

99.9% CPU use with 104 MPI tasks x 1 OpenMP threads

Minimization stats:
  Stopping criterion = energy tolerance
  Energy initial, next-to-last, final = 
     -1152449.44665075  -1152449.44825724  -1152449.44825724
  Force two-norm initial, final = 0.18518802 0.0001092619
  Force max component initial, final = 0.093940431 3.3909636e-05
  Final line search alpha, max atom move = 1.0000000 3.3909636e-05
  Iterations, force evaluations = 191 382

MPI task timing breakdown:
Section |  min time  |  avg time  |  max time  |%varavg| %total
---------------------------------------------------------------
Pair    | 0.58847    | 1.6077     | 2.0876     |  34.0 | 71.35
Neigh   | 0          | 0          | 0          |   0.0 |  0.00
Comm    | 0.035816   | 0.36395    | 1.1072     |  50.6 | 16.15
Output  | 0          | 0          | 0          |   0.0 |  0.00
Modify  | 2.5233e-05 | 0.0031491  | 0.006743   |   2.7 |  0.14
Other   |            | 0.2785     |            |       | 12.36

Nlocal:        2776.45 ave        3961 max           0 min
Histogram: 8 4 4 0 6 10 8 2 28 34
Nghost:        3879.01 ave        5424 max         232 min
Histogram: 8 0 8 0 16 0 8 8 16 40
Neighs:        79213.4 ave      115455 max           0 min
Histogram: 8 4 4 0 10 6 8 8 24 32

Total # of neighbors = 8238198
Ave neighs/atom = 28.530457
Neighbor list builds = 0
Dangerous builds = 0
unfix              hold

variable           new_x         delete
variable           new_y         delete
variable           new_z         delete
variable           dot           delete
variable           new_x         equal     ${x0}-${x_0}
variable           new_x         equal     0.0139259475932013-${x_0}
variable           new_x         equal     0.0139259475932013--0.011575652100788
variable           new_y         equal     ${y0}-${y_0}
variable           new_y         equal     1.99893115218068-${y_0}
variable           new_y         equal     1.99893115218068-2.01217745260322
variable           new_z         equal     ${z0}-${z_0}
variable           new_z         equal     20.0326782820148-${z_0}
variable           new_z         equal     20.0326782820148-20.0207960161042

variable           dot      equal     ${fx}*${new_x}+${fy}*${new_y}+${fz}*${new_z}
variable           dot      equal     -1.74692650464516e-05*${new_x}+${fy}*${new_y}+${fz}*${new_z}
variable           dot      equal     -1.74692650464516e-05*0.0255015996939893+${fy}*${new_y}+${fz}*${new_z}
variable           dot      equal     -1.74692650464516e-05*0.0255015996939893+2.17009118743309e-06*${new_y}+${fz}*${new_z}
variable           dot      equal     -1.74692650464516e-05*0.0255015996939893+2.17009118743309e-06*-0.01324630042254+${fz}*${new_z}
variable           dot      equal     -1.74692650464516e-05*0.0255015996939893+2.17009118743309e-06*-0.01324630042254+3.39096358583874e-05*${new_z}
variable           dot      equal     -1.74692650464516e-05*0.0255015996939893+2.17009118743309e-06*-0.01324630042254+3.39096358583874e-05*0.0118822659106002
print              "The dot product: ${dot}"
The dot product: -7.13165737748705e-08

if "(${dot} >= 0.0) && (${dot} < 1.0e-10)" then "jump TaR.in relaxation" elif "(${dot} < 0.0) && (${dot} > -1.0e-10)" "jump TaR.in relaxation" elif "(${iteration} == ${iter_tot}) && (${seed} < 319)" "print 'The iteration number is maximum!'" "next seed" "variable iteration delete" "jump TaR.in loop" elif "(${iteration} == ${iter_tot}) && (${seed} == 319)" "quit" else    "next iteration"    "jump TaR.in iteration"
next iteration
jump TaR.in iteration
variable           norm          equal     sqrt(${new_x}^2+${new_y}^2+${new_z}^2)
variable           norm          equal     sqrt(0.0255015996939893^2+${new_y}^2+${new_z}^2)
variable           norm          equal     sqrt(0.0255015996939893^2+-0.01324630042254^2+${new_z}^2)
variable           norm          equal     sqrt(0.0255015996939893^2+-0.01324630042254^2+0.0118822659106002^2)
variable           unit_x        equal     ${new_x}/${norm}
variable           unit_x        equal     0.0255015996939893/${norm}
variable           unit_x        equal     0.0255015996939893/0.0310963712514317
variable           unit_y        equal     ${new_y}/${norm}
variable           unit_y        equal     -0.01324630042254/${norm}
variable           unit_y        equal     -0.01324630042254/0.0310963712514317
variable           unit_z        equal     ${new_z}/${norm}
variable           unit_z        equal     0.0118822659106002/${norm}
variable           unit_z        equal     0.0118822659106002/0.0310963712514317
variable           x_new         equal     ${x0}+${delta}*${unit_x}
variable           x_new         equal     0.0139259475932013+${delta}*${unit_x}
variable           x_new         equal     0.0139259475932013+0.02*${unit_x}
variable           x_new         equal     0.0139259475932013+0.02*0.820082815702015
variable           y_new         equal     ${y0}+${delta}*${unit_y}
variable           y_new         equal     1.99893115218068+${delta}*${unit_y}
variable           y_new         equal     1.99893115218068+0.02*${unit_y}
variable           y_new         equal     1.99893115218068+0.02*-0.425975761462204
variable           z_new         equal     ${z0}+${delta}*${unit_z}
variable           z_new         equal     20.0326782820148+${delta}*${unit_z}
variable           z_new         equal     20.0326782820148+0.02*${unit_z}
variable           z_new         equal     20.0326782820148+0.02*0.382111012713521

set                atom          $i    x  ${x_new}  y  ${y_new}  z   ${z_new}
set                atom          288751    x  ${x_new}  y  ${y_new}  z   ${z_new}
set                atom          288751    x  0.0303276039072416  y  ${y_new}  z   ${z_new}
set                atom          288751    x  0.0303276039072416  y  1.99041163695144  z   ${z_new}
set                atom          288751    x  0.0303276039072416  y  1.99041163695144  z   20.0403205022691
Setting atom values ...
  1 settings made for x
  1 settings made for y
  1 settings made for z

fix                hold    carbon   planeforce   ${new_x}  ${new_y}  ${new_z}
fix                hold    carbon   planeforce   0.0255015996939893  ${new_y}  ${new_z}
fix                hold    carbon   planeforce   0.0255015996939893  -0.01324630042254  ${new_z}
fix                hold    carbon   planeforce   0.0255015996939893  -0.01324630042254  0.0118822659106002
min_style          cg
minimize           1.0e-30 1.0e-30 10000 10000
Per MPI rank memory allocation (min/avg/max) = 5.441 | 5.816 | 6.074 Mbytes
Step PotEng KinEng TotEng v_fx v_fy v_fz 
     581   -1152449.4            0   -1152449.4 -0.0022135323 -0.026620743 -0.024926032 
     748   -1152449.4            0   -1152449.4 -1.7241051e-05 -1.5983933e-06 3.5220687e-05 
Loop time of 1.92951 on 104 procs for 167 steps with 288751 atoms

99.9% CPU use with 104 MPI tasks x 1 OpenMP threads

Minimization stats:
  Stopping criterion = energy tolerance
  Energy initial, next-to-last, final = 
     -1152449.44328021  -1152449.44489397  -1152449.44489397
  Force two-norm initial, final = 0.1866714 0.00020940963
  Force max component initial, final = 0.092456679 5.0229823e-05
  Final line search alpha, max atom move = 1.0000000 5.0229823e-05
  Iterations, force evaluations = 167 334

MPI task timing breakdown:
Section |  min time  |  avg time  |  max time  |%varavg| %total
---------------------------------------------------------------
Pair    | 0.50949    | 1.4087     | 1.8302     |  31.9 | 73.01
Neigh   | 0          | 0          | 0          |   0.0 |  0.00
Comm    | 0.028933   | 0.31275    | 0.95411    |  48.2 | 16.21
Output  | 0          | 0          | 0          |   0.0 |  0.00
Modify  | 1.9803e-05 | 0.0027611  | 0.0059453  |   2.5 |  0.14
Other   |            | 0.2053     |            |       | 10.64

Nlocal:        2776.45 ave        3961 max           0 min
Histogram: 8 4 4 0 6 10 8 2 28 34
Nghost:        3879.01 ave        5424 max         232 min
Histogram: 8 0 8 0 16 0 8 8 16 40
Neighs:        79213.4 ave      115455 max           0 min
Histogram: 8 4 4 0 10 6 8 8 24 32

Total # of neighbors = 8238196
Ave neighs/atom = 28.530450
Neighbor list builds = 0
Dangerous builds = 0
unfix              hold

variable           new_x         delete
variable           new_y         delete
variable           new_z         delete
variable           dot           delete
variable           new_x         equal     ${x0}-${x_0}
variable           new_x         equal     0.0310781254383244-${x_0}
variable           new_x         equal     0.0310781254383244--0.011575652100788
variable           new_y         equal     ${y0}-${y_0}
variable           new_y         equal     1.98900538213953-${y_0}
variable           new_y         equal     1.98900538213953-2.01217745260322
variable           new_z         equal     ${z0}-${z_0}
variable           new_z         equal     20.0371420535085-${z_0}
variable           new_z         equal     20.0371420535085-20.0207960161042

variable           dot      equal     ${fx}*${new_x}+${fy}*${new_y}+${fz}*${new_z}
variable           dot      equal     -1.72410505271588e-05*${new_x}+${fy}*${new_y}+${fz}*${new_z}
variable           dot      equal     -1.72410505271588e-05*0.0426537775391124+${fy}*${new_y}+${fz}*${new_z}
variable           dot      equal     -1.72410505271588e-05*0.0426537775391124+-1.59839332625469e-06*${new_y}+${fz}*${new_z}
variable           dot      equal     -1.72410505271588e-05*0.0426537775391124+-1.59839332625469e-06*-0.0231720704636902+${fz}*${new_z}
variable           dot      equal     -1.72410505271588e-05*0.0426537775391124+-1.59839332625469e-06*-0.0231720704636902+3.52206871822904e-05*${new_z}
variable           dot      equal     -1.72410505271588e-05*0.0426537775391124+-1.59839332625469e-06*-0.0231720704636902+3.52206871822904e-05*0.0163460374043005
print              "The dot product: ${dot}"
The dot product: -1.22639180854476e-07

if "(${dot} >= 0.0) && (${dot} < 1.0e-10)" then "jump TaR.in relaxation" elif "(${dot} < 0.0) && (${dot} > -1.0e-10)" "jump TaR.in relaxation" elif "(${iteration} == ${iter_tot}) && (${seed} < 319)" "print 'The iteration number is maximum!'" "next seed" "variable iteration delete" "jump TaR.in loop" elif "(${iteration} == ${iter_tot}) && (${seed} == 319)" "quit" else    "next iteration"    "jump TaR.in iteration"
next iteration
jump TaR.in iteration
variable           norm          equal     sqrt(${new_x}^2+${new_y}^2+${new_z}^2)
variable           norm          equal     sqrt(0.0426537775391124^2+${new_y}^2+${new_z}^2)
variable           norm          equal     sqrt(0.0426537775391124^2+-0.0231720704636902^2+${new_z}^2)
variable           norm          equal     sqrt(0.0426537775391124^2+-0.0231720704636902^2+0.0163460374043005^2)
variable           unit_x        equal     ${new_x}/${norm}
variable           unit_x        equal     0.0426537775391124/${norm}
variable           unit_x        equal     0.0426537775391124/0.0512199426664371
variable           unit_y        equal     ${new_y}/${norm}
variable           unit_y        equal     -0.0231720704636902/${norm}
variable           unit_y        equal     -0.0231720704636902/0.0512199426664371
variable           unit_z        equal     ${new_z}/${norm}
variable           unit_z        equal     0.0163460374043005/${norm}
variable           unit_z        equal     0.0163460374043005/0.0512199426664371
variable           x_new         equal     ${x0}+${delta}*${unit_x}
variable           x_new         equal     0.0310781254383244+${delta}*${unit_x}
variable           x_new         equal     0.0310781254383244+0.02*${unit_x}
variable           x_new         equal     0.0310781254383244+0.02*0.832757229286439
variable           y_new         equal     ${y0}+${delta}*${unit_y}
variable           y_new         equal     1.98900538213953+${delta}*${unit_y}
variable           y_new         equal     1.98900538213953+0.02*${unit_y}
variable           y_new         equal     1.98900538213953+0.02*-0.452403287809109
variable           z_new         equal     ${z0}+${delta}*${unit_z}
variable           z_new         equal     20.0371420535085+${delta}*${unit_z}
variable           z_new         equal     20.0371420535085+0.02*${unit_z}
variable           z_new         equal     20.0371420535085+0.02*0.319134238606081

set                atom          $i    x  ${x_new}  y  ${y_new}  z   ${z_new}
set                atom          288751    x  ${x_new}  y  ${y_new}  z   ${z_new}
set                atom          288751    x  0.0477332700240532  y  ${y_new}  z   ${z_new}
set                atom          288751    x  0.0477332700240532  y  1.97995731638335  z   ${z_new}
set                atom          288751    x  0.0477332700240532  y  1.97995731638335  z   20.0435247382806
Setting atom values ...
  1 settings made for x
  1 settings made for y
  1 settings made for z

fix                hold    carbon   planeforce   ${new_x}  ${new_y}  ${new_z}
fix                hold    carbon   planeforce   0.0426537775391124  ${new_y}  ${new_z}
fix                hold    carbon   planeforce   0.0426537775391124  -0.0231720704636902  ${new_z}
fix                hold    carbon   planeforce   0.0426537775391124  -0.0231720704636902  0.0163460374043005
min_style          cg
minimize           1.0e-30 1.0e-30 10000 10000
Per MPI rank memory allocation (min/avg/max) = 5.441 | 5.816 | 6.074 Mbytes
Step PotEng KinEng TotEng v_fx v_fy v_fz 
     748   -1152449.4            0   -1152449.4 -0.006839112  -0.03159437 -0.026941882 
     901   -1152449.4            0   -1152449.4 -1.1808848e-05 -3.756135e-06 2.5489637e-05 
Loop time of 1.77105 on 104 procs for 153 steps with 288751 atoms

99.9% CPU use with 104 MPI tasks x 1 OpenMP threads

Minimization stats:
  Stopping criterion = energy tolerance
  Energy initial, next-to-last, final = 
     -1152449.43858141   -1152449.4402043   -1152449.4402043
  Force two-norm initial, final = 0.18713052 0.00011709422
  Force max component initial, final = 0.089007405 2.5489637e-05
  Final line search alpha, max atom move = 1.0000000 2.5489637e-05
  Iterations, force evaluations = 153 306

MPI task timing breakdown:
Section |  min time  |  avg time  |  max time  |%varavg| %total
---------------------------------------------------------------
Pair    | 0.4689     | 1.2839     | 1.6663     |  30.4 | 72.49
Neigh   | 0          | 0          | 0          |   0.0 |  0.00
Comm    | 0.028191   | 0.28841    | 0.87596    |  45.5 | 16.28
Output  | 0          | 0          | 0          |   0.0 |  0.00
Modify  | 1.8451e-05 | 0.0025236  | 0.0054253  |   2.4 |  0.14
Other   |            | 0.1962     |            |       | 11.08

Nlocal:        2776.45 ave        3961 max           0 min
Histogram: 8 4 4 0 6 10 8 2 28 34
Nghost:        3879.01 ave        5429 max         232 min
Histogram: 8 0 8 0 16 0 8 8 16 40
Neighs:        79213.4 ave      115455 max           0 min
Histogram: 8 4 4 0 10 6 8 8 24 32

Total # of neighbors = 8238195
Ave neighs/atom = 28.530447
Neighbor list builds = 0
Dangerous builds = 0
unfix              hold

variable           new_x         delete
variable           new_y         delete
variable           new_z         delete
variable           dot           delete
variable           new_x         equal     ${x0}-${x_0}
variable           new_x         equal     0.0480210946149544-${x_0}
variable           new_x         equal     0.0480210946149544--0.011575652100788
variable           new_y         equal     ${y0}-${y_0}
variable           new_y         equal     1.97772760413871-${y_0}
variable           new_y         equal     1.97772760413871-2.01217745260322
variable           new_z         equal     ${z0}-${z_0}
variable           new_z         equal     20.0396128510301-${z_0}
variable           new_z         equal     20.0396128510301-20.0207960161042

variable           dot      equal     ${fx}*${new_x}+${fy}*${new_y}+${fz}*${new_z}
variable           dot      equal     -1.18088481935543e-05*${new_x}+${fy}*${new_y}+${fz}*${new_z}
variable           dot      equal     -1.18088481935543e-05*0.0595967467157424+${fy}*${new_y}+${fz}*${new_z}
variable           dot      equal     -1.18088481935543e-05*0.0595967467157424+-3.75613495489477e-06*${new_y}+${fz}*${new_z}
variable           dot      equal     -1.18088481935543e-05*0.0595967467157424+-3.75613495489477e-06*-0.0344498484645102+${fz}*${new_z}
variable           dot      equal     -1.18088481935543e-05*0.0595967467157424+-3.75613495489477e-06*-0.0344498484645102+2.54896370104307e-05*${new_z}
variable           dot      equal     -1.18088481935543e-05*0.0595967467157424+-3.75613495489477e-06*-0.0344498484645102+2.54896370104307e-05*0.0188168349259001
print              "The dot product: ${dot}"
The dot product: -9.47363628411449e-08

if "(${dot} >= 0.0) && (${dot} < 1.0e-10)" then "jump TaR.in relaxation" elif "(${dot} < 0.0) && (${dot} > -1.0e-10)" "jump TaR.in relaxation" elif "(${iteration} == ${iter_tot}) && (${seed} < 319)" "print 'The iteration number is maximum!'" "next seed" "variable iteration delete" "jump TaR.in loop" elif "(${iteration} == ${iter_tot}) && (${seed} == 319)" "quit" else    "next iteration"    "jump TaR.in iteration"
next iteration
jump TaR.in iteration
variable           norm          equal     sqrt(${new_x}^2+${new_y}^2+${new_z}^2)
variable           norm          equal     sqrt(0.0595967467157424^2+${new_y}^2+${new_z}^2)
variable           norm          equal     sqrt(0.0595967467157424^2+-0.0344498484645102^2+${new_z}^2)
variable           norm          equal     sqrt(0.0595967467157424^2+-0.0344498484645102^2+0.0188168349259001^2)
variable           unit_x        equal     ${new_x}/${norm}
variable           unit_x        equal     0.0595967467157424/${norm}
variable           unit_x        equal     0.0595967467157424/0.0713627182424874
variable           unit_y        equal     ${new_y}/${norm}
variable           unit_y        equal     -0.0344498484645102/${norm}
variable           unit_y        equal     -0.0344498484645102/0.0713627182424874
variable           unit_z        equal     ${new_z}/${norm}
variable           unit_z        equal     0.0188168349259001/${norm}
variable           unit_z        equal     0.0188168349259001/0.0713627182424874
variable           x_new         equal     ${x0}+${delta}*${unit_x}
variable           x_new         equal     0.0480210946149544+${delta}*${unit_x}
variable           x_new         equal     0.0480210946149544+0.02*${unit_x}
variable           x_new         equal     0.0480210946149544+0.02*0.835124392448663
variable           y_new         equal     ${y0}+${delta}*${unit_y}
variable           y_new         equal     1.97772760413871+${delta}*${unit_y}
variable           y_new         equal     1.97772760413871+0.02*${unit_y}
variable           y_new         equal     1.97772760413871+0.02*-0.482742940753057
variable           z_new         equal     ${z0}+${delta}*${unit_z}
variable           z_new         equal     20.0396128510301+${delta}*${unit_z}
variable           z_new         equal     20.0396128510301+0.02*${unit_z}
variable           z_new         equal     20.0396128510301+0.02*0.263678786197035

set                atom          $i    x  ${x_new}  y  ${y_new}  z   ${z_new}
set                atom          288751    x  ${x_new}  y  ${y_new}  z   ${z_new}
set                atom          288751    x  0.0647235824639277  y  ${y_new}  z   ${z_new}
set                atom          288751    x  0.0647235824639277  y  1.96807274532365  z   ${z_new}
set                atom          288751    x  0.0647235824639277  y  1.96807274532365  z   20.044886426754
Setting atom values ...
  1 settings made for x
  1 settings made for y
  1 settings made for z

fix                hold    carbon   planeforce   ${new_x}  ${new_y}  ${new_z}
fix                hold    carbon   planeforce   0.0595967467157424  ${new_y}  ${new_z}
fix                hold    carbon   planeforce   0.0595967467157424  -0.0344498484645102  ${new_z}
fix                hold    carbon   planeforce   0.0595967467157424  -0.0344498484645102  0.0188168349259001
min_style          cg
minimize           1.0e-30 1.0e-30 10000 10000
Per MPI rank memory allocation (min/avg/max) = 5.441 | 5.816 | 6.074 Mbytes
Step PotEng KinEng TotEng v_fx v_fy v_fz 
     901   -1152449.4            0   -1152449.4 -0.011218638 -0.032431961 -0.023844701 
    1000   -1152449.4            0   -1152449.4 -2.9767289e-05 -4.6547604e-06 8.5757133e-05 
    1092   -1152449.4            0   -1152449.4 -3.5806228e-06 -5.5996294e-07 1.0315382e-05 
Loop time of 2.21966 on 104 procs for 191 steps with 288751 atoms

99.9% CPU use with 104 MPI tasks x 1 OpenMP threads

Minimization stats:
  Stopping criterion = energy tolerance
  Energy initial, next-to-last, final = 
     -1152449.43257805  -1152449.43417968  -1152449.43417968
  Force two-norm initial, final = 0.18574286 4.4643829e-05
  Force max component initial, final = 0.084961162 1.0315382e-05
  Final line search alpha, max atom move = 1.0000000 1.0315382e-05
  Iterations, force evaluations = 191 382

MPI task timing breakdown:
Section |  min time  |  avg time  |  max time  |%varavg| %total
---------------------------------------------------------------
Pair    | 0.58361    | 1.6114     | 2.0963     |  34.1 | 72.60
Neigh   | 0          | 0          | 0          |   0.0 |  0.00
Comm    | 0.03312    | 0.35967    | 1.0952     |  50.8 | 16.20
Output  | 9.9555e-05 | 0.00010836 | 0.00022651 |   0.0 |  0.00
Modify  | 2.5679e-05 | 0.0031477  | 0.0067266  |   2.7 |  0.14
Other   |            | 0.2453     |            |       | 11.05

Nlocal:        2776.45 ave        3961 max           0 min
Histogram: 8 4 4 0 6 10 8 2 28 34
Nghost:        3879.01 ave        5429 max         232 min
Histogram: 8 0 8 0 16 0 8 8 16 40
Neighs:        79213.4 ave      115455 max           0 min
Histogram: 8 4 4 0 10 6 8 8 24 32

Total # of neighbors = 8238197
Ave neighs/atom = 28.530454
Neighbor list builds = 0
Dangerous builds = 0
unfix              hold

variable           new_x         delete
variable           new_y         delete
variable           new_z         delete
variable           dot           delete
variable           new_x         equal     ${x0}-${x_0}
variable           new_x         equal     0.0645381363862743-${x_0}
variable           new_x         equal     0.0645381363862743--0.011575652100788
variable           new_y         equal     ${y0}-${y_0}
variable           new_y         equal     1.96574992471007-${y_0}
variable           new_y         equal     1.96574992471007-2.01217745260322
variable           new_z         equal     ${z0}-${z_0}
variable           new_z         equal     20.041221153848-${z_0}
variable           new_z         equal     20.041221153848-20.0207960161042

variable           dot      equal     ${fx}*${new_x}+${fy}*${new_y}+${fz}*${new_z}
variable           dot      equal     -3.5806228069518e-06*${new_x}+${fy}*${new_y}+${fz}*${new_z}
variable           dot      equal     -3.5806228069518e-06*0.0761137884870623+${fy}*${new_y}+${fz}*${new_z}
variable           dot      equal     -3.5806228069518e-06*0.0761137884870623+-5.59962943241545e-07*${new_y}+${fz}*${new_z}
variable           dot      equal     -3.5806228069518e-06*0.0761137884870623+-5.59962943241545e-07*-0.0464275278931501+${fz}*${new_z}
variable           dot      equal     -3.5806228069518e-06*0.0761137884870623+-5.59962943241545e-07*-0.0464275278931501+1.03153815575649e-05*${new_z}
variable           dot      equal     -3.5806228069518e-06*0.0761137884870623+-5.59962943241545e-07*-0.0464275278931501+1.03153815575649e-05*0.0204251377437998
print              "The dot product: ${dot}"
The dot product: -3.58439826206881e-08

if "(${dot} >= 0.0) && (${dot} < 1.0e-10)" then "jump TaR.in relaxation" elif "(${dot} < 0.0) && (${dot} > -1.0e-10)" "jump TaR.in relaxation" elif "(${iteration} == ${iter_tot}) && (${seed} < 319)" "print 'The iteration number is maximum!'" "next seed" "variable iteration delete" "jump TaR.in loop" elif "(${iteration} == ${iter_tot}) && (${seed} == 319)" "quit" else    "next iteration"    "jump TaR.in iteration"
next iteration
jump TaR.in iteration
variable           norm          equal     sqrt(${new_x}^2+${new_y}^2+${new_z}^2)
variable           norm          equal     sqrt(0.0761137884870623^2+${new_y}^2+${new_z}^2)
variable           norm          equal     sqrt(0.0761137884870623^2+-0.0464275278931501^2+${new_z}^2)
variable           norm          equal     sqrt(0.0761137884870623^2+-0.0464275278931501^2+0.0204251377437998^2)
variable           unit_x        equal     ${new_x}/${norm}
variable           unit_x        equal     0.0761137884870623/${norm}
variable           unit_x        equal     0.0761137884870623/0.0914658974480417
variable           unit_y        equal     ${new_y}/${norm}
variable           unit_y        equal     -0.0464275278931501/${norm}
variable           unit_y        equal     -0.0464275278931501/0.0914658974480417
variable           unit_z        equal     ${new_z}/${norm}
variable           unit_z        equal     0.0204251377437998/${norm}
variable           unit_z        equal     0.0204251377437998/0.0914658974480417
variable           x_new         equal     ${x0}+${delta}*${unit_x}
variable           x_new         equal     0.0645381363862743+${delta}*${unit_x}
variable           x_new         equal     0.0645381363862743+0.02*${unit_x}
variable           x_new         equal     0.0645381363862743+0.02*0.832154831589551
variable           y_new         equal     ${y0}+${delta}*${unit_y}
variable           y_new         equal     1.96574992471007+${delta}*${unit_y}
variable           y_new         equal     1.96574992471007+0.02*${unit_y}
variable           y_new         equal     1.96574992471007+0.02*-0.507593859443885
variable           z_new         equal     ${z0}+${delta}*${unit_z}
variable           z_new         equal     20.041221153848+${delta}*${unit_z}
variable           z_new         equal     20.041221153848+0.02*${unit_z}
variable           z_new         equal     20.041221153848+0.02*0.223308777518993

set                atom          $i    x  ${x_new}  y  ${y_new}  z   ${z_new}
set                atom          288751    x  ${x_new}  y  ${y_new}  z   ${z_new}
set                atom          288751    x  0.0811812330180653  y  ${y_new}  z   ${z_new}
set                atom          288751    x  0.0811812330180653  y  1.95559804752119  z   ${z_new}
set                atom          288751    x  0.0811812330180653  y  1.95559804752119  z   20.0456873293984
Setting atom values ...
  1 settings made for x
  1 settings made for y
  1 settings made for z

fix                hold    carbon   planeforce   ${new_x}  ${new_y}  ${new_z}
fix                hold    carbon   planeforce   0.0761137884870623  ${new_y}  ${new_z}
fix                hold    carbon   planeforce   0.0761137884870623  -0.0464275278931501  ${new_z}
fix                hold    carbon   planeforce   0.0761137884870623  -0.0464275278931501  0.0204251377437998
min_style          cg
minimize           1.0e-30 1.0e-30 10000 10000
Per MPI rank memory allocation (min/avg/max) = 5.441 | 5.816 | 6.074 Mbytes
Step PotEng KinEng TotEng v_fx v_fy v_fz 
    1092   -1152449.4            0   -1152449.4 -0.013764128 -0.030703039 -0.018498104 
    1202   -1152449.4            0   -1152449.4 6.3369746e-06 -4.3914658e-06 -3.3596642e-05 
Loop time of 1.26506 on 104 procs for 110 steps with 288751 atoms

99.9% CPU use with 104 MPI tasks x 1 OpenMP threads

Minimization stats:
  Stopping criterion = energy tolerance
  Energy initial, next-to-last, final = 
     -1152449.42520599  -1152449.42677463  -1152449.42677463
  Force two-norm initial, final = 0.1836839 0.00020100091
  Force max component initial, final = 0.081504217 3.3596642e-05
  Final line search alpha, max atom move = 1.0000000 3.3596642e-05
  Iterations, force evaluations = 110 220

MPI task timing breakdown:
Section |  min time  |  avg time  |  max time  |%varavg| %total
---------------------------------------------------------------
Pair    | 0.33729    | 0.9229     | 1.1992     |  25.8 | 72.95
Neigh   | 0          | 0          | 0          |   0.0 |  0.00
Comm    | 0.01889    | 0.20434    | 0.62819    |  39.0 | 16.15
Output  | 0          | 0          | 0          |   0.0 |  0.00
Modify  | 1.3792e-05 | 0.0018154  | 0.0038991  |   2.0 |  0.14
Other   |            | 0.136      |            |       | 10.75

Nlocal:        2776.45 ave        3961 max           0 min
Histogram: 8 4 4 0 6 10 8 2 28 34
Nghost:        3879.01 ave        5429 max         232 min
Histogram: 8 0 8 0 16 0 8 8 16 40
Neighs:        79213.4 ave      115455 max           0 min
Histogram: 8 4 4 0 10 6 8 8 24 32

Total # of neighbors = 8238198
Ave neighs/atom = 28.530457
Neighbor list builds = 0
Dangerous builds = 0
unfix              hold

variable           new_x         delete
variable           new_y         delete
variable           new_z         delete
variable           dot           delete
variable           new_x         equal     ${x0}-${x_0}
variable           new_x         equal     0.0808005440174767-${x_0}
variable           new_x         equal     0.0808005440174767--0.011575652100788
variable           new_y         equal     ${y0}-${y_0}
variable           new_y         equal     1.95368655490079-${y_0}
variable           new_y         equal     1.95368655490079-2.01217745260322
variable           new_z         equal     ${z0}-${z_0}
variable           new_z         equal     20.0427610238024-${z_0}
variable           new_z         equal     20.0427610238024-20.0207960161042

variable           dot      equal     ${fx}*${new_x}+${fy}*${new_y}+${fz}*${new_z}
variable           dot      equal     6.33697456608395e-06*${new_x}+${fy}*${new_y}+${fz}*${new_z}
variable           dot      equal     6.33697456608395e-06*0.0923761961182647+${fy}*${new_y}+${fz}*${new_z}
variable           dot      equal     6.33697456608395e-06*0.0923761961182647+-4.39146584364986e-06*${new_y}+${fz}*${new_z}
variable           dot      equal     6.33697456608395e-06*0.0923761961182647+-4.39146584364986e-06*-0.0584908977024301+${fz}*${new_z}
variable           dot      equal     6.33697456608395e-06*0.0923761961182647+-4.39146584364986e-06*-0.0584908977024301+-3.35966422021529e-05*${new_z}
variable           dot      equal     6.33697456608395e-06*0.0923761961182647+-4.39146584364986e-06*-0.0584908977024301+-3.35966422021529e-05*0.0219650076981992
print              "The dot product: ${dot}"
The dot product: 1.04295880133734e-07

if "(${dot} >= 0.0) && (${dot} < 1.0e-10)" then "jump TaR.in relaxation" elif "(${dot} < 0.0) && (${dot} > -1.0e-10)" "jump TaR.in relaxation" elif "(${iteration} == ${iter_tot}) && (${seed} < 319)" "print 'The iteration number is maximum!'" "next seed" "variable iteration delete" "jump TaR.in loop" elif "(${iteration} == ${iter_tot}) && (${seed} == 319)" "quit" else    "next iteration"    "jump TaR.in iteration"
next iteration
jump TaR.in iteration
variable           norm          equal     sqrt(${new_x}^2+${new_y}^2+${new_z}^2)
variable           norm          equal     sqrt(0.0923761961182647^2+${new_y}^2+${new_z}^2)
variable           norm          equal     sqrt(0.0923761961182647^2+-0.0584908977024301^2+${new_z}^2)
variable           norm          equal     sqrt(0.0923761961182647^2+-0.0584908977024301^2+0.0219650076981992^2)
variable           unit_x        equal     ${new_x}/${norm}
variable           unit_x        equal     0.0923761961182647/${norm}
variable           unit_x        equal     0.0923761961182647/0.111521335566331
variable           unit_y        equal     ${new_y}/${norm}
variable           unit_y        equal     -0.0584908977024301/${norm}
variable           unit_y        equal     -0.0584908977024301/0.111521335566331
variable           unit_z        equal     ${new_z}/${norm}
variable           unit_z        equal     0.0219650076981992/${norm}
variable           unit_z        equal     0.0219650076981992/0.111521335566331
variable           x_new         equal     ${x0}+${delta}*${unit_x}
variable           x_new         equal     0.0808005440174767+${delta}*${unit_x}
variable           x_new         equal     0.0808005440174767+0.02*${unit_x}
variable           x_new         equal     0.0808005440174767+0.02*0.828327563054703
variable           y_new         equal     ${y0}+${delta}*${unit_y}
variable           y_new         equal     1.95368655490079+${delta}*${unit_y}
variable           y_new         equal     1.95368655490079+0.02*${unit_y}
variable           y_new         equal     1.95368655490079+0.02*-0.524481682409916
variable           z_new         equal     ${z0}+${delta}*${unit_z}
variable           z_new         equal     20.0427610238024+${delta}*${unit_z}
variable           z_new         equal     20.0427610238024+0.02*${unit_z}
variable           z_new         equal     20.0427610238024+0.02*0.196957896770657

set                atom          $i    x  ${x_new}  y  ${y_new}  z   ${z_new}
set                atom          288751    x  ${x_new}  y  ${y_new}  z   ${z_new}
set                atom          288751    x  0.0973670952785708  y  ${y_new}  z   ${z_new}
set                atom          288751    x  0.0973670952785708  y  1.94319692125259  z   ${z_new}
set                atom          288751    x  0.0973670952785708  y  1.94319692125259  z   20.0467001817378
Setting atom values ...
  1 settings made for x
  1 settings made for y
  1 settings made for z

fix                hold    carbon   planeforce   ${new_x}  ${new_y}  ${new_z}
fix                hold    carbon   planeforce   0.0923761961182647  ${new_y}  ${new_z}
fix                hold    carbon   planeforce   0.0923761961182647  -0.0584908977024301  ${new_z}
fix                hold    carbon   planeforce   0.0923761961182647  -0.0584908977024301  0.0219650076981992
min_style          cg
minimize           1.0e-30 1.0e-30 10000 10000
Per MPI rank memory allocation (min/avg/max) = 5.441 | 5.816 | 6.074 Mbytes
Step PotEng KinEng TotEng v_fx v_fy v_fz 
    1202   -1152449.4            0   -1152449.4  -0.01444267 -0.027675597 -0.012957502 
    1364   -1152449.4            0   -1152449.4 2.6402443e-06 1.388608e-06 -7.4060885e-06 
Loop time of 1.87722 on 104 procs for 162 steps with 288751 atoms

99.9% CPU use with 104 MPI tasks x 1 OpenMP threads

Minimization stats:
  Stopping criterion = energy tolerance
  Energy initial, next-to-last, final = 
      -1152449.4164133  -1152449.41795076  -1152449.41795076
  Force two-norm initial, final = 0.18160179 4.1044578e-05
  Force max component initial, final = 0.079090722 7.8136747e-06
  Final line search alpha, max atom move = 1.0000000 7.8136747e-06
  Iterations, force evaluations = 162 324

MPI task timing breakdown:
Section |  min time  |  avg time  |  max time  |%varavg| %total
---------------------------------------------------------------
Pair    | 0.49394    | 1.3629     | 1.7745     |  31.3 | 72.60
Neigh   | 0          | 0          | 0          |   0.0 |  0.00
Comm    | 0.027267   | 0.30413    | 0.93176    |  47.2 | 16.20
Output  | 0          | 0          | 0          |   0.0 |  0.00
Modify  | 1.9578e-05 | 0.0026786  | 0.0057484  |   2.4 |  0.14
Other   |            | 0.2075     |            |       | 11.05

Nlocal:        2776.45 ave        3961 max           0 min
Histogram: 8 4 4 0 6 10 8 2 28 34
Nghost:        3879.01 ave        5429 max         232 min
Histogram: 8 0 8 0 16 0 8 8 16 40
Neighs:        79213.5 ave      115455 max           0 min
Histogram: 8 4 4 0 10 6 8 8 24 32

Total # of neighbors = 8238199
Ave neighs/atom = 28.530461
Neighbor list builds = 0
Dangerous builds = 0
unfix              hold

variable           new_x         delete
variable           new_y         delete
variable           new_z         delete
variable           dot           delete
variable           new_x         equal     ${x0}-${x_0}
variable           new_x         equal     0.0970955202113337-${x_0}
variable           new_x         equal     0.0970955202113337--0.011575652100788
variable           new_y         equal     ${y0}-${y_0}
variable           new_y         equal     1.94202223338257-${y_0}
variable           new_y         equal     1.94202223338257-2.01217745260322
variable           new_z         equal     ${z0}-${z_0}
variable           new_z         equal     20.0447142285815-${z_0}
variable           new_z         equal     20.0447142285815-20.0207960161042

variable           dot      equal     ${fx}*${new_x}+${fy}*${new_y}+${fz}*${new_z}
variable           dot      equal     2.64024427411305e-06*${new_x}+${fy}*${new_y}+${fz}*${new_z}
variable           dot      equal     2.64024427411305e-06*0.108671172312122+${fy}*${new_y}+${fz}*${new_z}
variable           dot      equal     2.64024427411305e-06*0.108671172312122+1.38860804731574e-06*${new_y}+${fz}*${new_z}
variable           dot      equal     2.64024427411305e-06*0.108671172312122+1.38860804731574e-06*-0.07015521922065+${fz}*${new_z}
variable           dot      equal     2.64024427411305e-06*0.108671172312122+1.38860804731574e-06*-0.07015521922065+-7.40608853241031e-06*${new_z}
variable           dot      equal     2.64024427411305e-06*0.108671172312122+1.38860804731574e-06*-0.07015521922065+-7.40608853241031e-06*0.0239182124773016
print              "The dot product: ${dot}"
The dot product: 1.23599393433417e-08

if "(${dot} >= 0.0) && (${dot} < 1.0e-10)" then "jump TaR.in relaxation" elif "(${dot} < 0.0) && (${dot} > -1.0e-10)" "jump TaR.in relaxation" elif "(${iteration} == ${iter_tot}) && (${seed} < 319)" "print 'The iteration number is maximum!'" "next seed" "variable iteration delete" "jump TaR.in loop" elif "(${iteration} == ${iter_tot}) && (${seed} == 319)" "quit" else    "next iteration"    "jump TaR.in iteration"
next iteration
jump TaR.in iteration
variable           norm          equal     sqrt(${new_x}^2+${new_y}^2+${new_z}^2)
variable           norm          equal     sqrt(0.108671172312122^2+${new_y}^2+${new_z}^2)
variable           norm          equal     sqrt(0.108671172312122^2+-0.07015521922065^2+${new_z}^2)
variable           norm          equal     sqrt(0.108671172312122^2+-0.07015521922065^2+0.0239182124773016^2)
variable           unit_x        equal     ${new_x}/${norm}
variable           unit_x        equal     0.108671172312122/${norm}
variable           unit_x        equal     0.108671172312122/0.131541854037784
variable           unit_y        equal     ${new_y}/${norm}
variable           unit_y        equal     -0.07015521922065/${norm}
variable           unit_y        equal     -0.07015521922065/0.131541854037784
variable           unit_z        equal     ${new_z}/${norm}
variable           unit_z        equal     0.0239182124773016/${norm}
variable           unit_z        equal     0.0239182124773016/0.131541854037784
variable           x_new         equal     ${x0}+${delta}*${unit_x}
variable           x_new         equal     0.0970955202113337+${delta}*${unit_x}
variable           x_new         equal     0.0970955202113337+0.02*${unit_x}
variable           x_new         equal     0.0970955202113337+0.02*0.826133804385237
variable           y_new         equal     ${y0}+${delta}*${unit_y}
variable           y_new         equal     1.94202223338257+${delta}*${unit_y}
variable           y_new         equal     1.94202223338257+0.02*${unit_y}
variable           y_new         equal     1.94202223338257+0.02*-0.533330016775487
variable           z_new         equal     ${z0}+${delta}*${unit_z}
variable           z_new         equal     20.0447142285815+${delta}*${unit_z}
variable           z_new         equal     20.0447142285815+0.02*${unit_z}
variable           z_new         equal     20.0447142285815+0.02*0.18182967430603

set                atom          $i    x  ${x_new}  y  ${y_new}  z   ${z_new}
set                atom          288751    x  ${x_new}  y  ${y_new}  z   ${z_new}
set                atom          288751    x  0.113618196299038  y  ${y_new}  z   ${z_new}
set                atom          288751    x  0.113618196299038  y  1.93135563304706  z   ${z_new}
set                atom          288751    x  0.113618196299038  y  1.93135563304706  z   20.0483508220676
Setting atom values ...
  1 settings made for x
  1 settings made for y
  1 settings made for z

fix                hold    carbon   planeforce   ${new_x}  ${new_y}  ${new_z}
fix                hold    carbon   planeforce   0.108671172312122  ${new_y}  ${new_z}
fix                hold    carbon   planeforce   0.108671172312122  -0.07015521922065  ${new_z}
fix                hold    carbon   planeforce   0.108671172312122  -0.07015521922065  0.0239182124773016
min_style          cg
minimize           1.0e-30 1.0e-30 10000 10000
Per MPI rank memory allocation (min/avg/max) = 5.441 | 5.816 | 6.074 Mbytes
Step PotEng KinEng TotEng v_fx v_fy v_fz 
    1364   -1152449.4            0   -1152449.4 -0.013519919  -0.02360435 -0.0078075606 
    1503   -1152449.4            0   -1152449.4 -1.587798e-06 -1.6842966e-06 2.2738183e-06 
Loop time of 1.60689 on 104 procs for 139 steps with 288751 atoms

99.9% CPU use with 104 MPI tasks x 1 OpenMP threads

Minimization stats:
  Stopping criterion = energy tolerance
  Energy initial, next-to-last, final = 
     -1152449.40616684  -1152449.40768651  -1152449.40768651
  Force two-norm initial, final = 0.17971635 8.5547212e-05
  Force max component initial, final = 0.077792526 1.8542917e-05
  Final line search alpha, max atom move = 1.0000000 1.8542917e-05
  Iterations, force evaluations = 139 278

MPI task timing breakdown:
Section |  min time  |  avg time  |  max time  |%varavg| %total
---------------------------------------------------------------
Pair    | 0.42765    | 1.1675     | 1.5149     |  29.0 | 72.66
Neigh   | 0          | 0          | 0          |   0.0 |  0.00
Comm    | 0.024154   | 0.26152    | 0.79568    |  43.3 | 16.27
Output  | 0          | 0          | 0          |   0.0 |  0.00
Modify  | 1.7189e-05 | 0.0022945  | 0.0049299  |   2.3 |  0.14
Other   |            | 0.1756     |            |       | 10.93

Nlocal:        2776.45 ave        3961 max           0 min
Histogram: 8 4 4 0 6 10 8 2 28 34
Nghost:        3879.01 ave        5429 max         232 min
Histogram: 8 0 8 0 16 0 8 8 16 40
Neighs:        79213.5 ave      115455 max           0 min
Histogram: 8 4 4 0 10 6 8 8 24 32

Total # of neighbors = 8238202
Ave neighs/atom = 28.530471
Neighbor list builds = 0
Dangerous builds = 0
unfix              hold

variable           new_x         delete
variable           new_y         delete
variable           new_z         delete
variable           dot           delete
variable           new_x         equal     ${x0}-${x_0}
variable           new_x         equal     0.113832877294305-${x_0}
variable           new_x         equal     0.113832877294305--0.011575652100788
variable           new_y         equal     ${y0}-${y_0}
variable           new_y         equal     1.93136041922093-${y_0}
variable           new_y         equal     1.93136041922093-2.01217745260322
variable           new_z         equal     ${z0}-${z_0}
variable           new_z         equal     20.0473894684391-${z_0}
variable           new_z         equal     20.0473894684391-20.0207960161042

variable           dot      equal     ${fx}*${new_x}+${fy}*${new_y}+${fz}*${new_z}
variable           dot      equal     -1.58779795080959e-06*${new_x}+${fy}*${new_y}+${fz}*${new_z}
variable           dot      equal     -1.58779795080959e-06*0.125408529395093+${fy}*${new_y}+${fz}*${new_z}
variable           dot      equal     -1.58779795080959e-06*0.125408529395093+-1.68429658389657e-06*${new_y}+${fz}*${new_z}
variable           dot      equal     -1.58779795080959e-06*0.125408529395093+-1.68429658389657e-06*-0.0808170333822902+${fz}*${new_z}
variable           dot      equal     -1.58779795080959e-06*0.125408529395093+-1.68429658389657e-06*-0.0808170333822902+2.27381827507898e-06*${new_z}
variable           dot      equal     -1.58779795080959e-06*0.125408529395093+-1.68429658389657e-06*-0.0808170333822902+2.27381827507898e-06*0.0265934523349003
print              "The dot product: ${dot}"
The dot product: -2.53487482458838e-09

if "(${dot} >= 0.0) && (${dot} < 1.0e-10)" then "jump TaR.in relaxation" elif "(${dot} < 0.0) && (${dot} > -1.0e-10)" "jump TaR.in relaxation" elif "(${iteration} == ${iter_tot}) && (${seed} < 319)" "print 'The iteration number is maximum!'" "next seed" "variable iteration delete" "jump TaR.in loop" elif "(${iteration} == ${iter_tot}) && (${seed} == 319)" "quit" else    "next iteration"    "jump TaR.in iteration"
next iteration
jump TaR.in iteration
variable           norm          equal     sqrt(${new_x}^2+${new_y}^2+${new_z}^2)
variable           norm          equal     sqrt(0.125408529395093^2+${new_y}^2+${new_z}^2)
variable           norm          equal     sqrt(0.125408529395093^2+-0.0808170333822902^2+${new_z}^2)
variable           norm          equal     sqrt(0.125408529395093^2+-0.0808170333822902^2+0.0265934523349003^2)
variable           unit_x        equal     ${new_x}/${norm}
variable           unit_x        equal     0.125408529395093/${norm}
variable           unit_x        equal     0.125408529395093/0.151545055468144
variable           unit_y        equal     ${new_y}/${norm}
variable           unit_y        equal     -0.0808170333822902/${norm}
variable           unit_y        equal     -0.0808170333822902/0.151545055468144
variable           unit_z        equal     ${new_z}/${norm}
variable           unit_z        equal     0.0265934523349003/${norm}
variable           unit_z        equal     0.0265934523349003/0.151545055468144
variable           x_new         equal     ${x0}+${delta}*${unit_x}
variable           x_new         equal     0.113832877294305+${delta}*${unit_x}
variable           x_new         equal     0.113832877294305+0.02*${unit_x}
variable           x_new         equal     0.113832877294305+0.02*0.827532967061765
variable           y_new         equal     ${y0}+${delta}*${unit_y}
variable           y_new         equal     1.93136041922093+${delta}*${unit_y}
variable           y_new         equal     1.93136041922093+0.02*${unit_y}
variable           y_new         equal     1.93136041922093+0.02*-0.533287167520148
variable           z_new         equal     ${z0}+${delta}*${unit_z}
variable           z_new         equal     20.0473894684391+${delta}*${unit_z}
variable           z_new         equal     20.0473894684391+0.02*${unit_z}
variable           z_new         equal     20.0473894684391+0.02*0.175482151184342

set                atom          $i    x  ${x_new}  y  ${y_new}  z   ${z_new}
set                atom          288751    x  ${x_new}  y  ${y_new}  z   ${z_new}
set                atom          288751    x  0.13038353663554  y  ${y_new}  z   ${z_new}
set                atom          288751    x  0.13038353663554  y  1.92069467587053  z   ${z_new}
set                atom          288751    x  0.13038353663554  y  1.92069467587053  z   20.0508991114628
Setting atom values ...
  1 settings made for x
  1 settings made for y
  1 settings made for z

fix                hold    carbon   planeforce   ${new_x}  ${new_y}  ${new_z}
fix                hold    carbon   planeforce   0.125408529395093  ${new_y}  ${new_z}
fix                hold    carbon   planeforce   0.125408529395093  -0.0808170333822902  ${new_z}
fix                hold    carbon   planeforce   0.125408529395093  -0.0808170333822902  0.0265934523349003
min_style          cg
minimize           1.0e-30 1.0e-30 10000 10000
Per MPI rank memory allocation (min/avg/max) = 5.441 | 5.816 | 6.074 Mbytes
Step PotEng KinEng TotEng v_fx v_fy v_fz 
    1503   -1152449.4            0   -1152449.4 -0.010680796 -0.017581083 -0.0030604558 
    1615   -1152449.4            0   -1152449.4 2.2236362e-05 7.384109e-06 -8.242133e-05 
Loop time of 1.30438 on 104 procs for 112 steps with 288751 atoms

99.9% CPU use with 104 MPI tasks x 1 OpenMP threads

Minimization stats:
  Stopping criterion = energy tolerance
  Energy initial, next-to-last, final = 
     -1152449.39446685  -1152449.39599768  -1152449.39599768
  Force two-norm initial, final = 0.17803245 0.00024602453
  Force max component initial, final = 0.077633064 8.2421330e-05
  Final line search alpha, max atom move = 1.0000000 8.2421330e-05
  Iterations, force evaluations = 112 224

MPI task timing breakdown:
Section |  min time  |  avg time  |  max time  |%varavg| %total
---------------------------------------------------------------
Pair    | 0.34505    | 0.94793    | 1.2325     |  26.0 | 72.67
Neigh   | 0          | 0          | 0          |   0.0 |  0.00
Comm    | 0.019451   | 0.21066    | 0.64005    |  39.5 | 16.15
Output  | 0          | 0          | 0          |   0.0 |  0.00
Modify  | 1.3934e-05 | 0.0018564  | 0.0039566  |   2.0 |  0.14
Other   |            | 0.1439     |            |       | 11.03

Nlocal:        2776.45 ave        3961 max           0 min
Histogram: 8 4 4 0 6 10 8 2 28 34
Nghost:        3879.01 ave        5429 max         232 min
Histogram: 8 0 8 0 16 0 8 8 16 40
Neighs:        79213.5 ave      115455 max           0 min
Histogram: 8 4 4 0 10 6 8 8 24 32

Total # of neighbors = 8238203
Ave neighs/atom = 28.530474
Neighbor list builds = 0
Dangerous builds = 0
unfix              hold

variable           new_x         delete
variable           new_y         delete
variable           new_z         delete
variable           dot           delete
variable           new_x         equal     ${x0}-${x_0}
variable           new_x         equal     0.131671839529316-${x_0}
variable           new_x         equal     0.131671839529316--0.011575652100788
variable           new_y         equal     ${y0}-${y_0}
variable           new_y         equal     1.92278745927548-${y_0}
variable           new_y         equal     1.92278745927548-2.01217745260322
variable           new_z         equal     ${z0}-${z_0}
variable           new_z         equal     20.0511837068919-${z_0}
variable           new_z         equal     20.0511837068919-20.0207960161042

variable           dot      equal     ${fx}*${new_x}+${fy}*${new_y}+${fz}*${new_z}
variable           dot      equal     2.2236362347509e-05*${new_x}+${fy}*${new_y}+${fz}*${new_z}
variable           dot      equal     2.2236362347509e-05*0.143247491630104+${fy}*${new_y}+${fz}*${new_z}
variable           dot      equal     2.2236362347509e-05*0.143247491630104+7.3841089539359e-06*${new_y}+${fz}*${new_z}
variable           dot      equal     2.2236362347509e-05*0.143247491630104+7.3841089539359e-06*-0.0893899933277402+${fz}*${new_z}
variable           dot      equal     2.2236362347509e-05*0.143247491630104+7.3841089539359e-06*-0.0893899933277402+-8.24213303955008e-05*${new_z}
variable           dot      equal     2.2236362347509e-05*0.143247491630104+7.3841089539359e-06*-0.0893899933277402+-8.24213303955008e-05*0.0303876907877019
print              "The dot product: ${dot}"
The dot product: 2.06437767656244e-08

if "(${dot} >= 0.0) && (${dot} < 1.0e-10)" then "jump TaR.in relaxation" elif "(${dot} < 0.0) && (${dot} > -1.0e-10)" "jump TaR.in relaxation" elif "(${iteration} == ${iter_tot}) && (${seed} < 319)" "print 'The iteration number is maximum!'" "next seed" "variable iteration delete" "jump TaR.in loop" elif "(${iteration} == ${iter_tot}) && (${seed} == 319)" "quit" else    "next iteration"    "jump TaR.in iteration"
next iteration
jump TaR.in iteration
variable           norm          equal     sqrt(${new_x}^2+${new_y}^2+${new_z}^2)
variable           norm          equal     sqrt(0.143247491630104^2+${new_y}^2+${new_z}^2)
variable           norm          equal     sqrt(0.143247491630104^2+-0.0893899933277402^2+${new_z}^2)
variable           norm          equal     sqrt(0.143247491630104^2+-0.0893899933277402^2+0.0303876907877019^2)
variable           unit_x        equal     ${new_x}/${norm}
variable           unit_x        equal     0.143247491630104/${norm}
variable           unit_x        equal     0.143247491630104/0.171562893764529
variable           unit_y        equal     ${new_y}/${norm}
variable           unit_y        equal     -0.0893899933277402/${norm}
variable           unit_y        equal     -0.0893899933277402/0.171562893764529
variable           unit_z        equal     ${new_z}/${norm}
variable           unit_z        equal     0.0303876907877019/${norm}
variable           unit_z        equal     0.0303876907877019/0.171562893764529
variable           x_new         equal     ${x0}+${delta}*${unit_x}
variable           x_new         equal     0.131671839529316+${delta}*${unit_x}
variable           x_new         equal     0.131671839529316+0.02*${unit_x}
variable           x_new         equal     0.131671839529316+0.02*0.83495614049686
variable           y_new         equal     ${y0}+${delta}*${unit_y}
variable           y_new         equal     1.92278745927548+${delta}*${unit_y}
variable           y_new         equal     1.92278745927548+0.02*${unit_y}
variable           y_new         equal     1.92278745927548+0.02*-0.521033373629314
variable           z_new         equal     ${z0}+${delta}*${unit_z}
variable           z_new         equal     20.0511837068919+${delta}*${unit_z}
variable           z_new         equal     20.0511837068919+0.02*${unit_z}
variable           z_new         equal     20.0511837068919+0.02*0.177122745606105

set                atom          $i    x  ${x_new}  y  ${y_new}  z   ${z_new}
set                atom          288751    x  ${x_new}  y  ${y_new}  z   ${z_new}
set                atom          288751    x  0.148370962339253  y  ${y_new}  z   ${z_new}
set                atom          288751    x  0.148370962339253  y  1.91236679180289  z   ${z_new}
set                atom          288751    x  0.148370962339253  y  1.91236679180289  z   20.054726161804
Setting atom values ...
  1 settings made for x
  1 settings made for y
  1 settings made for z

fix                hold    carbon   planeforce   ${new_x}  ${new_y}  ${new_z}
fix                hold    carbon   planeforce   0.143247491630104  ${new_y}  ${new_z}
fix                hold    carbon   planeforce   0.143247491630104  -0.0893899933277402  ${new_z}
fix                hold    carbon   planeforce   0.143247491630104  -0.0893899933277402  0.0303876907877019
min_style          cg
minimize           1.0e-30 1.0e-30 10000 10000
Per MPI rank memory allocation (min/avg/max) = 5.441 | 5.816 | 6.074 Mbytes
Step PotEng KinEng TotEng v_fx v_fy v_fz 
    1615   -1152449.4            0   -1152449.4 -0.0061046094 -0.0091369592 0.0018993632 
    1756   -1152449.4            0   -1152449.4 -1.0288711e-05 -6.4317145e-06 2.9581095e-05 
Loop time of 1.62726 on 104 procs for 141 steps with 288751 atoms

99.9% CPU use with 104 MPI tasks x 1 OpenMP threads

Minimization stats:
  Stopping criterion = energy tolerance
  Energy initial, next-to-last, final = 
     -1152449.38136118  -1152449.38295727  -1152449.38295727
  Force two-norm initial, final = 0.17687655 0.0002014735
  Force max component initial, final = 0.078911889 3.2595492e-05
  Final line search alpha, max atom move = 1.0000000 3.2595492e-05
  Iterations, force evaluations = 141 282

MPI task timing breakdown:
Section |  min time  |  avg time  |  max time  |%varavg| %total
---------------------------------------------------------------
Pair    | 0.43378    | 1.1879     | 1.5413     |  29.3 | 73.00
Neigh   | 0          | 0          | 0          |   0.0 |  0.00
Comm    | 0.024517   | 0.26545    | 0.80984    |  44.1 | 16.31
Output  | 0          | 0          | 0          |   0.0 |  0.00
Modify  | 1.7212e-05 | 0.0023211  | 0.0049587  |   2.3 |  0.14
Other   |            | 0.1716     |            |       | 10.54

Nlocal:        2776.45 ave        3960 max           0 min
Histogram: 8 4 4 0 4 12 8 3 27 34
Nghost:        3878.97 ave        5429 max         232 min
Histogram: 8 0 8 0 16 0 8 8 16 40
Neighs:        79213.5 ave      115412 max           0 min
Histogram: 8 4 4 0 10 6 8 8 24 32

Total # of neighbors = 8238203
Ave neighs/atom = 28.530474
Neighbor list builds = 0
Dangerous builds = 0
unfix              hold

variable           new_x         delete
variable           new_y         delete
variable           new_z         delete
variable           dot           delete
variable           new_x         equal     ${x0}-${x_0}
variable           new_x         equal     0.151044069785654-${x_0}
variable           new_x         equal     0.151044069785654--0.011575652100788
variable           new_y         equal     ${y0}-${y_0}
variable           new_y         equal     1.9174359569816-${y_0}
variable           new_y         equal     1.9174359569816-2.01217745260322
variable           new_z         equal     ${z0}-${z_0}
variable           new_z         equal     20.0570368574549-${z_0}
variable           new_z         equal     20.0570368574549-20.0207960161042

variable           dot      equal     ${fx}*${new_x}+${fy}*${new_y}+${fz}*${new_z}
variable           dot      equal     -1.02887113118653e-05*${new_x}+${fy}*${new_y}+${fz}*${new_z}
variable           dot      equal     -1.02887113118653e-05*0.162619721886442+${fy}*${new_y}+${fz}*${new_z}
variable           dot      equal     -1.02887113118653e-05*0.162619721886442+-6.4317145374771e-06*${new_y}+${fz}*${new_z}
variable           dot      equal     -1.02887113118653e-05*0.162619721886442+-6.4317145374771e-06*-0.0947414956216202+${fz}*${new_z}
variable           dot      equal     -1.02887113118653e-05*0.162619721886442+-6.4317145374771e-06*-0.0947414956216202+2.95810949970256e-05*${new_z}
variable           dot      equal     -1.02887113118653e-05*0.162619721886442+-6.4317145374771e-06*-0.0947414956216202+2.95810949970256e-05*0.0362408413507005
print              "The dot product: ${dot}"
The dot product: 8.24665335367767e-09

if "(${dot} >= 0.0) && (${dot} < 1.0e-10)" then "jump TaR.in relaxation" elif "(${dot} < 0.0) && (${dot} > -1.0e-10)" "jump TaR.in relaxation" elif "(${iteration} == ${iter_tot}) && (${seed} < 319)" "print 'The iteration number is maximum!'" "next seed" "variable iteration delete" "jump TaR.in loop" elif "(${iteration} == ${iter_tot}) && (${seed} == 319)" "quit" else    "next iteration"    "jump TaR.in iteration"
next iteration
jump TaR.in iteration
variable           norm          equal     sqrt(${new_x}^2+${new_y}^2+${new_z}^2)
variable           norm          equal     sqrt(0.162619721886442^2+${new_y}^2+${new_z}^2)
variable           norm          equal     sqrt(0.162619721886442^2+-0.0947414956216202^2+${new_z}^2)
variable           norm          equal     sqrt(0.162619721886442^2+-0.0947414956216202^2+0.0362408413507005^2)
variable           unit_x        equal     ${new_x}/${norm}
variable           unit_x        equal     0.162619721886442/${norm}
variable           unit_x        equal     0.162619721886442/0.191662525082114
variable           unit_y        equal     ${new_y}/${norm}
variable           unit_y        equal     -0.0947414956216202/${norm}
variable           unit_y        equal     -0.0947414956216202/0.191662525082114
variable           unit_z        equal     ${new_z}/${norm}
variable           unit_z        equal     0.0362408413507005/${norm}
variable           unit_z        equal     0.0362408413507005/0.191662525082114
variable           x_new         equal     ${x0}+${delta}*${unit_x}
variable           x_new         equal     0.151044069785654+${delta}*${unit_x}
variable           x_new         equal     0.151044069785654+0.02*${unit_x}
variable           x_new         equal     0.151044069785654+0.02*0.848469056831902
variable           y_new         equal     ${y0}+${delta}*${unit_y}
variable           y_new         equal     1.9174359569816+${delta}*${unit_y}
variable           y_new         equal     1.9174359569816+0.02*${unit_y}
variable           y_new         equal     1.9174359569816+0.02*-0.494314136689111
variable           z_new         equal     ${z0}+${delta}*${unit_z}
variable           z_new         equal     20.0570368574549+${delta}*${unit_z}
variable           z_new         equal     20.0570368574549+0.02*${unit_z}
variable           z_new         equal     20.0570368574549+0.02*0.189086736362123

set                atom          $i    x  ${x_new}  y  ${y_new}  z   ${z_new}
set                atom          288751    x  ${x_new}  y  ${y_new}  z   ${z_new}
set                atom          288751    x  0.168013450922292  y  ${y_new}  z   ${z_new}
set                atom          288751    x  0.168013450922292  y  1.90754967424782  z   ${z_new}
set                atom          288751    x  0.168013450922292  y  1.90754967424782  z   20.0608185921821
Setting atom values ...
  1 settings made for x
  1 settings made for y
  1 settings made for z

fix                hold    carbon   planeforce   ${new_x}  ${new_y}  ${new_z}
fix                hold    carbon   planeforce   0.162619721886442  ${new_y}  ${new_z}
fix                hold    carbon   planeforce   0.162619721886442  -0.0947414956216202  ${new_z}
fix                hold    carbon   planeforce   0.162619721886442  -0.0947414956216202  0.0362408413507005
min_style          cg
minimize           1.0e-30 1.0e-30 10000 10000
Per MPI rank memory allocation (min/avg/max) = 5.441 | 5.816 | 6.074 Mbytes
Step PotEng KinEng TotEng v_fx v_fy v_fz 
    1756   -1152449.4            0   -1152449.4 -0.00032224992 0.0030448361 0.0094058665 
    1932   -1152449.4            0   -1152449.4 1.0048899e-05 7.8595525e-06 -2.4544776e-05 
Loop time of 2.07888 on 104 procs for 176 steps with 288751 atoms

99.9% CPU use with 104 MPI tasks x 1 OpenMP threads

Minimization stats:
  Stopping criterion = energy tolerance
  Energy initial, next-to-last, final = 
     -1152449.36697886  -1152449.36886038  -1152449.36886038
  Force two-norm initial, final = 0.17680103 0.00018408702
  Force max component initial, final = 0.081796882 2.8365746e-05
  Final line search alpha, max atom move = 1.0000000 2.8365746e-05
  Iterations, force evaluations = 176 352

MPI task timing breakdown:
Section |  min time  |  avg time  |  max time  |%varavg| %total
---------------------------------------------------------------
Pair    | 0.54021    | 1.4853     | 1.9462     |  32.7 | 71.45
Neigh   | 0          | 0          | 0          |   0.0 |  0.00
Comm    | 0.029906   | 0.34396    | 1.0297     |  47.6 | 16.55
Output  | 0          | 0          | 0          |   0.0 |  0.00
Modify  | 2.3778e-05 | 0.0029009  | 0.0061968  |   2.5 |  0.14
Other   |            | 0.2467     |            |       | 11.87

Nlocal:        2776.45 ave        3959 max           0 min
Histogram: 8 4 4 0 4 12 8 3 27 34
Nghost:        3878.99 ave        5429 max         232 min
Histogram: 8 0 8 0 16 0 8 8 16 40
Neighs:        79213.5 ave      115383 max           0 min
Histogram: 8 4 4 0 10 6 8 8 24 32

Total # of neighbors = 8238205
Ave neighs/atom = 28.530481
Neighbor list builds = 0
Dangerous builds = 0
unfix              hold

variable           new_x         delete
variable           new_y         delete
variable           new_z         delete
variable           dot           delete
variable           new_x         equal     ${x0}-${x_0}
variable           new_x         equal     0.172219563585148-${x_0}
variable           new_x         equal     0.172219563585148--0.011575652100788
variable           new_y         equal     ${y0}-${y_0}
variable           new_y         equal     1.91734768847834-${y_0}
variable           new_y         equal     1.91734768847834-2.01217745260322
variable           new_z         equal     ${z0}-${z_0}
variable           new_z         equal     20.0675590993493-${z_0}
variable           new_z         equal     20.0675590993493-20.0207960161042

variable           dot      equal     ${fx}*${new_x}+${fy}*${new_y}+${fz}*${new_z}
variable           dot      equal     1.00488986555212e-05*${new_x}+${fy}*${new_y}+${fz}*${new_z}
variable           dot      equal     1.00488986555212e-05*0.183795215685936+${fy}*${new_y}+${fz}*${new_z}
variable           dot      equal     1.00488986555212e-05*0.183795215685936+7.85955247890059e-06*${new_y}+${fz}*${new_z}
variable           dot      equal     1.00488986555212e-05*0.183795215685936+7.85955247890059e-06*-0.0948297641248801+${fz}*${new_z}
variable           dot      equal     1.00488986555212e-05*0.183795215685936+7.85955247890059e-06*-0.0948297641248801+-2.45447764098987e-05*${new_z}
variable           dot      equal     1.00488986555212e-05*0.183795215685936+7.85955247890059e-06*-0.0948297641248801+-2.45447764098987e-05*0.0467630832451
print              "The dot product: ${dot}"
The dot product: -4.61694343920888e-08

if "(${dot} >= 0.0) && (${dot} < 1.0e-10)" then "jump TaR.in relaxation" elif "(${dot} < 0.0) && (${dot} > -1.0e-10)" "jump TaR.in relaxation" elif "(${iteration} == ${iter_tot}) && (${seed} < 319)" "print 'The iteration number is maximum!'" "next seed" "variable iteration delete" "jump TaR.in loop" elif "(${iteration} == ${iter_tot}) && (${seed} == 319)" "quit" else    "next iteration"    "jump TaR.in iteration"
next iteration
jump TaR.in iteration
variable           norm          equal     sqrt(${new_x}^2+${new_y}^2+${new_z}^2)
variable           norm          equal     sqrt(0.183795215685936^2+${new_y}^2+${new_z}^2)
variable           norm          equal     sqrt(0.183795215685936^2+-0.0948297641248801^2+${new_z}^2)
variable           norm          equal     sqrt(0.183795215685936^2+-0.0948297641248801^2+0.0467630832451^2)
variable           unit_x        equal     ${new_x}/${norm}
variable           unit_x        equal     0.183795215685936/${norm}
variable           unit_x        equal     0.183795215685936/0.212038089567908
variable           unit_y        equal     ${new_y}/${norm}
variable           unit_y        equal     -0.0948297641248801/${norm}
variable           unit_y        equal     -0.0948297641248801/0.212038089567908
[...]
variable           unit_x        equal     -1.33871967621444/3.27736971412891
variable           unit_y        equal     ${new_y}/${norm}
variable           unit_y        equal     2.33432549691432/${norm}
variable           unit_y        equal     2.33432549691432/3.27736971412891
variable           unit_z        equal     ${new_z}/${norm}
variable           unit_z        equal     -1.8708036631516/${norm}
variable           unit_z        equal     -1.8708036631516/3.27736971412891
variable           x_new         equal     ${x0}+${delta}*${unit_x}
variable           x_new         equal     -1.35029532831523+${delta}*${unit_x}
variable           x_new         equal     -1.35029532831523+0.02*${unit_x}
variable           x_new         equal     -1.35029532831523+0.02*-0.408473804601034
variable           y_new         equal     ${y0}+${delta}*${unit_y}
variable           y_new         equal     4.34650294951754+${delta}*${unit_y}
variable           y_new         equal     4.34650294951754+0.02*${unit_y}
variable           y_new         equal     4.34650294951754+0.02*0.712255772319773
variable           z_new         equal     ${z0}+${delta}*${unit_z}
variable           z_new         equal     18.1499923529526+${delta}*${unit_z}
variable           z_new         equal     18.1499923529526+0.02*${unit_z}
variable           z_new         equal     18.1499923529526+0.02*-0.57082472419467

set                atom          $i    x  ${x_new}  y  ${y_new}  z   ${z_new}
set                atom          288751    x  ${x_new}  y  ${y_new}  z   ${z_new}
set                atom          288751    x  -1.35846480440725  y  ${y_new}  z   ${z_new}
set                atom          288751    x  -1.35846480440725  y  4.36074806496394  z   ${z_new}
set                atom          288751    x  -1.35846480440725  y  4.36074806496394  z   18.1385758584687
Setting atom values ...
  1 settings made for x
  1 settings made for y
  1 settings made for z

fix                hold    carbon   planeforce   ${new_x}  ${new_y}  ${new_z}
fix                hold    carbon   planeforce   -1.33871967621444  ${new_y}  ${new_z}
fix                hold    carbon   planeforce   -1.33871967621444  2.33432549691432  ${new_z}
fix                hold    carbon   planeforce   -1.33871967621444  2.33432549691432  -1.8708036631516
min_style          cg
minimize           1.0e-30 1.0e-30 10000 10000
Per MPI rank memory allocation (min/avg/max) = 5.441 | 5.816 | 6.074 Mbytes
Step PotEng KinEng TotEng v_fx v_fy v_fz 
   28731   -1152448.9            0   -1152448.9 0.0013970076 0.0017423424 0.0011743577 
   28929   -1152448.9            0   -1152448.9 1.1306635e-05 -1.2101251e-06 -9.6008152e-06 
Loop time of 2.29447 on 104 procs for 198 steps with 288751 atoms

99.9% CPU use with 104 MPI tasks x 1 OpenMP threads

Minimization stats:
  Stopping criterion = energy tolerance
  Energy initial, next-to-last, final = 
     -1152448.94252695  -1152448.94382146  -1152448.94382146
  Force two-norm initial, final = 0.16419394 8.9693849e-05
  Force max component initial, final = 0.099309738 1.2010863e-05
  Final line search alpha, max atom move = 1.0000000 1.2010863e-05
  Iterations, force evaluations = 198 396

MPI task timing breakdown:
Section |  min time  |  avg time  |  max time  |%varavg| %total
---------------------------------------------------------------
Pair    | 0.60508    | 1.6656     | 2.1744     |  34.9 | 72.59
Neigh   | 0          | 0          | 0          |   0.0 |  0.00
Comm    | 0.040559   | 0.37569    | 1.1294     |  51.7 | 16.37
Output  | 0          | 0          | 0          |   0.0 |  0.00
Modify  | 2.4525e-05 | 0.003271   | 0.0069495  |   2.7 |  0.14
Other   |            | 0.2499     |            |       | 10.89

Nlocal:        2776.45 ave        3960 max           0 min
Histogram: 8 4 4 0 4 12 8 4 26 34
Nghost:        3879.15 ave        5426 max         232 min
Histogram: 8 0 8 0 16 0 8 8 16 40
Neighs:        79213.2 ave      115443 max           0 min
Histogram: 8 4 4 0 10 6 8 8 24 32

Total # of neighbors = 8238172
Ave neighs/atom = 28.530367
Neighbor list builds = 0
Dangerous builds = 0
unfix              hold

variable           new_x         delete
variable           new_y         delete
variable           new_z         delete
variable           dot           delete
variable           new_x         equal     ${x0}-${x_0}
variable           new_x         equal     -1.35727596804843-${x_0}
variable           new_x         equal     -1.35727596804843--0.011575652100788
variable           new_y         equal     ${y0}-${y_0}
variable           new_y         equal     4.36131801096185-${y_0}
variable           new_y         equal     4.36131801096185-2.01217745260322
variable           new_z         equal     ${z0}-${z_0}
variable           new_z         equal     18.1384363039254-${z_0}
variable           new_z         equal     18.1384363039254-20.0207960161042

variable           dot      equal     ${fx}*${new_x}+${fy}*${new_y}+${fz}*${new_z}
variable           dot      equal     1.13066348296753e-05*${new_x}+${fy}*${new_y}+${fz}*${new_z}
variable           dot      equal     1.13066348296753e-05*-1.34570031594764+${fy}*${new_y}+${fz}*${new_z}
variable           dot      equal     1.13066348296753e-05*-1.34570031594764+-1.21012506332082e-06*${new_y}+${fz}*${new_z}
variable           dot      equal     1.13066348296753e-05*-1.34570031594764+-1.21012506332082e-06*2.34914055835863+${fz}*${new_z}
variable           dot      equal     1.13066348296753e-05*-1.34570031594764+-1.21012506332082e-06*2.34914055835863+-9.60081523406997e-06*${new_z}
variable           dot      equal     1.13066348296753e-05*-1.34570031594764+-1.21012506332082e-06*2.34914055835863+-9.60081523406997e-06*-1.8823597121788
print              "The dot product: ${dot}"
The dot product: 1.40918711539002e-08

if "(${dot} >= 0.0) && (${dot} < 1.0e-10)" then "jump TaR.in relaxation" elif "(${dot} < 0.0) && (${dot} > -1.0e-10)" "jump TaR.in relaxation" elif "(${iteration} == ${iter_tot}) && (${seed} < 319)" "print 'The iteration number is maximum!'" "next seed" "variable iteration delete" "jump TaR.in loop" elif "(${iteration} == ${iter_tot}) && (${seed} == 319)" "quit" else    "next iteration"    "jump TaR.in iteration"
next iteration
jump TaR.in iteration
variable           norm          equal     sqrt(${new_x}^2+${new_y}^2+${new_z}^2)
variable           norm          equal     sqrt(-1.34570031594764^2+${new_y}^2+${new_z}^2)
variable           norm          equal     sqrt(-1.34570031594764^2+2.34914055835863^2+${new_z}^2)
variable           norm          equal     sqrt(-1.34570031594764^2+2.34914055835863^2+-1.8823597121788^2)
variable           unit_x        equal     ${new_x}/${norm}
variable           unit_x        equal     -1.34570031594764/${norm}
variable           unit_x        equal     -1.34570031594764/3.29736998065139
variable           unit_y        equal     ${new_y}/${norm}
variable           unit_y        equal     2.34914055835863/${norm}
variable           unit_y        equal     2.34914055835863/3.29736998065139
variable           unit_z        equal     ${new_z}/${norm}
variable           unit_z        equal     -1.8823597121788/${norm}
variable           unit_z        equal     -1.8823597121788/3.29736998065139
variable           x_new         equal     ${x0}+${delta}*${unit_x}
variable           x_new         equal     -1.35727596804843+${delta}*${unit_x}
variable           x_new         equal     -1.35727596804843+0.02*${unit_x}
variable           x_new         equal     -1.35727596804843+0.02*-0.408113230800324
variable           y_new         equal     ${y0}+${delta}*${unit_y}
variable           y_new         equal     4.36131801096185+${delta}*${unit_y}
variable           y_new         equal     4.36131801096185+0.02*${unit_y}
variable           y_new         equal     4.36131801096185+0.02*0.712428563413609
variable           z_new         equal     ${z0}+${delta}*${unit_z}
variable           z_new         equal     18.1384363039254+${delta}*${unit_z}
variable           z_new         equal     18.1384363039254+0.02*${unit_z}
variable           z_new         equal     18.1384363039254+0.02*-0.570867001041522

set                atom          $i    x  ${x_new}  y  ${y_new}  z   ${z_new}
set                atom          288751    x  ${x_new}  y  ${y_new}  z   ${z_new}
set                atom          288751    x  -1.36543823266444  y  ${y_new}  z   ${z_new}
set                atom          288751    x  -1.36543823266444  y  4.37556658223012  z   ${z_new}
set                atom          288751    x  -1.36543823266444  y  4.37556658223012  z   18.1270189639046
Setting atom values ...
  1 settings made for x
  1 settings made for y
  1 settings made for z

fix                hold    carbon   planeforce   ${new_x}  ${new_y}  ${new_z}
fix                hold    carbon   planeforce   -1.34570031594764  ${new_y}  ${new_z}
fix                hold    carbon   planeforce   -1.34570031594764  2.34914055835863  ${new_z}
fix                hold    carbon   planeforce   -1.34570031594764  2.34914055835863  -1.8823597121788
min_style          cg
minimize           1.0e-30 1.0e-30 10000 10000
Per MPI rank memory allocation (min/avg/max) = 5.441 | 5.816 | 6.074 Mbytes
Step PotEng KinEng TotEng v_fx v_fy v_fz 
   28929   -1152448.9            0   -1152448.9 0.0020957579 0.0012889405 0.00011030851 
   29000   -1152448.9            0   -1152448.9 -0.00015548493 8.1356614e-05 0.00021268742 
   29112   -1152448.9            0   -1152448.9 8.9109958e-06 1.7221157e-05 1.512112e-05 
Loop time of 2.1287 on 104 procs for 183 steps with 288751 atoms

99.9% CPU use with 104 MPI tasks x 1 OpenMP threads

Minimization stats:
  Stopping criterion = energy tolerance
  Energy initial, next-to-last, final = 
     -1152448.91314694  -1152448.91444063  -1152448.91444063
  Force two-norm initial, final = 0.1652016 0.00013301555
  Force max component initial, final = 0.099765081 1.9714648e-05
  Final line search alpha, max atom move = 1.0000000 1.9714648e-05
  Iterations, force evaluations = 183 366

MPI task timing breakdown:
Section |  min time  |  avg time  |  max time  |%varavg| %total
---------------------------------------------------------------
Pair    | 0.56104    | 1.5348     | 2.0104     |  33.4 | 72.10
Neigh   | 0          | 0          | 0          |   0.0 |  0.00
Comm    | 0.031995   | 0.34329    | 1.0363     |  49.5 | 16.13
Output  | 9.6324e-05 | 9.9094e-05 | 0.0002356  |   0.0 |  0.00
Modify  | 2.2388e-05 | 0.0030318  | 0.0064905  |   2.6 |  0.14
Other   |            | 0.2474     |            |       | 11.62

Nlocal:        2776.45 ave        3960 max           0 min
Histogram: 8 4 4 0 4 12 8 4 26 34
Nghost:        3879.08 ave        5426 max         232 min
Histogram: 8 0 8 0 16 0 8 8 16 40
Neighs:        79213.2 ave      115445 max           0 min
Histogram: 8 4 4 0 10 6 8 8 24 32

Total # of neighbors = 8238170
Ave neighs/atom = 28.530360
Neighbor list builds = 0
Dangerous builds = 0
unfix              hold

variable           new_x         delete
variable           new_y         delete
variable           new_z         delete
variable           dot           delete
variable           new_x         equal     ${x0}-${x_0}
variable           new_x         equal     -1.36419879210814-${x_0}
variable           new_x         equal     -1.36419879210814--0.011575652100788
variable           new_y         equal     ${y0}-${y_0}
variable           new_y         equal     4.37606629774935-${y_0}
variable           new_y         equal     4.37606629774935-2.01217745260322
variable           new_z         equal     ${z0}-${z_0}
variable           new_z         equal     18.126756520148-${z_0}
variable           new_z         equal     18.126756520148-20.0207960161042

variable           dot      equal     ${fx}*${new_x}+${fy}*${new_y}+${fz}*${new_z}
variable           dot      equal     8.91099578614472e-06*${new_x}+${fy}*${new_y}+${fz}*${new_z}
variable           dot      equal     8.91099578614472e-06*-1.35262314000735+${fy}*${new_y}+${fz}*${new_z}
variable           dot      equal     8.91099578614472e-06*-1.35262314000735+1.72211565909693e-05*${new_y}+${fz}*${new_z}
variable           dot      equal     8.91099578614472e-06*-1.35262314000735+1.72211565909693e-05*2.36388884514613+${fz}*${new_z}
variable           dot      equal     8.91099578614472e-06*-1.35262314000735+1.72211565909693e-05*2.36388884514613+1.51211202517647e-05*${new_z}
variable           dot      equal     8.91099578614472e-06*-1.35262314000735+1.72211565909693e-05*2.36388884514613+1.51211202517647e-05*-1.8940394959562
print              "The dot product: ${dot}"
The dot product: 1.56818851142494e-08

if "(${dot} >= 0.0) && (${dot} < 1.0e-10)" then "jump TaR.in relaxation" elif "(${dot} < 0.0) && (${dot} > -1.0e-10)" "jump TaR.in relaxation" elif "(${iteration} == ${iter_tot}) && (${seed} < 319)" "print 'The iteration number is maximum!'" "next seed" "variable iteration delete" "jump TaR.in loop" elif "(${iteration} == ${iter_tot}) && (${seed} == 319)" "quit" else    "next iteration"    "jump TaR.in iteration"
next iteration
jump TaR.in iteration
variable           norm          equal     sqrt(${new_x}^2+${new_y}^2+${new_z}^2)
variable           norm          equal     sqrt(-1.35262314000735^2+${new_y}^2+${new_z}^2)
variable           norm          equal     sqrt(-1.35262314000735^2+2.36388884514613^2+${new_z}^2)
variable           norm          equal     sqrt(-1.35262314000735^2+2.36388884514613^2+-1.8940394959562^2)
variable           unit_x        equal     ${new_x}/${norm}
variable           unit_x        equal     -1.35262314000735/${norm}
variable           unit_x        equal     -1.35262314000735/3.31737026021089
variable           unit_y        equal     ${new_y}/${norm}
variable           unit_y        equal     2.36388884514613/${norm}
variable           unit_y        equal     2.36388884514613/3.31737026021089
variable           unit_z        equal     ${new_z}/${norm}
variable           unit_z        equal     -1.8940394959562/${norm}
variable           unit_z        equal     -1.8940394959562/3.31737026021089
variable           x_new         equal     ${x0}+${delta}*${unit_x}
variable           x_new         equal     -1.36419879210814+${delta}*${unit_x}
variable           x_new         equal     -1.36419879210814+0.02*${unit_x}
variable           x_new         equal     -1.36419879210814+0.02*-0.407739574997384
variable           y_new         equal     ${y0}+${delta}*${unit_y}
variable           y_new         equal     4.37606629774935+${delta}*${unit_y}
variable           y_new         equal     4.37606629774935+0.02*${unit_y}
variable           y_new         equal     4.37606629774935+0.02*0.712579139416248
variable           z_new         equal     ${z0}+${delta}*${unit_z}
variable           z_new         equal     18.126756520148+${delta}*${unit_z}
variable           z_new         equal     18.126756520148+0.02*${unit_z}
variable           z_new         equal     18.126756520148+0.02*-0.570946064921856

set                atom          $i    x  ${x_new}  y  ${y_new}  z   ${z_new}
set                atom          288751    x  ${x_new}  y  ${y_new}  z   ${z_new}
set                atom          288751    x  -1.37235358360809  y  ${y_new}  z   ${z_new}
set                atom          288751    x  -1.37235358360809  y  4.39031788053768  z   ${z_new}
set                atom          288751    x  -1.37235358360809  y  4.39031788053768  z   18.1153375988496
Setting atom values ...
  1 settings made for x
  1 settings made for y
  1 settings made for z

fix                hold    carbon   planeforce   ${new_x}  ${new_y}  ${new_z}
fix                hold    carbon   planeforce   -1.35262314000735  ${new_y}  ${new_z}
fix                hold    carbon   planeforce   -1.35262314000735  2.36388884514613  ${new_z}
fix                hold    carbon   planeforce   -1.35262314000735  2.36388884514613  -1.8940394959562
min_style          cg
minimize           1.0e-30 1.0e-30 10000 10000
Per MPI rank memory allocation (min/avg/max) = 5.441 | 5.816 | 6.074 Mbytes
Step PotEng KinEng TotEng v_fx v_fy v_fz 
   29112   -1152448.9            0   -1152448.9 0.0023592765 0.00091193687 -0.00054671221 
   29278   -1152448.9            0   -1152448.9 2.3291204e-05 3.3205666e-05 2.4809558e-05 
Loop time of 1.92821 on 104 procs for 166 steps with 288751 atoms

99.9% CPU use with 104 MPI tasks x 1 OpenMP threads

Minimization stats:
  Stopping criterion = energy tolerance
  Energy initial, next-to-last, final = 
     -1152448.88205359  -1152448.88334966  -1152448.88334966
  Force two-norm initial, final = 0.16635701 0.00030540857
  Force max component initial, final = 0.10024661 8.8366903e-05
  Final line search alpha, max atom move = 1.0000000 8.8366903e-05
  Iterations, force evaluations = 166 332

MPI task timing breakdown:
Section |  min time  |  avg time  |  max time  |%varavg| %total
---------------------------------------------------------------
Pair    | 0.50916    | 1.4005     | 1.8259     |  31.9 | 72.63
Neigh   | 0          | 0          | 0          |   0.0 |  0.00
Comm    | 0.037272   | 0.31322    | 0.94487    |  47.5 | 16.24
Output  | 0          | 0          | 0          |   0.0 |  0.00
Modify  | 2.0104e-05 | 0.0027451  | 0.0058852  |   2.5 |  0.14
Other   |            | 0.2117     |            |       | 10.98

Nlocal:        2776.45 ave        3960 max           0 min
Histogram: 8 4 4 0 4 12 8 4 26 34
Nghost:        3879.06 ave        5426 max         232 min
Histogram: 8 0 8 0 16 0 8 8 16 40
Neighs:        79213.2 ave      115444 max           0 min
Histogram: 8 4 4 0 10 6 8 8 24 32

Total # of neighbors = 8238169
Ave neighs/atom = 28.530357
Neighbor list builds = 0
Dangerous builds = 0
unfix              hold

variable           new_x         delete
variable           new_y         delete
variable           new_z         delete
variable           dot           delete
variable           new_x         equal     ${x0}-${x_0}
variable           new_x         equal     -1.37110645437749-${x_0}
variable           new_x         equal     -1.37110645437749--0.011575652100788
variable           new_y         equal     ${y0}-${y_0}
variable           new_y         equal     4.3907594045458-${y_0}
variable           new_y         equal     4.3907594045458-2.01217745260322
variable           new_z         equal     ${z0}-${z_0}
variable           new_z         equal     18.1149980166077-${z_0}
variable           new_z         equal     18.1149980166077-20.0207960161042

variable           dot      equal     ${fx}*${new_x}+${fy}*${new_y}+${fz}*${new_z}
variable           dot      equal     2.32912035397487e-05*${new_x}+${fy}*${new_y}+${fz}*${new_z}
variable           dot      equal     2.32912035397487e-05*-1.3595308022767+${fy}*${new_y}+${fz}*${new_z}
variable           dot      equal     2.32912035397487e-05*-1.3595308022767+3.32056657534418e-05*${new_y}+${fz}*${new_z}
variable           dot      equal     2.32912035397487e-05*-1.3595308022767+3.32056657534418e-05*2.37858195194258+${fz}*${new_z}
variable           dot      equal     2.32912035397487e-05*-1.3595308022767+3.32056657534418e-05*2.37858195194258+2.48095576168162e-05*${new_z}
variable           dot      equal     2.32912035397487e-05*-1.3595308022767+3.32056657534418e-05*2.37858195194258+2.48095576168162e-05*-1.9057979994965
print              "The dot product: ${dot}"
The dot product: 3.52833544685531e-08

if "(${dot} >= 0.0) && (${dot} < 1.0e-10)" then "jump TaR.in relaxation" elif "(${dot} < 0.0) && (${dot} > -1.0e-10)" "jump TaR.in relaxation" elif "(${iteration} == ${iter_tot}) && (${seed} < 319)" "print 'The iteration number is maximum!'" "next seed" "variable iteration delete" "jump TaR.in loop" elif "(${iteration} == ${iter_tot}) && (${seed} == 319)" "quit" else    "next iteration"    "jump TaR.in iteration"
quit
