LAMMPS (29 Oct 2020)
OMP_NUM_THREADS environment is not set. Defaulting to 1 thread. (../comm.cpp:94)
  using 1 OpenMP thread(s) per MPI task
OMP_NUM_THREADS environment is not set. Defaulting to 1 thread. (../comm.cpp:94)
  using 1 OpenMP thread(s) per MPI task
Reading data file ...
  orthogonal box = (-122.39241 -121.13707 -37.090501) to (122.39241 121.13707 37.090501)
  13 by 4 by 2 MPI processor grid
  reading atoms ...
  288751 atoms
  read_data CPU = 0.391 seconds
199981 atoms in group inner
88770 atoms in group outer
1 atoms in group carbon
Neighbor list info ...
  update every 1 steps, delay 0 steps, check yes
  max neighbors/atom: 2000, page size: 100000
  master list distance cutoff = 5.6
  ghost atom cutoff = 5.6
  binsize = 2.8, bins = 88 87 27
  1 neighbor lists, perpetual/occasional/extra = 1 0 0
  (1) pair eam/alloy, perpetual
      attributes: half, newton on
      pair build: half/bin/atomonly/newton
      stencil: half/bin/3d/newton
      bin: standard
Setting up cg style minimization ...
  Unit style    : metal
  Current step  : 0
Per MPI rank memory allocation (min/avg/max) = 5.441 | 5.816 | 6.074 Mbytes
Step v_fx v_fy v_fz PotEng KinEng TotEng 
       0    12.489374    22.493677    13.132813   -1152441.8            0   -1152441.8 
     227 -2.2524674e-06 -8.0545598e-06 -6.6309508e-06     -1152449            0     -1152449 
Loop time of 2.727 on 104 procs for 227 steps with 288751 atoms

99.8% CPU use with 104 MPI tasks x 1 OpenMP threads

Minimization stats:
  Stopping criterion = energy tolerance
  Energy initial, next-to-last, final = 
     -1152441.83465029  -1152448.97218784  -1152448.97218784
  Force two-norm initial, final = 47.146104 0.00014094412
  Force max component initial, final = 28.556972 1.9375700e-05
  Final line search alpha, max atom move = 1.0000000 1.9375700e-05
  Iterations, force evaluations = 227 451

MPI task timing breakdown:
Section |  min time  |  avg time  |  max time  |%varavg| %total
---------------------------------------------------------------
Pair    | 0.72837    | 1.9098     | 2.471      |  36.2 | 70.03
Neigh   | 9.341e-05  | 0.02637    | 0.038418   |   6.7 |  0.97
Comm    | 0.044779   | 0.43769    | 1.3081     |  54.0 | 16.05
Output  | 0          | 0          | 0          |   0.0 |  0.00
Modify  | 2.8804e-05 | 0.0024483  | 0.0063372  |   3.1 |  0.09
Other   |            | 0.3507     |            |       | 12.86

Nlocal:        2776.45 ave        3956 max           0 min
Histogram: 8 4 4 0 4 12 8 0 30 34
Nghost:        3879.06 ave        5424 max         232 min
Histogram: 8 0 8 0 16 0 8 8 16 40
Neighs:        79213.7 ave      115312 max           0 min
Histogram: 8 4 4 0 10 6 8 8 24 32

Total # of neighbors = 8238221
Ave neighs/atom = 28.530537
Neighbor list builds = 9
Dangerous builds = 1
Setting atom values ...
  1 settings made for x
  1 settings made for y
  1 settings made for z
Setting up cg style minimization ...
  Unit style    : metal
  Current step  : 227
Per MPI rank memory allocation (min/avg/max) = 5.441 | 5.816 | 6.074 Mbytes
Step PotEng KinEng TotEng v_fx v_fy v_fz 
     227     -1152449            0     -1152449 0.0058275687 0.0033723712  0.025297159 
     333     -1152449            0     -1152449 2.2455673e-07 5.961772e-06 1.9594378e-05 
Loop time of 1.28983 on 104 procs for 106 steps with 288751 atoms

99.9% CPU use with 104 MPI tasks x 1 OpenMP threads

Minimization stats:
  Stopping criterion = energy tolerance
  Energy initial, next-to-last, final = 
      -1152448.9713735  -1152448.97197078  -1152448.97197078
  Force two-norm initial, final = 0.10765326 0.00019864983
  Force max component initial, final = 0.040177009 2.8869108e-05
  Final line search alpha, max atom move = 1.0000000 2.8869108e-05
  Iterations, force evaluations = 106 212

MPI task timing breakdown:
Section |  min time  |  avg time  |  max time  |%varavg| %total
---------------------------------------------------------------
Pair    | 0.32758    | 0.90233    | 1.1958     |  25.6 | 69.96
Neigh   | 0          | 0          | 0          |   0.0 |  0.00
Comm    | 0.018645   | 0.21028    | 0.61283    |  36.5 | 16.30
Output  | 0          | 0          | 0          |   0.0 |  0.00
Modify  | 1.4242e-05 | 0.0017699  | 0.0037868  |   2.0 |  0.14
Other   |            | 0.1755     |            |       | 13.60

Nlocal:        2776.45 ave        3954 max           0 min
Histogram: 8 4 4 0 4 12 8 0 30 34
Nghost:        3879.12 ave        5424 max         232 min
Histogram: 8 0 8 0 16 0 8 8 16 40
Neighs:        79213.5 ave      115254 max           0 min
Histogram: 8 4 4 0 10 6 8 8 24 32

Total # of neighbors = 8238206
Ave neighs/atom = 28.530485
Neighbor list builds = 0
Dangerous builds = 0
Setting atom values ...
  1 settings made for x
  1 settings made for y
  1 settings made for z
Setting up cg style minimization ...
  Unit style    : metal
  Current step  : 333
Per MPI rank memory allocation (min/avg/max) = 5.441 | 5.816 | 6.074 Mbytes
Step PotEng KinEng TotEng v_fx v_fy v_fz 
     333     -1152449            0     -1152449  0.021956584 0.0047629903  0.031871758 
     542     -1152449            0     -1152449 -8.5053317e-06 -4.4819103e-05 -8.1510391e-05 
Loop time of 2.48091 on 104 procs for 209 steps with 288751 atoms

99.9% CPU use with 104 MPI tasks x 1 OpenMP threads

Minimization stats:
  Stopping criterion = energy tolerance
  Energy initial, next-to-last, final = 
     -1152448.96921483  -1152448.97081899  -1152448.97081899
  Force two-norm initial, final = 0.16502412 0.00021973499
  Force max component initial, final = 0.082315066 8.1510391e-05
  Final line search alpha, max atom move = 1.0000000 8.1510391e-05
  Iterations, force evaluations = 209 418

MPI task timing breakdown:
Section |  min time  |  avg time  |  max time  |%varavg| %total
---------------------------------------------------------------
Pair    | 0.64364    | 1.7635     | 2.3012     |  35.7 | 71.08
Neigh   | 0          | 0          | 0          |   0.0 |  0.00
Comm    | 0.038004   | 0.40338    | 1.2014     |  52.0 | 16.26
Output  | 0          | 0          | 0          |   0.0 |  0.00
Modify  | 2.7882e-05 | 0.0034595  | 0.0074758  |   2.8 |  0.14
Other   |            | 0.3105     |            |       | 12.52

Nlocal:        2776.45 ave        3954 max           0 min
Histogram: 8 4 4 0 4 12 8 0 30 34
Nghost:        3879.12 ave        5424 max         232 min
Histogram: 8 0 8 0 16 0 8 8 16 40
Neighs:        79213.5 ave      115253 max           0 min
Histogram: 8 4 4 0 10 6 8 8 24 32

Total # of neighbors = 8238205
Ave neighs/atom = 28.530481
Neighbor list builds = 0
Dangerous builds = 0
The dot product: -1.05939514779807e-06
Setting atom values ...
  1 settings made for x
  1 settings made for y
  1 settings made for z
Setting up cg style minimization ...
  Unit style    : metal
  Current step  : 542
Per MPI rank memory allocation (min/avg/max) = 5.441 | 5.816 | 6.074 Mbytes
Step PotEng KinEng TotEng v_fx v_fy v_fz 
     542     -1152449            0     -1152449  0.031089547 -0.0012203701  0.013630067 
     715     -1152449            0     -1152449 -1.3138216e-05 -4.3611441e-05 -4.0957567e-05 
Loop time of 2.05329 on 104 procs for 173 steps with 288751 atoms

99.9% CPU use with 104 MPI tasks x 1 OpenMP threads

Minimization stats:
  Stopping criterion = energy tolerance
  Energy initial, next-to-last, final = 
      -1152448.9673064  -1152448.96902409  -1152448.96902409
  Force two-norm initial, final = 0.15539844 0.00029865716
  Force max component initial, final = 0.096323573 5.0034535e-05
  Final line search alpha, max atom move = 1.0000000 5.0034535e-05
  Iterations, force evaluations = 173 346

MPI task timing breakdown:
Section |  min time  |  avg time  |  max time  |%varavg| %total
---------------------------------------------------------------
Pair    | 0.52977    | 1.4668     | 1.9206     |  32.6 | 71.44
Neigh   | 0          | 0          | 0          |   0.0 |  0.00
Comm    | 0.032318   | 0.3394     | 1.0199     |  47.5 | 16.53
Output  | 0          | 0          | 0          |   0.0 |  0.00
Modify  | 2.3027e-05 | 0.0028672  | 0.0061353  |   2.5 |  0.14
Other   |            | 0.2442     |            |       | 11.89

Nlocal:        2776.45 ave        3955 max           0 min
Histogram: 8 4 4 0 4 12 8 0 30 34
Nghost:        3879.12 ave        5424 max         232 min
Histogram: 8 0 8 0 16 0 8 8 16 40
Neighs:        79213.4 ave      115277 max           0 min
Histogram: 8 4 4 0 10 6 8 8 24 32

Total # of neighbors = 8238198
Ave neighs/atom = 28.530457
Neighbor list builds = 0
Dangerous builds = 0
The dot product: -8.16964273991039e-07
Setting atom values ...
  1 settings made for x
  1 settings made for y
  1 settings made for z
Setting up cg style minimization ...
  Unit style    : metal
  Current step  : 715
Per MPI rank memory allocation (min/avg/max) = 5.441 | 5.816 | 6.074 Mbytes
Step PotEng KinEng TotEng v_fx v_fy v_fz 
     715     -1152449            0     -1152449  0.026744998 -0.019316258 -0.0034558777 
     900     -1152449            0     -1152449 1.6920511e-05 3.8330376e-05 2.2733423e-05 
Loop time of 2.17392 on 104 procs for 185 steps with 288751 atoms

99.9% CPU use with 104 MPI tasks x 1 OpenMP threads

Minimization stats:
  Stopping criterion = energy tolerance
  Energy initial, next-to-last, final = 
     -1152448.96468937  -1152448.96687609  -1152448.96687609
  Force two-norm initial, final = 0.15929354 0.00011805369
  Force max component initial, final = 0.099295417 3.8330376e-05
  Final line search alpha, max atom move = 1.0000000 3.8330376e-05
  Iterations, force evaluations = 185 370

MPI task timing breakdown:
Section |  min time  |  avg time  |  max time  |%varavg| %total
---------------------------------------------------------------
Pair    | 0.56338    | 1.5557     | 2.0287     |  33.7 | 71.56
Neigh   | 0          | 0          | 0          |   0.0 |  0.00
Comm    | 0.031698   | 0.35398    | 1.057      |  49.2 | 16.28
Output  | 0          | 0          | 0          |   0.0 |  0.00
Modify  | 2.5278e-05 | 0.0030636  | 0.0065888  |   2.6 |  0.14
Other   |            | 0.2611     |            |       | 12.01

Nlocal:        2776.45 ave        3955 max           0 min
Histogram: 8 4 4 0 4 12 8 0 30 34
Nghost:        3879.08 ave        5424 max         232 min
Histogram: 8 0 8 0 16 0 8 8 16 40
Neighs:        79213.5 ave      115274 max           0 min
Histogram: 8 4 4 0 10 6 8 8 24 32

Total # of neighbors = 8238202
Ave neighs/atom = 28.530471
Neighbor list builds = 0
Dangerous builds = 0
The dot product: 1.49096419127673e-06
Setting atom values ...
  1 settings made for x
  1 settings made for y
  1 settings made for z
Setting up cg style minimization ...
  Unit style    : metal
  Current step  : 900
Per MPI rank memory allocation (min/avg/max) = 5.441 | 5.816 | 6.074 Mbytes
Step PotEng KinEng TotEng v_fx v_fy v_fz 
     900     -1152449            0     -1152449  0.018115654 -0.032793155 -0.0035329187 
    1000     -1152449            0     -1152449 8.4044867e-05 0.00016695125 2.0033423e-05 
    1041     -1152449            0     -1152449 -2.0074491e-05 -3.8666142e-05 -4.6468483e-06 
Loop time of 1.67637 on 104 procs for 141 steps with 288751 atoms

99.9% CPU use with 104 MPI tasks x 1 OpenMP threads

Minimization stats:
  Stopping criterion = energy tolerance
  Energy initial, next-to-last, final = 
     -1152448.96247841  -1152448.96529848  -1152448.96529848
  Force two-norm initial, final = 0.18184187 0.00023929959
  Force max component initial, final = 0.087926237 7.4639543e-05
  Final line search alpha, max atom move = 1.0000000 7.4639543e-05
  Iterations, force evaluations = 141 282

MPI task timing breakdown:
Section |  min time  |  avg time  |  max time  |%varavg| %total
---------------------------------------------------------------
Pair    | 0.43058    | 1.1926     | 1.5644     |  29.4 | 71.14
Neigh   | 0          | 0          | 0          |   0.0 |  0.00
Comm    | 0.027225   | 0.27221    | 0.80467    |  42.8 | 16.24
Output  | 0.00024803 | 0.00025105 | 0.0003756  |   0.0 |  0.01
Modify  | 1.9024e-05 | 0.0023412  | 0.0050602  |   2.3 |  0.14
Other   |            | 0.209      |            |       | 12.47

Nlocal:        2776.45 ave        3956 max           0 min
Histogram: 8 4 4 0 4 12 8 0 30 34
Nghost:        3879.12 ave        5424 max         232 min
Histogram: 8 0 8 0 16 0 8 8 16 40
Neighs:        79213.6 ave      115317 max           0 min
Histogram: 8 4 4 0 10 6 8 8 24 32

Total # of neighbors = 8238211
Ave neighs/atom = 28.530502
Neighbor list builds = 0
Dangerous builds = 0
The dot product: -1.0505736173277e-06
Setting atom values ...
  1 settings made for x
  1 settings made for y
  1 settings made for z
Setting up cg style minimization ...
  Unit style    : metal
  Current step  : 1041
Per MPI rank memory allocation (min/avg/max) = 5.441 | 5.816 | 6.074 Mbytes
Step PotEng KinEng TotEng v_fx v_fy v_fz 
    1041     -1152449            0     -1152449 0.0063446366  -0.05173882 0.0040719814 
    1264     -1152449            0     -1152449 9.5481514e-06 1.8678077e-05 -2.5974515e-06 
Loop time of 2.58953 on 104 procs for 223 steps with 288751 atoms

99.9% CPU use with 104 MPI tasks x 1 OpenMP threads

Minimization stats:
  Stopping criterion = energy tolerance
  Energy initial, next-to-last, final = 
     -1152448.96075099  -1152448.96402216  -1152448.96402216
  Force two-norm initial, final = 0.20219835 0.00011743013
  Force max component initial, final = 0.084700209 2.7390122e-05
  Final line search alpha, max atom move = 1.0000000 2.7390122e-05
  Iterations, force evaluations = 223 446

MPI task timing breakdown:
Section |  min time  |  avg time  |  max time  |%varavg| %total
---------------------------------------------------------------
Pair    | 0.68279    | 1.8723     | 2.4327     |  36.8 | 72.30
Neigh   | 0          | 0          | 0          |   0.0 |  0.00
Comm    | 0.038974   | 0.42283    | 1.2875     |  54.6 | 16.33
Output  | 0          | 0          | 0          |   0.0 |  0.00
Modify  | 2.9873e-05 | 0.0036942  | 0.0079467  |   2.9 |  0.14
Other   |            | 0.2907     |            |       | 11.23

Nlocal:        2776.45 ave        3955 max           0 min
Histogram: 8 4 4 0 4 12 8 0 30 34
Nghost:        3879.12 ave        5424 max         232 min
Histogram: 8 0 8 0 16 0 8 8 16 40
Neighs:        79213.6 ave      115282 max           0 min
Histogram: 8 4 4 0 10 6 8 8 24 32

Total # of neighbors = 8238212
Ave neighs/atom = 28.530506
Neighbor list builds = 0
Dangerous builds = 0
The dot product: 3.04742467714962e-07
Setting atom values ...
  1 settings made for x
  1 settings made for y
  1 settings made for z
Setting up cg style minimization ...
  Unit style    : metal
  Current step  : 1264
Per MPI rank memory allocation (min/avg/max) = 5.441 | 5.816 | 6.074 Mbytes
Step PotEng KinEng TotEng v_fx v_fy v_fz 
    1264     -1152449            0     -1152449 -6.0681116e-05 -0.061187289  0.012082991 
    1451     -1152449            0     -1152449 6.3782118e-06 1.3169392e-05 -3.5324619e-06 
Loop time of 2.22346 on 104 procs for 187 steps with 288751 atoms

99.9% CPU use with 104 MPI tasks x 1 OpenMP threads

Minimization stats:
  Stopping criterion = energy tolerance
  Energy initial, next-to-last, final = 
     -1152448.95984639  -1152448.96232782  -1152448.96232782
  Force two-norm initial, final = 0.21411183 0.00016250082
  Force max component initial, final = 0.095170597 4.7813814e-05
  Final line search alpha, max atom move = 1.0000000 4.7813814e-05
  Iterations, force evaluations = 187 374

MPI task timing breakdown:
Section |  min time  |  avg time  |  max time  |%varavg| %total
---------------------------------------------------------------
Pair    | 0.57082    | 1.58       | 2.0797     |  33.9 | 71.06
Neigh   | 0          | 0          | 0          |   0.0 |  0.00
Comm    | 0.034542   | 0.36202    | 1.0824     |  49.1 | 16.28
Output  | 0          | 0          | 0          |   0.0 |  0.00
Modify  | 2.4531e-05 | 0.0030984  | 0.0066148  |   2.6 |  0.14
Other   |            | 0.2784     |            |       | 12.52

Nlocal:        2776.45 ave        3955 max           0 min
Histogram: 8 4 4 0 4 12 8 0 30 34
Nghost:        3879.12 ave        5424 max         232 min
Histogram: 8 0 8 0 16 0 8 8 16 40
Neighs:        79213.6 ave      115288 max           0 min
Histogram: 8 4 4 0 10 6 8 8 24 32

Total # of neighbors = 8238213
Ave neighs/atom = 28.530509
Neighbor list builds = 0
Dangerous builds = 0
The dot product: -2.19162041007595e-08
Setting atom values ...
  1 settings made for x
  1 settings made for y
  1 settings made for z
Setting up cg style minimization ...
  Unit style    : metal
  Current step  : 1451
Per MPI rank memory allocation (min/avg/max) = 5.441 | 5.816 | 6.074 Mbytes
Step PotEng KinEng TotEng v_fx v_fy v_fz 
    1451     -1152449            0     -1152449 -0.0031905542 -0.072127481  0.013765558 
    1612     -1152449            0     -1152449 6.5511631e-06 1.3736059e-05 -3.5086594e-06 
Loop time of 1.87651 on 104 procs for 161 steps with 288751 atoms

99.9% CPU use with 104 MPI tasks x 1 OpenMP threads

Minimization stats:
  Stopping criterion = energy tolerance
  Energy initial, next-to-last, final = 
      -1152448.9575005  -1152448.95997467  -1152448.95997467
  Force two-norm initial, final = 0.21682576 0.00022148423
  Force max component initial, final = 0.095371748 2.9878719e-05
  Final line search alpha, max atom move = 1.0000000 2.9878719e-05
  Iterations, force evaluations = 161 322

MPI task timing breakdown:
Section |  min time  |  avg time  |  max time  |%varavg| %total
---------------------------------------------------------------
Pair    | 0.49259    | 1.3548     | 1.7588     |  31.3 | 72.20
Neigh   | 0          | 0          | 0          |   0.0 |  0.00
Comm    | 0.028628   | 0.30488    | 0.92131    |  46.4 | 16.25
Output  | 0          | 0          | 0          |   0.0 |  0.00
Modify  | 2.1489e-05 | 0.0026629  | 0.0057564  |   2.4 |  0.14
Other   |            | 0.2142     |            |       | 11.42

Nlocal:        2776.45 ave        3955 max           0 min
Histogram: 8 4 4 0 4 12 8 0 30 34
Nghost:        3879.12 ave        5424 max         232 min
Histogram: 8 0 8 0 16 0 8 8 16 40
Neighs:        79213.6 ave      115285 max           0 min
Histogram: 8 4 4 0 10 6 8 8 24 32

Total # of neighbors = 8238210
Ave neighs/atom = 28.530499
Neighbor list builds = 0
Dangerous builds = 0
The dot product: -7.32113705254792e-08
Setting atom values ...
  1 settings made for x
  1 settings made for y
  1 settings made for z
Setting up cg style minimization ...
  Unit style    : metal
  Current step  : 1612
Per MPI rank memory allocation (min/avg/max) = 5.441 | 5.816 | 6.074 Mbytes
Step PotEng KinEng TotEng v_fx v_fy v_fz 
    1612     -1152449            0     -1152449 -0.0043664053 -0.078668842  0.012693411 
    1777     -1152449            0     -1152449 1.9493192e-05 4.4917965e-05 -9.7214734e-06 
Loop time of 1.98815 on 104 procs for 165 steps with 288751 atoms

99.9% CPU use with 104 MPI tasks x 1 OpenMP threads

Minimization stats:
  Stopping criterion = energy tolerance
  Energy initial, next-to-last, final = 
     -1152448.95466367   -1152448.9572249   -1152448.9572249
  Force two-norm initial, final = 0.21678675 0.00024923492
  Force max component initial, final = 0.093723564 6.0661496e-05
  Final line search alpha, max atom move = 1.0000000 6.0661496e-05
  Iterations, force evaluations = 165 330

MPI task timing breakdown:
Section |  min time  |  avg time  |  max time  |%varavg| %total
---------------------------------------------------------------
Pair    | 0.5026     | 1.4025     | 1.8563     |  32.2 | 70.55
Neigh   | 0          | 0          | 0          |   0.0 |  0.00
Comm    | 0.027822   | 0.32477    | 0.97247    |  46.2 | 16.34
Output  | 0          | 0          | 0          |   0.0 |  0.00
Modify  | 2.1348e-05 | 0.0027253  | 0.0058447  |   2.5 |  0.14
Other   |            | 0.2581     |            |       | 12.98

Nlocal:        2776.45 ave        3955 max           0 min
Histogram: 8 4 4 0 4 12 8 0 30 34
Nghost:        3879.12 ave        5424 max         232 min
Histogram: 8 0 8 0 16 0 8 8 16 40
Neighs:        79213.5 ave      115282 max           0 min
Histogram: 8 4 4 0 10 6 8 8 24 32

Total # of neighbors = 8238208
Ave neighs/atom = 28.530492
Neighbor list builds = 0
Dangerous builds = 0
The dot product: -2.42388860015597e-07
Setting atom values ...
  1 settings made for x
  1 settings made for y
  1 settings made for z
Setting up cg style minimization ...
  Unit style    : metal
  Current step  : 1777
Per MPI rank memory allocation (min/avg/max) = 5.441 | 5.816 | 6.074 Mbytes
Step PotEng KinEng TotEng v_fx v_fy v_fz 
    1777     -1152449            0     -1152449 -0.0044715605 -0.082630592  0.010930393 
    1967     -1152449            0     -1152449 3.2493677e-06 5.7922029e-06 -1.1887772e-06 
Loop time of 2.23407 on 104 procs for 190 steps with 288751 atoms

99.9% CPU use with 104 MPI tasks x 1 OpenMP threads

Minimization stats:
  Stopping criterion = energy tolerance
  Energy initial, next-to-last, final = 
     -1152448.95149541  -1152448.95377111  -1152448.95377111
  Force two-norm initial, final = 0.21592259 0.00010150574
  Force max component initial, final = 0.092016847 1.3880717e-05
  Final line search alpha, max atom move = 1.0000000 1.3880717e-05
  Iterations, force evaluations = 190 380

MPI task timing breakdown:
Section |  min time  |  avg time  |  max time  |%varavg| %total
---------------------------------------------------------------
Pair    | 0.58192    | 1.6021     | 2.0893     |  34.1 | 71.71
Neigh   | 0          | 0          | 0          |   0.0 |  0.00
Comm    | 0.035109   | 0.36589    | 1.1058     |  50.1 | 16.38
Output  | 0          | 0          | 0          |   0.0 |  0.00
Modify  | 2.5865e-05 | 0.0031437  | 0.0067387  |   2.6 |  0.14
Other   |            | 0.2629     |            |       | 11.77

Nlocal:        2776.45 ave        3954 max           0 min
Histogram: 8 4 4 0 4 12 8 0 30 34
Nghost:        3879.12 ave        5424 max         232 min
Histogram: 8 0 8 0 16 0 8 8 16 40
Neighs:        79213.5 ave      115255 max           0 min
Histogram: 8 4 4 0 10 6 8 8 24 32

Total # of neighbors = 8238202
Ave neighs/atom = 28.530471
Neighbor list builds = 0
Dangerous builds = 0
The dot product: -4.47714313021907e-08
Setting atom values ...
  1 settings made for x
  1 settings made for y
  1 settings made for z
Setting up cg style minimization ...
  Unit style    : metal
  Current step  : 1967
Per MPI rank memory allocation (min/avg/max) = 5.441 | 5.816 | 6.074 Mbytes
Step PotEng KinEng TotEng v_fx v_fy v_fz 
    1967   -1152448.9            0   -1152448.9 -0.0053848326  -0.08787838 0.0085838146 
    2000   -1152448.9            0   -1152448.9 -0.00010810779 -0.00034469239 4.5788034e-05 
    2188   -1152448.9            0   -1152448.9 2.8922361e-06 8.2168725e-06 -1.1354125e-06 
Loop time of 2.63558 on 104 procs for 221 steps with 288751 atoms

99.9% CPU use with 104 MPI tasks x 1 OpenMP threads

Minimization stats:
  Stopping criterion = energy tolerance
  Energy initial, next-to-last, final = 
     -1152448.94730368  -1152448.94953209  -1152448.94953209
  Force two-norm initial, final = 0.21492634 4.9344032e-05
  Force max component initial, final = 0.089418013 9.0781522e-06
  Final line search alpha, max atom move = 1.0000000 9.0781522e-06
  Iterations, force evaluations = 221 442

MPI task timing breakdown:
Section |  min time  |  avg time  |  max time  |%varavg| %total
---------------------------------------------------------------
Pair    | 0.67466    | 1.8649     | 2.4708     |  36.8 | 70.76
Neigh   | 0          | 0          | 0          |   0.0 |  0.00
Comm    | 0.038413   | 0.43025    | 1.2787     |  53.2 | 16.32
Output  | 0.00015663 | 0.00015896 | 0.00024576 |   0.0 |  0.01
Modify  | 2.9301e-05 | 0.003655   | 0.007907   |   2.8 |  0.14
Other   |            | 0.3366     |            |       | 12.77

Nlocal:        2776.45 ave        3954 max           0 min
Histogram: 8 4 4 0 4 12 8 0 30 34
Nghost:        3879.12 ave        5424 max         232 min
Histogram: 8 0 8 0 16 0 8 8 16 40
Neighs:        79213.5 ave      115255 max           0 min
Histogram: 8 4 4 0 10 6 8 8 24 32

Total # of neighbors = 8238201
Ave neighs/atom = 28.530467
Neighbor list builds = 0
Dangerous builds = 0
The dot product: -7.3161484974162e-08
Setting atom values ...
  1 settings made for x
  1 settings made for y
  1 settings made for z
Setting up cg style minimization ...
  Unit style    : metal
  Current step  : 2188
Per MPI rank memory allocation (min/avg/max) = 5.441 | 5.816 | 6.074 Mbytes
Step PotEng KinEng TotEng v_fx v_fy v_fz 
    2188   -1152448.9            0   -1152448.9 -0.0065021915 -0.091778122 0.0056253319 
    2362   -1152448.9            0   -1152448.9 -7.3181095e-06 -1.9533402e-05 1.9826995e-06 
Loop time of 2.01839 on 104 procs for 174 steps with 288751 atoms

99.9% CPU use with 104 MPI tasks x 1 OpenMP threads

Minimization stats:
  Stopping criterion = energy tolerance
  Energy initial, next-to-last, final = 
      -1152448.9423797  -1152448.94455661  -1152448.94455661
  Force two-norm initial, final = 0.21312954 0.00014709928
  Force max component initial, final = 0.091778122 2.8219866e-05
  Final line search alpha, max atom move = 1.0000000 2.8219866e-05
  Iterations, force evaluations = 174 348

MPI task timing breakdown:
Section |  min time  |  avg time  |  max time  |%varavg| %total
---------------------------------------------------------------
Pair    | 0.53018    | 1.4613     | 1.9002     |  32.5 | 72.40
Neigh   | 0          | 0          | 0          |   0.0 |  0.00
Comm    | 0.030296   | 0.33001    | 1.0065     |  48.2 | 16.35
Output  | 0          | 0          | 0          |   0.0 |  0.00
Modify  | 2.2773e-05 | 0.002881   | 0.0062918  |   2.5 |  0.14
Other   |            | 0.2243     |            |       | 11.11

Nlocal:        2776.45 ave        3954 max           0 min
Histogram: 8 4 4 0 4 12 8 0 30 34
Nghost:        3879.12 ave        5428 max         232 min
Histogram: 8 0 8 0 16 0 8 8 16 40
Neighs:        79213.5 ave      115265 max           0 min
Histogram: 8 4 4 0 10 6 8 8 24 32

Total # of neighbors = 8238208
Ave neighs/atom = 28.530492
Neighbor list builds = 0
Dangerous builds = 0
The dot product: 1.76086987999934e-07
Setting atom values ...
  1 settings made for x
  1 settings made for y
  1 settings made for z
Setting up cg style minimization ...
  Unit style    : metal
  Current step  : 2362
Per MPI rank memory allocation (min/avg/max) = 5.441 | 5.816 | 6.074 Mbytes
Step PotEng KinEng TotEng v_fx v_fy v_fz 
    2362   -1152448.9            0   -1152448.9 -0.0066701146 -0.093798629 0.0024534596 
    2563   -1152448.9            0   -1152448.9 9.8123474e-07 1.4659492e-06 -1.4965072e-07 
Loop time of 2.37431 on 104 procs for 201 steps with 288751 atoms

99.9% CPU use with 104 MPI tasks x 1 OpenMP threads

Minimization stats:
  Stopping criterion = energy tolerance
  Energy initial, next-to-last, final = 
     -1152448.93671505  -1152448.93877829  -1152448.93877829
  Force two-norm initial, final = 0.2108989 7.0756502e-05
  Force max component initial, final = 0.093798629 6.6078205e-06
  Final line search alpha, max atom move = 1.0000000 6.6078205e-06
  Iterations, force evaluations = 201 402

MPI task timing breakdown:
Section |  min time  |  avg time  |  max time  |%varavg| %total
---------------------------------------------------------------
Pair    | 0.60961    | 1.6959     | 2.2262     |  35.2 | 71.43
Neigh   | 0          | 0          | 0          |   0.0 |  0.00
Comm    | 0.035896   | 0.38807    | 1.1559     |  51.3 | 16.34
Output  | 0          | 0          | 0          |   0.0 |  0.00
Modify  | 2.6546e-05 | 0.0033283  | 0.0071477  |   2.7 |  0.14
Other   |            | 0.287      |            |       | 12.09

Nlocal:        2776.45 ave        3954 max           0 min
Histogram: 8 4 4 0 4 12 8 0 30 34
Nghost:        3879.12 ave        5424 max         232 min
Histogram: 8 0 8 0 16 0 8 8 16 40
Neighs:        79213.5 ave      115274 max           0 min
Histogram: 8 4 4 0 10 6 8 8 24 32

Total # of neighbors = 8238203
Ave neighs/atom = 28.530474
Neighbor list builds = 0
Dangerous builds = 0
The dot product: -1.15976832380015e-08
Setting atom values ...
  1 settings made for x
  1 settings made for y
  1 settings made for z
Setting up cg style minimization ...
  Unit style    : metal
  Current step  : 2563
Per MPI rank memory allocation (min/avg/max) = 5.441 | 5.816 | 6.074 Mbytes
Step PotEng KinEng TotEng v_fx v_fy v_fz 
    2563   -1152448.9            0   -1152448.9 -0.0057652037 -0.093845532 -0.00042614585 
    2740   -1152448.9            0   -1152448.9 7.4500042e-06 1.8666919e-05 -7.1101755e-07 
Loop time of 2.06036 on 104 procs for 177 steps with 288751 atoms

99.9% CPU use with 104 MPI tasks x 1 OpenMP threads

Minimization stats:
  Stopping criterion = energy tolerance
  Energy initial, next-to-last, final = 
     -1152448.93017839  -1152448.93214885  -1152448.93214885
  Force two-norm initial, final = 0.2085106 0.00011328281
  Force max component initial, final = 0.093845532 1.8666919e-05
  Final line search alpha, max atom move = 1.0000000 1.8666919e-05
  Iterations, force evaluations = 177 354

MPI task timing breakdown:
Section |  min time  |  avg time  |  max time  |%varavg| %total
---------------------------------------------------------------
Pair    | 0.5387     | 1.4876     | 1.9318     |  32.8 | 72.20
Neigh   | 0          | 0          | 0          |   0.0 |  0.00
Comm    | 0.031206   | 0.33465    | 1.0093     |  48.6 | 16.24
Output  | 0          | 0          | 0          |   0.0 |  0.00
Modify  | 2.3493e-05 | 0.0029263  | 0.0063278  |   2.5 |  0.14
Other   |            | 0.2352     |            |       | 11.41

Nlocal:        2776.45 ave        3954 max           0 min
Histogram: 8 4 4 0 4 12 8 0 30 34
Nghost:        3879.10 ave        5424 max         232 min
Histogram: 8 0 8 0 16 0 8 8 16 40
Neighs:        79213.5 ave      115271 max           0 min
Histogram: 8 4 4 0 10 6 8 8 24 32

Total # of neighbors = 8238199
Ave neighs/atom = 28.530461
Neighbor list builds = 0
Dangerous builds = 0
The dot product: -1.33034825084169e-07
Setting atom values ...
  1 settings made for x
  1 settings made for y
  1 settings made for z
Setting up cg style minimization ...
  Unit style    : metal
  Current step  : 2740
Per MPI rank memory allocation (min/avg/max) = 5.441 | 5.816 | 6.074 Mbytes
Step PotEng KinEng TotEng v_fx v_fy v_fz 
    2740   -1152448.9            0   -1152448.9 -0.011143923 -0.089806384 -0.0019979865 
    2966   -1152448.9            0   -1152448.9 -3.6346849e-07 -1.1855012e-06 1.3859945e-09 
Loop time of 2.64651 on 104 procs for 226 steps with 288751 atoms

99.9% CPU use with 104 MPI tasks x 1 OpenMP threads

Minimization stats:
  Stopping criterion = energy tolerance
  Energy initial, next-to-last, final = 
     -1152448.92260951  -1152448.92449698  -1152448.92449698
  Force two-norm initial, final = 0.20467796 2.4234323e-05
  Force max component initial, final = 0.089806384 1.6464440e-06
  Final line search alpha, max atom move = 1.0000000 1.6464440e-06
  Iterations, force evaluations = 226 452

MPI task timing breakdown:
Section |  min time  |  avg time  |  max time  |%varavg| %total
---------------------------------------------------------------
Pair    | 0.68531    | 1.9057     | 2.4875     |  37.2 | 72.01
Neigh   | 0          | 0          | 0          |   0.0 |  0.00
Comm    | 0.038685   | 0.43296    | 1.309      |  54.9 | 16.36
Output  | 0          | 0          | 0          |   0.0 |  0.00
Modify  | 2.9773e-05 | 0.0037395  | 0.0080591  |   2.9 |  0.14
Other   |            | 0.3041     |            |       | 11.49

Nlocal:        2776.45 ave        3954 max           0 min
Histogram: 8 4 4 0 4 12 8 0 30 34
Nghost:        3879.07 ave        5424 max         232 min
Histogram: 8 0 8 0 16 0 8 8 16 40
Neighs:        79213.5 ave      115268 max           0 min
Histogram: 8 4 4 0 10 6 8 8 24 32

Total # of neighbors = 8238199
Ave neighs/atom = 28.530461
Neighbor list builds = 0
Dangerous builds = 0
The dot product: 7.19484734342369e-09
Setting atom values ...
  1 settings made for x
  1 settings made for y
  1 settings made for z
Setting up cg style minimization ...
  Unit style    : metal
  Current step  : 2966
Per MPI rank memory allocation (min/avg/max) = 5.441 | 5.816 | 6.074 Mbytes
Step PotEng KinEng TotEng v_fx v_fy v_fz 
    2966   -1152448.9            0   -1152448.9 -0.019291523 -0.084371578 -0.0024196498 
    3000   -1152448.9            0   -1152448.9 4.2058906e-05 0.00010759961 8.7021491e-07 
    3184   -1152448.9            0   -1152448.9 -4.3094635e-06 -1.2914976e-05 -1.9821814e-07 
Loop time of 2.54682 on 104 procs for 218 steps with 288751 atoms

99.9% CPU use with 104 MPI tasks x 1 OpenMP threads

Minimization stats:
  Stopping criterion = energy tolerance
  Energy initial, next-to-last, final = 
     -1152448.91371317  -1152448.91558339  -1152448.91558339
  Force two-norm initial, final = 0.20186452 4.1692088e-05
  Force max component initial, final = 0.084371578 1.2914976e-05
  Final line search alpha, max atom move = 1.0000000 1.2914976e-05
  Iterations, force evaluations = 218 436

MPI task timing breakdown:
Section |  min time  |  avg time  |  max time  |%varavg| %total
---------------------------------------------------------------
Pair    | 0.6645     | 1.8345     | 2.379      |  36.5 | 72.03
Neigh   | 0          | 0          | 0          |   0.0 |  0.00
Comm    | 0.037012   | 0.41338    | 1.2479     |  53.7 | 16.23
Output  | 0.00016279 | 0.00016547 | 0.0002658  |   0.0 |  0.01
Modify  | 2.8817e-05 | 0.0036056  | 0.0077836  |   2.8 |  0.14
Other   |            | 0.2951     |            |       | 11.59

Nlocal:        2776.45 ave        3954 max           0 min
Histogram: 8 4 4 0 4 12 8 0 30 34
Nghost:        3879.09 ave        5424 max         232 min
Histogram: 8 0 8 0 16 0 8 8 16 40
Neighs:        79213.4 ave      115273 max           0 min
Histogram: 8 4 4 0 10 6 8 8 24 32

Total # of neighbors = 8238198
Ave neighs/atom = 28.530457
Neighbor list builds = 0
Dangerous builds = 0
The dot product: 6.51953459323966e-08
Setting atom values ...
  1 settings made for x
  1 settings made for y
  1 settings made for z
Setting up cg style minimization ...
  Unit style    : metal
  Current step  : 3184
Per MPI rank memory allocation (min/avg/max) = 5.441 | 5.816 | 6.074 Mbytes
Step PotEng KinEng TotEng v_fx v_fy v_fz 
    3184   -1152448.9            0   -1152448.9 -0.023754653 -0.081411686 -0.0029339078 
    3343   -1152448.9            0   -1152448.9 5.6854717e-06   1.2326e-05 1.8967483e-07 
Loop time of 1.89015 on 104 procs for 159 steps with 288751 atoms

99.9% CPU use with 104 MPI tasks x 1 OpenMP threads

Minimization stats:
  Stopping criterion = energy tolerance
  Energy initial, next-to-last, final = 
     -1152448.90344975  -1152448.90531307  -1152448.90531307
  Force two-norm initial, final = 0.20039309 0.00018163012
  Force max component initial, final = 0.082615997 1.7246130e-05
  Final line search alpha, max atom move = 1.0000000 1.7246130e-05
  Iterations, force evaluations = 159 318

MPI task timing breakdown:
Section |  min time  |  avg time  |  max time  |%varavg| %total
---------------------------------------------------------------
Pair    | 0.48411    | 1.347      | 1.7732     |  31.4 | 71.26
Neigh   | 0          | 0          | 0          |   0.0 |  0.00
Comm    | 0.026849   | 0.3103     | 0.93066    |  45.5 | 16.42
Output  | 0          | 0          | 0          |   0.0 |  0.00
Modify  | 2.1164e-05 | 0.0026325  | 0.0056258  |   2.4 |  0.14
Other   |            | 0.2302     |            |       | 12.18

Nlocal:        2776.45 ave        3954 max           0 min
Histogram: 8 4 4 0 4 12 8 0 30 34
Nghost:        3879.11 ave        5424 max         232 min
Histogram: 8 0 8 0 16 0 8 8 16 40
Neighs:        79213.4 ave      115274 max           0 min
Histogram: 8 4 4 0 10 6 8 8 24 32

Total # of neighbors = 8238198
Ave neighs/atom = 28.530457
Neighbor list builds = 0
Dangerous builds = 0
The dot product: -5.54882653509236e-08
Setting atom values ...
  1 settings made for x
  1 settings made for y
  1 settings made for z
Setting up cg style minimization ...
  Unit style    : metal
  Current step  : 3343
Per MPI rank memory allocation (min/avg/max) = 5.441 | 5.816 | 6.074 Mbytes
Step PotEng KinEng TotEng v_fx v_fy v_fz 
    3343   -1152448.9            0   -1152448.9 -0.026377104 -0.079292086 -0.0034398581 
    3527   -1152448.9            0   -1152448.9 3.869712e-06 8.3538914e-06 2.3606835e-07 
Loop time of 2.15798 on 104 procs for 184 steps with 288751 atoms

99.9% CPU use with 104 MPI tasks x 1 OpenMP threads

Minimization stats:
  Stopping criterion = energy tolerance
  Energy initial, next-to-last, final = 
     -1152448.89182518  -1152448.89369874  -1152448.89369874
  Force two-norm initial, final = 0.1994048 9.4478439e-05
  Force max component initial, final = 0.084300193 9.4814323e-06
  Final line search alpha, max atom move = 1.0000000 9.4814323e-06
  Iterations, force evaluations = 184 368

MPI task timing breakdown:
Section |  min time  |  avg time  |  max time  |%varavg| %total
---------------------------------------------------------------
Pair    | 0.5622     | 1.549      | 2.023      |  33.6 | 71.78
Neigh   | 0          | 0          | 0          |   0.0 |  0.00
Comm    | 0.036785   | 0.35488    | 1.0767     |  49.5 | 16.45
Output  | 0          | 0          | 0          |   0.0 |  0.00
Modify  | 2.3908e-05 | 0.0030429  | 0.0065652  |   2.6 |  0.14
Other   |            | 0.251      |            |       | 11.63

Nlocal:        2776.45 ave        3954 max           0 min
Histogram: 8 4 4 0 4 12 8 0 30 34
Nghost:        3879.11 ave        5424 max         232 min
Histogram: 8 0 8 0 16 0 8 8 16 40
Neighs:        79213.5 ave      115275 max           0 min
Histogram: 8 4 4 0 10 6 8 8 24 32

Total # of neighbors = 8238200
Ave neighs/atom = 28.530464
Neighbor list builds = 0
Dangerous builds = 0
The dot product: -2.63023827480353e-08
Setting atom values ...
  1 settings made for x
  1 settings made for y
  1 settings made for z
Setting up cg style minimization ...
  Unit style    : metal
  Current step  : 3527
Per MPI rank memory allocation (min/avg/max) = 5.441 | 5.816 | 6.074 Mbytes
Step PotEng KinEng TotEng v_fx v_fy v_fz 
    3527   -1152448.9            0   -1152448.9 -0.027702086 -0.076662182 -0.0036965964 
    3730   -1152448.9            0   -1152448.9 1.1191316e-05 3.4720764e-05 1.8245232e-06 
Loop time of 2.41171 on 104 procs for 203 steps with 288751 atoms

99.9% CPU use with 104 MPI tasks x 1 OpenMP threads

Minimization stats:
  Stopping criterion = energy tolerance
  Energy initial, next-to-last, final = 
     -1152448.87889934  -1152448.88091087  -1152448.88091087
  Force two-norm initial, final = 0.19850794 0.00013011592
  Force max component initial, final = 0.085694945 3.4720764e-05
  Final line search alpha, max atom move = 1.0000000 3.4720764e-05
  Iterations, force evaluations = 203 406

MPI task timing breakdown:
Section |  min time  |  avg time  |  max time  |%varavg| %total
---------------------------------------------------------------
Pair    | 0.61742    | 1.7157     | 2.2698     |  35.3 | 71.14
Neigh   | 0          | 0          | 0          |   0.0 |  0.00
Comm    | 0.03406    | 0.39654    | 1.1948     |  51.4 | 16.44
Output  | 0          | 0          | 0          |   0.0 |  0.00
Modify  | 2.6722e-05 | 0.0033491  | 0.0071802  |   2.7 |  0.14
Other   |            | 0.2961     |            |       | 12.28

Nlocal:        2776.45 ave        3955 max           0 min
Histogram: 8 4 4 0 4 12 8 0 30 34
Nghost:        3879.11 ave        5424 max         232 min
Histogram: 8 0 8 0 16 0 8 8 16 40
Neighs:        79213.4 ave      115311 max           0 min
Histogram: 8 4 4 0 10 6 8 8 24 32

Total # of neighbors = 8238198
Ave neighs/atom = 28.530457
Neighbor list builds = 0
Dangerous builds = 0
The dot product: 2.73877314757965e-07
Setting atom values ...
  1 settings made for x
  1 settings made for y
  1 settings made for z
Setting up cg style minimization ...
  Unit style    : metal
  Current step  : 3730
Per MPI rank memory allocation (min/avg/max) = 5.441 | 5.816 | 6.074 Mbytes
Step PotEng KinEng TotEng v_fx v_fy v_fz 
    3730   -1152448.9            0   -1152448.9 -0.020218245 -0.062728597 -0.0020063195 
    3929   -1152448.9            0   -1152448.9 -7.3793981e-06 -2.3207554e-05 -7.5430738e-07 
Loop time of 2.37331 on 104 procs for 199 steps with 288751 atoms

99.9% CPU use with 104 MPI tasks x 1 OpenMP threads

Minimization stats:
  Stopping criterion = energy tolerance
  Energy initial, next-to-last, final = 
     -1152448.86546941  -1152448.86802894  -1152448.86802894
  Force two-norm initial, final = 0.19472481 0.00011159666
  Force max component initial, final = 0.084247471 2.3207554e-05
  Final line search alpha, max atom move = 1.0000000 2.3207554e-05
  Iterations, force evaluations = 199 398

MPI task timing breakdown:
Section |  min time  |  avg time  |  max time  |%varavg| %total
---------------------------------------------------------------
Pair    | 0.60385    | 1.6806     | 2.1812     |  35.0 | 70.81
Neigh   | 0          | 0          | 0          |   0.0 |  0.00
Comm    | 0.038989   | 0.38586    | 1.1557     |  51.1 | 16.26
Output  | 0          | 0          | 0          |   0.0 |  0.00
Modify  | 2.5549e-05 | 0.0032987  | 0.0071729  |   2.7 |  0.14
Other   |            | 0.3036     |            |       | 12.79

Nlocal:        2776.45 ave        3955 max           0 min
Histogram: 8 4 4 0 4 12 8 0 30 34
Nghost:        3879.11 ave        5424 max         232 min
Histogram: 8 0 8 0 16 0 8 8 16 40
Neighs:        79213.4 ave      115301 max           0 min
Histogram: 8 4 4 0 10 6 8 8 24 32

Total # of neighbors = 8238191
Ave neighs/atom = 28.530433
Neighbor list builds = 0
Dangerous builds = 0
The dot product: -4.15342649092551e-07
Setting atom values ...
  1 settings made for x
  1 settings made for y
  1 settings made for z
Setting up cg style minimization ...
  Unit style    : metal
  Current step  : 3929
Per MPI rank memory allocation (min/avg/max) = 5.441 | 5.816 | 6.074 Mbytes
Step PotEng KinEng TotEng v_fx v_fy v_fz 
    3929   -1152448.9            0   -1152448.9 -0.014030429 -0.050584358 0.00031532018 
    4000   -1152448.9            0   -1152448.9 0.00018943533 0.00052138647 -9.444713e-06 
    4123   -1152448.9            0   -1152448.9 -1.3320935e-05 -3.8150624e-05 6.1640398e-07 
Loop time of 2.26803 on 104 procs for 194 steps with 288751 atoms

99.9% CPU use with 104 MPI tasks x 1 OpenMP threads

Minimization stats:
  Stopping criterion = energy tolerance
  Energy initial, next-to-last, final = 
     -1152448.85202704  -1152448.85415448  -1152448.85415448
  Force two-norm initial, final = 0.19446199 0.00012660088
  Force max component initial, final = 0.080437054 3.8150624e-05
  Final line search alpha, max atom move = 1.0000000 3.8150624e-05
  Iterations, force evaluations = 194 388

MPI task timing breakdown:
Section |  min time  |  avg time  |  max time  |%varavg| %total
---------------------------------------------------------------
Pair    | 0.58647    | 1.6315     | 2.1355     |  34.4 | 71.94
Neigh   | 0          | 0          | 0          |   0.0 |  0.00
Comm    | 0.034529   | 0.37006    | 1.1164     |  50.5 | 16.32
Output  | 0.0001534  | 0.00015901 | 0.00028371 |   0.0 |  0.01
Modify  | 2.5088e-05 | 0.0032156  | 0.0069181  |   2.7 |  0.14
Other   |            | 0.2631     |            |       | 11.60

Nlocal:        2776.45 ave        3955 max           0 min
Histogram: 8 4 4 0 4 12 8 0 30 34
Nghost:        3879.18 ave        5425 max         232 min
Histogram: 8 0 8 0 16 0 8 8 16 40
Neighs:        79213.4 ave      115301 max           0 min
Histogram: 8 4 4 0 10 6 8 8 24 32

Total # of neighbors = 8238193
Ave neighs/atom = 28.530440
Neighbor list builds = 0
Dangerous builds = 0
The dot product: -4.72067760911199e-07
Setting atom values ...
  1 settings made for x
  1 settings made for y
  1 settings made for z
Setting up cg style minimization ...
  Unit style    : metal
  Current step  : 4123
Per MPI rank memory allocation (min/avg/max) = 5.441 | 5.816 | 6.074 Mbytes
Step PotEng KinEng TotEng v_fx v_fy v_fz 
    4123   -1152448.8            0   -1152448.8 -0.020054778 -0.057275925 0.0026086911 
    4307   -1152448.8            0   -1152448.8 -1.6109757e-05 -4.6327293e-05 2.0935057e-06 
Loop time of 2.19661 on 104 procs for 184 steps with 288751 atoms

99.8% CPU use with 104 MPI tasks x 1 OpenMP threads

Minimization stats:
  Stopping criterion = energy tolerance
  Energy initial, next-to-last, final = 
     -1152448.83680008  -1152448.83889194  -1152448.83889194
  Force two-norm initial, final = 0.19916758 0.00016598862
  Force max component initial, final = 0.083014707 4.6327293e-05
  Final line search alpha, max atom move = 1.0000000 4.6327293e-05
  Iterations, force evaluations = 184 368

MPI task timing breakdown:
Section |  min time  |  avg time  |  max time  |%varavg| %total
---------------------------------------------------------------
Pair    | 0.56399    | 1.5522     | 2.0107     |  33.5 | 70.66
Neigh   | 0          | 0          | 0          |   0.0 |  0.00
Comm    | 0.037885   | 0.35653    | 1.0627     |  48.8 | 16.23
Output  | 0          | 0          | 0          |   0.0 |  0.00
Modify  | 2.4392e-05 | 0.0030488  | 0.0065704  |   2.6 |  0.14
Other   |            | 0.2849     |            |       | 12.97

Nlocal:        2776.45 ave        3956 max           0 min
Histogram: 8 4 4 0 4 12 8 0 30 34
Nghost:        3879.18 ave        5425 max         232 min
Histogram: 8 0 8 0 16 0 8 8 16 40
Neighs:        79213.4 ave      115335 max           0 min
Histogram: 8 4 4 0 10 6 8 8 24 32

Total # of neighbors = 8238190
Ave neighs/atom = 28.530429
Neighbor list builds = 0
Dangerous builds = 0
The dot product: -5.54518765592744e-07
Setting atom values ...
  1 settings made for x
  1 settings made for y
  1 settings made for z
Setting up cg style minimization ...
  Unit style    : metal
  Current step  : 4307
Per MPI rank memory allocation (min/avg/max) = 5.441 | 5.816 | 6.074 Mbytes
Step PotEng KinEng TotEng v_fx v_fy v_fz 
    4307   -1152448.8            0   -1152448.8 -0.023049063 -0.056581359 0.0046104955 
    4473   -1152448.8            0   -1152448.8 -9.73276e-06 -3.2809807e-05 2.1100993e-06 
Loop time of 1.96936 on 104 procs for 166 steps with 288751 atoms

99.9% CPU use with 104 MPI tasks x 1 OpenMP threads

Minimization stats:
  Stopping criterion = energy tolerance
  Energy initial, next-to-last, final = 
     -1152448.82027271  -1152448.82234386  -1152448.82234386
  Force two-norm initial, final = 0.20140421 0.00020141405
  Force max component initial, final = 0.08710066 4.7597099e-05
  Final line search alpha, max atom move = 1.0000000 4.7597099e-05
  Iterations, force evaluations = 166 332

MPI task timing breakdown:
Section |  min time  |  avg time  |  max time  |%varavg| %total
---------------------------------------------------------------
Pair    | 0.50501    | 1.404      | 1.8468     |  32.0 | 71.29
Neigh   | 0          | 0          | 0          |   0.0 |  0.00
Comm    | 0.029256   | 0.3194     | 0.94729    |  46.4 | 16.22
Output  | 0          | 0          | 0          |   0.0 |  0.00
Modify  | 2.1876e-05 | 0.0027506  | 0.0059366  |   2.5 |  0.14
Other   |            | 0.2432     |            |       | 12.35

Nlocal:        2776.45 ave        3955 max           0 min
Histogram: 8 4 4 0 4 12 8 0 30 34
Nghost:        3879.14 ave        5425 max         232 min
Histogram: 8 0 8 0 16 0 8 8 16 40
Neighs:        79213.4 ave      115301 max           0 min
Histogram: 8 4 4 0 10 6 8 8 24 32

Total # of neighbors = 8238192
Ave neighs/atom = 28.530436
Neighbor list builds = 0
Dangerous builds = 0
The dot product: -2.466657512036e-07
Setting atom values ...
  1 settings made for x
  1 settings made for y
  1 settings made for z
Setting up cg style minimization ...
  Unit style    : metal
  Current step  : 4473
Per MPI rank memory allocation (min/avg/max) = 5.441 | 5.816 | 6.074 Mbytes
Step PotEng KinEng TotEng v_fx v_fy v_fz 
    4473   -1152448.8            0   -1152448.8 -0.026771347 -0.063296878 0.0063654245 
    4640   -1152448.8            0   -1152448.8 1.1092578e-05 2.442501e-05 -2.5768175e-06 
Loop time of 1.94052 on 104 procs for 167 steps with 288751 atoms

99.9% CPU use with 104 MPI tasks x 1 OpenMP threads

Minimization stats:
  Stopping criterion = energy tolerance
  Energy initial, next-to-last, final = 
     -1152448.80235633   -1152448.8043586   -1152448.8043586
  Force two-norm initial, final = 0.20506832 0.00015264837
  Force max component initial, final = 0.089606538 2.4425010e-05
  Final line search alpha, max atom move = 1.0000000 2.4425010e-05
  Iterations, force evaluations = 167 334

MPI task timing breakdown:
Section |  min time  |  avg time  |  max time  |%varavg| %total
---------------------------------------------------------------
Pair    | 0.50883    | 1.4031     | 1.8216     |  31.9 | 72.31
Neigh   | 0          | 0          | 0          |   0.0 |  0.00
Comm    | 0.028812   | 0.31452    | 0.94931    |  47.3 | 16.21
Output  | 0          | 0          | 0          |   0.0 |  0.00
Modify  | 2.252e-05  | 0.002765   | 0.0059476  |   2.5 |  0.14
Other   |            | 0.2201     |            |       | 11.34

Nlocal:        2776.45 ave        3954 max           0 min
Histogram: 8 4 4 0 4 12 8 0 30 34
Nghost:        3879.14 ave        5425 max         232 min
Histogram: 8 0 8 0 16 0 8 8 16 40
Neighs:        79213.4 ave      115281 max           0 min
Histogram: 8 4 4 0 10 6 8 8 24 32

Total # of neighbors = 8238191
Ave neighs/atom = 28.530433
Neighbor list builds = 0
Dangerous builds = 0
The dot product: 9.69383276902125e-08
Setting atom values ...
  1 settings made for x
  1 settings made for y
  1 settings made for z
Setting up cg style minimization ...
  Unit style    : metal
  Current step  : 4640
Per MPI rank memory allocation (min/avg/max) = 5.441 | 5.816 | 6.074 Mbytes
Step PotEng KinEng TotEng v_fx v_fy v_fz 
    4640   -1152448.8            0   -1152448.8 -0.029866064 -0.069225126 0.0076245885 
    4814   -1152448.8            0   -1152448.8 -2.8412382e-06 -2.7961373e-06 5.6701682e-07 
Loop time of 2.0506 on 104 procs for 174 steps with 288751 atoms

99.9% CPU use with 104 MPI tasks x 1 OpenMP threads

Minimization stats:
  Stopping criterion = energy tolerance
  Energy initial, next-to-last, final = 
      -1152448.7829926  -1152448.78492578  -1152448.78492578
  Force two-norm initial, final = 0.2078271 0.00010330238
  Force max component initial, final = 0.090786265 1.5009187e-05
  Final line search alpha, max atom move = 1.0000000 1.5009187e-05
  Iterations, force evaluations = 174 348

MPI task timing breakdown:
Section |  min time  |  avg time  |  max time  |%varavg| %total
---------------------------------------------------------------
Pair    | 0.5301     | 1.4743     | 1.9299     |  32.8 | 71.90
Neigh   | 0          | 0          | 0          |   0.0 |  0.00
Comm    | 0.030313   | 0.33863    | 1.0232     |  48.1 | 16.51
Output  | 0          | 0          | 0          |   0.0 |  0.00
Modify  | 2.2638e-05 | 0.0028733  | 0.0061878  |   2.5 |  0.14
Other   |            | 0.2348     |            |       | 11.45

Nlocal:        2776.45 ave        3954 max           0 min
Histogram: 8 4 4 0 4 12 8 0 30 34
Nghost:        3879.06 ave        5425 max         232 min
Histogram: 8 0 8 0 16 0 8 8 16 40
Neighs:        79213.3 ave      115245 max           0 min
Histogram: 8 4 4 0 10 6 8 8 24 32

Total # of neighbors = 8238188
Ave neighs/atom = 28.530422
Neighbor list builds = 0
Dangerous builds = 0
The dot product: 2.41108548800734e-09
Setting atom values ...
  1 settings made for x
  1 settings made for y
  1 settings made for z
Setting up cg style minimization ...
  Unit style    : metal
  Current step  : 4814
Per MPI rank memory allocation (min/avg/max) = 5.441 | 5.816 | 6.074 Mbytes
Step PotEng KinEng TotEng v_fx v_fy v_fz 
    4814   -1152448.8            0   -1152448.8  -0.03346483   -0.0751812 0.0084495197 
    4986   -1152448.8            0   -1152448.8 -2.6960526e-06 -3.2712071e-06 5.6021371e-07 
Loop time of 2.00165 on 104 procs for 172 steps with 288751 atoms

99.9% CPU use with 104 MPI tasks x 1 OpenMP threads

Minimization stats:
  Stopping criterion = energy tolerance
  Energy initial, next-to-last, final = 
     -1152448.76209156  -1152448.76397042  -1152448.76397042
  Force two-norm initial, final = 0.21012865 8.4945127e-05
  Force max component initial, final = 0.090812978 2.1760788e-05
  Final line search alpha, max atom move = 1.0000000 2.1760788e-05
  Iterations, force evaluations = 172 344

MPI task timing breakdown:
Section |  min time  |  avg time  |  max time  |%varavg| %total
---------------------------------------------------------------
Pair    | 0.52369    | 1.4445     | 1.8806     |  32.4 | 72.17
Neigh   | 0          | 0          | 0          |   0.0 |  0.00
Comm    | 0.029441   | 0.32631    | 0.98818    |  47.9 | 16.30
Output  | 0          | 0          | 0          |   0.0 |  0.00
Modify  | 2.266e-05  | 0.0028492  | 0.0061749  |   2.5 |  0.14
Other   |            | 0.2279     |            |       | 11.39

Nlocal:        2776.45 ave        3954 max           0 min
Histogram: 8 4 4 0 4 12 8 0 30 34
Nghost:        3879.11 ave        5424 max         232 min
Histogram: 8 0 8 0 16 0 8 8 16 40
Neighs:        79213.3 ave      115242 max           0 min
Histogram: 8 4 4 0 10 6 8 8 24 32

Total # of neighbors = 8238188
Ave neighs/atom = 28.530422
Neighbor list builds = 0
Dangerous builds = 0
The dot product: 1.39915697974606e-08
Setting atom values ...
  1 settings made for x
  1 settings made for y
  1 settings made for z
Setting up cg style minimization ...
  Unit style    : metal
  Current step  : 4986
Per MPI rank memory allocation (min/avg/max) = 5.441 | 5.816 | 6.074 Mbytes
Step PotEng KinEng TotEng v_fx v_fy v_fz 
    4986   -1152448.7            0   -1152448.7 -0.036461552 -0.079646961  0.008632059 
    5000   -1152448.7            0   -1152448.7 -0.00084468792 -0.0019584823 0.00020451504 
    5151   -1152448.7            0   -1152448.7 1.4471861e-05 4.0231491e-05 -3.7713914e-06 
Loop time of 1.94719 on 104 procs for 165 steps with 288751 atoms

99.9% CPU use with 104 MPI tasks x 1 OpenMP threads

Minimization stats:
  Stopping criterion = energy tolerance
  Energy initial, next-to-last, final = 
     -1152448.73963485  -1152448.74149003  -1152448.74149003
  Force two-norm initial, final = 0.21134454 0.0001117176
  Force max component initial, final = 0.089812827 4.2641040e-05
  Final line search alpha, max atom move = 1.0000000 4.2641040e-05
  Iterations, force evaluations = 165 330

MPI task timing breakdown:
Section |  min time  |  avg time  |  max time  |%varavg| %total
---------------------------------------------------------------
Pair    | 0.5025     | 1.3935     | 1.8323     |  31.8 | 71.56
Neigh   | 0          | 0          | 0          |   0.0 |  0.00
Comm    | 0.027912   | 0.31999    | 0.96689    |  46.4 | 16.43
Output  | 0.00016234 | 0.00016405 | 0.00023199 |   0.0 |  0.01
Modify  | 2.1289e-05 | 0.002726   | 0.0058363  |   2.5 |  0.14
Other   |            | 0.2309     |            |       | 11.86

Nlocal:        2776.45 ave        3954 max           0 min
Histogram: 8 4 4 0 4 12 8 0 30 34
Nghost:        3879.09 ave        5423 max         232 min
Histogram: 8 0 8 0 16 0 8 8 16 40
Neighs:        79213.3 ave      115242 max           0 min
Histogram: 8 4 4 0 10 6 8 8 24 32

Total # of neighbors = 8238187
Ave neighs/atom = 28.530419
Neighbor list builds = 0
Dangerous builds = 0
The dot product: -1.88554514217098e-07
Setting atom values ...
  1 settings made for x
  1 settings made for y
  1 settings made for z
Setting up cg style minimization ...
  Unit style    : metal
  Current step  : 5151
Per MPI rank memory allocation (min/avg/max) = 5.441 | 5.816 | 6.074 Mbytes
Step PotEng KinEng TotEng v_fx v_fy v_fz 
    5151   -1152448.7            0   -1152448.7  -0.03785488 -0.082385238 0.0081743591 
    5321   -1152448.7            0   -1152448.7 -4.3747143e-06 -1.3371858e-05 1.0763245e-06 
Loop time of 1.97425 on 104 procs for 170 steps with 288751 atoms

99.9% CPU use with 104 MPI tasks x 1 OpenMP threads

Minimization stats:
  Stopping criterion = energy tolerance
  Energy initial, next-to-last, final = 
     -1152448.71566557  -1152448.71749552  -1152448.71749552
  Force two-norm initial, final = 0.21131843 8.6955393e-05
  Force max component initial, final = 0.088087291 1.7693710e-05
  Final line search alpha, max atom move = 1.0000000 1.7693710e-05
  Iterations, force evaluations = 170 340

MPI task timing breakdown:
Section |  min time  |  avg time  |  max time  |%varavg| %total
---------------------------------------------------------------
Pair    | 0.5171     | 1.4318     | 1.8608     |  32.3 | 72.52
Neigh   | 0          | 0          | 0          |   0.0 |  0.00
Comm    | 0.02931    | 0.32269    | 0.98479    |  48.0 | 16.34
Output  | 0          | 0          | 0          |   0.0 |  0.00
Modify  | 2.3105e-05 | 0.0028201  | 0.0066337  |   2.5 |  0.14
Other   |            | 0.217      |            |       | 10.99

Nlocal:        2776.45 ave        3954 max           0 min
Histogram: 8 4 4 0 4 12 8 0 30 34
Nghost:        3879.10 ave        5423 max         232 min
Histogram: 8 0 8 0 16 0 8 8 16 40
Neighs:        79213.3 ave      115225 max           0 min
Histogram: 8 4 4 0 10 6 8 8 24 32

Total # of neighbors = 8238186
Ave neighs/atom = 28.530415
Neighbor list builds = 0
Dangerous builds = 0
The dot product: 7.65093590311094e-08
Setting atom values ...
  1 settings made for x
  1 settings made for y
  1 settings made for z
Setting up cg style minimization ...
  Unit style    : metal
  Current step  : 5321
Per MPI rank memory allocation (min/avg/max) = 5.441 | 5.816 | 6.074 Mbytes
Step PotEng KinEng TotEng v_fx v_fy v_fz 
    5321   -1152448.7            0   -1152448.7 -0.037787469 -0.084193031 0.0072838716 
    5543   -1152448.7            0   -1152448.7 -1.0669596e-06 -3.2853042e-06 2.2999975e-07 
Loop time of 2.62856 on 104 procs for 222 steps with 288751 atoms

99.9% CPU use with 104 MPI tasks x 1 OpenMP threads

Minimization stats:
  Stopping criterion = energy tolerance
  Energy initial, next-to-last, final = 
     -1152448.69020617  -1152448.69200457  -1152448.69200457
  Force two-norm initial, final = 0.21058011 2.5655451e-05
  Force max component initial, final = 0.086054368 4.3270628e-06
  Final line search alpha, max atom move = 1.0000000 4.3270628e-06
  Iterations, force evaluations = 222 444

MPI task timing breakdown:
Section |  min time  |  avg time  |  max time  |%varavg| %total
---------------------------------------------------------------
Pair    | 0.682      | 1.8738     | 2.4744     |  36.7 | 71.29
Neigh   | 0          | 0          | 0          |   0.0 |  0.00
Comm    | 0.038255   | 0.43014    | 1.2734     |  53.5 | 16.36
Output  | 0          | 0          | 0          |   0.0 |  0.00
Modify  | 2.8882e-05 | 0.0036668  | 0.0078936  |   2.8 |  0.14
Other   |            | 0.3209     |            |       | 12.21

Nlocal:        2776.45 ave        3954 max           0 min
Histogram: 8 4 4 0 4 12 8 0 30 34
Nghost:        3879.14 ave        5424 max         232 min
Histogram: 8 0 8 0 16 0 8 8 16 40
Neighs:        79213.3 ave      115224 max           0 min
Histogram: 8 4 4 0 10 6 8 8 24 32

Total # of neighbors = 8238188
Ave neighs/atom = 28.530422
Neighbor list builds = 0
Dangerous builds = 0
The dot product: 2.13950197190987e-08
Setting atom values ...
  1 settings made for x
  1 settings made for y
  1 settings made for z
Setting up cg style minimization ...
  Unit style    : metal
  Current step  : 5543
Per MPI rank memory allocation (min/avg/max) = 5.441 | 5.816 | 6.074 Mbytes
Step PotEng KinEng TotEng v_fx v_fy v_fz 
    5543   -1152448.7            0   -1152448.7 -0.036237352  -0.08531788 0.0060813907 
    5709   -1152448.7            0   -1152448.7 -4.1179591e-06 -1.3081202e-05 7.5358286e-07 
Loop time of 1.93345 on 104 procs for 166 steps with 288751 atoms

99.9% CPU use with 104 MPI tasks x 1 OpenMP threads

Minimization stats:
  Stopping criterion = energy tolerance
  Energy initial, next-to-last, final = 
     -1152448.66328174   -1152448.6650414   -1152448.6650414
  Force two-norm initial, final = 0.20921228 0.00010879572
  Force max component initial, final = 0.08531788 1.3081202e-05
  Final line search alpha, max atom move = 1.0000000 1.3081202e-05
  Iterations, force evaluations = 166 332

MPI task timing breakdown:
Section |  min time  |  avg time  |  max time  |%varavg| %total
---------------------------------------------------------------
Pair    | 0.50719    | 1.3977     | 1.8153     |  31.8 | 72.29
Neigh   | 0          | 0          | 0          |   0.0 |  0.00
Comm    | 0.029137   | 0.31468    | 0.95017    |  47.1 | 16.28
Output  | 0          | 0          | 0          |   0.0 |  0.00
Modify  | 2.1348e-05 | 0.0027514  | 0.0059549  |   2.5 |  0.14
Other   |            | 0.2183     |            |       | 11.29

Nlocal:        2776.45 ave        3954 max           0 min
Histogram: 8 4 4 0 4 12 8 2 28 34
Nghost:        3879.16 ave        5424 max         232 min
Histogram: 8 0 8 0 16 0 8 8 16 40
Neighs:        79213.3 ave      115224 max           0 min
Histogram: 8 4 4 0 10 6 8 8 24 32

Total # of neighbors = 8238186
Ave neighs/atom = 28.530415
Neighbor list builds = 0
Dangerous builds = 0
The dot product: 9.22592827422758e-08
Setting atom values ...
  1 settings made for x
  1 settings made for y
  1 settings made for z
Setting up cg style minimization ...
  Unit style    : metal
  Current step  : 5709
Per MPI rank memory allocation (min/avg/max) = 5.441 | 5.816 | 6.074 Mbytes
Step PotEng KinEng TotEng v_fx v_fy v_fz 
    5709   -1152448.6            0   -1152448.6 -0.033117415 -0.086052325 0.0046514201 
    5863   -1152448.6            0   -1152448.6 2.9146478e-06 1.0466398e-06 -3.4777022e-07 
Loop time of 1.80556 on 104 procs for 154 steps with 288751 atoms

99.9% CPU use with 104 MPI tasks x 1 OpenMP threads

Minimization stats:
  Stopping criterion = energy tolerance
  Energy initial, next-to-last, final = 
     -1152448.63491998  -1152448.63663664  -1152448.63663664
  Force two-norm initial, final = 0.20750601 0.00017471541
  Force max component initial, final = 0.086052325 3.6309967e-05
  Final line search alpha, max atom move = 1.0000000 3.6309967e-05
  Iterations, force evaluations = 154 308

MPI task timing breakdown:
Section |  min time  |  avg time  |  max time  |%varavg| %total
---------------------------------------------------------------
Pair    | 0.46867    | 1.2978     | 1.7031     |  30.7 | 71.88
Neigh   | 0          | 0          | 0          |   0.0 |  0.00
Comm    | 0.025887   | 0.29392    | 0.88487    |  45.2 | 16.28
Output  | 0          | 0          | 0          |   0.0 |  0.00
Modify  | 1.9722e-05 | 0.0025536  | 0.0055079  |   2.4 |  0.14
Other   |            | 0.2113     |            |       | 11.70

Nlocal:        2776.45 ave        3953 max           0 min
Histogram: 8 4 4 0 4 12 8 2 28 34
Nghost:        3879.16 ave        5424 max         232 min
Histogram: 8 0 8 0 16 0 8 8 16 40
Neighs:        79213.3 ave      115187 max           0 min
Histogram: 8 4 4 0 10 6 8 8 24 32

Total # of neighbors = 8238188
Ave neighs/atom = 28.530422
Neighbor list builds = 0
Dangerous builds = 0
The dot product: -2.02997665206662e-08
Setting atom values ...
  1 settings made for x
  1 settings made for y
  1 settings made for z
Setting up cg style minimization ...
  Unit style    : metal
  Current step  : 5863
Per MPI rank memory allocation (min/avg/max) = 5.441 | 5.816 | 6.074 Mbytes
Step PotEng KinEng TotEng v_fx v_fy v_fz 
    5863   -1152448.6            0   -1152448.6   -0.0281339 -0.086517805 0.0030253075 
    6000   -1152448.6            0   -1152448.6 4.9740213e-05 0.00011076888 -5.3585299e-06 
    6061   -1152448.6            0   -1152448.6 -1.9630381e-06 -3.4848147e-06 2.1168561e-07 
Loop time of 2.29541 on 104 procs for 198 steps with 288751 atoms

99.9% CPU use with 104 MPI tasks x 1 OpenMP threads

Minimization stats:
  Stopping criterion = energy tolerance
  Energy initial, next-to-last, final = 
     -1152448.60515793  -1152448.60683069  -1152448.60683069
  Force two-norm initial, final = 0.20561575 5.2187398e-05
  Force max component initial, final = 0.086517805 8.5228133e-06
  Final line search alpha, max atom move = 1.0000000 8.5228133e-06
  Iterations, force evaluations = 198 396

MPI task timing breakdown:
Section |  min time  |  avg time  |  max time  |%varavg| %total
---------------------------------------------------------------
Pair    | 0.60538    | 1.6608     | 2.1565     |  34.6 | 72.35
Neigh   | 0          | 0          | 0          |   0.0 |  0.00
Comm    | 0.034239   | 0.3722     | 1.1214     |  51.5 | 16.21
Output  | 0.00023451 | 0.00024177 | 0.00037882 |   0.0 |  0.01
Modify  | 2.5218e-05 | 0.0032735  | 0.007024   |   2.7 |  0.14
Other   |            | 0.2589     |            |       | 11.28

Nlocal:        2776.45 ave        3953 max           0 min
Histogram: 8 4 4 0 4 12 8 2 28 34
Nghost:        3879.11 ave        5424 max         232 min
Histogram: 8 0 8 0 16 0 8 8 16 40
Neighs:        79213.3 ave      115187 max           0 min
Histogram: 8 4 4 0 10 6 8 8 24 32

Total # of neighbors = 8238188
Ave neighs/atom = 28.530422
Neighbor list builds = 0
Dangerous builds = 0
The dot product: 3.1571742828749e-08
Setting atom values ...
  1 settings made for x
  1 settings made for y
  1 settings made for z
Setting up cg style minimization ...
  Unit style    : metal
  Current step  : 6061
Per MPI rank memory allocation (min/avg/max) = 5.441 | 5.816 | 6.074 Mbytes
Step PotEng KinEng TotEng v_fx v_fy v_fz 
    6061   -1152448.6            0   -1152448.6 -0.022117134 -0.086387893 0.0013270967 
    6226   -1152448.6            0   -1152448.6 -1.3761048e-05 -2.9598769e-05 1.0851722e-06 
Loop time of 1.93686 on 104 procs for 165 steps with 288751 atoms

99.9% CPU use with 104 MPI tasks x 1 OpenMP threads

Minimization stats:
  Stopping criterion = energy tolerance
  Energy initial, next-to-last, final = 
     -1152448.57405618  -1152448.57568623  -1152448.57568623
  Force two-norm initial, final = 0.20354028 0.00012247286
  Force max component initial, final = 0.086665436 3.2578195e-05
  Final line search alpha, max atom move = 1.0000000 3.2578195e-05
  Iterations, force evaluations = 165 330

MPI task timing breakdown:
Section |  min time  |  avg time  |  max time  |%varavg| %total
---------------------------------------------------------------
Pair    | 0.50275    | 1.3961     | 1.8219     |  31.9 | 72.08
Neigh   | 0          | 0          | 0          |   0.0 |  0.00
Comm    | 0.028274   | 0.3163     | 0.95517    |  46.9 | 16.33
Output  | 0          | 0          | 0          |   0.0 |  0.00
Modify  | 2.117e-05  | 0.0027294  | 0.0058746  |   2.5 |  0.14
Other   |            | 0.2217     |            |       | 11.45

Nlocal:        2776.45 ave        3953 max           0 min
Histogram: 8 4 4 0 4 12 8 2 28 34
Nghost:        3879.07 ave        5424 max         232 min
Histogram: 8 0 8 0 16 0 8 8 16 40
Neighs:        79213.4 ave      115193 max           0 min
Histogram: 8 4 4 0 10 6 8 8 24 32

Total # of neighbors = 8238189
Ave neighs/atom = 28.530426
Neighbor list builds = 0
Dangerous builds = 0
The dot product: 2.7086353388604e-07
Setting atom values ...
  1 settings made for x
  1 settings made for y
  1 settings made for z
Setting up cg style minimization ...
  Unit style    : metal
  Current step  : 6226
Per MPI rank memory allocation (min/avg/max) = 5.441 | 5.816 | 6.074 Mbytes
Step PotEng KinEng TotEng v_fx v_fy v_fz 
    6226   -1152448.5            0   -1152448.5 -0.012374806  -0.08725955 -0.00076495127 
    6506   -1152448.6            0   -1152448.6 -1.0813067e-05 -3.3907311e-05 2.9123284e-07 
Loop time of 3.27898 on 104 procs for 280 steps with 288751 atoms

99.9% CPU use with 104 MPI tasks x 1 OpenMP threads

Minimization stats:
  Stopping criterion = energy tolerance
  Energy initial, next-to-last, final = 
     -1152448.54177189  -1152448.61680364  -1152448.61680364
  Force two-norm initial, final = 0.20199032 0.00012286447
  Force max component initial, final = 0.088500499 5.0201381e-05
  Final line search alpha, max atom move = 1.0000000 5.0201381e-05
  Iterations, force evaluations = 280 560

MPI task timing breakdown:
Section |  min time  |  avg time  |  max time  |%varavg| %total
---------------------------------------------------------------
Pair    | 0.86358    | 2.3551     | 3.0657     |  41.1 | 71.83
Neigh   | 2.035e-05  | 0.0058776  | 0.0084736  |   3.2 |  0.18
Comm    | 0.047803   | 0.53574    | 1.6165     |  60.8 | 16.34
Output  | 0          | 0          | 0          |   0.0 |  0.00
Modify  | 3.6511e-05 | 0.0046275  | 0.0099638  |   3.2 |  0.14
Other   |            | 0.3776     |            |       | 11.52

Nlocal:        2776.45 ave        3953 max           0 min
Histogram: 8 4 4 0 4 12 8 2 28 34
Nghost:        3879.04 ave        5424 max         232 min
Histogram: 8 0 8 0 16 0 8 8 16 40
Neighs:        79213.4 ave      115210 max           0 min
Histogram: 8 4 4 0 10 6 8 8 24 32

Total # of neighbors = 8238190
Ave neighs/atom = 28.530429
Neighbor list builds = 2
Dangerous builds = 0
The dot product: 3.78838024733103e-06
Setting atom values ...
  1 settings made for x
  1 settings made for y
  1 settings made for z
Setting up cg style minimization ...
  Unit style    : metal
  Current step  : 6506
Per MPI rank memory allocation (min/avg/max) = 5.441 | 5.816 | 6.074 Mbytes
Step PotEng KinEng TotEng v_fx v_fy v_fz 
    6506   -1152448.6            0   -1152448.6   0.08781566  -0.14024761 -0.088038435 
    6727   -1152448.6            0   -1152448.6 2.6431391e-06 2.0081202e-05 5.104861e-06 
Loop time of 2.60534 on 104 procs for 221 steps with 288751 atoms

99.9% CPU use with 104 MPI tasks x 1 OpenMP threads

Minimization stats:
  Stopping criterion = energy tolerance
  Energy initial, next-to-last, final = 
     -1152448.61004662  -1152448.61311412  -1152448.61311412
  Force two-norm initial, final = 0.23212804 9.3335997e-05
  Force max component initial, final = 0.14024761 3.1879976e-05
  Final line search alpha, max atom move = 1.0000000 3.1879976e-05
  Iterations, force evaluations = 221 442

MPI task timing breakdown:
Section |  min time  |  avg time  |  max time  |%varavg| %total
---------------------------------------------------------------
Pair    | 0.67039    | 1.8669     | 2.452      |  36.9 | 71.66
Neigh   | 0          | 0          | 0          |   0.0 |  0.00
Comm    | 0.037591   | 0.42619    | 1.2789     |  54.1 | 16.36
Output  | 0          | 0          | 0          |   0.0 |  0.00
Modify  | 2.8783e-05 | 0.00365    | 0.0078898  |   2.8 |  0.14
Other   |            | 0.3086     |            |       | 11.85

Nlocal:        2776.45 ave        3955 max           0 min
Histogram: 8 4 4 0 4 12 8 0 30 34
Nghost:        3879.06 ave        5424 max         232 min
Histogram: 8 0 8 0 16 0 8 8 16 40
Neighs:        79213.3 ave      115320 max           0 min
Histogram: 8 4 4 0 10 6 8 8 24 32

Total # of neighbors = 8238185
Ave neighs/atom = 28.530412
Neighbor list builds = 0
Dangerous builds = 0
The dot product: -3.4193584119829e-07
Setting atom values ...
  1 settings made for x
  1 settings made for y
  1 settings made for z
Setting up cg style minimization ...
  Unit style    : metal
  Current step  : 6727
Per MPI rank memory allocation (min/avg/max) = 5.441 | 5.816 | 6.074 Mbytes
Step PotEng KinEng TotEng v_fx v_fy v_fz 
    6727   -1152448.6            0   -1152448.6 -0.0045430323 -0.075327476 -0.023975475 
    7000     -1152449            0     -1152449 5.0556267e-06 -5.1226598e-06 -4.5021351e-06 
    7044     -1152449            0     -1152449 4.0183942e-06 -3.9237427e-06 -3.526599e-06 
Loop time of 3.74655 on 104 procs for 317 steps with 288751 atoms

99.9% CPU use with 104 MPI tasks x 1 OpenMP threads

Minimization stats:
  Stopping criterion = energy tolerance
  Energy initial, next-to-last, final = 
     -1152448.60638625  -1152448.99362287  -1152448.99362287
  Force two-norm initial, final = 0.15918075 8.5045131e-05
  Force max component initial, final = 0.075327476 1.5100316e-05
  Final line search alpha, max atom move = 1.0000000 1.5100316e-05
  Iterations, force evaluations = 317 632

MPI task timing breakdown:
Section |  min time  |  avg time  |  max time  |%varavg| %total
---------------------------------------------------------------
Pair    | 0.99597    | 2.6657     | 3.4767     |  43.3 | 71.15
Neigh   | 9.0027e-05 | 0.026519   | 0.03864    |   6.7 |  0.71
Comm    | 0.056285   | 0.60504    | 1.8029     |  64.1 | 16.15
Output  | 0.00016054 | 0.00016413 | 0.00033062 |   0.0 |  0.00
Modify  | 4.0886e-05 | 0.0052234  | 0.01131    |   3.4 |  0.14
Other   |            | 0.4439     |            |       | 11.85

Nlocal:        2776.45 ave        3960 max           0 min
Histogram: 8 4 4 0 4 12 8 2 28 34
Nghost:        3879.12 ave        5425 max         232 min
Histogram: 8 0 8 0 16 0 8 8 16 40
Neighs:        79213.6 ave      115466 max           0 min
Histogram: 8 4 4 0 10 6 8 8 24 32

Total # of neighbors = 8238215
Ave neighs/atom = 28.530516
Neighbor list builds = 9
Dangerous builds = 0
The dot product: 2.94092609082006e-06
Setting atom values ...
  1 settings made for x
  1 settings made for y
  1 settings made for z
Setting up cg style minimization ...
  Unit style    : metal
  Current step  : 7044
Per MPI rank memory allocation (min/avg/max) = 5.441 | 5.816 | 6.074 Mbytes
Step PotEng KinEng TotEng v_fx v_fy v_fz 
    7044     -1152449            0     -1152449   0.25306359   0.56121694   0.76019437 
    7308   -1152449.2            0   -1152449.2 1.2617122e-05 -1.6024696e-05 -3.6827376e-05 
Loop time of 3.1259 on 104 procs for 264 steps with 288751 atoms

99.9% CPU use with 104 MPI tasks x 1 OpenMP threads

Minimization stats:
  Stopping criterion = energy tolerance
  Energy initial, next-to-last, final = 
     -1152449.01786394   -1152449.1735947   -1152449.1735947
  Force two-norm initial, final = 0.9902419 0.00012186639
  Force max component initial, final = 0.76019437 3.6827376e-05
  Final line search alpha, max atom move = 1.0000000 3.6827376e-05
  Iterations, force evaluations = 264 528

MPI task timing breakdown:
Section |  min time  |  avg time  |  max time  |%varavg| %total
---------------------------------------------------------------
Pair    | 0.80959    | 2.2276     | 2.932      |  40.1 | 71.26
Neigh   | 2.0567e-05 | 0.0058774  | 0.0085769  |   3.2 |  0.19
Comm    | 0.046825   | 0.51155    | 1.5417     |  58.6 | 16.37
Output  | 0          | 0          | 0          |   0.0 |  0.00
Modify  | 3.5478e-05 | 0.0043621  | 0.0093497  |   3.1 |  0.14
Other   |            | 0.3765     |            |       | 12.04

Nlocal:        2776.45 ave        3961 max           0 min
Histogram: 8 4 4 0 6 10 8 4 26 34
Nghost:        3879.04 ave        5426 max         232 min
Histogram: 8 0 8 0 16 0 8 8 16 40
Neighs:        79213.5 ave      115495 max           0 min
Histogram: 8 4 4 0 10 6 8 8 24 32

Total # of neighbors = 8238204
Ave neighs/atom = 28.530478
Neighbor list builds = 2
Dangerous builds = 0
The dot product: -9.73598295949346e-06
Setting atom values ...
  1 settings made for x
  1 settings made for y
  1 settings made for z
Setting up cg style minimization ...
  Unit style    : metal
  Current step  : 7308
Per MPI rank memory allocation (min/avg/max) = 5.441 | 5.816 | 6.074 Mbytes
Step PotEng KinEng TotEng v_fx v_fy v_fz 
    7308   -1152449.2            0   -1152449.2  -0.12314271  -0.36561121  -0.23860079 
    7579   -1152449.2            0   -1152449.2 -6.727091e-06 3.496108e-06 7.8313128e-06 
Loop time of 3.1523 on 104 procs for 271 steps with 288751 atoms

99.9% CPU use with 104 MPI tasks x 1 OpenMP threads

Minimization stats:
  Stopping criterion = energy tolerance
  Energy initial, next-to-last, final = 
     -1152449.19795124  -1152449.22519213  -1152449.22519213
  Force two-norm initial, final = 0.4839955 2.9833105e-05
  Force max component initial, final = 0.36561121 8.6991569e-06
  Final line search alpha, max atom move = 1.0000000 8.6991569e-06
  Iterations, force evaluations = 271 542

MPI task timing breakdown:
Section |  min time  |  avg time  |  max time  |%varavg| %total
---------------------------------------------------------------
Pair    | 0.8259     | 2.2783     | 2.9679     |  40.7 | 72.27
Neigh   | 1.0328e-05 | 0.0029336  | 0.0042675  |   2.2 |  0.09
Comm    | 0.046987   | 0.51245    | 1.5507     |  60.3 | 16.26
Output  | 0          | 0          | 0          |   0.0 |  0.00
Modify  | 3.4477e-05 | 0.0044908  | 0.009681   |   3.1 |  0.14
Other   |            | 0.3541     |            |       | 11.23

Nlocal:        2776.45 ave        3961 max           0 min
Histogram: 8 4 4 0 6 10 8 4 26 34
Nghost:        3879.08 ave        5425 max         232 min
Histogram: 8 0 8 0 16 0 8 8 16 40
Neighs:        79213.4 ave      115459 max           0 min
Histogram: 8 4 4 0 10 6 8 8 24 32

Total # of neighbors = 8238197
Ave neighs/atom = 28.530454
Neighbor list builds = 1
Dangerous builds = 0
The dot product: -5.12389797078838e-07
Setting atom values ...
  1 settings made for x
  1 settings made for y
  1 settings made for z
Setting up cg style minimization ...
  Unit style    : metal
  Current step  : 7579
Per MPI rank memory allocation (min/avg/max) = 5.441 | 5.816 | 6.074 Mbytes
Step PotEng KinEng TotEng v_fx v_fy v_fz 
    7579   -1152449.2            0   -1152449.2  0.046008791  0.077469984   0.05448936 
    7792   -1152449.3            0   -1152449.3 1.4969176e-05 -9.1754869e-06 -2.0702634e-05 
Loop time of 2.52821 on 104 procs for 213 steps with 288751 atoms

99.9% CPU use with 104 MPI tasks x 1 OpenMP threads

Minimization stats:
  Stopping criterion = energy tolerance
  Energy initial, next-to-last, final = 
     -1152449.24695968  -1152449.25173853  -1152449.25173853
  Force two-norm initial, final = 0.19037934 0.00011904942
  Force max component initial, final = 0.087887943 3.2622523e-05
  Final line search alpha, max atom move = 1.0000000 3.2622523e-05
  Iterations, force evaluations = 213 426

MPI task timing breakdown:
Section |  min time  |  avg time  |  max time  |%varavg| %total
---------------------------------------------------------------
Pair    | 0.6457     | 1.8006     | 2.3518     |  36.2 | 71.22
Neigh   | 0          | 0          | 0          |   0.0 |  0.00
Comm    | 0.036158   | 0.41318    | 1.2254     |  52.7 | 16.34
Output  | 0          | 0          | 0          |   0.0 |  0.00
Modify  | 2.6505e-05 | 0.0035231  | 0.0076237  |   2.8 |  0.14
Other   |            | 0.311      |            |       | 12.30

Nlocal:        2776.45 ave        3961 max           0 min
Histogram: 8 4 4 0 6 10 8 4 26 34
Nghost:        3879.05 ave        5425 max         232 min
Histogram: 8 0 8 0 16 0 8 8 16 40
Neighs:        79213.5 ave      115481 max           0 min
Histogram: 8 4 4 0 10 6 8 8 24 32

Total # of neighbors = 8238205
Ave neighs/atom = 28.530481
Neighbor list builds = 0
Dangerous builds = 0
The dot product: -4.78410742623725e-07
Setting atom values ...
  1 settings made for x
  1 settings made for y
  1 settings made for z
Setting up cg style minimization ...
  Unit style    : metal
  Current step  : 7792
Per MPI rank memory allocation (min/avg/max) = 5.441 | 5.816 | 6.074 Mbytes
Step PotEng KinEng TotEng v_fx v_fy v_fz 
    7792   -1152449.3            0   -1152449.3 -0.028301734  -0.06162548 -0.043769466 
    7974   -1152449.3            0   -1152449.3 3.1465518e-06 5.8748638e-06 3.856946e-06 
[...]

Nlocal:        2776.45 ave        3954 max           0 min
Histogram: 8 4 4 0 4 12 8 0 30 34
Nghost:        3879.09 ave        5424 max         232 min
Histogram: 8 0 8 0 16 0 8 8 16 40
Neighs:        79213.4 ave      115273 max           0 min
Histogram: 8 4 4 0 10 6 8 8 24 32

Total # of neighbors = 8238198
Ave neighs/atom = 28.530457
Neighbor list builds = 0
Dangerous builds = 0
The dot product: 1.26668592459863e-08
Setting atom values ...
  1 settings made for x
  1 settings made for y
  1 settings made for z
Setting up cg style minimization ...
  Unit style    : metal
  Current step  : 3342
Per MPI rank memory allocation (min/avg/max) = 5.441 | 5.816 | 6.074 Mbytes
Step PotEng KinEng TotEng v_fx v_fy v_fz 
    3342   -1152448.9            0   -1152448.9 -0.023935023  -0.08126934 -0.0029642233 
    3508   -1152448.9            0   -1152448.9 1.7039181e-05 4.8040872e-05 1.4010093e-06 
Loop time of 1.95641 on 104 procs for 166 steps with 288751 atoms

99.9% CPU use with 104 MPI tasks x 1 OpenMP threads

Minimization stats:
  Stopping criterion = energy tolerance
  Energy initial, next-to-last, final = 
     -1152448.90283703  -1152448.90470011  -1152448.90470011
  Force two-norm initial, final = 0.20031123 0.00015532274
  Force max component initial, final = 0.082722393 4.8040872e-05
  Final line search alpha, max atom move = 1.0000000 4.8040872e-05
  Iterations, force evaluations = 166 332

MPI task timing breakdown:
Section |  min time  |  avg time  |  max time  |%varavg| %total
---------------------------------------------------------------
Pair    | 0.49719    | 1.3953     | 1.8409     |  32.1 | 71.32
Neigh   | 0          | 0          | 0          |   0.0 |  0.00
Comm    | 0.033332   | 0.32144    | 0.95081    |  46.1 | 16.43
Output  | 0          | 0          | 0          |   0.0 |  0.00
Modify  | 2.1417e-05 | 0.0027477  | 0.0058857  |   2.5 |  0.14
Other   |            | 0.2369     |            |       | 12.11

Nlocal:        2776.45 ave        3954 max           0 min
Histogram: 8 4 4 0 4 12 8 0 30 34
Nghost:        3879.11 ave        5424 max         232 min
Histogram: 8 0 8 0 16 0 8 8 16 40
Neighs:        79213.4 ave      115274 max           0 min
Histogram: 8 4 4 0 10 6 8 8 24 32

Total # of neighbors = 8238198
Ave neighs/atom = 28.530457
Neighbor list builds = 0
Dangerous builds = 0
The dot product: -2.03208309928686e-07
Setting atom values ...
  1 settings made for x
  1 settings made for y
  1 settings made for z
Setting up cg style minimization ...
  Unit style    : metal
  Current step  : 3508
Per MPI rank memory allocation (min/avg/max) = 5.441 | 5.816 | 6.074 Mbytes
Step PotEng KinEng TotEng v_fx v_fy v_fz 
    3508   -1152448.9            0   -1152448.9 -0.026481443 -0.079133294 -0.003461673 
    3704   -1152448.9            0   -1152448.9 -4.2611609e-06 -9.1712605e-06 -2.6350424e-07 
Loop time of 2.3135 on 104 procs for 196 steps with 288751 atoms

99.9% CPU use with 104 MPI tasks x 1 OpenMP threads

Minimization stats:
  Stopping criterion = energy tolerance
  Energy initial, next-to-last, final = 
     -1152448.89113758  -1152448.89301242  -1152448.89301242
  Force two-norm initial, final = 0.19931611 7.3310123e-05
  Force max component initial, final = 0.08439484 1.7306782e-05
  Final line search alpha, max atom move = 1.0000000 1.7306782e-05
  Iterations, force evaluations = 196 392

MPI task timing breakdown:
Section |  min time  |  avg time  |  max time  |%varavg| %total
---------------------------------------------------------------
Pair    | 0.58672    | 1.6518     | 2.1649     |  35.1 | 71.40
Neigh   | 0          | 0          | 0          |   0.0 |  0.00
Comm    | 0.03421    | 0.37864    | 1.1146     |  50.1 | 16.37
Output  | 0          | 0          | 0          |   0.0 |  0.00
Modify  | 2.4572e-05 | 0.0032395  | 0.0069646  |   2.7 |  0.14
Other   |            | 0.2798     |            |       | 12.09

Nlocal:        2776.45 ave        3954 max           0 min
Histogram: 8 4 4 0 4 12 8 0 30 34
Nghost:        3879.11 ave        5424 max         232 min
Histogram: 8 0 8 0 16 0 8 8 16 40
Neighs:        79213.5 ave      115275 max           0 min
Histogram: 8 4 4 0 10 6 8 8 24 32

Total # of neighbors = 8238200
Ave neighs/atom = 28.530464
Neighbor list builds = 0
Dangerous builds = 0
The dot product: 2.77560330418953e-08
Setting atom values ...
  1 settings made for x
  1 settings made for y
  1 settings made for z
Setting up cg style minimization ...
  Unit style    : metal
  Current step  : 3704
Per MPI rank memory allocation (min/avg/max) = 5.441 | 5.816 | 6.074 Mbytes
Step PotEng KinEng TotEng v_fx v_fy v_fz 
    3704   -1152448.9            0   -1152448.9 -0.027725272  -0.07647842 -0.0036967294 
    3888   -1152448.9            0   -1152448.9 8.8952474e-06 2.9043858e-05 1.5848081e-06 
Loop time of 2.1653 on 104 procs for 184 steps with 288751 atoms

99.9% CPU use with 104 MPI tasks x 1 OpenMP threads

Minimization stats:
  Stopping criterion = energy tolerance
  Energy initial, next-to-last, final = 
     -1152448.87814333  -1152448.88019106  -1152448.88019106
  Force two-norm initial, final = 0.19846571 0.00019514266
  Force max component initial, final = 0.08575428 2.9043858e-05
  Final line search alpha, max atom move = 1.0000000 2.9043858e-05
  Iterations, force evaluations = 184 368

MPI task timing breakdown:
Section |  min time  |  avg time  |  max time  |%varavg| %total
---------------------------------------------------------------
Pair    | 0.5528     | 1.5459     | 2.0368     |  33.7 | 71.40
Neigh   | 0          | 0          | 0          |   0.0 |  0.00
Comm    | 0.030727   | 0.35578    | 1.054      |  48.9 | 16.43
Output  | 0          | 0          | 0          |   0.0 |  0.00
Modify  | 2.3497e-05 | 0.0030463  | 0.0065236  |   2.6 |  0.14
Other   |            | 0.2605     |            |       | 12.03

Nlocal:        2776.45 ave        3955 max           0 min
Histogram: 8 4 4 0 4 12 8 0 30 34
Nghost:        3879.11 ave        5424 max         232 min
Histogram: 8 0 8 0 16 0 8 8 16 40
Neighs:        79213.4 ave      115311 max           0 min
Histogram: 8 4 4 0 10 6 8 8 24 32

Total # of neighbors = 8238198
Ave neighs/atom = 28.530457
Neighbor list builds = 0
Dangerous builds = 0
The dot product: 2.71481716058091e-07
Setting atom values ...
  1 settings made for x
  1 settings made for y
  1 settings made for z
Setting up cg style minimization ...
  Unit style    : metal
  Current step  : 3888
Per MPI rank memory allocation (min/avg/max) = 5.441 | 5.816 | 6.074 Mbytes
Step PotEng KinEng TotEng v_fx v_fy v_fz 
    3888   -1152448.9            0   -1152448.9 -0.019073372 -0.060903043 -0.0017924585 
    4000   -1152448.9            0   -1152448.9 6.0069492e-05 0.00018310033 5.0585031e-06 
    4031   -1152448.9            0   -1152448.9 -1.3869935e-05 -3.9898596e-05 -1.0077169e-06 
Loop time of 1.66548 on 104 procs for 143 steps with 288751 atoms

99.9% CPU use with 104 MPI tasks x 1 OpenMP threads

Minimization stats:
  Stopping criterion = energy tolerance
  Energy initial, next-to-last, final = 
     -1152448.86476845  -1152448.86729781  -1152448.86729781
  Force two-norm initial, final = 0.19434017 0.00028430148
  Force max component initial, final = 0.083920037 4.4393038e-05
  Final line search alpha, max atom move = 1.0000000 4.4393038e-05
  Iterations, force evaluations = 143 286

MPI task timing breakdown:
Section |  min time  |  avg time  |  max time  |%varavg| %total
---------------------------------------------------------------
Pair    | 0.43108    | 1.202      | 1.5669     |  29.7 | 72.17
Neigh   | 0          | 0          | 0          |   0.0 |  0.00
Comm    | 0.026682   | 0.27194    | 0.81178    |  43.6 | 16.33
Output  | 0.00024156 | 0.00025128 | 0.00041665 |   0.0 |  0.02
Modify  | 1.8448e-05 | 0.0023704  | 0.0050528  |   2.3 |  0.14
Other   |            | 0.1889     |            |       | 11.34

Nlocal:        2776.45 ave        3955 max           0 min
Histogram: 8 4 4 0 4 12 8 0 30 34
Nghost:        3879.11 ave        5424 max         232 min
Histogram: 8 0 8 0 16 0 8 8 16 40
Neighs:        79213.4 ave      115302 max           0 min
Histogram: 8 4 4 0 10 6 8 8 24 32

Total # of neighbors = 8238192
Ave neighs/atom = 28.530436
Neighbor list builds = 0
Dangerous builds = 0
The dot product: -7.0699108631335e-07
Setting atom values ...
  1 settings made for x
  1 settings made for y
  1 settings made for z
Setting up cg style minimization ...
  Unit style    : metal
  Current step  : 4031
Per MPI rank memory allocation (min/avg/max) = 5.441 | 5.816 | 6.074 Mbytes
Step PotEng KinEng TotEng v_fx v_fy v_fz 
    4031   -1152448.9            0   -1152448.9 -0.014428645 -0.051111061 0.00048232406 
    4231   -1152448.9            0   -1152448.9 -6.062138e-06 -1.9257425e-05 2.6887098e-07 
Loop time of 2.37368 on 104 procs for 200 steps with 288751 atoms

99.9% CPU use with 104 MPI tasks x 1 OpenMP threads

Minimization stats:
  Stopping criterion = energy tolerance
  Energy initial, next-to-last, final = 
     -1152448.85122579   -1152448.8533412   -1152448.8533412
  Force two-norm initial, final = 0.19484788 0.00010483894
  Force max component initial, final = 0.080204723 1.9257425e-05
  Final line search alpha, max atom move = 1.0000000 1.9257425e-05
  Iterations, force evaluations = 200 400

MPI task timing breakdown:
Section |  min time  |  avg time  |  max time  |%varavg| %total
---------------------------------------------------------------
Pair    | 0.60103    | 1.6902     | 2.2115     |  35.3 | 71.21
Neigh   | 0          | 0          | 0          |   0.0 |  0.00
Comm    | 0.049215   | 0.39496    | 1.1743     |  50.8 | 16.64
Output  | 0          | 0          | 0          |   0.0 |  0.00
Modify  | 2.5175e-05 | 0.0033134  | 0.0070871  |   2.7 |  0.14
Other   |            | 0.2852     |            |       | 12.01

Nlocal:        2776.45 ave        3956 max           0 min
Histogram: 8 4 4 0 4 12 8 0 30 34
Nghost:        3879.18 ave        5425 max         232 min
Histogram: 8 0 8 0 16 0 8 8 16 40
Neighs:        79213.4 ave      115337 max           0 min
Histogram: 8 4 4 0 10 6 8 8 24 32

Total # of neighbors = 8238193
Ave neighs/atom = 28.530440
Neighbor list builds = 0
Dangerous builds = 0
The dot product: -2.29420971371159e-07
Setting atom values ...
  1 settings made for x
  1 settings made for y
  1 settings made for z
Setting up cg style minimization ...
  Unit style    : metal
  Current step  : 4231
Per MPI rank memory allocation (min/avg/max) = 5.441 | 5.816 | 6.074 Mbytes
Step PotEng KinEng TotEng v_fx v_fy v_fz 
    4231   -1152448.8            0   -1152448.8 -0.020423764 -0.057634349 0.0027626742 
    4419   -1152448.8            0   -1152448.8 -1.1423778e-05 -2.7816892e-05 1.5664512e-06 
Loop time of 2.20754 on 104 procs for 188 steps with 288751 atoms

99.9% CPU use with 104 MPI tasks x 1 OpenMP threads

Minimization stats:
  Stopping criterion = energy tolerance
  Energy initial, next-to-last, final = 
     -1152448.83590999  -1152448.83800973  -1152448.83800973
  Force two-norm initial, final = 0.19943056 0.00014436191
  Force max component initial, final = 0.083271086 4.6007837e-05
  Final line search alpha, max atom move = 1.0000000 4.6007837e-05
  Iterations, force evaluations = 188 376

MPI task timing breakdown:
Section |  min time  |  avg time  |  max time  |%varavg| %total
---------------------------------------------------------------
Pair    | 0.56369    | 1.5795     | 2.0678     |  34.1 | 71.55
Neigh   | 0          | 0          | 0          |   0.0 |  0.00
Comm    | 0.037658   | 0.36171    | 1.0842     |  49.6 | 16.39
Output  | 0          | 0          | 0          |   0.0 |  0.00
Modify  | 2.3041e-05 | 0.0031135  | 0.0066818  |   2.6 |  0.14
Other   |            | 0.2633     |            |       | 11.93

Nlocal:        2776.45 ave        3956 max           0 min
Histogram: 8 4 4 0 4 12 8 0 30 34
Nghost:        3879.18 ave        5425 max         232 min
Histogram: 8 0 8 0 16 0 8 8 16 40
Neighs:        79213.4 ave      115335 max           0 min
Histogram: 8 4 4 0 10 6 8 8 24 32

Total # of neighbors = 8238191
Ave neighs/atom = 28.530433
Neighbor list builds = 0
Dangerous builds = 0
The dot product: -3.352615388111e-07
Setting atom values ...
  1 settings made for x
  1 settings made for y
  1 settings made for z
Setting up cg style minimization ...
  Unit style    : metal
  Current step  : 4419
Per MPI rank memory allocation (min/avg/max) = 5.441 | 5.816 | 6.074 Mbytes
Step PotEng KinEng TotEng v_fx v_fy v_fz 
    4419   -1152448.8            0   -1152448.8 -0.023209803 -0.056717099 0.0047220398 
    4584   -1152448.8            0   -1152448.8 2.745867e-05 7.4106782e-05 -5.7240342e-06 
Loop time of 1.91309 on 104 procs for 165 steps with 288751 atoms

99.9% CPU use with 104 MPI tasks x 1 OpenMP threads

Minimization stats:
  Stopping criterion = energy tolerance
  Energy initial, next-to-last, final = 
      -1152448.8193212  -1152448.82138124  -1152448.82138124
  Force two-norm initial, final = 0.20156432 0.0002173211
  Force max component initial, final = 0.087331475 7.5665684e-05
  Final line search alpha, max atom move = 1.0000000 7.5665684e-05
  Iterations, force evaluations = 165 330

MPI task timing breakdown:
Section |  min time  |  avg time  |  max time  |%varavg| %total
---------------------------------------------------------------
Pair    | 0.49548    | 1.3891     | 1.8023     |  32.0 | 72.61
Neigh   | 0          | 0          | 0          |   0.0 |  0.00
Comm    | 0.031906   | 0.31626    | 0.94483    |  47.0 | 16.53
Output  | 0          | 0          | 0          |   0.0 |  0.00
Modify  | 2.0835e-05 | 0.0027306  | 0.0058388  |   2.5 |  0.14
Other   |            | 0.205      |            |       | 10.71

Nlocal:        2776.45 ave        3955 max           0 min
Histogram: 8 4 4 0 4 12 8 0 30 34
Nghost:        3879.14 ave        5425 max         232 min
Histogram: 8 0 8 0 16 0 8 8 16 40
Neighs:        79213.4 ave      115301 max           0 min
Histogram: 8 4 4 0 10 6 8 8 24 32

Total # of neighbors = 8238192
Ave neighs/atom = 28.530436
Neighbor list builds = 0
Dangerous builds = 0
The dot product: 5.41738477683012e-07
Setting atom values ...
  1 settings made for x
  1 settings made for y
  1 settings made for z
Setting up cg style minimization ...
  Unit style    : metal
  Current step  : 4584
Per MPI rank memory allocation (min/avg/max) = 5.441 | 5.816 | 6.074 Mbytes
Step PotEng KinEng TotEng v_fx v_fy v_fz 
    4584   -1152448.8            0   -1152448.8 -0.026982949  -0.06368943 0.0064606245 
    4738   -1152448.8            0   -1152448.8 -4.3142743e-06 -5.838298e-06 8.8362745e-07 
Loop time of 1.80078 on 104 procs for 154 steps with 288751 atoms

99.9% CPU use with 104 MPI tasks x 1 OpenMP threads

Minimization stats:
  Stopping criterion = energy tolerance
  Energy initial, next-to-last, final = 
     -1152448.80131707  -1152448.80331684  -1152448.80331684
  Force two-norm initial, final = 0.20518778 0.00023752341
  Force max component initial, final = 0.089595802 6.2583702e-05
  Final line search alpha, max atom move = 1.0000000 6.2583702e-05
  Iterations, force evaluations = 154 308

MPI task timing breakdown:
Section |  min time  |  avg time  |  max time  |%varavg| %total
---------------------------------------------------------------
Pair    | 0.46288    | 1.2956     | 1.6923     |  30.9 | 71.95
Neigh   | 0          | 0          | 0          |   0.0 |  0.00
Comm    | 0.03078    | 0.29558    | 0.89173    |  45.1 | 16.41
Output  | 0          | 0          | 0          |   0.0 |  0.00
Modify  | 1.9519e-05 | 0.002553   | 0.0055178  |   2.4 |  0.14
Other   |            | 0.207      |            |       | 11.50

Nlocal:        2776.45 ave        3954 max           0 min
Histogram: 8 4 4 0 4 12 8 0 30 34
Nghost:        3879.14 ave        5425 max         232 min
Histogram: 8 0 8 0 16 0 8 8 16 40
Neighs:        79213.4 ave      115280 max           0 min
Histogram: 8 4 4 0 10 6 8 8 24 32

Total # of neighbors = 8238190
Ave neighs/atom = 28.530429
Neighbor list builds = 0
Dangerous builds = 0
The dot product: -2.21401806224643e-08
Setting atom values ...
  1 settings made for x
  1 settings made for y
  1 settings made for z
Setting up cg style minimization ...
  Unit style    : metal
  Current step  : 4738
Per MPI rank memory allocation (min/avg/max) = 5.441 | 5.816 | 6.074 Mbytes
Step PotEng KinEng TotEng v_fx v_fy v_fz 
    4738   -1152448.8            0   -1152448.8 -0.030051475 -0.069573824 0.0076923833 
    4952   -1152448.8            0   -1152448.8 -4.3190596e-06 -1.3438044e-05 1.2504425e-06 
Loop time of 2.51674 on 104 procs for 214 steps with 288751 atoms

99.9% CPU use with 104 MPI tasks x 1 OpenMP threads

Minimization stats:
  Stopping criterion = energy tolerance
  Energy initial, next-to-last, final = 
     -1152448.78187315  -1152448.78379992  -1152448.78379992
  Force two-norm initial, final = 0.20801591 4.3335079e-05
  Force max component initial, final = 0.090919075 1.3438044e-05
  Final line search alpha, max atom move = 1.0000000 1.3438044e-05
  Iterations, force evaluations = 214 428

MPI task timing breakdown:
Section |  min time  |  avg time  |  max time  |%varavg| %total
---------------------------------------------------------------
Pair    | 0.6433     | 1.799      | 2.3662     |  36.4 | 71.48
Neigh   | 0          | 0          | 0          |   0.0 |  0.00
Comm    | 0.04169    | 0.41474    | 1.2261     |  52.7 | 16.48
Output  | 0          | 0          | 0          |   0.0 |  0.00
Modify  | 2.7228e-05 | 0.00354    | 0.007602   |   2.8 |  0.14
Other   |            | 0.2995     |            |       | 11.90

Nlocal:        2776.45 ave        3954 max           0 min
Histogram: 8 4 4 0 4 12 8 0 30 34
Nghost:        3879.05 ave        5424 max         232 min
Histogram: 8 0 8 0 16 0 8 8 16 40
Neighs:        79213.3 ave      115245 max           0 min
Histogram: 8 4 4 0 10 6 8 8 24 32

Total # of neighbors = 8238188
Ave neighs/atom = 28.530422
Neighbor list builds = 0
Dangerous builds = 0
The dot product: -4.6070746587269e-11
Setting up cg style minimization ...
  Unit style    : metal
  Current step  : 4952
Per MPI rank memory allocation (min/avg/max) = 5.441 | 5.816 | 6.074 Mbytes
Step PotEng KinEng TotEng v_fx v_fy v_fz 
    4952   -1152448.8            0   -1152448.8  -0.15852704 -0.042167808   -1.0005576 
    5000     -1152449            0     -1152449 0.00029642843 0.0051450468 0.0018509092 
    5240     -1152449            0     -1152449 9.317676e-06 2.5881441e-05 2.741959e-05 
Loop time of 3.3983 on 104 procs for 288 steps with 288751 atoms

99.9% CPU use with 104 MPI tasks x 1 OpenMP threads

Minimization stats:
  Stopping criterion = energy tolerance
  Energy initial, next-to-last, final = 
     -1152448.78379992  -1152448.97218779  -1152448.97218779
  Force two-norm initial, final = 1.0139154 0.00016808835
  Force max component initial, final = 1.0005576 3.3793428e-05
  Final line search alpha, max atom move = 1.0000000 3.3793428e-05
  Iterations, force evaluations = 288 576

MPI task timing breakdown:
Section |  min time  |  avg time  |  max time  |%varavg| %total
---------------------------------------------------------------
Pair    | 0.88661    | 2.4256     | 3.1556     |  41.8 | 71.38
Neigh   | 6.1247e-05 | 0.017609   | 0.025654   |   5.5 |  0.52
Comm    | 0.056039   | 0.55477    | 1.6372     |  61.0 | 16.33
Output  | 0.00022544 | 0.00023565 | 0.00041343 |   0.0 |  0.01
Modify  | 3.2915e-05 | 0.003111   | 0.0080885  |   3.5 |  0.09
Other   |            | 0.397      |            |       | 11.68

Nlocal:        2776.45 ave        3954 max           0 min
Histogram: 8 4 4 0 4 12 8 0 30 34
Nghost:        3879.10 ave        5425 max         232 min
Histogram: 8 0 8 0 16 0 8 8 16 40
Neighs:        79213.6 ave      115260 max           0 min
Histogram: 8 4 4 0 10 6 8 8 24 32

Total # of neighbors = 8238210
Ave neighs/atom = 28.530499
Neighbor list builds = 6
Dangerous builds = 0
