LAMMPS (29 Oct 2020)
OMP_NUM_THREADS environment is not set. Defaulting to 1 thread. (../comm.cpp:94)
  using 1 OpenMP thread(s) per MPI task
OMP_NUM_THREADS environment is not set. Defaulting to 1 thread. (../comm.cpp:94)
  using 1 OpenMP thread(s) per MPI task
Reading data file ...
  orthogonal box = (-122.39241 -121.13707 -37.090501) to (122.39241 121.13707 37.090501)
  13 by 4 by 2 MPI processor grid
  reading atoms ...
  288751 atoms
  read_data CPU = 0.372 seconds
199981 atoms in group inner
88770 atoms in group outer
1 atoms in group carbon
Neighbor list info ...
  update every 1 steps, delay 0 steps, check yes
  max neighbors/atom: 2000, page size: 100000
  master list distance cutoff = 5.6
  ghost atom cutoff = 5.6
  binsize = 2.8, bins = 88 87 27
  1 neighbor lists, perpetual/occasional/extra = 1 0 0
  (1) pair eam/alloy, perpetual
      attributes: half, newton on
      pair build: half/bin/atomonly/newton
      stencil: half/bin/3d/newton
      bin: standard
Setting up cg style minimization ...
  Unit style    : metal
  Current step  : 0
Per MPI rank memory allocation (min/avg/max) = 5.441 | 5.816 | 6.074 Mbytes
Step v_fx v_fy v_fz PotEng KinEng TotEng 
       0  -0.21962229   0.62741258   0.54359441   -1152447.8            0   -1152447.8 
     161 -9.9944491e-06 -2.122391e-05 -1.128333e-05   -1152449.5            0   -1152449.5 
Loop time of 1.87169 on 104 procs for 161 steps with 288751 atoms

99.9% CPU use with 104 MPI tasks x 1 OpenMP threads

Minimization stats:
  Stopping criterion = energy tolerance
  Energy initial, next-to-last, final = 
     -1152447.84228476  -1152449.45035271  -1152449.45035271
  Force two-norm initial, final = 9.8266702 0.00011279686
  Force max component initial, final = 4.6362555 2.1223910e-05
  Final line search alpha, max atom move = 1.0000000 2.1223910e-05
  Iterations, force evaluations = 161 321

MPI task timing breakdown:
Section |  min time  |  avg time  |  max time  |%varavg| %total
---------------------------------------------------------------
Pair    | 0.50092    | 1.3508     | 1.7526     |  31.0 | 72.17
Neigh   | 2.1278e-05 | 0.0058847  | 0.0088954  |   3.2 |  0.31
Comm    | 0.033362   | 0.30221    | 0.90995    |  46.1 | 16.15
Output  | 0          | 0          | 0          |   0.0 |  0.00
Modify  | 1.8317e-05 | 0.0017327  | 0.0044211  |   2.6 |  0.09
Other   |            | 0.2111     |            |       | 11.28

Nlocal:        2776.45 ave        3958 max           0 min
Histogram: 8 4 4 0 4 12 8 2 28 34
Nghost:        3879.03 ave        5424 max         232 min
Histogram: 8 0 8 0 16 0 8 8 16 40
Neighs:        79213.7 ave      115382 max           0 min
Histogram: 8 4 4 0 10 6 8 8 24 32

Total # of neighbors = 8238223
Ave neighs/atom = 28.530544
Neighbor list builds = 2
Dangerous builds = 0
Setting atom values ...
  1 settings made for x
  1 settings made for y
  1 settings made for z
Setting up cg style minimization ...
  Unit style    : metal
  Current step  : 161
Per MPI rank memory allocation (min/avg/max) = 5.441 | 5.816 | 6.074 Mbytes
Step PotEng KinEng TotEng v_fx v_fy v_fz 
     161   -1152449.4            0   -1152449.4 -0.007768109  0.006443155  0.001203036 
     283   -1152449.5            0   -1152449.5 -6.6149932e-06 -1.3194152e-05 -5.8619015e-05 
Loop time of 1.42802 on 104 procs for 122 steps with 288751 atoms

99.9% CPU use with 104 MPI tasks x 1 OpenMP threads

Minimization stats:
  Stopping criterion = energy tolerance
  Energy initial, next-to-last, final = 
     -1152449.44945373  -1152449.45006288  -1152449.45006288
  Force two-norm initial, final = 0.11538412 0.00015881943
  Force max component initial, final = 0.051728554 5.8619015e-05
  Final line search alpha, max atom move = 1.0000000 5.8619015e-05
  Iterations, force evaluations = 122 244

MPI task timing breakdown:
Section |  min time  |  avg time  |  max time  |%varavg| %total
---------------------------------------------------------------
Pair    | 0.37518    | 1.0311     | 1.3378     |  27.2 | 72.21
Neigh   | 0          | 0          | 0          |   0.0 |  0.00
Comm    | 0.02188    | 0.23239    | 0.70474    |  40.2 | 16.27
Output  | 0          | 0          | 0          |   0.0 |  0.00
Modify  | 1.461e-05  | 0.002019   | 0.0042997  |   2.1 |  0.14
Other   |            | 0.1625     |            |       | 11.38

Nlocal:        2776.45 ave        3958 max           0 min
Histogram: 8 4 4 0 4 12 8 2 28 34
Nghost:        3879.01 ave        5425 max         232 min
Histogram: 8 0 8 0 16 0 8 8 16 40
Neighs:        79213.4 ave      115399 max           0 min
Histogram: 8 4 4 0 10 6 8 8 24 32

Total # of neighbors = 8238198
Ave neighs/atom = 28.530457
Neighbor list builds = 0
Dangerous builds = 0
Setting atom values ...
  1 settings made for x
  1 settings made for y
  1 settings made for z
Setting up cg style minimization ...
  Unit style    : metal
  Current step  : 283
Per MPI rank memory allocation (min/avg/max) = 5.441 | 5.816 | 6.074 Mbytes
Step PotEng KinEng TotEng v_fx v_fy v_fz 
     283   -1152449.4            0   -1152449.4 -0.018711324   0.01806416 0.0026203653 
     415   -1152449.4            0   -1152449.4 1.3192757e-06 4.8190404e-06 2.3752239e-05 
Loop time of 1.52104 on 104 procs for 132 steps with 288751 atoms

99.9% CPU use with 104 MPI tasks x 1 OpenMP threads

Minimization stats:
  Stopping criterion = energy tolerance
  Energy initial, next-to-last, final = 
     -1152449.44670624  -1152449.44838218  -1152449.44838218
  Force two-norm initial, final = 0.19211921 0.00016877032
  Force max component initial, final = 0.080061609 2.3752239e-05
  Final line search alpha, max atom move = 1.0000000 2.3752239e-05
  Iterations, force evaluations = 132 264

MPI task timing breakdown:
Section |  min time  |  avg time  |  max time  |%varavg| %total
---------------------------------------------------------------
Pair    | 0.40343    | 1.1064     | 1.4359     |  28.3 | 72.74
Neigh   | 0          | 0          | 0          |   0.0 |  0.00
Comm    | 0.025737   | 0.24628    | 0.74858    |  42.2 | 16.19
Output  | 0          | 0          | 0          |   0.0 |  0.00
Modify  | 1.6624e-05 | 0.0021788  | 0.0046683  |   2.2 |  0.14
Other   |            | 0.1661     |            |       | 10.92

Nlocal:        2776.45 ave        3958 max           0 min
Histogram: 8 4 4 0 4 12 8 2 28 34
Nghost:        3879.03 ave        5427 max         232 min
Histogram: 8 0 8 0 16 0 8 8 16 40
Neighs:        79213.5 ave      115400 max           0 min
Histogram: 8 4 4 0 10 6 8 8 24 32

Total # of neighbors = 8238199
Ave neighs/atom = 28.530461
Neighbor list builds = 0
Dangerous builds = 0
The dot product: -3.08938286703159e-08
Setting atom values ...
  1 settings made for x
  1 settings made for y
  1 settings made for z
Setting up cg style minimization ...
  Unit style    : metal
  Current step  : 415
Per MPI rank memory allocation (min/avg/max) = 5.441 | 5.816 | 6.074 Mbytes
Step PotEng KinEng TotEng v_fx v_fy v_fz 
     415   -1152449.4            0   -1152449.4 -0.023607672  0.026770662  0.002713548 
     553   -1152449.4            0   -1152449.4 1.1382448e-06 4.7603042e-06 2.9558085e-05 
Loop time of 1.60803 on 104 procs for 138 steps with 288751 atoms

99.9% CPU use with 104 MPI tasks x 1 OpenMP threads

Minimization stats:
  Stopping criterion = energy tolerance
  Energy initial, next-to-last, final = 
     -1152449.44354963  -1152449.44522706  -1152449.44522706
  Force two-norm initial, final = 0.19234094 9.7537132e-05
  Force max component initial, final = 0.076134042 2.9558085e-05
  Final line search alpha, max atom move = 1.0000000 2.9558085e-05
  Iterations, force evaluations = 138 276

MPI task timing breakdown:
Section |  min time  |  avg time  |  max time  |%varavg| %total
---------------------------------------------------------------
Pair    | 0.42088    | 1.1654     | 1.5152     |  29.1 | 72.48
Neigh   | 0          | 0          | 0          |   0.0 |  0.00
Comm    | 0.026744   | 0.26192    | 0.79796    |  43.2 | 16.29
Output  | 0          | 0          | 0          |   0.0 |  0.00
Modify  | 1.6237e-05 | 0.0022847  | 0.0049025  |   2.3 |  0.14
Other   |            | 0.1784     |            |       | 11.09

Nlocal:        2776.45 ave        3958 max           0 min
Histogram: 8 4 4 0 4 12 8 2 28 34
Nghost:        3879.03 ave        5424 max         232 min
Histogram: 8 0 8 0 16 0 8 8 16 40
Neighs:        79213.5 ave      115400 max           0 min
Histogram: 8 4 4 0 10 6 8 8 24 32

Total # of neighbors = 8238201
Ave neighs/atom = 28.530467
Neighbor list builds = 0
Dangerous builds = 0
The dot product: -4.71326795364452e-08
Setting atom values ...
  1 settings made for x
  1 settings made for y
  1 settings made for z
Setting up cg style minimization ...
  Unit style    : metal
  Current step  : 553
Per MPI rank memory allocation (min/avg/max) = 5.441 | 5.816 | 6.074 Mbytes
Step PotEng KinEng TotEng v_fx v_fy v_fz 
     553   -1152449.4            0   -1152449.4 -0.025608639  0.033922307 0.0040085431 
     694   -1152449.4            0   -1152449.4 -1.3789408e-06 -1.8705081e-07 -1.2289112e-05 
Loop time of 1.6209 on 104 procs for 141 steps with 288751 atoms

99.9% CPU use with 104 MPI tasks x 1 OpenMP threads

Minimization stats:
  Stopping criterion = energy tolerance
  Energy initial, next-to-last, final = 
     -1152449.43890946  -1152449.44057864  -1152449.44057864
  Force two-norm initial, final = 0.19192037 5.0938567e-05
  Force max component initial, final = 0.073463908 1.2289112e-05
  Final line search alpha, max atom move = 1.0000000 1.2289112e-05
  Iterations, force evaluations = 141 282

MPI task timing breakdown:
Section |  min time  |  avg time  |  max time  |%varavg| %total
---------------------------------------------------------------
Pair    | 0.42804    | 1.1794     | 1.5302     |  29.2 | 72.76
Neigh   | 0          | 0          | 0          |   0.0 |  0.00
Comm    | 0.025133   | 0.26144    | 0.79919    |  43.6 | 16.13
Output  | 0          | 0          | 0          |   0.0 |  0.00
Modify  | 1.6622e-05 | 0.0023207  | 0.0049382  |   2.3 |  0.14
Other   |            | 0.1777     |            |       | 10.97

Nlocal:        2776.45 ave        3957 max           0 min
Histogram: 8 4 4 0 4 12 8 2 28 34
Nghost:        3879.03 ave        5424 max         232 min
Histogram: 8 0 8 0 16 0 8 8 16 40
Neighs:        79213.5 ave      115359 max           0 min
Histogram: 8 4 4 0 10 6 8 8 24 32

Total # of neighbors = 8238201
Ave neighs/atom = 28.530467
Neighbor list builds = 0
Dangerous builds = 0
The dot product: 2.83270987007624e-08
Setting atom values ...
  1 settings made for x
  1 settings made for y
  1 settings made for z
Setting up cg style minimization ...
  Unit style    : metal
  Current step  : 694
Per MPI rank memory allocation (min/avg/max) = 5.441 | 5.816 | 6.074 Mbytes
Step PotEng KinEng TotEng v_fx v_fy v_fz 
     694   -1152449.4            0   -1152449.4 -0.025938097  0.039463386 0.0061932238 
     809   -1152449.4            0   -1152449.4 -2.8541645e-06 6.2029582e-07 -2.8983168e-05 
Loop time of 1.33356 on 104 procs for 115 steps with 288751 atoms

99.9% CPU use with 104 MPI tasks x 1 OpenMP threads

Minimization stats:
  Stopping criterion = energy tolerance
  Energy initial, next-to-last, final = 
     -1152449.43275256  -1152449.43440631  -1152449.43440631
  Force two-norm initial, final = 0.19101453 0.00018091795
  Force max component initial, final = 0.073798238 3.4926806e-05
  Final line search alpha, max atom move = 1.0000000 3.4926806e-05
  Iterations, force evaluations = 115 230

MPI task timing breakdown:
Section |  min time  |  avg time  |  max time  |%varavg| %total
---------------------------------------------------------------
Pair    | 0.35357    | 0.9702     | 1.2576     |  26.4 | 72.75
Neigh   | 0          | 0          | 0          |   0.0 |  0.00
Comm    | 0.021068   | 0.2153     | 0.65059    |  39.4 | 16.14
Output  | 0          | 0          | 0          |   0.0 |  0.00
Modify  | 1.4251e-05 | 0.0018956  | 0.0040595  |   2.1 |  0.14
Other   |            | 0.1462     |            |       | 10.96

Nlocal:        2776.45 ave        3955 max           0 min
Histogram: 8 4 4 0 4 12 8 0 30 34
Nghost:        3879.03 ave        5424 max         232 min
Histogram: 8 0 8 0 16 0 8 8 16 40
Neighs:        79213.5 ave      115297 max           0 min
Histogram: 8 4 4 0 10 6 8 8 24 32

Total # of neighbors = 8238200
Ave neighs/atom = 28.530464
Neighbor list builds = 0
Dangerous builds = 0
The dot product: 6.52349203119405e-08
Setting atom values ...
  1 settings made for x
  1 settings made for y
  1 settings made for z
Setting up cg style minimization ...
  Unit style    : metal
  Current step  : 809
Per MPI rank memory allocation (min/avg/max) = 5.441 | 5.816 | 6.074 Mbytes
Step PotEng KinEng TotEng v_fx v_fy v_fz 
     809   -1152449.4            0   -1152449.4 -0.025541664  0.043954213 0.0091164938 
     984   -1152449.4            0   -1152449.4 -4.1097643e-07 -3.5023774e-07 -1.074869e-05 
Loop time of 2.0177 on 104 procs for 175 steps with 288751 atoms

99.9% CPU use with 104 MPI tasks x 1 OpenMP threads

Minimization stats:
  Stopping criterion = energy tolerance
  Energy initial, next-to-last, final = 
     -1152449.42504405  -1152449.42667965  -1152449.42667965
  Force two-norm initial, final = 0.18988303 4.5411371e-05
  Force max component initial, final = 0.073431795 1.0748690e-05
  Final line search alpha, max atom move = 1.0000000 1.0748690e-05
  Iterations, force evaluations = 175 350

MPI task timing breakdown:
Section |  min time  |  avg time  |  max time  |%varavg| %total
---------------------------------------------------------------
Pair    | 0.53343    | 1.4654     | 1.8991     |  32.6 | 72.63
Neigh   | 0          | 0          | 0          |   0.0 |  0.00
Comm    | 0.034498   | 0.32654    | 1.0046     |  48.6 | 16.18
Output  | 0          | 0          | 0          |   0.0 |  0.00
Modify  | 2.0905e-05 | 0.0028883  | 0.0061278  |   2.5 |  0.14
Other   |            | 0.2229     |            |       | 11.05

Nlocal:        2776.45 ave        3955 max           0 min
Histogram: 8 4 4 0 4 12 8 0 30 34
Nghost:        3879.03 ave        5427 max         232 min
Histogram: 8 0 8 0 16 0 8 8 16 40
Neighs:        79213.5 ave      115297 max           0 min
Histogram: 8 4 4 0 10 6 8 8 24 32

Total # of neighbors = 8238202
Ave neighs/atom = 28.530471
Neighbor list builds = 0
Dangerous builds = 0
The dot product: 1.63844399943044e-08
Setting atom values ...
  1 settings made for x
  1 settings made for y
  1 settings made for z
Setting up cg style minimization ...
  Unit style    : metal
  Current step  : 984
Per MPI rank memory allocation (min/avg/max) = 5.441 | 5.816 | 6.074 Mbytes
Step PotEng KinEng TotEng v_fx v_fy v_fz 
     984   -1152449.4            0   -1152449.4 -0.024911778  0.047957321   0.01261562 
    1000   -1152449.4            0   -1152449.4 0.00013592141 -0.0001700317 0.0011385741 
    1108   -1152449.4            0   -1152449.4 3.888764e-06 -5.8697295e-06 1.9331248e-05 
Loop time of 1.4474 on 104 procs for 124 steps with 288751 atoms

99.9% CPU use with 104 MPI tasks x 1 OpenMP threads

Minimization stats:
  Stopping criterion = energy tolerance
  Energy initial, next-to-last, final = 
     -1152449.41575844  -1152449.41737545  -1152449.41737545
  Force two-norm initial, final = 0.18874171 0.00013102144
  Force max component initial, final = 0.072553937 1.9331248e-05
  Final line search alpha, max atom move = 1.0000000 1.9331248e-05
  Iterations, force evaluations = 124 248

MPI task timing breakdown:
Section |  min time  |  avg time  |  max time  |%varavg| %total
---------------------------------------------------------------
Pair    | 0.37935    | 1.0447     | 1.3564     |  27.5 | 72.18
Neigh   | 0          | 0          | 0          |   0.0 |  0.00
Comm    | 0.021232   | 0.23264    | 0.70593    |  40.7 | 16.07
Output  | 0.00013553 | 0.00013772 | 0.00020246 |   0.0 |  0.01
Modify  | 1.472e-05  | 0.002044   | 0.0043527  |   2.1 |  0.14
Other   |            | 0.1679     |            |       | 11.60

Nlocal:        2776.45 ave        3955 max           0 min
Histogram: 8 4 4 0 4 12 8 0 30 34
Nghost:        3879.03 ave        5426 max         232 min
Histogram: 8 0 8 0 16 0 8 8 16 40
Neighs:        79213.5 ave      115295 max           0 min
Histogram: 8 4 4 0 10 6 8 8 24 32

Total # of neighbors = 8238201
Ave neighs/atom = 28.530467
Neighbor list builds = 0
Dangerous builds = 0
The dot product: -6.18983358501561e-08
Setting atom values ...
  1 settings made for x
  1 settings made for y
  1 settings made for z
Setting up cg style minimization ...
  Unit style    : metal
  Current step  : 1108
Per MPI rank memory allocation (min/avg/max) = 5.441 | 5.816 | 6.074 Mbytes
Step PotEng KinEng TotEng v_fx v_fy v_fz 
    1108   -1152449.4            0   -1152449.4    -0.024299  0.052052678  0.016718664 
    1232   -1152449.4            0   -1152449.4 -4.3035121e-06 9.8296417e-06 1.2708605e-05 
Loop time of 1.42103 on 104 procs for 124 steps with 288751 atoms

99.9% CPU use with 104 MPI tasks x 1 OpenMP threads

Minimization stats:
  Stopping criterion = energy tolerance
  Energy initial, next-to-last, final = 
     -1152449.40488175  -1152449.40648269  -1152449.40648269
  Force two-norm initial, final = 0.18775637 0.00013536343
  Force max component initial, final = 0.071138764 2.6604521e-05
  Final line search alpha, max atom move = 1.0000000 2.6604521e-05
  Iterations, force evaluations = 124 248

MPI task timing breakdown:
Section |  min time  |  avg time  |  max time  |%varavg| %total
---------------------------------------------------------------
Pair    | 0.37879    | 1.0393     | 1.3471     |  27.4 | 73.14
Neigh   | 0          | 0          | 0          |   0.0 |  0.00
Comm    | 0.021835   | 0.22957    | 0.70056    |  41.1 | 16.16
Output  | 0          | 0          | 0          |   0.0 |  0.00
Modify  | 1.4829e-05 | 0.0020414  | 0.0043489  |   2.1 |  0.14
Other   |            | 0.1501     |            |       | 10.56

Nlocal:        2776.45 ave        3954 max           0 min
Histogram: 8 4 4 0 4 12 8 0 30 34
Nghost:        3879.01 ave        5425 max         232 min
Histogram: 8 0 8 0 16 0 8 8 16 40
Neighs:        79213.5 ave      115259 max           0 min
Histogram: 8 4 4 0 10 6 8 8 24 32

Total # of neighbors = 8238200
Ave neighs/atom = 28.530464
Neighbor list builds = 0
Dangerous builds = 0
The dot product: 5.85997907281331e-08
Setting atom values ...
  1 settings made for x
  1 settings made for y
  1 settings made for z
Setting up cg style minimization ...
  Unit style    : metal
  Current step  : 1232
Per MPI rank memory allocation (min/avg/max) = 5.441 | 5.816 | 6.074 Mbytes
Step PotEng KinEng TotEng v_fx v_fy v_fz 
    1232   -1152449.4            0   -1152449.4 -0.023824633   0.05691681  0.021564553 
    1401   -1152449.4            0   -1152449.4 -4.8703418e-07 8.3796129e-07 -5.0709902e-06 
Loop time of 1.95286 on 104 procs for 169 steps with 288751 atoms

99.9% CPU use with 104 MPI tasks x 1 OpenMP threads

Minimization stats:
  Stopping criterion = energy tolerance
  Energy initial, next-to-last, final = 
     -1152449.39241385  -1152449.39400817  -1152449.39400817
  Force two-norm initial, final = 0.18719215 2.2795812e-05
  Force max component initial, final = 0.069138892 5.0709902e-06
  Final line search alpha, max atom move = 1.0000000 5.0709902e-06
  Iterations, force evaluations = 169 338

MPI task timing breakdown:
Section |  min time  |  avg time  |  max time  |%varavg| %total
---------------------------------------------------------------
Pair    | 0.5136     | 1.4235     | 1.853      |  32.1 | 72.89
Neigh   | 0          | 0          | 0          |   0.0 |  0.00
Comm    | 0.028755   | 0.31975    | 0.98094    |  47.6 | 16.37
Output  | 0          | 0          | 0          |   0.0 |  0.00
Modify  | 2.0091e-05 | 0.0027889  | 0.005976   |   2.5 |  0.14
Other   |            | 0.2068     |            |       | 10.59

Nlocal:        2776.45 ave        3954 max           0 min
Histogram: 8 4 4 0 4 12 8 1 29 34
Nghost:        3879.01 ave        5425 max         232 min
Histogram: 8 0 8 0 16 0 8 8 16 40
Neighs:        79213.4 ave      115259 max           0 min
Histogram: 8 4 4 0 10 6 8 8 24 32

Total # of neighbors = 8238198
Ave neighs/atom = 28.530457
Neighbor list builds = 0
Dangerous builds = 0
The dot product: 5.54168294471159e-09
Setting atom values ...
  1 settings made for x
  1 settings made for y
  1 settings made for z
Setting up cg style minimization ...
  Unit style    : metal
  Current step  : 1401
Per MPI rank memory allocation (min/avg/max) = 5.441 | 5.816 | 6.074 Mbytes
Step PotEng KinEng TotEng v_fx v_fy v_fz 
    1401   -1152449.4            0   -1152449.4 -0.023453228  0.063304729  0.027513971 
    1515   -1152449.4            0   -1152449.4 -6.3503552e-06 1.9869449e-05 4.7232711e-05 
Loop time of 1.32847 on 104 procs for 114 steps with 288751 atoms

99.9% CPU use with 104 MPI tasks x 1 OpenMP threads

Minimization stats:
  Stopping criterion = energy tolerance
  Energy initial, next-to-last, final = 
     -1152449.37838095  -1152449.37999022  -1152449.37999022
  Force two-norm initial, final = 0.18738497 0.0002167632
  Force max component initial, final = 0.066319897 4.7232711e-05
  Final line search alpha, max atom move = 1.0000000 4.7232711e-05
  Iterations, force evaluations = 114 228

MPI task timing breakdown:
Section |  min time  |  avg time  |  max time  |%varavg| %total
---------------------------------------------------------------
Pair    | 0.35287    | 0.96044    | 1.2458     |  26.3 | 72.30
Neigh   | 0          | 0          | 0          |   0.0 |  0.00
Comm    | 0.019707   | 0.21432    | 0.64986    |  39.1 | 16.13
Output  | 0          | 0          | 0          |   0.0 |  0.00
Modify  | 1.4788e-05 | 0.0018812  | 0.0040059  |   2.0 |  0.14
Other   |            | 0.1518     |            |       | 11.43

Nlocal:        2776.45 ave        3954 max           0 min
Histogram: 8 4 4 0 4 12 8 2 28 34
Nghost:        3879.01 ave        5424 max         232 min
Histogram: 8 0 8 0 16 0 8 8 16 40
Neighs:        79213.4 ave      115261 max           0 min
Histogram: 8 4 4 0 10 6 8 8 24 32

Total # of neighbors = 8238198
Ave neighs/atom = 28.530457
Neighbor list builds = 0
Dangerous builds = 0
The dot product: 2.41725510161587e-07
Setting atom values ...
  1 settings made for x
  1 settings made for y
  1 settings made for z
Setting up cg style minimization ...
  Unit style    : metal
  Current step  : 1515
Per MPI rank memory allocation (min/avg/max) = 5.441 | 5.816 | 6.074 Mbytes
Step PotEng KinEng TotEng v_fx v_fy v_fz 
    1515   -1152449.4            0   -1152449.4  -0.02361227  0.074671131  0.038081905 
    1642   -1152449.4            0   -1152449.4 4.9934109e-06 -1.5597128e-05 -6.1339711e-06 
Loop time of 1.49048 on 104 procs for 127 steps with 288751 atoms

99.9% CPU use with 104 MPI tasks x 1 OpenMP threads

Minimization stats:
  Stopping criterion = energy tolerance
  Energy initial, next-to-last, final = 
     -1152449.36286832  -1152449.36461457  -1152449.36461457
  Force two-norm initial, final = 0.19057105 0.00013095109
  Force max component initial, final = 0.074671131 2.1075513e-05
  Final line search alpha, max atom move = 1.0000000 2.1075513e-05
  Iterations, force evaluations = 127 254

MPI task timing breakdown:
Section |  min time  |  avg time  |  max time  |%varavg| %total
---------------------------------------------------------------
Pair    | 0.38869    | 1.0708     | 1.3873     |  27.8 | 71.84
Neigh   | 0          | 0          | 0          |   0.0 |  0.00
Comm    | 0.022756   | 0.23935    | 0.7252     |  41.4 | 16.06
Output  | 0          | 0          | 0          |   0.0 |  0.00
Modify  | 1.52e-05   | 0.0020947  | 0.0044513  |   2.2 |  0.14
Other   |            | 0.1782     |            |       | 11.96

Nlocal:        2776.45 ave        3954 max           0 min
Histogram: 8 4 4 0 4 12 8 2 28 34
Nghost:        3879.05 ave        5424 max         232 min
Histogram: 8 0 8 0 16 0 8 8 16 40
Neighs:        79213.4 ave      115261 max           0 min
Histogram: 8 4 4 0 10 6 8 8 24 32

Total # of neighbors = 8238197
Ave neighs/atom = 28.530454
Neighbor list builds = 0
Dangerous builds = 0
The dot product: -2.48161977860146e-07
Setting atom values ...
  1 settings made for x
  1 settings made for y
  1 settings made for z
Setting up cg style minimization ...
  Unit style    : metal
  Current step  : 1642
Per MPI rank memory allocation (min/avg/max) = 5.441 | 5.816 | 6.074 Mbytes
Step PotEng KinEng TotEng v_fx v_fy v_fz 
    1642   -1152449.3            0   -1152449.3 -0.023560789   0.10240283  0.062604789 
    1809   -1152449.4            0   -1152449.4 -5.6535458e-06 2.1401478e-05 8.4619418e-07 
Loop time of 1.94049 on 104 procs for 167 steps with 288751 atoms

99.9% CPU use with 104 MPI tasks x 1 OpenMP threads

Minimization stats:
  Stopping criterion = energy tolerance
  Energy initial, next-to-last, final = 
     -1152449.34635704  -1152449.35087963  -1152449.35087963
  Force two-norm initial, final = 0.20588632 0.00021310887
  Force max component initial, final = 0.10240283 3.4299855e-05
  Final line search alpha, max atom move = 1.0000000 3.4299855e-05
  Iterations, force evaluations = 167 334

MPI task timing breakdown:
Section |  min time  |  avg time  |  max time  |%varavg| %total
---------------------------------------------------------------
Pair    | 0.51002    | 1.3987     | 1.8126     |  31.8 | 72.08
Neigh   | 0          | 0          | 0          |   0.0 |  0.00
Comm    | 0.031229   | 0.3126     | 0.95348    |  47.2 | 16.11
Output  | 0          | 0          | 0          |   0.0 |  0.00
Modify  | 1.9835e-05 | 0.002751   | 0.0058485  |   2.5 |  0.14
Other   |            | 0.2265     |            |       | 11.67

Nlocal:        2776.45 ave        3954 max           0 min
Histogram: 8 4 4 0 4 12 8 2 28 34
Nghost:        3879.05 ave        5425 max         232 min
Histogram: 8 0 8 0 16 0 8 8 16 40
Neighs:        79213.4 ave      115259 max           0 min
Histogram: 8 4 4 0 10 6 8 8 24 32

Total # of neighbors = 8238192
Ave neighs/atom = 28.530436
Neighbor list builds = 0
Dangerous builds = 0
The dot product: 1.22259406955959e-06
Setting atom values ...
  1 settings made for x
  1 settings made for y
  1 settings made for z
Setting up cg style minimization ...
  Unit style    : metal
  Current step  : 1809
Per MPI rank memory allocation (min/avg/max) = 5.441 | 5.816 | 6.074 Mbytes
Step PotEng KinEng TotEng v_fx v_fy v_fz 
    1809   -1152449.3            0   -1152449.3  0.023671023   0.21793531   0.13890923 
    2000   -1152449.3            0   -1152449.3 -1.7089762e-05 2.0861412e-05 -7.4266437e-05 
    2029   -1152449.3            0   -1152449.3 -3.4047088e-06 -2.1573318e-05 -1.8552813e-05 
Loop time of 2.54083 on 104 procs for 220 steps with 288751 atoms

99.9% CPU use with 104 MPI tasks x 1 OpenMP threads

Minimization stats:
  Stopping criterion = energy tolerance
  Energy initial, next-to-last, final = 
     -1152449.33553549  -1152449.34591003  -1152449.34591003
  Force two-norm initial, final = 0.29931244 0.0001192694
  Force max component initial, final = 0.21793531 2.1573318e-05
  Final line search alpha, max atom move = 1.0000000 2.1573318e-05
  Iterations, force evaluations = 220 440

MPI task timing breakdown:
Section |  min time  |  avg time  |  max time  |%varavg| %total
---------------------------------------------------------------
Pair    | 0.67261    | 1.8488     | 2.4061     |  36.5 | 72.76
Neigh   | 1.0189e-05 | 0.0029589  | 0.0043033  |   2.2 |  0.12
Comm    | 0.039376   | 0.41006    | 1.2418     |  54.5 | 16.14
Output  | 9.5466e-05 | 0.0001049  | 0.00024954 |   0.0 |  0.00
Modify  | 2.5833e-05 | 0.0036117  | 0.007709   |   2.8 |  0.14
Other   |            | 0.2753     |            |       | 10.84

Nlocal:        2776.45 ave        3958 max           0 min
Histogram: 8 4 4 0 4 12 8 2 28 34
Nghost:        3879.01 ave        5425 max         232 min
Histogram: 8 0 8 0 16 0 8 8 16 40
Neighs:        79213.4 ave      115401 max           0 min
Histogram: 8 4 4 0 10 6 8 8 24 32

Total # of neighbors = 8238196
Ave neighs/atom = 28.530450
Neighbor list builds = 1
Dangerous builds = 0
The dot product: -2.126567526837e-06
Setting atom values ...
  1 settings made for x
  1 settings made for y
  1 settings made for z
Setting up cg style minimization ...
  Unit style    : metal
  Current step  : 2029
Per MPI rank memory allocation (min/avg/max) = 5.441 | 5.816 | 6.074 Mbytes
Step PotEng KinEng TotEng v_fx v_fy v_fz 
    2029   -1152449.3            0   -1152449.3  0.070495826   0.17566092  0.080180113 
    2283   -1152449.3            0   -1152449.3 -1.9380497e-05 -8.1437983e-06 -4.7349064e-05 
Loop time of 2.91589 on 104 procs for 254 steps with 288751 atoms

99.9% CPU use with 104 MPI tasks x 1 OpenMP threads

Minimization stats:
  Stopping criterion = energy tolerance
  Energy initial, next-to-last, final = 
     -1152449.33326959  -1152449.34468776  -1152449.34468776
  Force two-norm initial, final = 0.24766227 0.00015548513
  Force max component initial, final = 0.17566092 4.7349064e-05
  Final line search alpha, max atom move = 1.0000000 4.7349064e-05
  Iterations, force evaluations = 254 508

MPI task timing breakdown:
Section |  min time  |  avg time  |  max time  |%varavg| %total
---------------------------------------------------------------
Pair    | 0.77749    | 2.1272     | 2.7573     |  39.2 | 72.95
Neigh   | 1.0449e-05 | 0.0029641  | 0.0043144  |   2.2 |  0.10
Comm    | 0.047264   | 0.47075    | 1.4408     |  58.7 | 16.14
Output  | 0          | 0          | 0          |   0.0 |  0.00
Modify  | 3.0198e-05 | 0.004177   | 0.0094517  |   3.1 |  0.14
Other   |            | 0.3108     |            |       | 10.66

Nlocal:        2776.45 ave        3958 max           0 min
Histogram: 8 4 4 0 4 12 8 2 28 34
Nghost:        3879.05 ave        5424 max         232 min
Histogram: 8 0 8 0 16 0 8 8 16 40
Neighs:        79213.3 ave      115393 max           0 min
Histogram: 8 4 4 0 10 6 8 8 24 32

Total # of neighbors = 8238187
Ave neighs/atom = 28.530419
Neighbor list builds = 1
Dangerous builds = 0
The dot product: -4.20185138941969e-06
Setting atom values ...
  1 settings made for x
  1 settings made for y
  1 settings made for z
Setting up cg style minimization ...
  Unit style    : metal
  Current step  : 2283
Per MPI rank memory allocation (min/avg/max) = 5.441 | 5.816 | 6.074 Mbytes
Step PotEng KinEng TotEng v_fx v_fy v_fz 
    2283   -1152449.3            0   -1152449.3 -0.050050408 -0.030051727 -0.048022919 
    2390   -1152449.3            0   -1152449.3 5.9246094e-05 3.549068e-05 5.6911022e-05 
Loop time of 1.24333 on 104 procs for 107 steps with 288751 atoms

99.9% CPU use with 104 MPI tasks x 1 OpenMP threads

Minimization stats:
  Stopping criterion = energy tolerance
  Energy initial, next-to-last, final = 
     -1152449.34688349  -1152449.34819301  -1152449.34819301
  Force two-norm initial, final = 0.1464738 0.00026166928
  Force max component initial, final = 0.050050408 6.5166784e-05
  Final line search alpha, max atom move = 1.0000000 6.5166784e-05
  Iterations, force evaluations = 107 214

MPI task timing breakdown:
Section |  min time  |  avg time  |  max time  |%varavg| %total
---------------------------------------------------------------
Pair    | 0.32612    | 0.90095    | 1.1735     |  25.5 | 72.46
Neigh   | 0          | 0          | 0          |   0.0 |  0.00
Comm    | 0.019157   | 0.20045    | 0.60883    |  38.0 | 16.12
Output  | 0          | 0          | 0          |   0.0 |  0.00
Modify  | 1.2937e-05 | 0.0017642  | 0.0037519  |   2.0 |  0.14
Other   |            | 0.1402     |            |       | 11.27

Nlocal:        2776.45 ave        3959 max           0 min
Histogram: 8 4 4 0 4 12 8 2 28 34
Nghost:        3879.09 ave        5428 max         232 min
Histogram: 8 0 8 0 16 0 8 8 16 40
Neighs:        79213.4 ave      115402 max           0 min
Histogram: 8 4 4 0 10 6 8 8 24 32

Total # of neighbors = 8238192
Ave neighs/atom = 28.530436
Neighbor list builds = 0
Dangerous builds = 0
The dot product: -9.58586657172231e-07
Setting atom values ...
  1 settings made for x
  1 settings made for y
  1 settings made for z
Setting up cg style minimization ...
  Unit style    : metal
  Current step  : 2390
Per MPI rank memory allocation (min/avg/max) = 5.441 | 5.816 | 6.074 Mbytes
Step PotEng KinEng TotEng v_fx v_fy v_fz 
    2390   -1152449.3            0   -1152449.3 -0.0066181402 0.0096678765 -0.017475014 
    2539   -1152449.4            0   -1152449.4 1.6824447e-05 3.5033598e-05 -1.3895429e-06 
Loop time of 1.70938 on 104 procs for 149 steps with 288751 atoms

99.9% CPU use with 104 MPI tasks x 1 OpenMP threads

Minimization stats:
  Stopping criterion = energy tolerance
  Energy initial, next-to-last, final = 
     -1152449.34955367  -1152449.35045957  -1152449.35045957
  Force two-norm initial, final = 0.12490551 0.00022916933
  Force max component initial, final = 0.04767847 4.4238059e-05
  Final line search alpha, max atom move = 1.0000000 4.4238059e-05
  Iterations, force evaluations = 149 298

MPI task timing breakdown:
Section |  min time  |  avg time  |  max time  |%varavg| %total
---------------------------------------------------------------
Pair    | 0.45444    | 1.2468     | 1.6158     |  30.0 | 72.94
Neigh   | 0          | 0          | 0          |   0.0 |  0.00
Comm    | 0.028701   | 0.27681    | 0.84722    |  44.9 | 16.19
Output  | 0          | 0          | 0          |   0.0 |  0.00
Modify  | 1.785e-05  | 0.0024532  | 0.0052254  |   2.3 |  0.14
Other   |            | 0.1834     |            |       | 10.73

Nlocal:        2776.45 ave        3959 max           0 min
Histogram: 8 4 4 0 4 12 8 2 28 34
Nghost:        3879.09 ave        5428 max         232 min
Histogram: 8 0 8 0 16 0 8 8 16 40
Neighs:        79213.4 ave      115400 max           0 min
Histogram: 8 4 4 0 10 6 8 8 24 32

Total # of neighbors = 8238193
Ave neighs/atom = 28.530440
Neighbor list builds = 0
Dangerous builds = 0
The dot product: 3.58222150811466e-08
Setting atom values ...
  1 settings made for x
  1 settings made for y
  1 settings made for z
Setting up cg style minimization ...
  Unit style    : metal
  Current step  : 2539
Per MPI rank memory allocation (min/avg/max) = 5.441 | 5.816 | 6.074 Mbytes
Step PotEng KinEng TotEng v_fx v_fy v_fz 
    2539   -1152449.4            0   -1152449.4 -0.010208532 0.0063465493 -0.020378834 
    2709   -1152449.4            0   -1152449.4 -2.0380026e-05 -2.4621753e-05 -1.184794e-05 
Loop time of 1.98584 on 104 procs for 170 steps with 288751 atoms

99.9% CPU use with 104 MPI tasks x 1 OpenMP threads

Minimization stats:
  Stopping criterion = energy tolerance
  Energy initial, next-to-last, final = 
     -1152449.35060933  -1152449.35151169  -1152449.35151169
  Force two-norm initial, final = 0.1255699 0.00020691447
  Force max component initial, final = 0.047072715 4.7109664e-05
  Final line search alpha, max atom move = 1.0000000 4.7109664e-05
  Iterations, force evaluations = 170 340

MPI task timing breakdown:
Section |  min time  |  avg time  |  max time  |%varavg| %total
---------------------------------------------------------------
Pair    | 0.51818    | 1.4327     | 1.8655     |  32.2 | 72.14
Neigh   | 0          | 0          | 0          |   0.0 |  0.00
Comm    | 0.034135   | 0.32334    | 0.99047    |  47.5 | 16.28
Output  | 0          | 0          | 0          |   0.0 |  0.00
Modify  | 2.1872e-05 | 0.0028004  | 0.0059822  |   2.5 |  0.14
Other   |            | 0.227      |            |       | 11.43

Nlocal:        2776.45 ave        3959 max           0 min
Histogram: 8 4 4 0 4 12 8 2 28 34
Nghost:        3879.09 ave        5424 max         232 min
Histogram: 8 0 8 0 16 0 8 8 16 40
Neighs:        79213.4 ave      115410 max           0 min
Histogram: 8 4 4 0 10 6 8 8 24 32

Total # of neighbors = 8238189
Ave neighs/atom = 28.530426
Neighbor list builds = 0
Dangerous builds = 0
The dot product: 2.43995092370768e-09
Setting atom values ...
  1 settings made for x
  1 settings made for y
  1 settings made for z
Setting up cg style minimization ...
  Unit style    : metal
  Current step  : 2709
Per MPI rank memory allocation (min/avg/max) = 5.441 | 5.816 | 6.074 Mbytes
Step PotEng KinEng TotEng v_fx v_fy v_fz 
    2709   -1152449.4            0   -1152449.4 -0.0094988156 0.0065392445 -0.019514264 
    2883   -1152449.4            0   -1152449.4 -3.1411909e-05 -6.5916782e-06 -4.2626338e-05 
Loop time of 2.00239 on 104 procs for 174 steps with 288751 atoms

99.9% CPU use with 104 MPI tasks x 1 OpenMP threads

Minimization stats:
  Stopping criterion = energy tolerance
  Energy initial, next-to-last, final = 
     -1152449.35035355  -1152449.35124889  -1152449.35124889
  Force two-norm initial, final = 0.12515042 0.00018146976
  Force max component initial, final = 0.046443056 4.2626338e-05
  Final line search alpha, max atom move = 1.0000000 4.2626338e-05
  Iterations, force evaluations = 174 348

MPI task timing breakdown:
Section |  min time  |  avg time  |  max time  |%varavg| %total
---------------------------------------------------------------
Pair    | 0.5305     | 1.4593     | 1.8984     |  32.6 | 72.88
Neigh   | 0          | 0          | 0          |   0.0 |  0.00
Comm    | 0.029874   | 0.32397    | 0.99061    |  48.5 | 16.18
Output  | 0          | 0          | 0          |   0.0 |  0.00
Modify  | 2.0853e-05 | 0.0028614  | 0.0061077  |   2.5 |  0.14
Other   |            | 0.2162     |            |       | 10.80

Nlocal:        2776.45 ave        3958 max           0 min
Histogram: 8 4 4 0 4 12 8 2 28 34
Nghost:        3879.05 ave        5424 max         232 min
Histogram: 8 0 8 0 16 0 8 8 16 40
Neighs:        79213.4 ave      115389 max           0 min
Histogram: 8 4 4 0 10 6 8 8 24 32

Total # of neighbors = 8238191
Ave neighs/atom = 28.530433
Neighbor list builds = 0
Dangerous builds = 0
The dot product: 2.05099144505548e-08
Setting atom values ...
  1 settings made for x
  1 settings made for y
  1 settings made for z
Setting up cg style minimization ...
  Unit style    : metal
  Current step  : 2883
Per MPI rank memory allocation (min/avg/max) = 5.441 | 5.816 | 6.074 Mbytes
Step PotEng KinEng TotEng v_fx v_fy v_fz 
    2883   -1152449.3            0   -1152449.3 -0.0085952804 0.0064477194 -0.018126817 
    3000   -1152449.3            0   -1152449.3 -2.8649182e-05 -2.6547662e-05 -2.2958805e-05 
    3057   -1152449.3            0   -1152449.3 -6.3821907e-06 5.9879172e-06 -1.4395587e-05 
Loop time of 2.02099 on 104 procs for 174 steps with 288751 atoms

99.9% CPU use with 104 MPI tasks x 1 OpenMP threads

Minimization stats:
  Stopping criterion = energy tolerance
  Energy initial, next-to-last, final = 
     -1152449.34875396  -1152449.34963741  -1152449.34963741
  Force two-norm initial, final = 0.12428029 0.00017544631
  Force max component initial, final = 0.045841632 1.4395587e-05
  Final line search alpha, max atom move = 1.0000000 1.4395587e-05
  Iterations, force evaluations = 174 348

MPI task timing breakdown:
Section |  min time  |  avg time  |  max time  |%varavg| %total
---------------------------------------------------------------
Pair    | 0.53469    | 1.4684     | 1.9096     |  32.5 | 72.66
Neigh   | 0          | 0          | 0          |   0.0 |  0.00
Comm    | 0.034332   | 0.32817    | 1.0063     |  48.6 | 16.24
Output  | 0.00016522 | 0.00016898 | 0.00029595 |   0.0 |  0.01
Modify  | 2.0708e-05 | 0.0028763  | 0.0061313  |   2.5 |  0.14
Other   |            | 0.2214     |            |       | 10.95

Nlocal:        2776.45 ave        3958 max           0 min
Histogram: 8 4 4 0 4 12 8 2 28 34
Nghost:        3879.03 ave        5424 max         232 min
Histogram: 8 0 8 0 16 0 8 8 16 40
Neighs:        79213.4 ave      115389 max           0 min
Histogram: 8 4 4 0 10 6 8 8 24 32

Total # of neighbors = 8238191
Ave neighs/atom = 28.530433
Neighbor list builds = 0
Dangerous builds = 0
The dot product: 8.65404190824893e-09
Setting atom values ...
  1 settings made for x
  1 settings made for y
  1 settings made for z
Setting up cg style minimization ...
  Unit style    : metal
  Current step  : 3057
Per MPI rank memory allocation (min/avg/max) = 5.441 | 5.816 | 6.074 Mbytes
Step PotEng KinEng TotEng v_fx v_fy v_fz 
    3057   -1152449.3            0   -1152449.3 -0.0076115933 0.0060992596 -0.016402571 
    3228   -1152449.3            0   -1152449.3 1.3772499e-06 2.388574e-05 -1.660089e-05 
Loop time of 1.97899 on 104 procs for 171 steps with 288751 atoms

99.9% CPU use with 104 MPI tasks x 1 OpenMP threads

Minimization stats:
  Stopping criterion = energy tolerance
  Energy initial, next-to-last, final = 
     -1152449.34579995  -1152449.34666933  -1152449.34666933
  Force two-norm initial, final = 0.12326003 0.00019773772
  Force max component initial, final = 0.045146273 2.4462669e-05
  Final line search alpha, max atom move = 1.0000000 2.4462669e-05
  Iterations, force evaluations = 171 342

MPI task timing breakdown:
Section |  min time  |  avg time  |  max time  |%varavg| %total
---------------------------------------------------------------
Pair    | 0.5233     | 1.4413     | 1.8721     |  32.5 | 72.83
Neigh   | 0          | 0          | 0          |   0.0 |  0.00
Comm    | 0.031054   | 0.31984    | 0.97244    |  48.2 | 16.16
Output  | 0          | 0          | 0          |   0.0 |  0.00
Modify  | 2.004e-05  | 0.0028148  | 0.006045   |   2.5 |  0.14
Other   |            | 0.215      |            |       | 10.86

Nlocal:        2776.45 ave        3958 max           0 min
Histogram: 8 4 4 0 4 12 8 2 28 34
Nghost:        3879.03 ave        5424 max         232 min
Histogram: 8 0 8 0 16 0 8 8 16 40
Neighs:        79213.4 ave      115393 max           0 min
Histogram: 8 4 4 0 10 6 8 8 24 32

Total # of neighbors = 8238190
Ave neighs/atom = 28.530429
Neighbor list builds = 0
Dangerous builds = 0
The dot product: 1.42766644576909e-08
Setting atom values ...
  1 settings made for x
  1 settings made for y
  1 settings made for z
Setting up cg style minimization ...
  Unit style    : metal
  Current step  : 3228
Per MPI rank memory allocation (min/avg/max) = 5.441 | 5.816 | 6.074 Mbytes
Step PotEng KinEng TotEng v_fx v_fy v_fz 
    3228   -1152449.3            0   -1152449.3 -0.006778888 0.0054734541 -0.014676214 
    3394   -1152449.3            0   -1152449.3 5.5761156e-05 1.6773676e-05 7.2148905e-05 
Loop time of 1.90801 on 104 procs for 166 steps with 288751 atoms

99.9% CPU use with 104 MPI tasks x 1 OpenMP threads

Minimization stats:
  Stopping criterion = energy tolerance
  Energy initial, next-to-last, final = 
     -1152449.34148261  -1152449.34233913  -1152449.34233913
  Force two-norm initial, final = 0.12244243 0.00024398875
  Force max component initial, final = 0.044426013 7.2148905e-05
  Final line search alpha, max atom move = 1.0000000 7.2148905e-05
  Iterations, force evaluations = 166 332

MPI task timing breakdown:
Section |  min time  |  avg time  |  max time  |%varavg| %total
---------------------------------------------------------------
Pair    | 0.50619    | 1.3939     | 1.8097     |  31.7 | 73.05
Neigh   | 0          | 0          | 0          |   0.0 |  0.00
Comm    | 0.029595   | 0.30915    | 0.93927    |  47.2 | 16.20
Output  | 0          | 0          | 0          |   0.0 |  0.00
Modify  | 1.9728e-05 | 0.0027307  | 0.0058311  |   2.5 |  0.14
Other   |            | 0.2023     |            |       | 10.60

Nlocal:        2776.45 ave        3958 max           0 min
Histogram: 8 4 4 0 4 12 8 2 28 34
Nghost:        3879.01 ave        5424 max         232 min
Histogram: 8 0 8 0 16 0 8 8 16 40
Neighs:        79213.4 ave      115393 max           0 min
Histogram: 8 4 4 0 10 6 8 8 24 32

Total # of neighbors = 8238191
Ave neighs/atom = 28.530433
Neighbor list builds = 0
Dangerous builds = 0
The dot product: -2.20527086548617e-08
Setting atom values ...
  1 settings made for x
  1 settings made for y
  1 settings made for z
Setting up cg style minimization ...
  Unit style    : metal
  Current step  : 3394
Per MPI rank memory allocation (min/avg/max) = 5.441 | 5.816 | 6.074 Mbytes
Step PotEng KinEng TotEng v_fx v_fy v_fz 
    3394   -1152449.3            0   -1152449.3 -0.0061164233 0.0045205857 -0.012940162 
    3577   -1152449.3            0   -1152449.3 6.7390699e-06 -2.779936e-06 1.2522022e-05 
Loop time of 2.10213 on 104 procs for 183 steps with 288751 atoms

99.9% CPU use with 104 MPI tasks x 1 OpenMP threads

Minimization stats:
  Stopping criterion = energy tolerance
  Energy initial, next-to-last, final = 
     -1152449.33578767   -1152449.3366365   -1152449.3366365
  Force two-norm initial, final = 0.12192968 0.00011483049
  Force max component initial, final = 0.04422896 1.5501751e-05
  Final line search alpha, max atom move = 1.0000000 1.5501751e-05
  Iterations, force evaluations = 183 366

MPI task timing breakdown:
Section |  min time  |  avg time  |  max time  |%varavg| %total
---------------------------------------------------------------
Pair    | 0.55508    | 1.5319     | 1.9865     |  33.4 | 72.87
Neigh   | 0          | 0          | 0          |   0.0 |  0.00
Comm    | 0.034314   | 0.34025    | 1.0377     |  49.7 | 16.19
Output  | 0          | 0          | 0          |   0.0 |  0.00
Modify  | 2.159e-05  | 0.003009   | 0.0064024  |   2.6 |  0.14
Other   |            | 0.227      |            |       | 10.80

Nlocal:        2776.45 ave        3958 max           0 min
Histogram: 8 4 4 0 4 12 8 2 28 34
Nghost:        3879.03 ave        5424 max         232 min
Histogram: 8 0 8 0 16 0 8 8 16 40
Neighs:        79213.4 ave      115395 max           0 min
Histogram: 8 4 4 0 10 6 8 8 24 32

Total # of neighbors = 8238192
Ave neighs/atom = 28.530436
Neighbor list builds = 0
Dangerous builds = 0
The dot product: -4.49831855224447e-09
Setting atom values ...
  1 settings made for x
  1 settings made for y
  1 settings made for z
Setting up cg style minimization ...
  Unit style    : metal
  Current step  : 3577
Per MPI rank memory allocation (min/avg/max) = 5.441 | 5.816 | 6.074 Mbytes
Step PotEng KinEng TotEng v_fx v_fy v_fz 
    3577   -1152449.3            0   -1152449.3 -0.005800668 0.0032450732 -0.011468461 
    3759   -1152449.3            0   -1152449.3 -8.5330838e-06 -7.6660094e-06 -7.037552e-06 
Loop time of 2.11516 on 104 procs for 182 steps with 288751 atoms

99.9% CPU use with 104 MPI tasks x 1 OpenMP threads

Minimization stats:
  Stopping criterion = energy tolerance
  Energy initial, next-to-last, final = 
     -1152449.32869597  -1152449.32954228  -1152449.32954228
  Force two-norm initial, final = 0.12186218 0.00012040249
  Force max component initial, final = 0.044029854 2.5325216e-05
  Final line search alpha, max atom move = 1.0000000 2.5325216e-05
  Iterations, force evaluations = 182 364

MPI task timing breakdown:
Section |  min time  |  avg time  |  max time  |%varavg| %total
---------------------------------------------------------------
Pair    | 0.55529    | 1.5325     | 1.991      |  33.3 | 72.45
Neigh   | 0          | 0          | 0          |   0.0 |  0.00
Comm    | 0.031834   | 0.34081    | 1.0275     |  49.4 | 16.11
Output  | 0          | 0          | 0          |   0.0 |  0.00
Modify  | 2.1732e-05 | 0.0029973  | 0.0063982  |   2.6 |  0.14
Other   |            | 0.2389     |            |       | 11.29

Nlocal:        2776.45 ave        3958 max           0 min
Histogram: 8 4 4 0 4 12 8 2 28 34
Nghost:        3879.05 ave        5424 max         232 min
Histogram: 8 0 8 0 16 0 8 8 16 40
Neighs:        79213.4 ave      115394 max           0 min
Histogram: 8 4 4 0 10 6 8 8 24 32

Total # of neighbors = 8238190
Ave neighs/atom = 28.530429
Neighbor list builds = 0
Dangerous builds = 0
The dot product: 1.30834436012504e-09
Setting atom values ...
  1 settings made for x
  1 settings made for y
  1 settings made for z
Setting up cg style minimization ...
  Unit style    : metal
  Current step  : 3759
Per MPI rank memory allocation (min/avg/max) = 5.441 | 5.816 | 6.074 Mbytes
Step PotEng KinEng TotEng v_fx v_fy v_fz 
    3759   -1152449.3            0   -1152449.3 -0.0057481393 0.0017002822 -0.010180208 
    3935   -1152449.3            0   -1152449.3 1.0517498e-05 9.2913814e-06 8.8053921e-06 
Loop time of 2.0152 on 104 procs for 176 steps with 288751 atoms

99.9% CPU use with 104 MPI tasks x 1 OpenMP threads

Minimization stats:
  Stopping criterion = energy tolerance
  Energy initial, next-to-last, final = 
     -1152449.32017844  -1152449.32102829  -1152449.32102829
  Force two-norm initial, final = 0.12213052 0.00015100109
  Force max component initial, final = 0.043889159 1.0914571e-05
  Final line search alpha, max atom move = 1.0000000 1.0914571e-05
  Iterations, force evaluations = 176 352

MPI task timing breakdown:
Section |  min time  |  avg time  |  max time  |%varavg| %total
---------------------------------------------------------------
Pair    | 0.53488    | 1.4728     | 1.9097     |  32.7 | 73.08
Neigh   | 0          | 0          | 0          |   0.0 |  0.00
Comm    | 0.030837   | 0.32686    | 0.99834    |  48.8 | 16.22
Output  | 0          | 0          | 0          |   0.0 |  0.00
Modify  | 2.1021e-05 | 0.0028961  | 0.0061749  |   2.5 |  0.14
Other   |            | 0.2127     |            |       | 10.55

Nlocal:        2776.45 ave        3958 max           0 min
Histogram: 8 4 4 0 4 12 8 2 28 34
Nghost:        3879.05 ave        5424 max         232 min
Histogram: 8 0 8 0 16 0 8 8 16 40
Neighs:        79213.3 ave      115394 max           0 min
Histogram: 8 4 4 0 10 6 8 8 24 32

Total # of neighbors = 8238188
Ave neighs/atom = 28.530422
Neighbor list builds = 0
Dangerous builds = 0
The dot product: -2.94884444519898e-09
Setting atom values ...
  1 settings made for x
  1 settings made for y
  1 settings made for z
Setting up cg style minimization ...
  Unit style    : metal
  Current step  : 3935
Per MPI rank memory allocation (min/avg/max) = 5.441 | 5.816 | 6.074 Mbytes
Step PotEng KinEng TotEng v_fx v_fy v_fz 
    3935   -1152449.3            0   -1152449.3 -0.0059331829 -8.6608618e-05 -0.0090608148 
    4000   -1152449.3            0   -1152449.3 1.7601375e-05 -2.0386684e-05 4.3246681e-05 
    4157   -1152449.3            0   -1152449.3 4.2497719e-06 6.8944577e-07 5.9925769e-06 
Loop time of 2.62788 on 104 procs for 222 steps with 288751 atoms

99.9% CPU use with 104 MPI tasks x 1 OpenMP threads

Minimization stats:
  Stopping criterion = energy tolerance
  Energy initial, next-to-last, final = 
     -1152449.31020368  -1152449.31106032  -1152449.31106032
  Force two-norm initial, final = 0.12265748 2.7475800e-05
  Force max component initial, final = 0.043713265 5.9925769e-06
  Final line search alpha, max atom move = 1.0000000 5.9925769e-06
  Iterations, force evaluations = 222 444

MPI task timing breakdown:
Section |  min time  |  avg time  |  max time  |%varavg| %total
---------------------------------------------------------------
Pair    | 0.67618    | 1.8769     | 2.4485     |  37.0 | 71.42
Neigh   | 0          | 0          | 0          |   0.0 |  0.00
Comm    | 0.041702   | 0.4249     | 1.2904     |  54.1 | 16.17
Output  | 9.837e-05  | 0.00010833 | 0.00020497 |   0.0 |  0.00
Modify  | 2.6454e-05 | 0.0036545  | 0.0078102  |   2.9 |  0.14
Other   |            | 0.3224     |            |       | 12.27

Nlocal:        2776.45 ave        3959 max           0 min
Histogram: 8 4 4 0 4 12 8 2 28 34
Nghost:        3879.03 ave        5424 max         232 min
Histogram: 8 0 8 0 16 0 8 8 16 40
Neighs:        79213.4 ave      115423 max           0 min
Histogram: 8 4 4 0 10 6 8 8 24 32

Total # of neighbors = 8238189
Ave neighs/atom = 28.530426
Neighbor list builds = 0
Dangerous builds = 0
The dot product: -2.05557385718129e-09
Setting atom values ...
  1 settings made for x
  1 settings made for y
  1 settings made for z
Setting up cg style minimization ...
  Unit style    : metal
  Current step  : 4157
Per MPI rank memory allocation (min/avg/max) = 5.441 | 5.816 | 6.074 Mbytes
Step PotEng KinEng TotEng v_fx v_fy v_fz 
    4157   -1152449.3            0   -1152449.3 -0.0064500567 -0.0021035602 -0.0082684362 
    4330   -1152449.3            0   -1152449.3 2.1864943e-06 -3.6053506e-06 6.2282386e-06 
Loop time of 1.99214 on 104 procs for 173 steps with 288751 atoms

99.9% CPU use with 104 MPI tasks x 1 OpenMP threads

Minimization stats:
  Stopping criterion = energy tolerance
  Energy initial, next-to-last, final = 
     -1152449.29874322  -1152449.29960608  -1152449.29960608
  Force two-norm initial, final = 0.12332406 0.00016755181
  Force max component initial, final = 0.043530304 1.1621504e-05
  Final line search alpha, max atom move = 1.0000000 1.1621504e-05
  Iterations, force evaluations = 173 346

MPI task timing breakdown:
Section |  min time  |  avg time  |  max time  |%varavg| %total
---------------------------------------------------------------
Pair    | 0.52655    | 1.4483     | 1.8804     |  32.4 | 72.70
Neigh   | 0          | 0          | 0          |   0.0 |  0.00
Comm    | 0.031787   | 0.3226     | 0.9903     |  48.2 | 16.19
Output  | 0          | 0          | 0          |   0.0 |  0.00
Modify  | 2.0435e-05 | 0.0028453  | 0.0060574  |   2.5 |  0.14
Other   |            | 0.2184     |            |       | 10.96

Nlocal:        2776.45 ave        3959 max           0 min
Histogram: 8 4 4 0 4 12 8 2 28 34
Nghost:        3879.07 ave        5424 max         232 min
Histogram: 8 0 8 0 16 0 8 8 16 40
Neighs:        79213.4 ave      115424 max           0 min
Histogram: 8 4 4 0 10 6 8 8 24 32

Total # of neighbors = 8238189
Ave neighs/atom = 28.530426
Neighbor list builds = 0
Dangerous builds = 0
The dot product: -1.32776858859497e-09
Setting atom values ...
  1 settings made for x
  1 settings made for y
  1 settings made for z
Setting up cg style minimization ...
  Unit style    : metal
  Current step  : 4330
Per MPI rank memory allocation (min/avg/max) = 5.441 | 5.816 | 6.074 Mbytes
Step PotEng KinEng TotEng v_fx v_fy v_fz 
    4330   -1152449.3            0   -1152449.3 -0.0073897339 -0.0042275122 -0.0080482773 
    4499   -1152449.3            0   -1152449.3 -3.6635005e-05 -2.0591183e-05 -4.0190809e-05 
Loop time of 1.9549 on 104 procs for 169 steps with 288751 atoms

99.9% CPU use with 104 MPI tasks x 1 OpenMP threads

Minimization stats:
  Stopping criterion = energy tolerance
  Energy initial, next-to-last, final = 
     -1152449.28577628  -1152449.28664158  -1152449.28664158
  Force two-norm initial, final = 0.12398638 0.00020086597
  Force max component initial, final = 0.043349612 4.0190809e-05
  Final line search alpha, max atom move = 1.0000000 4.0190809e-05
  Iterations, force evaluations = 169 338

MPI task timing breakdown:
Section |  min time  |  avg time  |  max time  |%varavg| %total
---------------------------------------------------------------
Pair    | 0.51583    | 1.4236     | 1.8528     |  32.1 | 72.82
Neigh   | 0          | 0          | 0          |   0.0 |  0.00
Comm    | 0.028827   | 0.31839    | 0.97199    |  47.9 | 16.29
Output  | 0          | 0          | 0          |   0.0 |  0.00
Modify  | 2.085e-05  | 0.0027855  | 0.0059591  |   2.5 |  0.14
Other   |            | 0.2101     |            |       | 10.75

Nlocal:        2776.45 ave        3959 max           0 min
Histogram: 8 4 4 0 4 12 8 2 28 34
Nghost:        3879.13 ave        5424 max         232 min
Histogram: 8 0 8 0 16 0 8 8 16 40
Neighs:        79213.3 ave      115424 max           0 min
Histogram: 8 4 4 0 10 6 8 8 24 32

Total # of neighbors = 8238187
Ave neighs/atom = 28.530419
Neighbor list builds = 0
Dangerous builds = 0
The dot product: 3.14073342774685e-08
Setting atom values ...
  1 settings made for x
  1 settings made for y
  1 settings made for z
Setting up cg style minimization ...
  Unit style    : metal
  Current step  : 4499
Per MPI rank memory allocation (min/avg/max) = 5.441 | 5.816 | 6.074 Mbytes
Step PotEng KinEng TotEng v_fx v_fy v_fz 
    4499   -1152449.3            0   -1152449.3 -0.0088922681 -0.0063357188 -0.0087216785 
    4707   -1152449.3            0   -1152449.3 -3.3929129e-06 -8.8041785e-07 -4.5463257e-06 
Loop time of 2.39207 on 104 procs for 208 steps with 288751 atoms

99.9% CPU use with 104 MPI tasks x 1 OpenMP threads

Minimization stats:
  Stopping criterion = energy tolerance
  Energy initial, next-to-last, final = 
     -1152449.27129955  -1152449.27216027  -1152449.27216027
  Force two-norm initial, final = 0.12456682 5.3532732e-05
  Force max component initial, final = 0.043124873 9.4417097e-06
  Final line search alpha, max atom move = 1.0000000 9.4417097e-06
  Iterations, force evaluations = 208 416

MPI task timing breakdown:
Section |  min time  |  avg time  |  max time  |%varavg| %total
---------------------------------------------------------------
Pair    | 0.63412    | 1.7462     | 2.2664     |  35.7 | 73.00
Neigh   | 0          | 0          | 0          |   0.0 |  0.00
Comm    | 0.037443   | 0.38712    | 1.1784     |  53.3 | 16.18
Output  | 0          | 0          | 0          |   0.0 |  0.00
Modify  | 2.48e-05   | 0.0034254  | 0.0072786  |   2.8 |  0.14
Other   |            | 0.2554     |            |       | 10.68

Nlocal:        2776.45 ave        3959 max           0 min
Histogram: 8 4 4 0 4 12 8 2 28 34
Nghost:        3879.12 ave        5424 max         232 min
Histogram: 8 0 8 0 16 0 8 8 16 40
Neighs:        79213.3 ave      115424 max           0 min
Histogram: 8 4 4 0 10 6 8 8 24 32

Total # of neighbors = 8238186
Ave neighs/atom = 28.530415
Neighbor list builds = 0
Dangerous builds = 0
The dot product: 4.05148482510588e-09
Setting atom values ...
  1 settings made for x
  1 settings made for y
  1 settings made for z
Setting up cg style minimization ...
  Unit style    : metal
  Current step  : 4707
Per MPI rank memory allocation (min/avg/max) = 5.441 | 5.816 | 6.074 Mbytes
Step PotEng KinEng TotEng v_fx v_fy v_fz 
    4707   -1152449.3            0   -1152449.3 -0.011018658 -0.0081535416   -0.0106146 
    4894   -1152449.3            0   -1152449.3 1.5293062e-05 1.6402554e-05 1.0702683e-05 
Loop time of 2.16262 on 104 procs for 187 steps with 288751 atoms

99.9% CPU use with 104 MPI tasks x 1 OpenMP threads

Minimization stats:
  Stopping criterion = energy tolerance
  Energy initial, next-to-last, final = 
     -1152449.25533835  -1152449.25618606  -1152449.25618606
  Force two-norm initial, final = 0.12511854 0.00010210359
  Force max component initial, final = 0.044203048 1.8256139e-05
  Final line search alpha, max atom move = 1.0000000 1.8256139e-05
  Iterations, force evaluations = 187 374

MPI task timing breakdown:
Section |  min time  |  avg time  |  max time  |%varavg| %total
---------------------------------------------------------------
Pair    | 0.57238    | 1.5747     | 2.0437     |  33.7 | 72.82
Neigh   | 0          | 0          | 0          |   0.0 |  0.00
Comm    | 0.031338   | 0.35029    | 1.0551     |  50.0 | 16.20
Output  | 0          | 0          | 0          |   0.0 |  0.00
Modify  | 2.2081e-05 | 0.003072   | 0.0065568  |   2.6 |  0.14
Other   |            | 0.2345     |            |       | 10.85

Nlocal:        2776.45 ave        3959 max           0 min
Histogram: 8 4 4 0 4 12 8 2 28 34
Nghost:        3879.12 ave        5424 max         232 min
Histogram: 8 0 8 0 16 0 8 8 16 40
Neighs:        79213.3 ave      115422 max           0 min
Histogram: 8 4 4 0 10 6 8 8 24 32

Total # of neighbors = 8238187
Ave neighs/atom = 28.530419
Neighbor list builds = 0
Dangerous builds = 0
The dot product: -2.93761684516905e-08
Setting atom values ...
  1 settings made for x
  1 settings made for y
  1 settings made for z
Setting up cg style minimization ...
  Unit style    : metal
  Current step  : 4894
Per MPI rank memory allocation (min/avg/max) = 5.441 | 5.816 | 6.074 Mbytes
Step PotEng KinEng TotEng v_fx v_fy v_fz 
    4894   -1152449.2            0   -1152449.2 -0.014270654 -0.0096095914 -0.014591404 
    5000   -1152449.2            0   -1152449.2 -8.1990588e-05 -7.1185949e-05 -7.1174849e-05 
    5100   -1152449.2            0   -1152449.2 -9.8026696e-06 -9.2453333e-06 -7.9275802e-06 
Loop time of 2.37513 on 104 procs for 206 steps with 288751 atoms

99.9% CPU use with 104 MPI tasks x 1 OpenMP threads

Minimization stats:
  Stopping criterion = energy tolerance
  Energy initial, next-to-last, final = 
     -1152449.23797451  -1152449.23881068  -1152449.23881068
  Force two-norm initial, final = 0.12632579 5.6269507e-05
  Force max component initial, final = 0.047473435 1.0658848e-05
  Final line search alpha, max atom move = 1.0000000 1.0658848e-05
  Iterations, force evaluations = 206 412

MPI task timing breakdown:
Section |  min time  |  avg time  |  max time  |%varavg| %total
---------------------------------------------------------------
Pair    | 0.62699    | 1.7288     | 2.2448     |  35.5 | 72.79
Neigh   | 0          | 0          | 0          |   0.0 |  0.00
Comm    | 0.038246   | 0.38333    | 1.1663     |  52.9 | 16.14
Output  | 0.00014404 | 0.00015273 | 0.00027351 |   0.0 |  0.01
Modify  | 2.442e-05  | 0.0033928  | 0.0072451  |   2.8 |  0.14
Other   |            | 0.2595     |            |       | 10.93

Nlocal:        2776.45 ave        3960 max           0 min
Histogram: 8 4 4 0 4 12 8 2 28 34
Nghost:        3879.12 ave        5424 max         232 min
Histogram: 8 0 8 0 16 0 8 8 16 40
Neighs:        79213.3 ave      115437 max           0 min
Histogram: 8 4 4 0 10 6 8 8 24 32

Total # of neighbors = 8238185
Ave neighs/atom = 28.530412
Neighbor list builds = 0
Dangerous builds = 0
The dot product: 3.02619576883222e-08
Setting atom values ...
  1 settings made for x
  1 settings made for y
  1 settings made for z
Setting up cg style minimization ...
  Unit style    : metal
  Current step  : 5100
Per MPI rank memory allocation (min/avg/max) = 5.441 | 5.816 | 6.074 Mbytes
Step PotEng KinEng TotEng v_fx v_fy v_fz 
    5100   -1152449.2            0   -1152449.2  -0.01933366 -0.010414247 -0.022040112 
    5372   -1152449.3            0   -1152449.3 6.2340835e-06 -5.6022324e-06 1.4225605e-05 
Loop time of 3.1498 on 104 procs for 272 steps with 288751 atoms

99.9% CPU use with 104 MPI tasks x 1 OpenMP threads

Minimization stats:
  Stopping criterion = energy tolerance
  Energy initial, next-to-last, final = 
      -1152449.2194366  -1152449.25004003  -1152449.25004003
  Force two-norm initial, final = 0.13032798 7.7899737e-05
  Force max component initial, final = 0.050699007 1.4771984e-05
  Final line search alpha, max atom move = 1.0000000 1.4771984e-05
  Iterations, force evaluations = 272 545

MPI task timing breakdown:
Section |  min time  |  avg time  |  max time  |%varavg| %total
---------------------------------------------------------------
Pair    | 0.83655    | 2.2904     | 2.9767     |  40.6 | 72.72
Neigh   | 1.0456e-05 | 0.0029486  | 0.0042605  |   2.2 |  0.09
Comm    | 0.047187   | 0.50946    | 1.5479     |  60.4 | 16.17
Output  | 0          | 0          | 0          |   0.0 |  0.00
Modify  | 3.177e-05  | 0.0044756  | 0.0095217  |   3.2 |  0.14
Other   |            | 0.3425     |            |       | 10.87

Nlocal:        2776.45 ave        3960 max           0 min
Histogram: 8 4 4 0 4 12 8 2 28 34
Nghost:        3879.12 ave        5424 max         232 min
Histogram: 8 0 8 0 16 0 8 8 16 40
Neighs:        79213.3 ave      115438 max           0 min
Histogram: 8 4 4 0 10 6 8 8 24 32

Total # of neighbors = 8238179
Ave neighs/atom = 28.530391
Neighbor list builds = 1
Dangerous builds = 0
The dot product: -1.34667452637584e-06
Setting atom values ...
  1 settings made for x
  1 settings made for y
  1 settings made for z
Setting up cg style minimization ...
  Unit style    : metal
  Current step  : 5372
Per MPI rank memory allocation (min/avg/max) = 5.441 | 5.816 | 6.074 Mbytes
Step PotEng KinEng TotEng v_fx v_fy v_fz 
    5372   -1152449.2            0   -1152449.2 -0.027987072 -0.033909216 -0.023804845 
    5604   -1152449.2            0   -1152449.2 1.1616326e-05 3.7393231e-06 2.1129574e-05 
Loop time of 2.6628 on 104 procs for 232 steps with 288751 atoms

99.9% CPU use with 104 MPI tasks x 1 OpenMP threads

Minimization stats:
  Stopping criterion = energy tolerance
  Energy initial, next-to-last, final = 
     -1152449.24563692  -1152449.24930973  -1152449.24930973
  Force two-norm initial, final = 0.15069288 8.5889512e-05
  Force max component initial, final = 0.055818894 2.1129574e-05
  Final line search alpha, max atom move = 1.0000000 2.1129574e-05
  Iterations, force evaluations = 232 464

MPI task timing breakdown:
Section |  min time  |  avg time  |  max time  |%varavg| %total
---------------------------------------------------------------
Pair    | 0.70671    | 1.942      | 2.5125     |  37.5 | 72.93
Neigh   | 0          | 0          | 0          |   0.0 |  0.00
Comm    | 0.042201   | 0.42953    | 1.3002     |  55.8 | 16.13
Output  | 0          | 0          | 0          |   0.0 |  0.00
Modify  | 2.7554e-05 | 0.0038186  | 0.0081204  |   2.9 |  0.14
Other   |            | 0.2874     |            |       | 10.79

Nlocal:        2776.45 ave        3958 max           0 min
Histogram: 8 4 4 0 4 12 8 2 28 34
Nghost:        3879.03 ave        5424 max         232 min
Histogram: 8 0 8 0 16 0 8 8 16 40
Neighs:        79213.3 ave      115390 max           0 min
Histogram: 8 4 4 0 10 6 8 8 24 32

Total # of neighbors = 8238183
Ave neighs/atom = 28.530405
Neighbor list builds = 0
Dangerous builds = 0
The dot product: -9.87637010020526e-07
Setting atom values ...
  1 settings made for x
  1 settings made for y
  1 settings made for z
Setting up cg style minimization ...
  Unit style    : metal
  Current step  : 5604
Per MPI rank memory allocation (min/avg/max) = 5.441 | 5.816 | 6.074 Mbytes
Step PotEng KinEng TotEng v_fx v_fy v_fz 
    5604   -1152449.3            0   -1152449.3 -0.014954135 -0.038215993 0.0010590515 
    5792   -1152449.3            0   -1152449.3 3.7780836e-06 4.0732508e-07 9.0521666e-06 
Loop time of 2.18102 on 104 procs for 188 steps with 288751 atoms

99.9% CPU use with 104 MPI tasks x 1 OpenMP threads

Minimization stats:
  Stopping criterion = energy tolerance
  Energy initial, next-to-last, final = 
     -1152449.25028999  -1152449.25219454  -1152449.25219454
  Force two-norm initial, final = 0.15357393 9.3166721e-05
  Force max component initial, final = 0.05505116 1.7818901e-05
  Final line search alpha, max atom move = 1.0000000 1.7818901e-05
  Iterations, force evaluations = 188 376

MPI task timing breakdown:
Section |  min time  |  avg time  |  max time  |%varavg| %total
---------------------------------------------------------------
Pair    | 0.56972    | 1.5858     | 2.069      |  34.0 | 72.71
Neigh   | 0          | 0          | 0          |   0.0 |  0.00
Comm    | 0.031253   | 0.35508    | 1.0769     |  50.2 | 16.28
Output  | 0          | 0          | 0          |   0.0 |  0.00
Modify  | 2.2291e-05 | 0.0031025  | 0.0066208  |   2.6 |  0.14
Other   |            | 0.237      |            |       | 10.87

Nlocal:        2776.45 ave        3957 max           0 min
Histogram: 8 4 4 0 4 12 8 2 28 34
Nghost:        3879.11 ave        5424 max         232 min
Histogram: 8 0 8 0 16 0 8 8 16 40
Neighs:        79213.3 ave      115335 max           0 min
Histogram: 8 4 4 0 10 6 8 8 24 32

Total # of neighbors = 8238186
Ave neighs/atom = 28.530415
Neighbor list builds = 0
Dangerous builds = 0
The dot product: -8.79444175738709e-08
Setting atom values ...
  1 settings made for x
  1 settings made for y
  1 settings made for z
Setting up cg style minimization ...
  Unit style    : metal
  Current step  : 5792
Per MPI rank memory allocation (min/avg/max) = 5.441 | 5.816 | 6.074 Mbytes
Step PotEng KinEng TotEng v_fx v_fy v_fz 
    5792   -1152449.3            0   -1152449.3 -0.014272795  -0.04936636  0.012792261 
    5892   -1152449.3            0   -1152449.3 1.2282651e-05 -2.5965263e-07 3.2247828e-05 
Loop time of 1.14838 on 104 procs for 100 steps with 288751 atoms

99.9% CPU use with 104 MPI tasks x 1 OpenMP threads

Minimization stats:
  Stopping criterion = energy tolerance
  Energy initial, next-to-last, final = 
     -1152449.25427599  -1152449.25547594  -1152449.25547594
  Force two-norm initial, final = 0.15226509 0.00014076717
  Force max component initial, final = 0.055464769 3.2247828e-05
  Final line search alpha, max atom move = 1.0000000 3.2247828e-05
  Iterations, force evaluations = 100 200

MPI task timing breakdown:
Section |  min time  |  avg time  |  max time  |%varavg| %total
---------------------------------------------------------------
Pair    | 0.30519    | 0.83906    | 1.0893     |  24.7 | 73.06
Neigh   | 0          | 0          | 0          |   0.0 |  0.00
Comm    | 0.018038   | 0.18575    | 0.56854    |  36.9 | 16.18
Output  | 0          | 0          | 0          |   0.0 |  0.00
Modify  | 1.227e-05  | 0.0016498  | 0.0035249  |   1.9 |  0.14
Other   |            | 0.1219     |            |       | 10.62

Nlocal:        2776.45 ave        3957 max           0 min
Histogram: 8 4 4 0 4 12 8 2 28 34
Nghost:        3879.11 ave        5424 max         232 min
Histogram: 8 0 8 0 16 0 8 8 16 40
Neighs:        79213.3 ave      115333 max           0 min
Histogram: 8 4 4 0 10 6 8 8 24 32

Total # of neighbors = 8238182
Ave neighs/atom = 28.530402
Neighbor list builds = 0
Dangerous builds = 0
The dot product: -1.18136285697161e-07
Setting atom values ...
  1 settings made for x
  1 settings made for y
  1 settings made for z
Setting up cg style minimization ...
  Unit style    : metal
  Current step  : 5892
Per MPI rank memory allocation (min/avg/max) = 5.441 | 5.816 | 6.074 Mbytes
Step PotEng KinEng TotEng v_fx v_fy v_fz 
    5892   -1152449.3            0   -1152449.3 -0.013628433 -0.057485796  0.020618937 
    6000   -1152449.3            0   -1152449.3 -4.4110622e-05 -0.00018169561 6.2432572e-05 
    6136   -1152449.3            0   -1152449.3 -3.128348e-07 -7.1459684e-06  6.21631e-06 
Loop time of 2.81394 on 104 procs for 244 steps with 288751 atoms

99.9% CPU use with 104 MPI tasks x 1 OpenMP threads

Minimization stats:
  Stopping criterion = energy tolerance
  Energy initial, next-to-last, final = 
     -1152449.25693486  -1152449.29757254  -1152449.29757254
  Force two-norm initial, final = 0.15750461 9.7980169e-05
  Force max component initial, final = 0.057485796 1.1680759e-05
  Final line search alpha, max atom move = 1.0000000 1.1680759e-05
  Iterations, force evaluations = 244 487

MPI task timing breakdown:
Section |  min time  |  avg time  |  max time  |%varavg| %total
---------------------------------------------------------------
Pair    | 0.74548    | 2.0554     | 2.6575     |  38.4 | 73.04
Neigh   | 1.0408e-05 | 0.0029625  | 0.0043067  |   2.2 |  0.11
Comm    | 0.044067   | 0.45376    | 1.3821     |  58.0 | 16.13
Output  | 0.00011098 | 0.00011726 | 0.00023364 |   0.0 |  0.00
Modify  | 2.9035e-05 | 0.0039929  | 0.0085127  |   3.0 |  0.14
Other   |            | 0.2977     |            |       | 10.58

Nlocal:        2776.45 ave        3959 max           0 min
Histogram: 8 4 4 0 4 12 8 2 28 34
Nghost:        3879.14 ave        5424 max         232 min
Histogram: 8 0 8 0 16 0 8 8 16 40
Neighs:        79213.4 ave      115406 max           0 min
Histogram: 8 4 4 0 10 6 8 8 24 32

Total # of neighbors = 8238197
Ave neighs/atom = 28.530454
Neighbor list builds = 1
Dangerous builds = 0
The dot product: 6.98089939456143e-07
Setting atom values ...
  1 settings made for x
  1 settings made for y
  1 settings made for z
Setting up cg style minimization ...
  Unit style    : metal
  Current step  : 6136
Per MPI rank memory allocation (min/avg/max) = 5.441 | 5.816 | 6.074 Mbytes
Step PotEng KinEng TotEng v_fx v_fy v_fz 
    6136   -1152449.3            0   -1152449.3  0.028761222  0.058954414  0.058749378 
    6318   -1152449.3            0   -1152449.3 1.9203381e-05 6.4861051e-06 5.7851335e-05 
Loop time of 2.08353 on 104 procs for 182 steps with 288751 atoms

99.9% CPU use with 104 MPI tasks x 1 OpenMP threads

Minimization stats:
  Stopping criterion = energy tolerance
  Energy initial, next-to-last, final = 
      -1152449.3088864  -1152449.31116728  -1152449.31116728
  Force two-norm initial, final = 0.16257335 0.00021340828
  Force max component initial, final = 0.058954414 5.7851335e-05
  Final line search alpha, max atom move = 1.0000000 5.7851335e-05
  Iterations, force evaluations = 182 364

MPI task timing breakdown:
Section |  min time  |  avg time  |  max time  |%varavg| %total
---------------------------------------------------------------
Pair    | 0.55493    | 1.5252     | 1.9743     |  33.3 | 73.20
Neigh   | 0          | 0          | 0          |   0.0 |  0.00
Comm    | 0.033518   | 0.33764    | 1.0366     |  49.8 | 16.21
Output  | 0          | 0          | 0          |   0.0 |  0.00
Modify  | 2.1418e-05 | 0.0029968  | 0.0063728  |   2.6 |  0.14
Other   |            | 0.2177     |            |       | 10.45

Nlocal:        2776.45 ave        3955 max           0 min
Histogram: 8 4 4 0 4 12 8 0 30 34
Nghost:        3879.07 ave        5424 max         232 min
Histogram: 8 0 8 0 16 0 8 8 16 40
Neighs:        79213.4 ave      115261 max           0 min
Histogram: 8 4 4 0 10 6 8 8 24 32

Total # of neighbors = 8238197
Ave neighs/atom = 28.530454
Neighbor list builds = 0
Dangerous builds = 0
The dot product: 6.20912862091876e-07
Setting atom values ...
  1 settings made for x
  1 settings made for y
  1 settings made for z
Setting up cg style minimization ...
  Unit style    : metal
  Current step  : 6318
Per MPI rank memory allocation (min/avg/max) = 5.441 | 5.816 | 6.074 Mbytes
Step PotEng KinEng TotEng v_fx v_fy v_fz 
    6318   -1152449.3            0   -1152449.3 -0.0060275693 -0.071112834  0.027128773 
    6477   -1152449.3            0   -1152449.3 -1.1984439e-05 -6.7737884e-06 -3.2682914e-05 
Loop time of 1.83087 on 104 procs for 159 steps with 288751 atoms

99.9% CPU use with 104 MPI tasks x 1 OpenMP threads

Minimization stats:
  Stopping criterion = energy tolerance
  Energy initial, next-to-last, final = 
     -1152449.32051221  -1152449.32175676  -1152449.32175676
  Force two-norm initial, final = 0.16163928 0.00021552133
  Force max component initial, final = 0.071112834 3.2682914e-05
  Final line search alpha, max atom move = 1.0000000 3.2682914e-05
  Iterations, force evaluations = 159 318

MPI task timing breakdown:
Section |  min time  |  avg time  |  max time  |%varavg| %total
---------------------------------------------------------------
Pair    | 0.48428    | 1.3374     | 1.7369     |  31.1 | 73.05
Neigh   | 0          | 0          | 0          |   0.0 |  0.00
Comm    | 0.026844   | 0.29785    | 0.90922    |  46.1 | 16.27
Output  | 0          | 0          | 0          |   0.0 |  0.00
Modify  | 1.8774e-05 | 0.0026145  | 0.0055795  |   2.4 |  0.14
Other   |            | 0.193      |            |       | 10.54

Nlocal:        2776.45 ave        3959 max           0 min
Histogram: 8 4 4 0 4 12 8 4 26 34
Nghost:        3879.09 ave        5424 max         232 min
Histogram: 8 0 8 0 16 0 8 8 16 40
Neighs:        79213.4 ave      115405 max           0 min
Histogram: 8 4 4 0 10 6 8 8 24 32

Total # of neighbors = 8238195
Ave neighs/atom = 28.530447
Neighbor list builds = 0
Dangerous builds = 0
The dot product: 2.46108752275811e-08
Setting atom values ...
  1 settings made for x
  1 settings made for y
  1 settings made for z
Setting up cg style minimization ...
  Unit style    : metal
  Current step  : 6477
Per MPI rank memory allocation (min/avg/max) = 5.441 | 5.816 | 6.074 Mbytes
Step PotEng KinEng TotEng v_fx v_fy v_fz 
    6477   -1152449.3            0   -1152449.3 -0.00051613948 -0.053813319  0.031351202 
    6662   -1152449.3            0   -1152449.3 -2.2496528e-06 4.8034471e-06 -9.8731375e-06 
Loop time of 2.1434 on 104 procs for 185 steps with 288751 atoms

99.9% CPU use with 104 MPI tasks x 1 OpenMP threads

Minimization stats:
  Stopping criterion = energy tolerance
  Energy initial, next-to-last, final = 
     -1152449.32953178  -1152449.33071634  -1152449.33071634
  Force two-norm initial, final = 0.15650899 9.6559583e-05
  Force max component initial, final = 0.054033223 1.1821334e-05
  Final line search alpha, max atom move = 1.0000000 1.1821334e-05
  Iterations, force evaluations = 185 370

MPI task timing breakdown:
Section |  min time  |  avg time  |  max time  |%varavg| %total
---------------------------------------------------------------
Pair    | 0.56393    | 1.552      | 2.0159     |  33.6 | 72.41
Neigh   | 0          | 0          | 0          |   0.0 |  0.00
Comm    | 0.033182   | 0.34676    | 1.0453     |  49.9 | 16.18
Output  | 0          | 0          | 0          |   0.0 |  0.00
Modify  | 2.206e-05  | 0.00304    | 0.0064738  |   2.6 |  0.14
Other   |            | 0.2416     |            |       | 11.27

Nlocal:        2776.45 ave        3959 max           0 min
Histogram: 8 4 4 0 4 12 8 4 26 34
Nghost:        3879.12 ave        5424 max         232 min
Histogram: 8 0 8 0 16 0 8 8 16 40
Neighs:        79213.4 ave      115405 max           0 min
Histogram: 8 4 4 0 10 6 8 8 24 32

Total # of neighbors = 8238197
Ave neighs/atom = 28.530454
Neighbor list builds = 0
Dangerous builds = 0
The dot product: -3.02588084428632e-08
Setting atom values ...
  1 settings made for x
  1 settings made for y
  1 settings made for z
Setting up cg style minimization ...
  Unit style    : metal
  Current step  : 6662
Per MPI rank memory allocation (min/avg/max) = 5.441 | 5.816 | 6.074 Mbytes
Step PotEng KinEng TotEng v_fx v_fy v_fz 
    6662   -1152449.3            0   -1152449.3 -0.0012709235 -0.058239228  0.030888766 
    6932   -1152449.3            0   -1152449.3 2.6694161e-07 2.6436374e-08 8.0088485e-07 
Loop time of 3.14752 on 104 procs for 270 steps with 288751 atoms

99.9% CPU use with 104 MPI tasks x 1 OpenMP threads

Minimization stats:
  Stopping criterion = energy tolerance
  Energy initial, next-to-last, final = 
     -1152449.33685822  -1152449.33807438  -1152449.33807438
  Force two-norm initial, final = 0.15886894 2.9086561e-06
  Force max component initial, final = 0.058239228 8.0088485e-07
  Final line search alpha, max atom move = 1.0000000 8.0088485e-07
  Iterations, force evaluations = 270 540

MPI task timing breakdown:
Section |  min time  |  avg time  |  max time  |%varavg| %total
---------------------------------------------------------------
Pair    | 0.825      | 2.2797     | 2.9669     |  40.7 | 72.43
Neigh   | 0          | 0          | 0          |   0.0 |  0.00
Comm    | 0.054361   | 0.51274    | 1.5526     |  59.6 | 16.29
Output  | 0          | 0          | 0          |   0.0 |  0.00
Modify  | 3.1959e-05 | 0.0044409  | 0.010024   |   3.2 |  0.14
Other   |            | 0.3506     |            |       | 11.14

Nlocal:        2776.45 ave        3959 max           0 min
Histogram: 8 4 4 0 4 12 8 4 26 34
Nghost:        3879.12 ave        5426 max         232 min
Histogram: 8 0 8 0 16 0 8 8 16 40
Neighs:        79213.4 ave      115405 max           0 min
Histogram: 8 4 4 0 10 6 8 8 24 32

Total # of neighbors = 8238197
Ave neighs/atom = 28.530454
Neighbor list builds = 0
Dangerous builds = 0
The dot product: 1.32052221565403e-09
Setting atom values ...
  1 settings made for x
  1 settings made for y
  1 settings made for z
Setting up cg style minimization ...
  Unit style    : metal
  Current step  : 6932
Per MPI rank memory allocation (min/avg/max) = 5.441 | 5.816 | 6.074 Mbytes
Step PotEng KinEng TotEng v_fx v_fy v_fz 
    6932   -1152449.3            0   -1152449.3 -0.0013014354 -0.058787237  0.030114863 
    7000   -1152449.3            0   -1152449.3 0.00010430331 1.4135517e-05 0.00030870674 
    7176   -1152449.3            0   -1152449.3 4.9689558e-07 -1.0527652e-06 2.1197975e-06 
[...]
Per MPI rank memory allocation (min/avg/max) = 5.441 | 5.816 | 6.074 Mbytes
Step PotEng KinEng TotEng v_fx v_fy v_fz 
   28383   -1152449.3            0   -1152449.3 -0.0090166355  0.041690737 -0.016012304 
   28584   -1152449.3            0   -1152449.3 9.2905574e-06  4.86128e-06 1.2858579e-05 
Loop time of 2.32646 on 104 procs for 201 steps with 288751 atoms

99.9% CPU use with 104 MPI tasks x 1 OpenMP threads

Minimization stats:
  Stopping criterion = energy tolerance
  Energy initial, next-to-last, final = 
     -1152449.33940269  -1152449.34048408  -1152449.34048408
  Force two-norm initial, final = 0.13991987 5.7937803e-05
  Force max component initial, final = 0.067642631 1.2858579e-05
  Final line search alpha, max atom move = 1.0000000 1.2858579e-05
  Iterations, force evaluations = 201 402

MPI task timing breakdown:
Section |  min time  |  avg time  |  max time  |%varavg| %total
---------------------------------------------------------------
Pair    | 0.61367    | 1.6856     | 2.206      |  34.9 | 72.46
Neigh   | 0          | 0          | 0          |   0.0 |  0.00
Comm    | 0.034737   | 0.37996    | 1.1438     |  51.4 | 16.33
Output  | 0          | 0          | 0          |   0.0 |  0.00
Modify  | 2.5333e-05 | 0.0033079  | 0.0070623  |   2.7 |  0.14
Other   |            | 0.2576     |            |       | 11.07

Nlocal:        2776.45 ave        3958 max           0 min
Histogram: 8 4 4 0 4 12 8 2 28 34
Nghost:        3879.12 ave        5423 max         232 min
Histogram: 8 0 8 0 16 0 8 8 16 40
Neighs:        79213.4 ave      115310 max           0 min
Histogram: 8 4 4 0 10 6 8 8 24 32

Total # of neighbors = 8238192
Ave neighs/atom = 28.530436
Neighbor list builds = 0
Dangerous builds = 0
The dot product: 3.52785940281795e-09
Setting atom values ...
  1 settings made for x
  1 settings made for y
  1 settings made for z
Setting up cg style minimization ...
  Unit style    : metal
  Current step  : 28584
Per MPI rank memory allocation (min/avg/max) = 5.441 | 5.816 | 6.074 Mbytes
Step PotEng KinEng TotEng v_fx v_fy v_fz 
   28584   -1152449.3            0   -1152449.3 -0.0090400452  0.041765454 -0.016121101 
   28757   -1152449.3            0   -1152449.3 9.4930021e-06 6.3675012e-06 1.3028035e-05 
Loop time of 2.02451 on 104 procs for 173 steps with 288751 atoms

99.9% CPU use with 104 MPI tasks x 1 OpenMP threads

Minimization stats:
  Stopping criterion = energy tolerance
  Energy initial, next-to-last, final = 
     -1152449.34119752  -1152449.34225968  -1152449.34225968
  Force two-norm initial, final = 0.13966561 0.00016050422
  Force max component initial, final = 0.066211061 1.3028035e-05
  Final line search alpha, max atom move = 1.0000000 1.3028035e-05
  Iterations, force evaluations = 173 346

MPI task timing breakdown:
Section |  min time  |  avg time  |  max time  |%varavg| %total
---------------------------------------------------------------
Pair    | 0.52843    | 1.459      | 1.9207     |  32.7 | 72.07
Neigh   | 0          | 0          | 0          |   0.0 |  0.00
Comm    | 0.030915   | 0.33664    | 1.0117     |  47.1 | 16.63
Output  | 0          | 0          | 0          |   0.0 |  0.00
Modify  | 2.1856e-05 | 0.0028522  | 0.0060947  |   2.5 |  0.14
Other   |            | 0.226      |            |       | 11.17

Nlocal:        2776.45 ave        3958 max           0 min
Histogram: 8 4 4 0 4 12 8 3 27 34
Nghost:        3879.14 ave        5424 max         232 min
Histogram: 8 0 8 0 16 0 8 8 16 40
Neighs:        79213.4 ave      115317 max           0 min
Histogram: 8 4 4 0 10 6 8 8 24 32

Total # of neighbors = 8238191
Ave neighs/atom = 28.530433
Neighbor list builds = 0
Dangerous builds = 0
The dot product: 7.85877130571707e-09
The iteration number is maximum!
OMP_NUM_THREADS environment is not set. Defaulting to 1 thread. (../comm.cpp:94)
  using 1 OpenMP thread(s) per MPI task
Reading data file ...
  orthogonal box = (-122.39241 -121.13707 -37.090501) to (122.39241 121.13707 37.090501)
  13 by 4 by 2 MPI processor grid
  reading atoms ...
  288751 atoms
  read_data CPU = 0.341 seconds
199981 atoms in group inner
88770 atoms in group outer
1 atoms in group carbon
Neighbor list info ...
  update every 1 steps, delay 0 steps, check yes
  max neighbors/atom: 2000, page size: 100000
  master list distance cutoff = 5.6
  ghost atom cutoff = 5.6
  binsize = 2.8, bins = 88 87 27
  1 neighbor lists, perpetual/occasional/extra = 1 0 0
  (1) pair eam/alloy, perpetual
      attributes: half, newton on
      pair build: half/bin/atomonly/newton
      stencil: half/bin/3d/newton
      bin: standard
Setting up cg style minimization ...
  Unit style    : metal
  Current step  : 0
Per MPI rank memory allocation (min/avg/max) = 5.441 | 5.816 | 6.074 Mbytes
Step v_fx v_fy v_fz PotEng KinEng TotEng 
       0  -0.21962229   0.62741258   0.54359441   -1152447.8            0   -1152447.8 
     161 -9.9944491e-06 -2.122391e-05 -1.128333e-05   -1152449.5            0   -1152449.5 
Loop time of 1.86538 on 104 procs for 161 steps with 288751 atoms

99.9% CPU use with 104 MPI tasks x 1 OpenMP threads

Minimization stats:
  Stopping criterion = energy tolerance
  Energy initial, next-to-last, final = 
     -1152447.84228476  -1152449.45035271  -1152449.45035271
  Force two-norm initial, final = 9.8266702 0.00011279686
  Force max component initial, final = 4.6362555 2.1223910e-05
  Final line search alpha, max atom move = 1.0000000 2.1223910e-05
  Iterations, force evaluations = 161 321

MPI task timing breakdown:
Section |  min time  |  avg time  |  max time  |%varavg| %total
---------------------------------------------------------------
Pair    | 0.49429    | 1.3461     | 1.751      |  31.0 | 72.16
Neigh   | 2.0297e-05 | 0.0059106  | 0.0085945  |   3.2 |  0.32
Comm    | 0.028226   | 0.30469    | 0.91866    |  46.0 | 16.33
Output  | 0          | 0          | 0          |   0.0 |  0.00
Modify  | 1.8354e-05 | 0.0017171  | 0.004381   |   2.6 |  0.09
Other   |            | 0.207      |            |       | 11.10

Nlocal:        2776.45 ave        3958 max           0 min
Histogram: 8 4 4 0 4 12 8 2 28 34
Nghost:        3879.03 ave        5424 max         232 min
Histogram: 8 0 8 0 16 0 8 8 16 40
Neighs:        79213.7 ave      115382 max           0 min
Histogram: 8 4 4 0 10 6 8 8 24 32

Total # of neighbors = 8238223
Ave neighs/atom = 28.530544
Neighbor list builds = 2
Dangerous builds = 0
Setting atom values ...
  1 settings made for x
  1 settings made for y
  1 settings made for z
Setting up cg style minimization ...
  Unit style    : metal
  Current step  : 161
Per MPI rank memory allocation (min/avg/max) = 5.441 | 5.816 | 6.074 Mbytes
Step PotEng KinEng TotEng v_fx v_fy v_fz 
     161   -1152449.5            0   -1152449.5 -0.0082143607 -0.00059492205 -0.0011948384 
     313   -1152449.5            0   -1152449.5 1.0374732e-06 2.3944453e-06 -3.6036509e-07 
Loop time of 1.75784 on 104 procs for 152 steps with 288751 atoms

99.9% CPU use with 104 MPI tasks x 1 OpenMP threads

Minimization stats:
  Stopping criterion = energy tolerance
  Energy initial, next-to-last, final = 
     -1152449.45007368  -1152449.45025868  -1152449.45025868
  Force two-norm initial, final = 0.062128311 6.1392056e-05
  Force max component initial, final = 0.022459397 2.3944453e-06
  Final line search alpha, max atom move = 1.0000000 2.3944453e-06
  Iterations, force evaluations = 152 304

MPI task timing breakdown:
Section |  min time  |  avg time  |  max time  |%varavg| %total
---------------------------------------------------------------
Pair    | 0.46267    | 1.2699     | 1.6642     |  30.3 | 72.24
Neigh   | 0          | 0          | 0          |   0.0 |  0.00
Comm    | 0.026013   | 0.2855     | 0.8588     |  44.6 | 16.24
Output  | 0          | 0          | 0          |   0.0 |  0.00
Modify  | 1.8523e-05 | 0.0025005  | 0.0053181  |   2.4 |  0.14
Other   |            | 0.2        |            |       | 11.38

Nlocal:        2776.45 ave        3958 max           0 min
Histogram: 8 4 4 0 4 12 8 2 28 34
Nghost:        3879.01 ave        5425 max         232 min
Histogram: 8 0 8 0 16 0 8 8 16 40
Neighs:        79213.4 ave      115399 max           0 min
Histogram: 8 4 4 0 10 6 8 8 24 32

Total # of neighbors = 8238197
Ave neighs/atom = 28.530454
Neighbor list builds = 0
Dangerous builds = 0
Setting atom values ...
  1 settings made for x
  1 settings made for y
  1 settings made for z
Setting up cg style minimization ...
  Unit style    : metal
  Current step  : 313
Per MPI rank memory allocation (min/avg/max) = 5.441 | 5.816 | 6.074 Mbytes
Step PotEng KinEng TotEng v_fx v_fy v_fz 
     313   -1152449.4            0   -1152449.4 -0.030791886 -0.0016166855 -0.0050945728 
     483   -1152449.4            0   -1152449.4 5.7808395e-06 1.2642062e-05 -1.7660976e-06 
Loop time of 1.9518 on 104 procs for 170 steps with 288751 atoms

99.9% CPU use with 104 MPI tasks x 1 OpenMP threads

Minimization stats:
  Stopping criterion = energy tolerance
  Energy initial, next-to-last, final = 
     -1152449.44644728  -1152449.44854483  -1152449.44854483
  Force two-norm initial, final = 0.20930981 0.0001290763
  Force max component initial, final = 0.073396119 1.2642062e-05
  Final line search alpha, max atom move = 1.0000000 1.2642062e-05
  Iterations, force evaluations = 170 340

MPI task timing breakdown:
Section |  min time  |  avg time  |  max time  |%varavg| %total
---------------------------------------------------------------
Pair    | 0.51652    | 1.4235     | 1.849      |  32.1 | 72.93
Neigh   | 0          | 0          | 0          |   0.0 |  0.00
Comm    | 0.028666   | 0.31984    | 0.97403    |  47.7 | 16.39
Output  | 0          | 0          | 0          |   0.0 |  0.00
Modify  | 2.0496e-05 | 0.0027988  | 0.0059703  |   2.5 |  0.14
Other   |            | 0.2057     |            |       | 10.54

Nlocal:        2776.45 ave        3958 max           0 min
Histogram: 8 4 4 0 4 12 8 2 28 34
Nghost:        3879.03 ave        5424 max         232 min
Histogram: 8 0 8 0 16 0 8 8 16 40
Neighs:        79213.4 ave      115399 max           0 min
Histogram: 8 4 4 0 10 6 8 8 24 32

Total # of neighbors = 8238198
Ave neighs/atom = 28.530457
Neighbor list builds = 0
Dangerous builds = 0
The dot product: -4.03513494447476e-09
Setting atom values ...
  1 settings made for x
  1 settings made for y
  1 settings made for z
Setting up cg style minimization ...
  Unit style    : metal
  Current step  : 483
Per MPI rank memory allocation (min/avg/max) = 5.441 | 5.816 | 6.074 Mbytes
Step PotEng KinEng TotEng v_fx v_fy v_fz 
     483   -1152449.4            0   -1152449.4 -0.038222991 -0.0008787528 -0.0075527665 
     684   -1152449.4            0   -1152449.4 1.0545242e-06 4.000124e-07 1.2588483e-07 
Loop time of 2.31906 on 104 procs for 201 steps with 288751 atoms

99.9% CPU use with 104 MPI tasks x 1 OpenMP threads

Minimization stats:
  Stopping criterion = energy tolerance
  Energy initial, next-to-last, final = 
     -1152449.44261685   -1152449.4446883   -1152449.4446883
  Force two-norm initial, final = 0.2090877 6.8948882e-05
  Force max component initial, final = 0.071298289 1.0860182e-05
  Final line search alpha, max atom move = 1.0000000 1.0860182e-05
  Iterations, force evaluations = 201 402

MPI task timing breakdown:
Section |  min time  |  avg time  |  max time  |%varavg| %total
---------------------------------------------------------------
Pair    | 0.61052    | 1.6769     | 2.1976     |  34.8 | 72.31
Neigh   | 0          | 0          | 0          |   0.0 |  0.00
Comm    | 0.035087   | 0.37567    | 1.1273     |  51.5 | 16.20
Output  | 0          | 0          | 0          |   0.0 |  0.00
Modify  | 2.4358e-05 | 0.0033038  | 0.0070092  |   2.7 |  0.14
Other   |            | 0.2632     |            |       | 11.35

Nlocal:        2776.45 ave        3958 max           0 min
Histogram: 8 4 4 0 4 12 8 2 28 34
Nghost:        3879.05 ave        5424 max         232 min
Histogram: 8 0 8 0 16 0 8 8 16 40
Neighs:        79213.5 ave      115401 max           0 min
Histogram: 8 4 4 0 10 6 8 8 24 32

Total # of neighbors = 8238199
Ave neighs/atom = 28.530461
Neighbor list builds = 0
Dangerous builds = 0
The dot product: -2.23059495037564e-09
Setting atom values ...
  1 settings made for x
  1 settings made for y
  1 settings made for z
Setting up cg style minimization ...
  Unit style    : metal
  Current step  : 684
Per MPI rank memory allocation (min/avg/max) = 5.441 | 5.816 | 6.074 Mbytes
Step PotEng KinEng TotEng v_fx v_fy v_fz 
     684   -1152449.4            0   -1152449.4 -0.052283938 0.0002319216 -0.013125045 
     855   -1152449.4            0   -1152449.4 -1.1563777e-05 -2.4575846e-05 2.4356148e-06 
Loop time of 1.98653 on 104 procs for 171 steps with 288751 atoms

99.9% CPU use with 104 MPI tasks x 1 OpenMP threads

Minimization stats:
  Stopping criterion = energy tolerance
  Energy initial, next-to-last, final = 
     -1152449.43670794  -1152449.43875318  -1152449.43875318
  Force two-norm initial, final = 0.20948568 0.00016859384
  Force max component initial, final = 0.070570556 2.4575846e-05
  Final line search alpha, max atom move = 1.0000000 2.4575846e-05
  Iterations, force evaluations = 171 342

MPI task timing breakdown:
Section |  min time  |  avg time  |  max time  |%varavg| %total
---------------------------------------------------------------
Pair    | 0.52155    | 1.4313     | 1.8784     |  32.1 | 72.05
Neigh   | 0          | 0          | 0          |   0.0 |  0.00
Comm    | 0.029466   | 0.32416    | 0.97724    |  47.5 | 16.32
Output  | 0          | 0          | 0          |   0.0 |  0.00
Modify  | 2.0858e-05 | 0.002812   | 0.0059793  |   2.5 |  0.14
Other   |            | 0.2282     |            |       | 11.49

Nlocal:        2776.45 ave        3958 max           0 min
Histogram: 8 4 4 0 4 12 8 2 28 34
Nghost:        3879.03 ave        5424 max         232 min
Histogram: 8 0 8 0 16 0 8 8 16 40
Neighs:        79213.5 ave      115407 max           0 min
Histogram: 8 4 4 0 10 6 8 8 24 32

Total # of neighbors = 8238202
Ave neighs/atom = 28.530471
Neighbor list builds = 0
Dangerous builds = 0
The dot product: 6.30162653998759e-08
Setting atom values ...
  1 settings made for x
  1 settings made for y
  1 settings made for z
Setting up cg style minimization ...
  Unit style    : metal
  Current step  : 855
Per MPI rank memory allocation (min/avg/max) = 5.441 | 5.816 | 6.074 Mbytes
Step PotEng KinEng TotEng v_fx v_fy v_fz 
     855   -1152449.4            0   -1152449.4 -0.075612428 0.0021590381 -0.025702059 
    1000   -1152449.4            0   -1152449.4 2.2151385e-05 5.1670776e-06 6.2858139e-06 
    1043   -1152449.4            0   -1152449.4 6.7102686e-06 1.7836152e-05 -1.5855084e-06 
Loop time of 2.19002 on 104 procs for 188 steps with 288751 atoms

99.9% CPU use with 104 MPI tasks x 1 OpenMP threads

Minimization stats:
  Stopping criterion = energy tolerance
  Energy initial, next-to-last, final = 
     -1152449.42886471   -1152449.4309486   -1152449.4309486
  Force two-norm initial, final = 0.21263786 0.00012844745
  Force max component initial, final = 0.075612428 1.7836152e-05
  Final line search alpha, max atom move = 1.0000000 1.7836152e-05
  Iterations, force evaluations = 188 376

MPI task timing breakdown:
Section |  min time  |  avg time  |  max time  |%varavg| %total
---------------------------------------------------------------
Pair    | 0.56955    | 1.5696     | 2.0696     |  33.7 | 71.67
Neigh   | 0          | 0          | 0          |   0.0 |  0.00
Comm    | 0.032031   | 0.35612    | 1.0658     |  49.2 | 16.26
Output  | 9.7573e-05 | 0.00010026 | 0.00026259 |   0.0 |  0.00
Modify  | 2.3086e-05 | 0.0030926  | 0.0065722  |   2.6 |  0.14
Other   |            | 0.2611     |            |       | 11.92

Nlocal:        2776.45 ave        3958 max           0 min
Histogram: 8 4 4 0 4 12 8 2 28 34
Nghost:        3879.09 ave        5424 max         232 min
Histogram: 8 0 8 0 16 0 8 8 16 40
Neighs:        79213.5 ave      115412 max           0 min
Histogram: 8 4 4 0 10 6 8 8 24 32

Total # of neighbors = 8238207
Ave neighs/atom = 28.530488
Neighbor list builds = 0
Dangerous builds = 0
The dot product: -7.17225337556134e-08
Setting atom values ...
  1 settings made for x
  1 settings made for y
  1 settings made for z
Setting up cg style minimization ...
  Unit style    : metal
  Current step  : 1043
Per MPI rank memory allocation (min/avg/max) = 5.441 | 5.816 | 6.074 Mbytes
Step PotEng KinEng TotEng v_fx v_fy v_fz 
    1043   -1152449.4            0   -1152449.4  -0.10650752 0.0056281225 -0.051983074 
    1317   -1152449.4            0   -1152449.4 1.0959297e-08 1.794567e-07 -3.3525894e-08 
Loop time of 3.18726 on 104 procs for 274 steps with 288751 atoms

99.9% CPU use with 104 MPI tasks x 1 OpenMP threads

Minimization stats:
  Stopping criterion = energy tolerance
  Energy initial, next-to-last, final = 
     -1152449.41947835  -1152449.42183294  -1152449.42183294
  Force two-norm initial, final = 0.22227396 2.2112731e-06
  Force max component initial, final = 0.10650752 4.6310678e-07
  Final line search alpha, max atom move = 1.0000000 4.6310678e-07
  Iterations, force evaluations = 274 548

MPI task timing breakdown:
Section |  min time  |  avg time  |  max time  |%varavg| %total
---------------------------------------------------------------
Pair    | 0.83221    | 2.2936     | 3.0216     |  40.9 | 71.96
Neigh   | 0          | 0          | 0          |   0.0 |  0.00
Comm    | 0.046104   | 0.521      | 1.5611     |  59.8 | 16.35
Output  | 0          | 0          | 0          |   0.0 |  0.00
Modify  | 3.2935e-05 | 0.0045065  | 0.0095624  |   3.2 |  0.14
Other   |            | 0.3682     |            |       | 11.55

Nlocal:        2776.45 ave        3958 max           0 min
Histogram: 8 4 4 0 4 12 8 2 28 34
Nghost:        3879.10 ave        5424 max         232 min
Histogram: 8 0 8 0 16 0 8 8 16 40
Neighs:        79213.5 ave      115404 max           0 min
Histogram: 8 4 4 0 10 6 8 8 24 32

Total # of neighbors = 8238209
Ave neighs/atom = 28.530495
Neighbor list builds = 0
Dangerous builds = 0
The dot product: 2.6440218754586e-11
Setting up cg style minimization ...
  Unit style    : metal
  Current step  : 1317
Per MPI rank memory allocation (min/avg/max) = 5.441 | 5.816 | 6.074 Mbytes
Step PotEng KinEng TotEng v_fx v_fy v_fz 
    1317   -1152449.4            0   -1152449.4   0.21855227 -0.099004641   -0.4585083 
    1707   -1152449.5            0   -1152449.5 -5.9835366e-08 -1.022651e-07 -1.3925468e-07 
Loop time of 4.5319 on 104 procs for 390 steps with 288751 atoms

99.9% CPU use with 104 MPI tasks x 1 OpenMP threads

Minimization stats:
  Stopping criterion = energy tolerance
  Energy initial, next-to-last, final = 
     -1152449.42183294  -1152449.45035272  -1152449.45035272
  Force two-norm initial, final = 0.51749094 1.0600679e-06
  Force max component initial, final = 0.4585083 2.1377991e-07
  Final line search alpha, max atom move = 1.0000000 2.1377991e-07
  Iterations, force evaluations = 390 780

MPI task timing breakdown:
Section |  min time  |  avg time  |  max time  |%varavg| %total
---------------------------------------------------------------
Pair    | 1.1897     | 3.2539     | 4.2653     |  48.3 | 71.80
Neigh   | 1.0124e-05 | 0.0029596  | 0.0043067  |   2.2 |  0.07
Comm    | 0.067032   | 0.73474    | 2.2091     |  71.0 | 16.21
Output  | 0          | 0          | 0          |   0.0 |  0.00
Modify  | 4.3985e-05 | 0.0041731  | 0.011223   |   4.1 |  0.09
Other   |            | 0.5361     |            |       | 11.83

Nlocal:        2776.45 ave        3958 max           0 min
Histogram: 8 4 4 0 4 12 8 2 28 34
Nghost:        3879.10 ave        5424 max         232 min
Histogram: 8 0 8 0 16 0 8 8 16 40
Neighs:        79213.6 ave      115402 max           0 min
Histogram: 8 4 4 0 10 6 8 8 24 32

Total # of neighbors = 8238210
Ave neighs/atom = 28.530499
Neighbor list builds = 1
Dangerous builds = 0
