LAMMPS (29 Oct 2020)
OMP_NUM_THREADS environment is not set. Defaulting to 1 thread. (../comm.cpp:94)
  using 1 OpenMP thread(s) per MPI task
OMP_NUM_THREADS environment is not set. Defaulting to 1 thread. (../comm.cpp:94)
  using 1 OpenMP thread(s) per MPI task
Reading data file ...
  orthogonal box = (-122.39241 -121.13707 -37.090501) to (122.39241 121.13707 37.090501)
  13 by 4 by 2 MPI processor grid
  reading atoms ...
  288751 atoms
  read_data CPU = 0.370 seconds
199981 atoms in group inner
88770 atoms in group outer
1 atoms in group carbon
Neighbor list info ...
  update every 1 steps, delay 0 steps, check yes
  max neighbors/atom: 2000, page size: 100000
  master list distance cutoff = 5.6
  ghost atom cutoff = 5.6
  binsize = 2.8, bins = 88 87 27
  1 neighbor lists, perpetual/occasional/extra = 1 0 0
  (1) pair eam/alloy, perpetual
      attributes: half, newton on
      pair build: half/bin/atomonly/newton
      stencil: half/bin/3d/newton
      bin: standard
Setting up cg style minimization ...
  Unit style    : metal
  Current step  : 0
Per MPI rank memory allocation (min/avg/max) = 5.441 | 5.816 | 6.074 Mbytes
Step v_fx v_fy v_fz PotEng KinEng TotEng 
       0   0.62317811 -0.099785831   0.54918879   -1152447.8            0   -1152447.8 
     163 -1.0140711e-05 1.8481939e-05 1.5450503e-05   -1152449.5            0   -1152449.5 
Loop time of 1.94091 on 104 procs for 163 steps with 288751 atoms

99.8% CPU use with 104 MPI tasks x 1 OpenMP threads

Minimization stats:
  Stopping criterion = energy tolerance
  Energy initial, next-to-last, final = 
     -1152447.84467402  -1152449.45035261  -1152449.45035261
  Force two-norm initial, final = 9.8134777 0.000101071
  Force max component initial, final = 4.5277995 2.0717083e-05
  Final line search alpha, max atom move = 1.0000000 2.0717083e-05
  Iterations, force evaluations = 163 325

MPI task timing breakdown:
Section |  min time  |  avg time  |  max time  |%varavg| %total
---------------------------------------------------------------
Pair    | 0.50938    | 1.373      | 1.7899     |  31.3 | 70.74
Neigh   | 2.312e-05  | 0.0058487  | 0.0085629  |   3.2 |  0.30
Comm    | 0.030804   | 0.31624    | 0.92925    |  45.2 | 16.29
Output  | 0          | 0          | 0          |   0.0 |  0.00
Modify  | 1.8223e-05 | 0.0017549  | 0.0045026  |   2.6 |  0.09
Other   |            | 0.2441     |            |       | 12.58

Nlocal:        2776.45 ave        3960 max           0 min
Histogram: 8 4 4 0 4 12 8 2 28 34
Nghost:        3879.03 ave        5424 max         232 min
Histogram: 8 0 8 0 16 0 8 8 16 40
Neighs:        79213.4 ave      115442 max           0 min
Histogram: 8 4 4 0 10 6 8 8 24 32

Total # of neighbors = 8238197
Ave neighs/atom = 28.530454
Neighbor list builds = 2
Dangerous builds = 1
Setting atom values ...
  1 settings made for x
  1 settings made for y
  1 settings made for z
Setting up cg style minimization ...
  Unit style    : metal
  Current step  : 163
Per MPI rank memory allocation (min/avg/max) = 5.441 | 5.816 | 6.074 Mbytes
Step PotEng KinEng TotEng v_fx v_fy v_fz 
     163   -1152449.4            0   -1152449.4  0.044155089  0.015909614  0.050456058 
     358   -1152449.4            0   -1152449.4 2.2971513e-05 -3.3481113e-05 2.0345972e-05 
Loop time of 2.33745 on 104 procs for 195 steps with 288751 atoms

99.9% CPU use with 104 MPI tasks x 1 OpenMP threads

Minimization stats:
  Stopping criterion = energy tolerance
  Energy initial, next-to-last, final = 
     -1152449.44614339   -1152449.4488347   -1152449.4488347
  Force two-norm initial, final = 0.24199812 0.00016571557
  Force max component initial, final = 0.096707599 3.3481113e-05
  Final line search alpha, max atom move = 1.0000000 3.3481113e-05
  Iterations, force evaluations = 195 390

MPI task timing breakdown:
Section |  min time  |  avg time  |  max time  |%varavg| %total
---------------------------------------------------------------
Pair    | 0.6005     | 1.6526     | 2.1709     |  34.5 | 70.70
Neigh   | 0          | 0          | 0          |   0.0 |  0.00
Comm    | 0.036182   | 0.38637    | 1.1263     |  49.1 | 16.53
Output  | 0          | 0          | 0          |   0.0 |  0.00
Modify  | 2.5888e-05 | 0.0032252  | 0.0069174  |   2.7 |  0.14
Other   |            | 0.2953     |            |       | 12.63

Nlocal:        2776.45 ave        3960 max           0 min
Histogram: 8 4 4 0 4 12 8 2 28 34
Nghost:        3879.03 ave        5424 max         232 min
Histogram: 8 0 8 0 16 0 8 8 16 40
Neighs:        79213.4 ave      115431 max           0 min
Histogram: 8 4 4 0 10 6 8 8 24 32

Total # of neighbors = 8238198
Ave neighs/atom = 28.530457
Neighbor list builds = 0
Dangerous builds = 0
Setting atom values ...
  1 settings made for x
  1 settings made for y
  1 settings made for z
Setting up cg style minimization ...
  Unit style    : metal
  Current step  : 358
Per MPI rank memory allocation (min/avg/max) = 5.441 | 5.816 | 6.074 Mbytes
Step PotEng KinEng TotEng v_fx v_fy v_fz 
     358   -1152449.4            0   -1152449.4  0.053875944  0.022246294  0.076611968 
     562   -1152449.4            0   -1152449.4 -1.8294114e-05 1.4683849e-05 -2.0602453e-05 
Loop time of 2.39286 on 104 procs for 204 steps with 288751 atoms

99.8% CPU use with 104 MPI tasks x 1 OpenMP threads

Minimization stats:
  Stopping criterion = energy tolerance
  Energy initial, next-to-last, final = 
     -1152449.44010592  -1152449.44355763  -1152449.44355763
  Force two-norm initial, final = 0.27741045 0.00013475234
  Force max component initial, final = 0.11276787 2.3971745e-05
  Final line search alpha, max atom move = 1.0000000 2.3971745e-05
  Iterations, force evaluations = 204 408

MPI task timing breakdown:
Section |  min time  |  avg time  |  max time  |%varavg| %total
---------------------------------------------------------------
Pair    | 0.62178    | 1.7156     | 2.242      |  35.3 | 71.69
Neigh   | 0          | 0          | 0          |   0.0 |  0.00
Comm    | 0.040002   | 0.39163    | 1.1713     |  51.4 | 16.37
Output  | 0          | 0          | 0          |   0.0 |  0.00
Modify  | 2.523e-05  | 0.0033729  | 0.0072539  |   2.7 |  0.14
Other   |            | 0.2823     |            |       | 11.80

Nlocal:        2776.45 ave        3961 max           0 min
Histogram: 8 4 4 0 6 10 8 2 28 34
Nghost:        3879.07 ave        5427 max         232 min
Histogram: 8 0 8 0 16 0 8 8 16 40
Neighs:        79213.5 ave      115453 max           0 min
Histogram: 8 4 4 0 10 6 8 8 24 32

Total # of neighbors = 8238201
Ave neighs/atom = 28.530467
Neighbor list builds = 0
Dangerous builds = 0
The dot product: -2.39219942746676e-06
The cos of the angle between the force vector and the displacement vector: -0.0766214770046838
The angle: 94.3943942318571
Setting atom values ...
  1 settings made for x
  1 settings made for y
  1 settings made for z
Setting up cg style minimization ...
  Unit style    : metal
  Current step  : 562
Per MPI rank memory allocation (min/avg/max) = 5.441 | 5.816 | 6.074 Mbytes
Step PotEng KinEng TotEng v_fx v_fy v_fz 
     562   -1152449.4            0   -1152449.4   0.05121001   0.02004996   0.09303722 
     805   -1152449.4            0   -1152449.4 5.9894929e-07 4.076392e-06 2.4751703e-06 
Loop time of 2.89662 on 104 procs for 243 steps with 288751 atoms

99.9% CPU use with 104 MPI tasks x 1 OpenMP threads

Minimization stats:
  Stopping criterion = energy tolerance
  Energy initial, next-to-last, final = 
     -1152449.43165848  -1152449.43503143  -1152449.43503143
  Force two-norm initial, final = 0.27408016 2.0450265e-05
  Force max component initial, final = 0.12315269 4.1773483e-06
  Final line search alpha, max atom move = 1.0000000 4.1773483e-06
  Iterations, force evaluations = 243 486

MPI task timing breakdown:
Section |  min time  |  avg time  |  max time  |%varavg| %total
---------------------------------------------------------------
Pair    | 0.7445     | 2.0543     | 2.6996     |  38.6 | 70.92
Neigh   | 0          | 0          | 0          |   0.0 |  0.00
Comm    | 0.053273   | 0.47699    | 1.4173     |  55.2 | 16.47
Output  | 0          | 0          | 0          |   0.0 |  0.00
Modify  | 3.1439e-05 | 0.0040041  | 0.0085474  |   3.0 |  0.14
Other   |            | 0.3613     |            |       | 12.47

Nlocal:        2776.45 ave        3960 max           0 min
Histogram: 8 4 4 0 4 12 8 2 28 34
Nghost:        3879.11 ave        5424 max         232 min
Histogram: 8 0 8 0 16 0 8 8 16 40
Neighs:        79213.5 ave      115429 max           0 min
Histogram: 8 4 4 0 10 6 8 8 24 32

Total # of neighbors = 8238201
Ave neighs/atom = 28.530467
Neighbor list builds = 0
Dangerous builds = 0
The dot product: 3.12920527055712e-07
The cos of the angle between the force vector and the displacement vector: 0.0651039845587942
The angle: 86.2671763348536
Setting atom values ...
  1 settings made for x
  1 settings made for y
  1 settings made for z
Setting up cg style minimization ...
  Unit style    : metal
  Current step  : 805
Per MPI rank memory allocation (min/avg/max) = 5.441 | 5.816 | 6.074 Mbytes
Step PotEng KinEng TotEng v_fx v_fy v_fz 
     805   -1152449.4            0   -1152449.4  0.040673078  0.016660481  0.097319355 
     959   -1152449.4            0   -1152449.4 3.754847e-06 -1.8678057e-05 -5.7912791e-07 
Loop time of 1.79501 on 104 procs for 154 steps with 288751 atoms

99.9% CPU use with 104 MPI tasks x 1 OpenMP threads

Minimization stats:
  Stopping criterion = energy tolerance
  Energy initial, next-to-last, final = 
     -1152449.42015835  -1152449.42340583  -1152449.42340583
  Force two-norm initial, final = 0.26637861 9.3881107e-05
  Force max component initial, final = 0.13088824 1.8678057e-05
  Final line search alpha, max atom move = 1.0000000 1.8678057e-05
  Iterations, force evaluations = 154 308

MPI task timing breakdown:
Section |  min time  |  avg time  |  max time  |%varavg| %total
---------------------------------------------------------------
Pair    | 0.46803    | 1.2921     | 1.6902     |  30.7 | 71.98
Neigh   | 0          | 0          | 0          |   0.0 |  0.00
Comm    | 0.026032   | 0.29305    | 0.87609    |  44.7 | 16.33
Output  | 0          | 0          | 0          |   0.0 |  0.00
Modify  | 1.8405e-05 | 0.0025418  | 0.0054417  |   2.4 |  0.14
Other   |            | 0.2073     |            |       | 11.55

Nlocal:        2776.45 ave        3960 max           0 min
Histogram: 8 4 4 0 4 12 8 4 26 34
Nghost:        3879.14 ave        5424 max         232 min
Histogram: 8 0 8 0 16 0 8 8 16 40
Neighs:        79213.5 ave      115429 max           0 min
Histogram: 8 4 4 0 10 6 8 8 24 32

Total # of neighbors = 8238201
Ave neighs/atom = 28.530467
Neighbor list builds = 0
Dangerous builds = 0
The dot product: 9.7041387467743e-08
The cos of the angle between the force vector and the displacement vector: 0.00509122008938783
The angle: 89.7082933160984
Setting atom values ...
  1 settings made for x
  1 settings made for y
  1 settings made for z
Setting up cg style minimization ...
  Unit style    : metal
  Current step  : 959
Per MPI rank memory allocation (min/avg/max) = 5.441 | 5.816 | 6.074 Mbytes
Step PotEng KinEng TotEng v_fx v_fy v_fz 
     959   -1152449.4            0   -1152449.4  0.029839317  0.016383399  0.095825149 
    1000   -1152449.4            0   -1152449.4 6.6250865e-05 0.00025546049 0.00034306302 
    1125   -1152449.4            0   -1152449.4 1.4593307e-06 -5.44599e-06 9.7073774e-07 
Loop time of 1.96134 on 104 procs for 166 steps with 288751 atoms

99.9% CPU use with 104 MPI tasks x 1 OpenMP threads

Minimization stats:
  Stopping criterion = energy tolerance
  Energy initial, next-to-last, final = 
     -1152449.40550483   -1152449.4086257   -1152449.4086257
  Force two-norm initial, final = 0.25912598 2.3728056e-05
  Force max component initial, final = 0.13617041 5.4459900e-06
  Final line search alpha, max atom move = 1.0000000 5.4459900e-06
  Iterations, force evaluations = 166 332

MPI task timing breakdown:
Section |  min time  |  avg time  |  max time  |%varavg| %total
---------------------------------------------------------------
Pair    | 0.50916    | 1.4012     | 1.8385     |  31.7 | 71.44
Neigh   | 0          | 0          | 0          |   0.0 |  0.00
Comm    | 0.036909   | 0.31813    | 0.95083    |  46.4 | 16.22
Output  | 0.00013861 | 0.00014319 | 0.00025728 |   0.0 |  0.01
Modify  | 2.0352e-05 | 0.0027359  | 0.0058575  |   2.5 |  0.14
Other   |            | 0.2391     |            |       | 12.19

Nlocal:        2776.45 ave        3960 max           0 min
Histogram: 8 4 4 0 4 12 8 4 26 34
Nghost:        3879.11 ave        5424 max         232 min
Histogram: 8 0 8 0 16 0 8 8 16 40
Neighs:        79213.5 ave      115428 max           0 min
Histogram: 8 4 4 0 10 6 8 8 24 32

Total # of neighbors = 8238202
Ave neighs/atom = 28.530471
Neighbor list builds = 0
Dangerous builds = 0
The dot product: 1.09031594974656e-07
The cos of the angle between the force vector and the displacement vector: 0.0190578608168687
The angle: 88.9079988990004
Setting atom values ...
  1 settings made for x
  1 settings made for y
  1 settings made for z
Setting up cg style minimization ...
  Unit style    : metal
  Current step  : 1125
Per MPI rank memory allocation (min/avg/max) = 5.441 | 5.816 | 6.074 Mbytes
Step PotEng KinEng TotEng v_fx v_fy v_fz 
    1125   -1152449.4            0   -1152449.4  0.021031361  0.021006521  0.095627066 
    1260   -1152449.4            0   -1152449.4 -1.7814757e-05 1.5715612e-05 -5.5618825e-05 
Loop time of 1.56457 on 104 procs for 135 steps with 288751 atoms

99.9% CPU use with 104 MPI tasks x 1 OpenMP threads

Minimization stats:
  Stopping criterion = energy tolerance
  Energy initial, next-to-last, final = 
     -1152449.38768425     -1152449.39074     -1152449.39074
  Force two-norm initial, final = 0.25479596 0.00018584142
  Force max component initial, final = 0.13994563 5.5618825e-05
  Final line search alpha, max atom move = 1.0000000 5.5618825e-05
  Iterations, force evaluations = 135 270

MPI task timing breakdown:
Section |  min time  |  avg time  |  max time  |%varavg| %total
---------------------------------------------------------------
Pair    | 0.41159    | 1.1325     | 1.4768     |  28.7 | 72.39
Neigh   | 0          | 0          | 0          |   0.0 |  0.00
Comm    | 0.022893   | 0.25605    | 0.77517    |  42.3 | 16.37
Output  | 0          | 0          | 0          |   0.0 |  0.00
Modify  | 1.7995e-05 | 0.0022292  | 0.0047705  |   2.2 |  0.14
Other   |            | 0.1738     |            |       | 11.11

Nlocal:        2776.45 ave        3960 max           0 min
Histogram: 8 4 4 0 4 12 8 4 26 34
Nghost:        3879.11 ave        5424 max         232 min
Histogram: 8 0 8 0 16 0 8 8 16 40
Neighs:        79213.5 ave      115428 max           0 min
Histogram: 8 4 4 0 10 6 8 8 24 32

Total # of neighbors = 8238204
Ave neighs/atom = 28.530478
Neighbor list builds = 0
Dangerous builds = 0
The dot product: -3.82515117325956e-06
The cos of the angle between the force vector and the displacement vector: -0.0632468126942619
The angle: 93.6261957408068
Setting atom values ...
  1 settings made for x
  1 settings made for y
  1 settings made for z
Setting up cg style minimization ...
  Unit style    : metal
  Current step  : 1260
Per MPI rank memory allocation (min/avg/max) = 5.441 | 5.816 | 6.074 Mbytes
Step PotEng KinEng TotEng v_fx v_fy v_fz 
    1260   -1152449.4            0   -1152449.4  0.013976696  0.034946347   0.11081282 
    1448   -1152449.4            0   -1152449.4 5.3348266e-06 -1.4070151e-05 1.2817068e-05 
Loop time of 2.2304 on 104 procs for 188 steps with 288751 atoms

99.9% CPU use with 104 MPI tasks x 1 OpenMP threads

Minimization stats:
  Stopping criterion = energy tolerance
  Energy initial, next-to-last, final = 
     -1152449.36700786  -1152449.37114424  -1152449.37114424
  Force two-norm initial, final = 0.2591362 0.0001200256
  Force max component initial, final = 0.14304524 1.4113744e-05
  Final line search alpha, max atom move = 1.0000000 1.4113744e-05
  Iterations, force evaluations = 188 376

MPI task timing breakdown:
Section |  min time  |  avg time  |  max time  |%varavg| %total
---------------------------------------------------------------
Pair    | 0.57428    | 1.5853     | 2.0853     |  33.8 | 71.08
Neigh   | 0          | 0          | 0          |   0.0 |  0.00
Comm    | 0.036312   | 0.36371    | 1.0762     |  49.0 | 16.31
Output  | 0          | 0          | 0          |   0.0 |  0.00
Modify  | 2.2531e-05 | 0.0030959  | 0.0066308  |   2.6 |  0.14
Other   |            | 0.2783     |            |       | 12.48

Nlocal:        2776.45 ave        3960 max           0 min
Histogram: 8 4 4 0 4 12 8 4 26 34
Nghost:        3879.11 ave        5424 max         232 min
Histogram: 8 0 8 0 16 0 8 8 16 40
Neighs:        79213.5 ave      115429 max           0 min
Histogram: 8 4 4 0 10 6 8 8 24 32

Total # of neighbors = 8238201
Ave neighs/atom = 28.530467
Neighbor list builds = 0
Dangerous builds = 0
The dot product: 1.1860007830929e-06
The cos of the angle between the force vector and the displacement vector: 0.0600011417239556
The angle: 86.5601216984507
Setting atom values ...
  1 settings made for x
  1 settings made for y
  1 settings made for z
Setting up cg style minimization ...
  Unit style    : metal
  Current step  : 1448
Per MPI rank memory allocation (min/avg/max) = 5.441 | 5.816 | 6.074 Mbytes
Step PotEng KinEng TotEng v_fx v_fy v_fz 
    1448   -1152449.3            0   -1152449.3 -0.032906005  0.090450231   0.20106392 
    1665   -1152449.4            0   -1152449.4 -2.5022803e-06 9.1747411e-06 -1.5490434e-05 
Loop time of 2.54532 on 104 procs for 217 steps with 288751 atoms

99.9% CPU use with 104 MPI tasks x 1 OpenMP threads

Minimization stats:
  Stopping criterion = energy tolerance
  Energy initial, next-to-last, final = 
     -1152449.34945879   -1152449.3588489   -1152449.3588489
  Force two-norm initial, final = 0.31496431 0.0001229277
  Force max component initial, final = 0.20106392 2.8235755e-05
  Final line search alpha, max atom move = 1.0000000 2.8235755e-05
  Iterations, force evaluations = 217 434

MPI task timing breakdown:
Section |  min time  |  avg time  |  max time  |%varavg| %total
---------------------------------------------------------------
Pair    | 0.66401    | 1.8265     | 2.3837     |  36.4 | 71.76
Neigh   | 1.0239e-05 | 0.0029404  | 0.0042701  |   2.2 |  0.12
Comm    | 0.036886   | 0.41601    | 1.2392     |  53.0 | 16.34
Output  | 0          | 0          | 0          |   0.0 |  0.00
Modify  | 2.6359e-05 | 0.0035772  | 0.0076547  |   2.8 |  0.14
Other   |            | 0.2963     |            |       | 11.64

Nlocal:        2776.45 ave        3960 max           0 min
Histogram: 8 4 4 0 4 12 8 4 26 34
Nghost:        3879.07 ave        5429 max         232 min
Histogram: 8 0 8 0 16 0 8 8 16 40
Neighs:        79213.4 ave      115439 max           0 min
Histogram: 8 4 4 0 10 6 8 8 24 32

Total # of neighbors = 8238197
Ave neighs/atom = 28.530454
Neighbor list builds = 1
Dangerous builds = 0
The dot product: -2.09615668396154e-06
The cos of the angle between the force vector and the displacement vector: -0.115321358644106
The angle: 96.6221608638941
Setting atom values ...
  1 settings made for x
  1 settings made for y
  1 settings made for z
Setting up cg style minimization ...
  Unit style    : metal
  Current step  : 1665
Per MPI rank memory allocation (min/avg/max) = 5.441 | 5.816 | 6.074 Mbytes
Step PotEng KinEng TotEng v_fx v_fy v_fz 
    1665   -1152449.3            0   -1152449.3 -0.067593596  0.068002247    0.1401434 
    1895   -1152449.3            0   -1152449.3 -1.1757289e-06 -9.2951115e-06 2.0716797e-05 
Loop time of 2.70993 on 104 procs for 230 steps with 288751 atoms

99.9% CPU use with 104 MPI tasks x 1 OpenMP threads

Minimization stats:
  Stopping criterion = energy tolerance
  Energy initial, next-to-last, final = 
     -1152449.33986884  -1152449.34569994  -1152449.34569994
  Force two-norm initial, final = 0.2688979 5.9603035e-05
  Force max component initial, final = 0.1401434 2.0716797e-05
  Final line search alpha, max atom move = 1.0000000 2.0716797e-05
  Iterations, force evaluations = 230 460

MPI task timing breakdown:
Section |  min time  |  avg time  |  max time  |%varavg| %total
---------------------------------------------------------------
Pair    | 0.70583    | 1.9418     | 2.5463     |  37.4 | 71.65
Neigh   | 0          | 0          | 0          |   0.0 |  0.00
Comm    | 0.04022    | 0.44832    | 1.3382     |  54.1 | 16.54
Output  | 0          | 0          | 0          |   0.0 |  0.00
Modify  | 2.8083e-05 | 0.0037816  | 0.008087   |   2.9 |  0.14
Other   |            | 0.316      |            |       | 11.66

Nlocal:        2776.45 ave        3961 max           0 min
Histogram: 8 4 4 0 6 10 8 4 26 34
Nghost:        3879.03 ave        5424 max         232 min
Histogram: 8 0 8 0 16 0 8 8 16 40
Neighs:        79213.5 ave      115455 max           0 min
Histogram: 8 4 4 0 10 6 8 8 24 32

Total # of neighbors = 8238200
Ave neighs/atom = 28.530464
Neighbor list builds = 0
Dangerous builds = 0
The dot product: 2.05727998657541e-06
The cos of the angle between the force vector and the displacement vector: 0.0904819477271598
The angle: 84.8086662121314
Setting atom values ...
  1 settings made for x
  1 settings made for y
  1 settings made for z
Setting up cg style minimization ...
  Unit style    : metal
  Current step  : 1895
Per MPI rank memory allocation (min/avg/max) = 5.441 | 5.816 | 6.074 Mbytes
Step PotEng KinEng TotEng v_fx v_fy v_fz 
    1895   -1152449.3            0   -1152449.3 -0.051294796  0.027094837  0.084185018 
    2000   -1152449.3            0   -1152449.3 -1.9729673e-05 0.00024175871 -0.00026910261 
    2144   -1152449.3            0   -1152449.3 -1.077074e-05 1.3588798e-05 7.3821622e-06 
Loop time of 2.89737 on 104 procs for 249 steps with 288751 atoms

99.9% CPU use with 104 MPI tasks x 1 OpenMP threads

Minimization stats:
  Stopping criterion = energy tolerance
  Energy initial, next-to-last, final = 
     -1152449.32870012  -1152449.34677577  -1152449.34677577
  Force two-norm initial, final = 0.23608731 0.00010861587
  Force max component initial, final = 0.10889038 2.1219698e-05
  Final line search alpha, max atom move = 1.0000000 2.1219698e-05
  Iterations, force evaluations = 249 498

MPI task timing breakdown:
Section |  min time  |  avg time  |  max time  |%varavg| %total
---------------------------------------------------------------
Pair    | 0.75751    | 2.0919     | 2.7346     |  39.1 | 72.20
Neigh   | 1.0334e-05 | 0.0029542  | 0.0042984  |   2.2 |  0.10
Comm    | 0.041932   | 0.47379    | 1.4293     |  57.4 | 16.35
Output  | 0.000135   | 0.00013841 | 0.00029385 |   0.0 |  0.00
Modify  | 3.1965e-05 | 0.0041072  | 0.008783   |   3.0 |  0.14
Other   |            | 0.3245     |            |       | 11.20

Nlocal:        2776.45 ave        3960 max           0 min
Histogram: 8 4 4 0 4 12 8 4 26 34
Nghost:        3879.03 ave        5424 max         232 min
Histogram: 8 0 8 0 16 0 8 8 16 40
Neighs:        79213.5 ave      115434 max           0 min
Histogram: 8 4 4 0 10 6 8 8 24 32

Total # of neighbors = 8238200
Ave neighs/atom = 28.530464
Neighbor list builds = 1
Dangerous builds = 0
The dot product: 2.58210330167934e-06
The cos of the angle between the force vector and the displacement vector: 0.137012825354464
The angle: 82.1249720237719
Setting atom values ...
  1 settings made for x
  1 settings made for y
  1 settings made for z
Setting up cg style minimization ...
  Unit style    : metal
  Current step  : 2144
Per MPI rank memory allocation (min/avg/max) = 5.441 | 5.816 | 6.074 Mbytes
Step PotEng KinEng TotEng v_fx v_fy v_fz 
    2144   -1152449.3            0   -1152449.3  0.037265871 0.0073872961 -0.057496484 
    2341   -1152449.4            0   -1152449.4 2.1510756e-06 1.1680964e-05 -1.3472133e-05 
Loop time of 2.29813 on 104 procs for 197 steps with 288751 atoms

99.9% CPU use with 104 MPI tasks x 1 OpenMP threads

Minimization stats:
  Stopping criterion = energy tolerance
  Energy initial, next-to-last, final = 
     -1152449.34838248  -1152449.35056076  -1152449.35056076
  Force two-norm initial, final = 0.19722972 6.3662554e-05
  Force max component initial, final = 0.07207194 1.5765888e-05
  Final line search alpha, max atom move = 1.0000000 1.5765888e-05
  Iterations, force evaluations = 197 394

MPI task timing breakdown:
Section |  min time  |  avg time  |  max time  |%varavg| %total
---------------------------------------------------------------
Pair    | 0.59714    | 1.66       | 2.161      |  34.7 | 72.23
Neigh   | 0          | 0          | 0          |   0.0 |  0.00
Comm    | 0.03377    | 0.37978    | 1.1306     |  50.4 | 16.53
Output  | 0          | 0          | 0          |   0.0 |  0.00
Modify  | 2.3861e-05 | 0.00325    | 0.0069462  |   2.7 |  0.14
Other   |            | 0.2551     |            |       | 11.10

Nlocal:        2776.45 ave        3959 max           0 min
Histogram: 8 4 4 0 4 12 8 2 28 34
Nghost:        3879.03 ave        5424 max         232 min
Histogram: 8 0 8 0 16 0 8 8 16 40
Neighs:        79213.4 ave      115391 max           0 min
Histogram: 8 4 4 0 10 6 8 8 24 32

Total # of neighbors = 8238190
Ave neighs/atom = 28.530429
Neighbor list builds = 0
Dangerous builds = 0
The dot product: 2.18654525765176e-07
The cos of the angle between the force vector and the displacement vector: 0.0121743619984043
The angle: 89.302443207096
Setting atom values ...
  1 settings made for x
  1 settings made for y
  1 settings made for z
Setting up cg style minimization ...
  Unit style    : metal
  Current step  : 2341
Per MPI rank memory allocation (min/avg/max) = 5.441 | 5.816 | 6.074 Mbytes
Step PotEng KinEng TotEng v_fx v_fy v_fz 
    2341   -1152449.3            0   -1152449.3  0.014775136 0.0077742484 -0.028337383 
    2515   -1152449.4            0   -1152449.4 3.8038165e-05 -5.5484172e-05 -2.9694124e-06 
Loop time of 2.02018 on 104 procs for 174 steps with 288751 atoms

99.9% CPU use with 104 MPI tasks x 1 OpenMP threads

Minimization stats:
  Stopping criterion = energy tolerance
  Energy initial, next-to-last, final = 
     -1152449.34950757  -1152449.35152884  -1152449.35152884
  Force two-norm initial, final = 0.1874981 0.00027370204
  Force max component initial, final = 0.069963385 5.9271976e-05
  Final line search alpha, max atom move = 1.0000000 5.9271976e-05
  Iterations, force evaluations = 174 348

MPI task timing breakdown:
Section |  min time  |  avg time  |  max time  |%varavg| %total
---------------------------------------------------------------
Pair    | 0.52801    | 1.4582     | 1.9056     |  32.6 | 72.18
Neigh   | 0          | 0          | 0          |   0.0 |  0.00
Comm    | 0.029247   | 0.32979    | 0.9967     |  47.7 | 16.32
Output  | 0          | 0          | 0          |   0.0 |  0.00
Modify  | 2.161e-05  | 0.0028717  | 0.0061498  |   2.5 |  0.14
Other   |            | 0.2294     |            |       | 11.35

Nlocal:        2776.45 ave        3959 max           0 min
Histogram: 8 4 4 0 4 12 8 2 28 34
Nghost:        3879.03 ave        5424 max         232 min
Histogram: 8 0 8 0 16 0 8 8 16 40
Neighs:        79213.4 ave      115392 max           0 min
Histogram: 8 4 4 0 10 6 8 8 24 32

Total # of neighbors = 8238189
Ave neighs/atom = 28.530426
Neighbor list builds = 0
Dangerous builds = 0
The dot product: 3.31066969883823e-08
The cos of the angle between the force vector and the displacement vector: 0.000491660032835393
The angle: 89.9718299540282
Setting atom values ...
  1 settings made for x
  1 settings made for y
  1 settings made for z
Setting up cg style minimization ...
  Unit style    : metal
  Current step  : 2515
Per MPI rank memory allocation (min/avg/max) = 5.441 | 5.816 | 6.074 Mbytes
Step PotEng KinEng TotEng v_fx v_fy v_fz 
    2515   -1152449.3            0   -1152449.3  0.014797296 0.0060432424 -0.026852471 
    2722   -1152449.3            0   -1152449.3 -4.8758681e-06 3.1256789e-05 -2.2046672e-05 
Loop time of 2.48098 on 104 procs for 207 steps with 288751 atoms

99.9% CPU use with 104 MPI tasks x 1 OpenMP threads

Minimization stats:
  Stopping criterion = energy tolerance
  Energy initial, next-to-last, final = 
      -1152449.3475035  -1152449.34949352  -1152449.34949352
  Force two-norm initial, final = 0.1862347 0.00010423001
  Force max component initial, final = 0.069571122 3.1256789e-05
  Final line search alpha, max atom move = 1.0000000 3.1256789e-05
  Iterations, force evaluations = 207 414

MPI task timing breakdown:
Section |  min time  |  avg time  |  max time  |%varavg| %total
---------------------------------------------------------------
Pair    | 0.63512    | 1.7519     | 2.3089     |  35.7 | 70.61
Neigh   | 0          | 0          | 0          |   0.0 |  0.00
Comm    | 0.034922   | 0.4023     | 1.1829     |  50.9 | 16.22
Output  | 0          | 0          | 0          |   0.0 |  0.00
Modify  | 2.5262e-05 | 0.0034157  | 0.0073421  |   2.8 |  0.14
Other   |            | 0.3234     |            |       | 13.03

Nlocal:        2776.45 ave        3961 max           0 min
Histogram: 8 4 4 0 6 10 8 2 28 34
Nghost:        3879.03 ave        5424 max         232 min
Histogram: 8 0 8 0 16 0 8 8 16 40
Neighs:        79213.4 ave      115467 max           0 min
Histogram: 8 4 4 0 10 6 8 8 24 32

Total # of neighbors = 8238192
Ave neighs/atom = 28.530436
Neighbor list builds = 0
Dangerous builds = 0
The dot product: 1.51379967172712e-08
The cos of the angle between the force vector and the displacement vector: 0.000392590410043478
The angle: 89.9775062258495
Setting atom values ...
  1 settings made for x
  1 settings made for y
  1 settings made for z
Setting up cg style minimization ...
  Unit style    : metal
  Current step  : 2722
Per MPI rank memory allocation (min/avg/max) = 5.441 | 5.816 | 6.074 Mbytes
Step PotEng KinEng TotEng v_fx v_fy v_fz 
    2722   -1152449.3            0   -1152449.3  0.012901764 0.0047887252 -0.023063082 
    2929   -1152449.3            0   -1152449.3 8.5997112e-06 -2.9063944e-06 -9.6937747e-06 
Loop time of 2.40411 on 104 procs for 207 steps with 288751 atoms

99.9% CPU use with 104 MPI tasks x 1 OpenMP threads

Minimization stats:
  Stopping criterion = energy tolerance
  Energy initial, next-to-last, final = 
      -1152449.3424604  -1152449.34440524  -1152449.34440524
  Force two-norm initial, final = 0.18415141 0.00010120668
  Force max component initial, final = 0.069380834 2.3668084e-05
  Final line search alpha, max atom move = 1.0000000 2.3668084e-05
  Iterations, force evaluations = 207 414

MPI task timing breakdown:
Section |  min time  |  avg time  |  max time  |%varavg| %total
---------------------------------------------------------------
Pair    | 0.62723    | 1.7352     | 2.2654     |  35.5 | 72.18
Neigh   | 0          | 0          | 0          |   0.0 |  0.00
Comm    | 0.040726   | 0.39249    | 1.1859     |  52.2 | 16.33
Output  | 0          | 0          | 0          |   0.0 |  0.00
Modify  | 2.5546e-05 | 0.0034083  | 0.0072937  |   2.8 |  0.14
Other   |            | 0.273      |            |       | 11.35

Nlocal:        2776.45 ave        3961 max           0 min
Histogram: 8 4 4 0 6 10 8 2 28 34
Nghost:        3879.03 ave        5424 max         232 min
Histogram: 8 0 8 0 16 0 8 8 16 40
Neighs:        79213.4 ave      115467 max           0 min
Histogram: 8 4 4 0 10 6 8 8 24 32

Total # of neighbors = 8238190
Ave neighs/atom = 28.530429
Neighbor list builds = 0
Dangerous builds = 0
The dot product: 2.20837967259981e-08
The cos of the angle between the force vector and the displacement vector: 0.00166287507441074
The angle: 89.9047242324698
Setting atom values ...
  1 settings made for x
  1 settings made for y
  1 settings made for z
Setting up cg style minimization ...
  Unit style    : metal
  Current step  : 2929
Per MPI rank memory allocation (min/avg/max) = 5.441 | 5.816 | 6.074 Mbytes
Step PotEng KinEng TotEng v_fx v_fy v_fz 
    2929   -1152449.3            0   -1152449.3  0.010467895 0.0043978821 -0.019254653 
    3000   -1152449.3            0   -1152449.3 1.8302984e-05 3.9334042e-05 -6.3180883e-05 
    3139   -1152449.3            0   -1152449.3 -1.1654861e-06 -2.3625482e-05 2.3722311e-05 
Loop time of 2.46592 on 104 procs for 210 steps with 288751 atoms

99.9% CPU use with 104 MPI tasks x 1 OpenMP threads

Minimization stats:
  Stopping criterion = linesearch alpha is zero
  Energy initial, next-to-last, final = 
     -1152449.33432748  -1152449.33623929  -1152449.33623929
  Force two-norm initial, final = 0.18283314 8.7764661e-05
  Force max component initial, final = 0.069131988 3.1241523e-05
  Final line search alpha, max atom move = 0.5 1.5620761e-05
  Iterations, force evaluations = 210 421

MPI task timing breakdown:
Section |  min time  |  avg time  |  max time  |%varavg| %total
---------------------------------------------------------------
Pair    | 0.63811    | 1.7711     | 2.3278     |  35.9 | 71.82
Neigh   | 0          | 0          | 0          |   0.0 |  0.00
Comm    | 0.034956   | 0.40186    | 1.2037     |  52.3 | 16.30
Output  | 9.3308e-05 | 0.00010391 | 0.00023441 |   0.0 |  0.00
Modify  | 2.6373e-05 | 0.0034675  | 0.0073975  |   2.8 |  0.14
Other   |            | 0.2894     |            |       | 11.74

Nlocal:        2776.45 ave        3961 max           0 min
Histogram: 8 4 4 0 6 10 8 2 28 34
Nghost:        3879.03 ave        5424 max         232 min
Histogram: 8 0 8 0 16 0 8 8 16 40
Neighs:        79213.4 ave      115467 max           0 min
Histogram: 8 4 4 0 10 6 8 8 24 32

Total # of neighbors = 8238191
Ave neighs/atom = 28.530433
Neighbor list builds = 0
Dangerous builds = 0
The dot product: -1.76976384294999e-08
The cos of the angle between the force vector and the displacement vector: -0.000528283050800275
The angle: 90.0302683906071
Setting atom values ...
  1 settings made for x
  1 settings made for y
  1 settings made for z
Setting up cg style minimization ...
  Unit style    : metal
  Current step  : 3139
Per MPI rank memory allocation (min/avg/max) = 5.441 | 5.816 | 6.074 Mbytes
Step PotEng KinEng TotEng v_fx v_fy v_fz 
    3139   -1152449.3            0   -1152449.3 0.0075385042 0.0052841489 -0.015880064 
    3348   -1152449.3            0   -1152449.3 8.8421944e-06 6.3081914e-06 -1.8729261e-05 
Loop time of 2.42014 on 104 procs for 209 steps with 288751 atoms

99.9% CPU use with 104 MPI tasks x 1 OpenMP threads

Minimization stats:
  Stopping criterion = energy tolerance
  Energy initial, next-to-last, final = 
      -1152449.3230313  -1152449.32493692  -1152449.32493692
  Force two-norm initial, final = 0.18274228 7.9066823e-05
  Force max component initial, final = 0.068905346 1.8729261e-05
  Final line search alpha, max atom move = 1.0000000 1.8729261e-05
  Iterations, force evaluations = 209 418

MPI task timing breakdown:
Section |  min time  |  avg time  |  max time  |%varavg| %total
---------------------------------------------------------------
Pair    | 0.63386    | 1.7509     | 2.2834     |  35.7 | 72.35
Neigh   | 0          | 0          | 0          |   0.0 |  0.00
Comm    | 0.037825   | 0.39525    | 1.1992     |  52.6 | 16.33
Output  | 0          | 0          | 0          |   0.0 |  0.00
Modify  | 2.5457e-05 | 0.0034459  | 0.0073839  |   2.8 |  0.14
Other   |            | 0.2706     |            |       | 11.18

Nlocal:        2776.45 ave        3961 max           0 min
Histogram: 8 4 4 0 6 10 8 2 28 34
Nghost:        3879.01 ave        5424 max         232 min
Histogram: 8 0 8 0 16 0 8 8 16 40
Neighs:        79213.4 ave      115465 max           0 min
Histogram: 8 4 4 0 10 6 8 8 24 32

Total # of neighbors = 8238189
Ave neighs/atom = 28.530426
Neighbor list builds = 0
Dangerous builds = 0
The dot product: 1.84814707393596e-08
The cos of the angle between the force vector and the displacement vector: 0.000853610828888111
The angle: 89.9510916962183
Setting atom values ...
  1 settings made for x
  1 settings made for y
  1 settings made for z
Setting up cg style minimization ...
  Unit style    : metal
  Current step  : 3348
Per MPI rank memory allocation (min/avg/max) = 5.441 | 5.816 | 6.074 Mbytes
Step PotEng KinEng TotEng v_fx v_fy v_fz 
    3348   -1152449.3            0   -1152449.3 0.0043091095 0.0075271477 -0.013311022 
    3545   -1152449.3            0   -1152449.3 4.0479049e-06 2.8405526e-05 -3.2462111e-05 
Loop time of 2.30842 on 104 procs for 197 steps with 288751 atoms

99.9% CPU use with 104 MPI tasks x 1 OpenMP threads

Minimization stats:
  Stopping criterion = energy tolerance
  Energy initial, next-to-last, final = 
     -1152449.30847306  -1152449.31039693  -1152449.31039693
  Force two-norm initial, final = 0.18375939 0.00012794107
  Force max component initial, final = 0.068619053 3.2462111e-05
  Final line search alpha, max atom move = 1.0000000 3.2462111e-05
  Iterations, force evaluations = 197 394

MPI task timing breakdown:
Section |  min time  |  avg time  |  max time  |%varavg| %total
---------------------------------------------------------------
Pair    | 0.59748    | 1.661      | 2.1843     |  34.7 | 71.95
Neigh   | 0          | 0          | 0          |   0.0 |  0.00
Comm    | 0.032698   | 0.38251    | 1.1414     |  50.3 | 16.57
Output  | 0          | 0          | 0          |   0.0 |  0.00
Modify  | 2.3804e-05 | 0.0032443  | 0.0074778  |   2.7 |  0.14
Other   |            | 0.2617     |            |       | 11.34

Nlocal:        2776.45 ave        3961 max           0 min
Histogram: 8 4 4 0 6 10 8 3 27 34
Nghost:        3879.03 ave        5424 max         232 min
Histogram: 8 0 8 0 16 0 8 8 16 40
Neighs:        79213.3 ave      115465 max           0 min
Histogram: 8 4 4 0 10 6 8 8 24 32

Total # of neighbors = 8238187
Ave neighs/atom = 28.530419
Neighbor list builds = 0
Dangerous builds = 0
The dot product: 3.43051935045287e-08
The cos of the angle between the force vector and the displacement vector: 0.000791812168476697
The angle: 89.9546324998385
Setting atom values ...
  1 settings made for x
  1 settings made for y
  1 settings made for z
Setting up cg style minimization ...
  Unit style    : metal
  Current step  : 3545
Per MPI rank memory allocation (min/avg/max) = 5.441 | 5.816 | 6.074 Mbytes
Step PotEng KinEng TotEng v_fx v_fy v_fz 
    3545   -1152449.3            0   -1152449.3 0.0010271084  0.011033129  -0.01184107 
    3740   -1152449.3            0   -1152449.3 2.4050051e-06 1.0764326e-05 -1.3596789e-05 
Loop time of 2.27583 on 104 procs for 195 steps with 288751 atoms

99.9% CPU use with 104 MPI tasks x 1 OpenMP threads

Minimization stats:
  Stopping criterion = energy tolerance
  Energy initial, next-to-last, final = 
     -1152449.29056818  -1152449.29251079  -1152449.29251079
  Force two-norm initial, final = 0.18527564 0.00012970922
  Force max component initial, final = 0.068328095 1.3596789e-05
  Final line search alpha, max atom move = 1.0000000 1.3596789e-05
  Iterations, force evaluations = 195 390

MPI task timing breakdown:
Section |  min time  |  avg time  |  max time  |%varavg| %total
---------------------------------------------------------------
Pair    | 0.59198    | 1.6365     | 2.1435     |  34.6 | 71.91
Neigh   | 0          | 0          | 0          |   0.0 |  0.00
Comm    | 0.03253    | 0.37084    | 1.1223     |  50.8 | 16.29
Output  | 0          | 0          | 0          |   0.0 |  0.00
Modify  | 2.4043e-05 | 0.0032182  | 0.0068637  |   2.7 |  0.14
Other   |            | 0.2653     |            |       | 11.66

Nlocal:        2776.45 ave        3960 max           0 min
Histogram: 8 4 4 0 4 12 8 3 27 34
Nghost:        3879.14 ave        5424 max         232 min
Histogram: 8 0 8 0 16 0 8 8 16 40
Neighs:        79213.4 ave      115434 max           0 min
Histogram: 8 4 4 0 10 6 8 8 24 32

Total # of neighbors = 8238189
Ave neighs/atom = 28.530426
Neighbor list builds = 0
Dangerous builds = 0
The dot product: 1.86769464403415e-08
The cos of the angle between the force vector and the displacement vector: 0.0010667709994641
The angle: 89.938878512431
Setting atom values ...
  1 settings made for x
  1 settings made for y
  1 settings made for z
Setting up cg style minimization ...
  Unit style    : metal
  Current step  : 3740
Per MPI rank memory allocation (min/avg/max) = 5.441 | 5.816 | 6.074 Mbytes
Step PotEng KinEng TotEng v_fx v_fy v_fz 
    3740   -1152449.3            0   -1152449.3 -0.0016193982  0.015893085 -0.012588445 
    3926   -1152449.3            0   -1152449.3 -1.6127032e-05 4.2597942e-05 -1.6547497e-05 
Loop time of 2.18225 on 104 procs for 186 steps with 288751 atoms

99.9% CPU use with 104 MPI tasks x 1 OpenMP threads

Minimization stats:
  Stopping criterion = energy tolerance
  Energy initial, next-to-last, final = 
     -1152449.26928169  -1152449.27121708  -1152449.27121708
  Force two-norm initial, final = 0.18667044 0.00016338115
  Force max component initial, final = 0.068052856 4.2597942e-05
  Final line search alpha, max atom move = 1.0000000 4.2597942e-05
  Iterations, force evaluations = 186 372

MPI task timing breakdown:
Section |  min time  |  avg time  |  max time  |%varavg| %total
---------------------------------------------------------------
Pair    | 0.56923    | 1.5703     | 2.0483     |  33.7 | 71.96
Neigh   | 0          | 0          | 0          |   0.0 |  0.00
Comm    | 0.032003   | 0.36123    | 1.0816     |  48.9 | 16.55
Output  | 0          | 0          | 0          |   0.0 |  0.00
Modify  | 2.2793e-05 | 0.0030647  | 0.0065737  |   2.6 |  0.14
Other   |            | 0.2476     |            |       | 11.35

Nlocal:        2776.45 ave        3960 max           0 min
Histogram: 8 4 4 0 4 12 8 4 26 34
Nghost:        3879.14 ave        5424 max         232 min
Histogram: 8 0 8 0 16 0 8 8 16 40
Neighs:        79213.3 ave      115438 max           0 min
Histogram: 8 4 4 0 10 6 8 8 24 32

Total # of neighbors = 8238186
Ave neighs/atom = 28.530415
Neighbor list builds = 0
Dangerous builds = 0
The dot product: 8.93756426661024e-08
The cos of the angle between the force vector and the displacement vector: 0.00184427310636391
The angle: 89.894330874833
Setting atom values ...
  1 settings made for x
  1 settings made for y
  1 settings made for z
Setting up cg style minimization ...
  Unit style    : metal
  Current step  : 3926
Per MPI rank memory allocation (min/avg/max) = 5.441 | 5.816 | 6.074 Mbytes
Step PotEng KinEng TotEng v_fx v_fy v_fz 
    3926   -1152449.2            0   -1152449.2 -0.0025763997  0.022349292 -0.017373277 
    4000   -1152449.2            0   -1152449.2 6.1844615e-05 0.00030394535 -0.00037781514 
    4146   -1152449.2            0   -1152449.2 -7.1185096e-07 7.5597594e-06 -6.1098095e-06 
Loop time of 2.56714 on 104 procs for 220 steps with 288751 atoms

99.9% CPU use with 104 MPI tasks x 1 OpenMP threads

Minimization stats:
  Stopping criterion = energy tolerance
  Energy initial, next-to-last, final = 
     -1152449.24469493  -1152449.24658617  -1152449.24658617
  Force two-norm initial, final = 0.18823588 4.6077014e-05
  Force max component initial, final = 0.068666767 1.1742649e-05
  Final line search alpha, max atom move = 1.0000000 1.1742649e-05
  Iterations, force evaluations = 220 440

MPI task timing breakdown:
Section |  min time  |  avg time  |  max time  |%varavg| %total
---------------------------------------------------------------
Pair    | 0.66965    | 1.8508     | 2.4183     |  36.8 | 72.10
Neigh   | 0          | 0          | 0          |   0.0 |  0.00
Comm    | 0.037667   | 0.41756    | 1.2555     |  54.1 | 16.27
Output  | 0.00015167 | 0.00015688 | 0.00029964 |   0.0 |  0.01
Modify  | 2.6736e-05 | 0.0036247  | 0.0077954  |   2.8 |  0.14
Other   |            | 0.295      |            |       | 11.49

Nlocal:        2776.45 ave        3960 max           0 min
Histogram: 8 4 4 0 4 12 8 4 26 34
Nghost:        3879.12 ave        5424 max         232 min
Histogram: 8 0 8 0 16 0 8 8 16 40
Neighs:        79213.3 ave      115442 max           0 min
Histogram: 8 4 4 0 10 6 8 8 24 32

Total # of neighbors = 8238187
Ave neighs/atom = 28.530419
Neighbor list builds = 0
Dangerous builds = 0
The dot product: 3.28865157012112e-08
The cos of the angle between the force vector and the displacement vector: 0.00337432568128343
The angle: 89.8066650128707
Setting atom values ...
  1 settings made for x
  1 settings made for y
  1 settings made for z
Setting up cg style minimization ...
  Unit style    : metal
  Current step  : 4146
Per MPI rank memory allocation (min/avg/max) = 5.441 | 5.816 | 6.074 Mbytes
Step PotEng KinEng TotEng v_fx v_fy v_fz 
    4146   -1152449.2            0   -1152449.2 -0.00042992192  0.031305727 -0.029270522 
    4406   -1152449.2            0   -1152449.2 3.0774421e-06 -8.986173e-06 4.0674675e-06 
Loop time of 3.08227 on 104 procs for 260 steps with 288751 atoms

99.9% CPU use with 104 MPI tasks x 1 OpenMP threads

Minimization stats:
  Stopping criterion = energy tolerance
  Energy initial, next-to-last, final = 
     -1152449.21720097  -1152449.24981467  -1152449.24981467
  Force two-norm initial, final = 0.19392458 7.2200987e-05
  Force max component initial, final = 0.076036129 1.1224642e-05
  Final line search alpha, max atom move = 1.0000000 1.1224642e-05
  Iterations, force evaluations = 260 519

MPI task timing breakdown:
Section |  min time  |  avg time  |  max time  |%varavg| %total
---------------------------------------------------------------
Pair    | 0.79842    | 2.1896     | 2.8853     |  39.8 | 71.04
Neigh   | 2.0563e-05 | 0.005895   | 0.0085     |   3.2 |  0.19
Comm    | 0.056449   | 0.5025     | 1.5036     |  57.3 | 16.30
Output  | 0          | 0          | 0          |   0.0 |  0.00
Modify  | 3.1689e-05 | 0.004285   | 0.0091754  |   3.1 |  0.14
Other   |            | 0.38       |            |       | 12.33

Nlocal:        2776.45 ave        3961 max           0 min
Histogram: 8 4 4 0 6 10 8 4 26 34
Nghost:        3879.11 ave        5424 max         232 min
Histogram: 8 0 8 0 16 0 8 8 16 40
Neighs:        79213.4 ave      115461 max           0 min
Histogram: 8 4 4 0 10 6 8 8 24 32

Total # of neighbors = 8238190
Ave neighs/atom = 28.530429
Neighbor list builds = 2
Dangerous builds = 0
The dot product: -6.52101938041495e-07
The cos of the angle between the force vector and the displacement vector: -0.0631100469822434
The angle: 93.6183439567985
Setting atom values ...
  1 settings made for x
  1 settings made for y
  1 settings made for z
Setting up cg style minimization ...
  Unit style    : metal
  Current step  : 4406
Per MPI rank memory allocation (min/avg/max) = 5.441 | 5.816 | 6.074 Mbytes
Step PotEng KinEng TotEng v_fx v_fy v_fz 
    4406   -1152449.2            0   -1152449.2 -0.027913899  0.062258046  -0.02667601 
    4633   -1152449.3            0   -1152449.3 4.5650315e-06 1.8434504e-05 -3.3941434e-05 
Loop time of 2.66446 on 104 procs for 227 steps with 288751 atoms

99.9% CPU use with 104 MPI tasks x 1 OpenMP threads

Minimization stats:
  Stopping criterion = energy tolerance
  Energy initial, next-to-last, final = 
     -1152449.24242615  -1152449.25089017  -1152449.25089017
  Force two-norm initial, final = 0.22771432 0.00012050333
  Force max component initial, final = 0.089707367 3.3941434e-05
  Final line search alpha, max atom move = 1.0000000 3.3941434e-05
  Iterations, force evaluations = 227 454

MPI task timing breakdown:
Section |  min time  |  avg time  |  max time  |%varavg| %total
---------------------------------------------------------------
Pair    | 0.68873    | 1.9063     | 2.4907     |  37.2 | 71.55
Neigh   | 0          | 0          | 0          |   0.0 |  0.00
Comm    | 0.039152   | 0.43584    | 1.2993     |  54.0 | 16.36
Output  | 0          | 0          | 0          |   0.0 |  0.00
Modify  | 2.7308e-05 | 0.0037393  | 0.0079817  |   2.9 |  0.14
Other   |            | 0.3186     |            |       | 11.96

Nlocal:        2776.45 ave        3961 max           0 min
Histogram: 8 4 4 0 6 10 8 2 28 34
Nghost:        3879.03 ave        5424 max         232 min
Histogram: 8 0 8 0 16 0 8 8 16 40
Neighs:        79213.3 ave      115468 max           0 min
Histogram: 8 4 4 0 10 6 8 8 24 32

Total # of neighbors = 8238183
Ave neighs/atom = 28.530405
Neighbor list builds = 0
Dangerous builds = 0
The dot product: 2.75465833614305e-06
The cos of the angle between the force vector and the displacement vector: 0.0708259764579247
The angle: 85.9385700591686
Setting atom values ...
  1 settings made for x
  1 settings made for y
  1 settings made for z
Setting up cg style minimization ...
  Unit style    : metal
  Current step  : 4633
Per MPI rank memory allocation (min/avg/max) = 5.441 | 5.816 | 6.074 Mbytes
Step PotEng KinEng TotEng v_fx v_fy v_fz 
    4633   -1152449.3            0   -1152449.3 -0.044942493  0.044685097  0.019585804 
    4768   -1152449.3            0   -1152449.3 1.3502843e-05 7.2435081e-06 -4.1968262e-05 
Loop time of 1.60986 on 104 procs for 135 steps with 288751 atoms

99.9% CPU use with 104 MPI tasks x 1 OpenMP threads

Minimization stats:
  Stopping criterion = energy tolerance
  Energy initial, next-to-last, final = 
     -1152449.25319668  -1152449.25582359  -1152449.25582359
  Force two-norm initial, final = 0.22587849 0.00014986461
  Force max component initial, final = 0.096825039 4.1968262e-05
  Final line search alpha, max atom move = 1.0000000 4.1968262e-05
  Iterations, force evaluations = 135 270

MPI task timing breakdown:
Section |  min time  |  avg time  |  max time  |%varavg| %total
---------------------------------------------------------------
Pair    | 0.41237    | 1.1398     | 1.4965     |  28.6 | 70.80
Neigh   | 0          | 0          | 0          |   0.0 |  0.00
Comm    | 0.023581   | 0.26065    | 0.78452    |  41.9 | 16.19
Output  | 0          | 0          | 0          |   0.0 |  0.00
Modify  | 1.6634e-05 | 0.002225   | 0.0047602  |   2.2 |  0.14
Other   |            | 0.2072     |            |       | 12.87

Nlocal:        2776.45 ave        3958 max           0 min
Histogram: 8 4 4 0 4 12 8 2 28 34
Nghost:        3879.03 ave        5424 max         232 min
Histogram: 8 0 8 0 16 0 8 8 16 40
Neighs:        79213.3 ave      115359 max           0 min
Histogram: 8 4 4 0 10 6 8 8 24 32

Total # of neighbors = 8238184
Ave neighs/atom = 28.530409
Neighbor list builds = 0
Dangerous builds = 0
The dot product: 1.5397497691561e-07
The cos of the angle between the force vector and the displacement vector: 0.00344632093048331
The angle: 89.802539964958
Setting atom values ...
  1 settings made for x
  1 settings made for y
  1 settings made for z
Setting up cg style minimization ...
  Unit style    : metal
  Current step  : 4768
Per MPI rank memory allocation (min/avg/max) = 5.441 | 5.816 | 6.074 Mbytes
Step PotEng KinEng TotEng v_fx v_fy v_fz 
    4768   -1152449.3            0   -1152449.3 -0.069381781  0.065057106  0.033584629 
    5000   -1152449.3            0   -1152449.3 -3.9673573e-06 -7.455307e-07 9.9731103e-06 
    5039   -1152449.3            0   -1152449.3 -4.8681068e-07 1.8297128e-06 -2.2406936e-06 
Loop time of 3.13957 on 104 procs for 271 steps with 288751 atoms

99.9% CPU use with 104 MPI tasks x 1 OpenMP threads

Minimization stats:
  Stopping criterion = energy tolerance
  Energy initial, next-to-last, final = 
     -1152449.25660608   -1152449.3053401   -1152449.3053401
  Force two-norm initial, final = 0.24186607 2.2933810e-05
  Force max component initial, final = 0.096284575 2.2406936e-06
  Final line search alpha, max atom move = 1.0000000 2.2406936e-06
  Iterations, force evaluations = 271 541

MPI task timing breakdown:
Section |  min time  |  avg time  |  max time  |%varavg| %total
---------------------------------------------------------------
Pair    | 0.82191    | 2.2658     | 2.9552     |  40.5 | 72.17
Neigh   | 1.0259e-05 | 0.002962   | 0.0043282  |   2.2 |  0.09
Comm    | 0.045835   | 0.51145    | 1.5414     |  59.8 | 16.29
Output  | 0.00010597 | 0.00011909 | 0.0002797  |   0.0 |  0.00
Modify  | 3.4038e-05 | 0.0044494  | 0.0095543  |   3.2 |  0.14
Other   |            | 0.3548     |            |       | 11.30

Nlocal:        2776.45 ave        3958 max           0 min
Histogram: 8 4 4 0 4 12 8 2 28 34
Nghost:        3879.03 ave        5424 max         232 min
Histogram: 8 0 8 0 16 0 8 8 16 40
Neighs:        79213.4 ave      115363 max           0 min
Histogram: 8 4 4 0 10 6 8 8 24 32

Total # of neighbors = 8238191
Ave neighs/atom = 28.530433
Neighbor list builds = 1
Dangerous builds = 0
The dot product: 3.76645107385579e-07
The cos of the angle between the force vector and the displacement vector: 0.128393559263397
The angle: 82.6232278969083
Setting atom values ...
  1 settings made for x
  1 settings made for y
  1 settings made for z
Setting up cg style minimization ...
  Unit style    : metal
  Current step  : 5039
Per MPI rank memory allocation (min/avg/max) = 5.441 | 5.816 | 6.074 Mbytes
Step PotEng KinEng TotEng v_fx v_fy v_fz 
    5039   -1152449.3            0   -1152449.3 0.0027759526  -0.03153956  0.072270683 
    5226   -1152449.3            0   -1152449.3 -3.3126018e-07 -2.6141779e-05 6.5376442e-05 
Loop time of 2.19783 on 104 procs for 187 steps with 288751 atoms

99.9% CPU use with 104 MPI tasks x 1 OpenMP threads

Minimization stats:
  Stopping criterion = energy tolerance
  Energy initial, next-to-last, final = 
     -1152449.31936714  -1152449.32272752  -1152449.32272752
  Force two-norm initial, final = 0.22398245 0.00021789452
  Force max component initial, final = 0.089984723 6.5376442e-05
  Final line search alpha, max atom move = 1.0000000 6.5376442e-05
  Iterations, force evaluations = 187 374

MPI task timing breakdown:
Section |  min time  |  avg time  |  max time  |%varavg| %total
---------------------------------------------------------------
Pair    | 0.56957    | 1.5804     | 2.0733     |  33.9 | 71.91
Neigh   | 0          | 0          | 0          |   0.0 |  0.00
Comm    | 0.032936   | 0.36108    | 1.0863     |  49.4 | 16.43
Output  | 0          | 0          | 0          |   0.0 |  0.00
Modify  | 2.3173e-05 | 0.0030774  | 0.006588   |   2.6 |  0.14
Other   |            | 0.2533     |            |       | 11.53

Nlocal:        2776.45 ave        3954 max           0 min
Histogram: 8 4 4 0 4 12 8 2 28 34
Nghost:        3879.07 ave        5424 max         232 min
Histogram: 8 0 8 0 16 0 8 8 16 40
Neighs:        79213.5 ave      115217 max           0 min
Histogram: 8 4 4 0 10 6 8 8 24 32

Total # of neighbors = 8238199
Ave neighs/atom = 28.530461
Neighbor list builds = 0
Dangerous builds = 0
The dot product: 1.00471068653128e-06
The cos of the angle between the force vector and the displacement vector: 0.0142694124851554
The angle: 89.182395140612
Setting atom values ...
  1 settings made for x
  1 settings made for y
  1 settings made for z
Setting up cg style minimization ...
  Unit style    : metal
  Current step  : 5226
Per MPI rank memory allocation (min/avg/max) = 5.441 | 5.816 | 6.074 Mbytes
Step PotEng KinEng TotEng v_fx v_fy v_fz 
    5226   -1152449.3            0   -1152449.3 -0.083044739  0.054392452  0.044441549 
    5415   -1152449.3            0   -1152449.3 -3.0552954e-06 1.369898e-05 -2.5833751e-05 
Loop time of 2.19056 on 104 procs for 189 steps with 288751 atoms

99.9% CPU use with 104 MPI tasks x 1 OpenMP threads

Minimization stats:
  Stopping criterion = energy tolerance
  Energy initial, next-to-last, final = 
     -1152449.33254688  -1152449.33534413  -1152449.33534413
  Force two-norm initial, final = 0.24281536 0.00012701792
  Force max component initial, final = 0.088953612 2.5833751e-05
  Final line search alpha, max atom move = 1.0000000 2.5833751e-05
  Iterations, force evaluations = 189 378

MPI task timing breakdown:
Section |  min time  |  avg time  |  max time  |%varavg| %total
---------------------------------------------------------------
Pair    | 0.57262    | 1.5841     | 2.0658     |  34.0 | 72.31
Neigh   | 0          | 0          | 0          |   0.0 |  0.00
Comm    | 0.032646   | 0.35733    | 1.0828     |  50.0 | 16.31
Output  | 0          | 0          | 0          |   0.0 |  0.00
Modify  | 2.3052e-05 | 0.0031154  | 0.0066879  |   2.6 |  0.14
Other   |            | 0.246      |            |       | 11.23

Nlocal:        2776.45 ave        3955 max           0 min
Histogram: 8 4 4 0 4 12 8 0 30 34
Nghost:        3879.07 ave        5424 max         232 min
Histogram: 8 0 8 0 16 0 8 8 16 40
Neighs:        79213.4 ave      115243 max           0 min
Histogram: 8 4 4 0 10 6 8 8 24 32

Total # of neighbors = 8238197
Ave neighs/atom = 28.530454
Neighbor list builds = 0
Dangerous builds = 0
The dot product: 3.13480126494686e-08
The cos of the angle between the force vector and the displacement vector: 0.00106624685211443
The angle: 89.9389085438792
Setting atom values ...
  1 settings made for x
  1 settings made for y
  1 settings made for z
Setting up cg style minimization ...
  Unit style    : metal
  Current step  : 5415
Per MPI rank memory allocation (min/avg/max) = 5.441 | 5.816 | 6.074 Mbytes
Step PotEng KinEng TotEng v_fx v_fy v_fz 
    5415   -1152449.3            0   -1152449.3 -0.074391325   0.04499949  0.045421497 
    5591   -1152449.3            0   -1152449.3 -3.4256261e-05 3.1519047e-06 6.2133824e-05 
Loop time of 2.05685 on 104 procs for 176 steps with 288751 atoms

99.9% CPU use with 104 MPI tasks x 1 OpenMP threads

Minimization stats:
  Stopping criterion = energy tolerance
  Energy initial, next-to-last, final = 
     -1152449.34157848  -1152449.34433363  -1152449.34433363
  Force two-norm initial, final = 0.23869425 0.00024665181
  Force max component initial, final = 0.08648326 6.2401885e-05
  Final line search alpha, max atom move = 1.0000000 6.2401885e-05
  Iterations, force evaluations = 176 352

MPI task timing breakdown:
Section |  min time  |  avg time  |  max time  |%varavg| %total
---------------------------------------------------------------
Pair    | 0.53583    | 1.4843     | 1.9421     |  32.8 | 72.16
Neigh   | 0          | 0          | 0          |   0.0 |  0.00
Comm    | 0.029304   | 0.34118    | 1.0216     |  47.6 | 16.59
Output  | 0          | 0          | 0          |   0.0 |  0.00
Modify  | 2.1544e-05 | 0.0028999  | 0.0062343  |   2.5 |  0.14
Other   |            | 0.2285     |            |       | 11.11

Nlocal:        2776.45 ave        3957 max           0 min
Histogram: 8 4 4 0 4 12 8 2 28 34
Nghost:        3879.03 ave        5424 max         232 min
Histogram: 8 0 8 0 16 0 8 8 16 40
Neighs:        79213.4 ave      115325 max           0 min
Histogram: 8 4 4 0 10 6 8 8 24 32

Total # of neighbors = 8238196
Ave neighs/atom = 28.530450
Neighbor list builds = 0
Dangerous builds = 0
The dot product: 3.77782906569395e-07
The cos of the angle between the force vector and the displacement vector: 0.00531928341046618
The angle: 89.6952260732834
Setting atom values ...
  1 settings made for x
  1 settings made for y
  1 settings made for z
Setting up cg style minimization ...
  Unit style    : metal
  Current step  : 5591
Per MPI rank memory allocation (min/avg/max) = 5.441 | 5.816 | 6.074 Mbytes
Step PotEng KinEng TotEng v_fx v_fy v_fz 
    5591   -1152449.3            0   -1152449.3 -0.075145861  0.046168821  0.042119679 
    5800   -1152449.3            0   -1152449.3 5.9546744e-06 -2.3106892e-07 -1.1327264e-05 
Loop time of 2.43921 on 104 procs for 209 steps with 288751 atoms

99.9% CPU use with 104 MPI tasks x 1 OpenMP threads

Minimization stats:
  Stopping criterion = energy tolerance
  Energy initial, next-to-last, final = 
     -1152449.34695478  -1152449.34972905  -1152449.34972905
  Force two-norm initial, final = 0.23839996 8.7157818e-05
  Force max component initial, final = 0.090004794 1.1541940e-05
  Final line search alpha, max atom move = 1.0000000 1.1541940e-05
  Iterations, force evaluations = 209 418

MPI task timing breakdown:
Section |  min time  |  avg time  |  max time  |%varavg| %total
---------------------------------------------------------------
Pair    | 0.63684    | 1.7575     | 2.2948     |  35.8 | 72.05
Neigh   | 0          | 0          | 0          |   0.0 |  0.00
Comm    | 0.038251   | 0.39793    | 1.2017     |  52.6 | 16.31
Output  | 0          | 0          | 0          |   0.0 |  0.00
Modify  | 2.5785e-05 | 0.0034472  | 0.0073684  |   2.8 |  0.14
Other   |            | 0.2804     |            |       | 11.49

Nlocal:        2776.45 ave        3957 max           0 min
Histogram: 8 4 4 0 4 12 8 2 28 34
Nghost:        3879.03 ave        5424 max         232 min
Histogram: 8 0 8 0 16 0 8 8 16 40
Neighs:        79213.4 ave      115324 max           0 min
Histogram: 8 4 4 0 10 6 8 8 24 32

Total # of neighbors = 8238189
Ave neighs/atom = 28.530426
Neighbor list builds = 0
Dangerous builds = 0
The dot product: -6.61080595308061e-08
The cos of the angle between the force vector and the displacement vector: -0.00516503176496199
The angle: 90.2959358370005
Setting atom values ...
  1 settings made for x
  1 settings made for y
  1 settings made for z
Setting up cg style minimization ...
  Unit style    : metal
  Current step  : 5800
Per MPI rank memory allocation (min/avg/max) = 5.441 | 5.816 | 6.074 Mbytes
Step PotEng KinEng TotEng v_fx v_fy v_fz 
    5800   -1152449.3            0   -1152449.3 -0.073602094   0.04566351  0.038165785 
    6000   -1152449.4            0   -1152449.4 -6.4828639e-06 -3.4205822e-06 2.0614676e-05 
    6025   -1152449.4            0   -1152449.4 4.2618784e-06 -1.1864175e-06 -5.5891092e-06 
Loop time of 2.64544 on 104 procs for 225 steps with 288751 atoms

99.9% CPU use with 104 MPI tasks x 1 OpenMP threads

Minimization stats:
  Stopping criterion = energy tolerance
  Energy initial, next-to-last, final = 
     -1152449.34881188  -1152449.35157215  -1152449.35157215
  Force two-norm initial, final = 0.23644086 4.4501656e-05
  Force max component initial, final = 0.093312368 1.1056605e-05
  Final line search alpha, max atom move = 1.0000000 1.1056605e-05
  Iterations, force evaluations = 225 450

MPI task timing breakdown:
Section |  min time  |  avg time  |  max time  |%varavg| %total
---------------------------------------------------------------
Pair    | 0.68295    | 1.8947     | 2.4929     |  37.0 | 71.62
Neigh   | 0          | 0          | 0          |   0.0 |  0.00
Comm    | 0.038511   | 0.43206    | 1.2816     |  53.9 | 16.33
Output  | 9.9689e-05 | 0.0001083  | 0.00026052 |   0.0 |  0.00
Modify  | 2.7792e-05 | 0.0036974  | 0.0079337  |   2.9 |  0.14
Other   |            | 0.3149     |            |       | 11.90

Nlocal:        2776.45 ave        3958 max           0 min
Histogram: 8 4 4 0 4 12 8 2 28 34
Nghost:        3879.03 ave        5424 max         232 min
Histogram: 8 0 8 0 16 0 8 8 16 40
Neighs:        79213.4 ave      115372 max           0 min
Histogram: 8 4 4 0 10 6 8 8 24 32

Total # of neighbors = 8238190
Ave neighs/atom = 28.530429
Neighbor list builds = 0
Dangerous builds = 0
The dot product: -4.03523038047001e-08
The cos of the angle between the force vector and the displacement vector: -0.00566104460756067
The angle: 90.3243556961252
Setting atom values ...
  1 settings made for x
  1 settings made for y
  1 settings made for z
Setting up cg style minimization ...
  Unit style    : metal
  Current step  : 6025
Per MPI rank memory allocation (min/avg/max) = 5.441 | 5.816 | 6.074 Mbytes
Step PotEng KinEng TotEng v_fx v_fy v_fz 
    6025   -1152449.3            0   -1152449.3 -0.073170515  0.045523943  0.035740174 
    6209   -1152449.3            0   -1152449.3 2.7542508e-06 -1.111078e-05 2.033094e-05 
Loop time of 2.14545 on 104 procs for 184 steps with 288751 atoms

99.9% CPU use with 104 MPI tasks x 1 OpenMP threads

Minimization stats:
  Stopping criterion = energy tolerance
  Energy initial, next-to-last, final = 
     -1152449.34723795  -1152449.34998388  -1152449.34998388
  Force two-norm initial, final = 0.23503161 0.00015166537
  Force max component initial, final = 0.096439921 2.0915253e-05
  Final line search alpha, max atom move = 1.0000000 2.0915253e-05
  Iterations, force evaluations = 184 368

MPI task timing breakdown:
Section |  min time  |  avg time  |  max time  |%varavg| %total
---------------------------------------------------------------
Pair    | 0.55888    | 1.5458     | 2.0207     |  33.5 | 72.05
Neigh   | 0          | 0          | 0          |   0.0 |  0.00
Comm    | 0.031269   | 0.34896    | 1.0515     |  49.3 | 16.27
Output  | 0          | 0          | 0          |   0.0 |  0.00
Modify  | 2.2617e-05 | 0.0030366  | 0.006518   |   2.6 |  0.14
Other   |            | 0.2476     |            |       | 11.54

Nlocal:        2776.45 ave        3960 max           0 min
Histogram: 8 4 4 0 4 12 8 2 28 34
Nghost:        3879.03 ave        5424 max         232 min
Histogram: 8 0 8 0 16 0 8 8 16 40
Neighs:        79213.4 ave      115429 max           0 min
Histogram: 8 4 4 0 10 6 8 8 24 32

Total # of neighbors = 8238196
Ave neighs/atom = 28.530450
Neighbor list builds = 0
Dangerous builds = 0
The dot product: 1.00904736301398e-08
The cos of the angle between the force vector and the displacement vector: 0.00043247349372219
The angle: 89.9752210932858
Setting atom values ...
  1 settings made for x
  1 settings made for y
  1 settings made for z
Setting up cg style minimization ...
  Unit style    : metal
  Current step  : 6209
Per MPI rank memory allocation (min/avg/max) = 5.441 | 5.816 | 6.074 Mbytes
Step PotEng KinEng TotEng v_fx v_fy v_fz 
    6209   -1152449.3            0   -1152449.3 -0.076895779  0.046883717  0.037772443 
    6373   -1152449.3            0   -1152449.3 -2.030547e-05 -1.0323168e-05 6.2095578e-05 
Loop time of 1.93073 on 104 procs for 164 steps with 288751 atoms

99.9% CPU use with 104 MPI tasks x 1 OpenMP threads

Minimization stats:
  Stopping criterion = energy tolerance
  Energy initial, next-to-last, final = 
     -1152449.34253651  -1152449.34533884  -1152449.34533884
  Force two-norm initial, final = 0.23602453 0.00027804073
  Force max component initial, final = 0.099379101 6.2095578e-05
  Final line search alpha, max atom move = 1.0000000 6.2095578e-05
  Iterations, force evaluations = 164 328

MPI task timing breakdown:
Section |  min time  |  avg time  |  max time  |%varavg| %total
---------------------------------------------------------------
Pair    | 0.50105    | 1.3818     | 1.8198     |  31.6 | 71.57
Neigh   | 0          | 0          | 0          |   0.0 |  0.00
Comm    | 0.028623   | 0.31627    | 0.93639    |  45.7 | 16.38
Output  | 0          | 0          | 0          |   0.0 |  0.00
Modify  | 2e-05      | 0.0027038  | 0.0057679  |   2.5 |  0.14
Other   |            | 0.2299     |            |       | 11.91

Nlocal:        2776.45 ave        3961 max           0 min
Histogram: 8 4 4 0 6 10 8 2 28 34
Nghost:        3879.03 ave        5429 max         232 min
Histogram: 8 0 8 0 16 0 8 8 16 40
Neighs:        79213.4 ave      115461 max           0 min
Histogram: 8 4 4 0 10 6 8 8 24 32

Total # of neighbors = 8238193
Ave neighs/atom = 28.530440
Neighbor list builds = 0
Dangerous builds = 0
The dot product: 3.3202356616376e-07
The cos of the angle between the force vector and the displacement vector: 0.00501987323596167
The angle: 89.7123812419232
Setting atom values ...
  1 settings made for x
  1 settings made for y
  1 settings made for z
Setting up cg style minimization ...
  Unit style    : metal
  Current step  : 6373
Per MPI rank memory allocation (min/avg/max) = 5.441 | 5.816 | 6.074 Mbytes
Step PotEng KinEng TotEng v_fx v_fy v_fz 
    6373   -1152449.3            0   -1152449.3  -0.09010634  0.051458986  0.049210001 
    6644   -1152449.4            0   -1152449.4 5.4947173e-06 1.2740604e-06 -1.3060361e-05 
Loop time of 3.18041 on 104 procs for 271 steps with 288751 atoms

99.9% CPU use with 104 MPI tasks x 1 OpenMP threads

Minimization stats:
  Stopping criterion = energy tolerance
  Energy initial, next-to-last, final = 
     -1152449.33566336  -1152449.36770889  -1152449.36770889
  Force two-norm initial, final = 0.24589147 4.0577766e-05
  Force max component initial, final = 0.10217556 1.3060361e-05
  Final line search alpha, max atom move = 1.0000000 1.3060361e-05
  Iterations, force evaluations = 271 542

MPI task timing breakdown:
Section |  min time  |  avg time  |  max time  |%varavg| %total
---------------------------------------------------------------
Pair    | 0.82558    | 2.2688     | 2.9667     |  40.5 | 71.34
Neigh   | 1.0214e-05 | 0.0029594  | 0.0043138  |   2.2 |  0.09
Comm    | 0.047219   | 0.5159     | 1.5386     |  59.2 | 16.22
Output  | 0          | 0          | 0          |   0.0 |  0.00
Modify  | 3.3326e-05 | 0.0044565  | 0.0095494  |   3.2 |  0.14
Other   |            | 0.3883     |            |       | 12.21

Nlocal:        2776.45 ave        3961 max           0 min
Histogram: 8 4 4 0 6 10 8 2 28 34
Nghost:        3879.03 ave        5426 max         232 min
Histogram: 8 0 8 0 16 0 8 8 16 40
Neighs:        79213.4 ave      115460 max           0 min
Histogram: 8 4 4 0 10 6 8 8 24 32

Total # of neighbors = 8238194
Ave neighs/atom = 28.530443
Neighbor list builds = 1
Dangerous builds = 0
The dot product: -1.46701635879795e-06
The cos of the angle between the force vector and the displacement vector: -0.103119879430442
The angle: 95.9188555524823
Setting atom values ...
  1 settings made for x
  1 settings made for y
  1 settings made for z
Setting up cg style minimization ...
  Unit style    : metal
  Current step  : 6644
Per MPI rank memory allocation (min/avg/max) = 5.441 | 5.816 | 6.074 Mbytes
Step PotEng KinEng TotEng v_fx v_fy v_fz 
    6644   -1152449.4            0   -1152449.4 -0.0025634168  0.015546531 -0.028103871 
    6799   -1152449.4            0   -1152449.4 -2.2678482e-05 1.5348659e-05 -3.0124319e-06 
Loop time of 1.81628 on 104 procs for 155 steps with 288751 atoms

99.9% CPU use with 104 MPI tasks x 1 OpenMP threads

Minimization stats:
  Stopping criterion = energy tolerance
  Energy initial, next-to-last, final = 
     -1152449.38054933  -1152449.38357881  -1152449.38357881
  Force two-norm initial, final = 0.22638897 0.00014814927
  Force max component initial, final = 0.098307495 2.2678482e-05
  Final line search alpha, max atom move = 1.0000000 2.2678482e-05
  Iterations, force evaluations = 155 310

MPI task timing breakdown:
Section |  min time  |  avg time  |  max time  |%varavg| %total
---------------------------------------------------------------
Pair    | 0.47028    | 1.3091     | 1.7166     |  30.8 | 72.08
Neigh   | 0          | 0          | 0          |   0.0 |  0.00
Comm    | 0.025383   | 0.29901    | 0.88822    |  44.8 | 16.46
Output  | 0          | 0          | 0          |   0.0 |  0.00
Modify  | 1.8848e-05 | 0.0025565  | 0.0054542  |   2.4 |  0.14
Other   |            | 0.2056     |            |       | 11.32

Nlocal:        2776.45 ave        3947 max           0 min
Histogram: 8 4 4 0 4 12 8 0 28 36
Nghost:        3879.11 ave        5424 max         232 min
Histogram: 8 0 8 0 16 0 8 8 16 40
Neighs:        79213.5 ave      114999 max           0 min
Histogram: 8 4 4 0 10 6 8 8 24 32

Total # of neighbors = 8238202
Ave neighs/atom = 28.530471
Neighbor list builds = 0
Dangerous builds = 0
The dot product: -1.91126691215466e-07
The cos of the angle between the force vector and the displacement vector: -0.006937598295739
The angle: 90.3974982909629
Setting atom values ...
  1 settings made for x
  1 settings made for y
  1 settings made for z
Setting up cg style minimization ...
  Unit style    : metal
  Current step  : 6799
Per MPI rank memory allocation (min/avg/max) = 5.441 | 5.816 | 6.074 Mbytes
Step PotEng KinEng TotEng v_fx v_fy v_fz 
    6799   -1152449.4            0   -1152449.4 -0.074495463  0.041092144  0.010586089 
    6977   -1152449.4            0   -1152449.4 2.6503155e-05 -6.0099717e-06 -2.1176887e-05 
Loop time of 2.06908 on 104 procs for 178 steps with 288751 atoms

99.9% CPU use with 104 MPI tasks x 1 OpenMP threads

Minimization stats:
  Stopping criterion = energy tolerance
  Energy initial, next-to-last, final = 
     -1152449.39486977  -1152449.39898593  -1152449.39898593
  Force two-norm initial, final = 0.24424589 0.00016990837
  Force max component initial, final = 0.10098019 2.8795574e-05
  Final line search alpha, max atom move = 1.0000000 2.8795574e-05
  Iterations, force evaluations = 178 356

MPI task timing breakdown:
Section |  min time  |  avg time  |  max time  |%varavg| %total
---------------------------------------------------------------
Pair    | 0.54158    | 1.4936     | 1.9525     |  33.0 | 72.18
Neigh   | 0          | 0          | 0          |   0.0 |  0.00
Comm    | 0.030043   | 0.3382     | 1.022      |  48.3 | 16.35
Output  | 0          | 0          | 0          |   0.0 |  0.00
Modify  | 2.1634e-05 | 0.0029366  | 0.0062748  |   2.6 |  0.14
Other   |            | 0.2344     |            |       | 11.33

Nlocal:        2776.45 ave        3948 max           0 min
Histogram: 8 4 4 0 4 12 8 0 28 36
Nghost:        3879.11 ave        5424 max         232 min
Histogram: 8 0 8 0 16 0 8 8 16 40
Neighs:        79213.5 ave      115055 max           0 min
Histogram: 8 4 4 0 10 6 8 8 24 32

Total # of neighbors = 8238207
Ave neighs/atom = 28.530488
Neighbor list builds = 0
Dangerous builds = 0
The dot product: -8.82805553446615e-07
The cos of the angle between the force vector and the displacement vector: -0.025623600010635
The angle: 91.4682848381285
Setting atom values ...
  1 settings made for x
  1 settings made for y
  1 settings made for z
Setting up cg style minimization ...
  Unit style    : metal
  Current step  : 6977
Per MPI rank memory allocation (min/avg/max) = 5.441 | 5.816 | 6.074 Mbytes
Step PotEng KinEng TotEng v_fx v_fy v_fz 
    6977   -1152449.4            0   -1152449.4 -0.049841532  0.031503906 -0.004852821 
    7000   -1152449.4            0   -1152449.4 0.00030854431 -0.00016440325 -3.1323782e-05 
    7118   -1152449.4            0   -1152449.4 1.4473137e-05 -6.480574e-06 -3.9366568e-06 
Loop time of 1.65759 on 104 procs for 141 steps with 288751 atoms

99.9% CPU use with 104 MPI tasks x 1 OpenMP threads

Minimization stats:
  Stopping criterion = energy tolerance
  Energy initial, next-to-last, final = 
     -1152449.41208416  -1152449.41508425  -1152449.41508425
  Force two-norm initial, final = 0.2380651 0.00011597663
  Force max component initial, final = 0.10735414 3.0377342e-05
  Final line search alpha, max atom move = 1.0000000 3.0377342e-05
  Iterations, force evaluations = 141 282

MPI task timing breakdown:
Section |  min time  |  avg time  |  max time  |%varavg| %total
---------------------------------------------------------------
Pair    | 0.43021    | 1.1921     | 1.5606     |  29.4 | 71.92
Neigh   | 0          | 0          | 0          |   0.0 |  0.00
Comm    | 0.02355    | 0.2709     | 0.81006    |  42.8 | 16.34
Output  | 0.00010378 | 0.00011163 | 0.0002036  |   0.0 |  0.01
Modify  | 1.7088e-05 | 0.0023219  | 0.0049855  |   2.3 |  0.14
Other   |            | 0.1921     |            |       | 11.59

Nlocal:        2776.45 ave        3948 max           0 min
Histogram: 8 4 4 0 4 12 8 0 28 36
Nghost:        3879.12 ave        5425 max         232 min
Histogram: 8 0 8 0 16 0 8 8 16 40
Neighs:        79213.5 ave      115052 max           0 min
Histogram: 8 4 4 0 10 6 8 8 24 32

Total # of neighbors = 8238203
Ave neighs/atom = 28.530474
Neighbor list builds = 0
Dangerous builds = 0
The dot product: -1.03191630564549e-07
The cos of the angle between the force vector and the displacement vector: -0.00631561803535145
The angle: 90.3618606640608
Setting atom values ...
  1 settings made for x
  1 settings made for y
  1 settings made for z
Setting up cg style minimization ...
  Unit style    : metal
  Current step  : 7118
Per MPI rank memory allocation (min/avg/max) = 5.441 | 5.816 | 6.074 Mbytes
Step PotEng KinEng TotEng v_fx v_fy v_fz 
    7118   -1152449.4            0   -1152449.4 -0.028001087  0.030314526 -0.028499899 
    7313   -1152449.4            0   -1152449.4 -1.6605211e-05 -6.8027702e-06 3.2742818e-05 
Loop time of 2.2625 on 104 procs for 195 steps with 288751 atoms

99.9% CPU use with 104 MPI tasks x 1 OpenMP threads

Minimization stats:
  Stopping criterion = energy tolerance
  Energy initial, next-to-last, final = 
     -1152449.42619918  -1152449.42886432  -1152449.42886432
  Force two-norm initial, final = 0.23358824 0.00010884196
  Force max component initial, final = 0.11251098 3.2742818e-05
  Final line search alpha, max atom move = 1.0000000 3.2742818e-05
  Iterations, force evaluations = 195 390

MPI task timing breakdown:
Section |  min time  |  avg time  |  max time  |%varavg| %total
---------------------------------------------------------------
Pair    | 0.59222    | 1.6376     | 2.134      |  34.5 | 72.38
Neigh   | 0          | 0          | 0          |   0.0 |  0.00
Comm    | 0.034396   | 0.36883    | 1.1112     |  50.8 | 16.30
Output  | 0          | 0          | 0          |   0.0 |  0.00
Modify  | 2.3631e-05 | 0.0032122  | 0.0068898  |   2.7 |  0.14
Other   |            | 0.2529     |            |       | 11.18

Nlocal:        2776.45 ave        3949 max           0 min
Histogram: 8 4 4 0 4 12 8 0 28 36
Nghost:        3879.12 ave        5425 max         232 min
Histogram: 8 0 8 0 16 0 8 8 16 40
Neighs:        79213.5 ave      115090 max           0 min
Histogram: 8 4 4 0 10 6 8 8 24 32

Total # of neighbors = 8238202
Ave neighs/atom = 28.530471
Neighbor list builds = 0
Dangerous builds = 0
The dot product: -4.74006597118301e-08
The cos of the angle between the force vector and the displacement vector: -0.00126951249786529
The angle: 90.0727377277051
Setting atom values ...
  1 settings made for x
  1 settings made for y
  1 settings made for z
Setting up cg style minimization ...
  Unit style    : metal
  Current step  : 7313
Per MPI rank memory allocation (min/avg/max) = 5.441 | 5.816 | 6.074 Mbytes
Step PotEng KinEng TotEng v_fx v_fy v_fz 
    7313   -1152449.4            0   -1152449.4 -0.015744407  0.028612295 -0.039461113 
    7531   -1152449.4            0   -1152449.4 -4.883707e-06 4.5693146e-06 -3.5678044e-06 
Loop time of 2.57495 on 104 procs for 218 steps with 288751 atoms

99.9% CPU use with 104 MPI tasks x 1 OpenMP threads

Minimization stats:
  Stopping criterion = energy tolerance
  Energy initial, next-to-last, final = 
     -1152449.43652998  -1152449.43935621  -1152449.43935621
  Force two-norm initial, final = 0.23920903 4.6423327e-05
  Force max component initial, final = 0.1168383 4.8837070e-06
  Final line search alpha, max atom move = 1.0000000 4.8837070e-06
  Iterations, force evaluations = 218 436

MPI task timing breakdown:
Section |  min time  |  avg time  |  max time  |%varavg| %total
---------------------------------------------------------------
Pair    | 0.66565    | 1.8364     | 2.4165     |  36.5 | 71.32
Neigh   | 0          | 0          | 0          |   0.0 |  0.00
Comm    | 0.036902   | 0.42274    | 1.2623     |  52.5 | 16.42
Output  | 0          | 0          | 0          |   0.0 |  0.00
Modify  | 2.7656e-05 | 0.0035936  | 0.0076652  |   2.8 |  0.14
Other   |            | 0.3122     |            |       | 12.12

Nlocal:        2776.45 ave        3951 max           0 min
Histogram: 8 4 4 0 4 12 8 0 30 34
Nghost:        3879.11 ave        5424 max         232 min
Histogram: 8 0 8 0 16 0 8 8 16 40
Neighs:        79213.5 ave      115174 max           0 min
Histogram: 8 4 4 0 10 6 8 8 24 32

Total # of neighbors = 8238207
Ave neighs/atom = 28.530488
Neighbor list builds = 0
Dangerous builds = 0
The dot product: 8.92447624225003e-09
The cos of the angle between the force vector and the displacement vector: 0.00117735044651134
The angle: 89.9325427728229
[...]
Other   |            | 0.3242     |            |       | 10.57

Nlocal:        2776.45 ave        3959 max           0 min
Histogram: 8 4 4 0 4 12 8 2 28 34
Nghost:        3879.03 ave        5427 max         232 min
Histogram: 8 0 8 0 16 0 8 8 16 40
Neighs:        79213.5 ave      115396 max           0 min
Histogram: 8 4 4 0 10 6 8 8 24 32

Total # of neighbors = 8238206
Ave neighs/atom = 28.530485
Neighbor list builds = 1
Dangerous builds = 0
The dot product: -4.65649900917569e-07
The cos of the angle between the force vector and the displacement vector: -0.0676058059810017
The angle: 93.8764841271825
Setting atom values ...
  1 settings made for x
  1 settings made for y
  1 settings made for z
Setting up cg style minimization ...
  Unit style    : metal
  Current step  : 6401
Per MPI rank memory allocation (min/avg/max) = 5.441 | 5.816 | 6.074 Mbytes
Step PotEng KinEng TotEng v_fx v_fy v_fz 
    6401   -1152449.4            0   -1152449.4 -0.0006770283  0.014917977 -0.029172324 
    6543   -1152449.4            0   -1152449.4 -1.4466873e-05 5.1305605e-06 7.6244844e-06 
Loop time of 1.65597 on 104 procs for 142 steps with 288751 atoms

99.9% CPU use with 104 MPI tasks x 1 OpenMP threads

Minimization stats:
  Stopping criterion = energy tolerance
  Energy initial, next-to-last, final = 
     -1152449.37518088  -1152449.37819449  -1152449.37819449
  Force two-norm initial, final = 0.2249672 0.00011127088
  Force max component initial, final = 0.098154782 2.8058323e-05
  Final line search alpha, max atom move = 1.0000000 2.8058323e-05
  Iterations, force evaluations = 142 284

MPI task timing breakdown:
Section |  min time  |  avg time  |  max time  |%varavg| %total
---------------------------------------------------------------
Pair    | 0.43015    | 1.1951     | 1.5596     |  29.5 | 72.17
Neigh   | 0          | 0          | 0          |   0.0 |  0.00
Comm    | 0.023387   | 0.28251    | 0.88842    |  43.1 | 17.06
Output  | 0          | 0          | 0          |   0.0 |  0.00
Modify  | 1.628e-05  | 0.0023425  | 0.0050362  |   2.3 |  0.14
Other   |            | 0.176      |            |       | 10.63

Nlocal:        2776.45 ave        3947 max           0 min
Histogram: 8 4 4 0 4 12 8 0 28 36
Nghost:        3879.11 ave        5424 max         232 min
Histogram: 8 0 8 0 16 0 8 8 16 40
Neighs:        79213.5 ave      114999 max           0 min
Histogram: 8 4 4 0 10 6 8 8 24 32

Total # of neighbors = 8238203
Ave neighs/atom = 28.530474
Neighbor list builds = 0
Dangerous builds = 0
The dot product: -1.71167206058415e-07
The cos of the angle between the force vector and the displacement vector: -0.00998699218804406
The angle: 90.5722220149122
Setting atom values ...
  1 settings made for x
  1 settings made for y
  1 settings made for z
Setting up cg style minimization ...
  Unit style    : metal
  Current step  : 6543
Per MPI rank memory allocation (min/avg/max) = 5.441 | 5.816 | 6.074 Mbytes
Step PotEng KinEng TotEng v_fx v_fy v_fz 
    6543   -1152449.4            0   -1152449.4 -0.074171725  0.041317812  0.010953528 
    6654   -1152449.4            0   -1152449.4 -3.5278897e-06 -1.5420582e-05 3.5741331e-05 
Loop time of 1.27919 on 104 procs for 111 steps with 288751 atoms

99.9% CPU use with 104 MPI tasks x 1 OpenMP threads

Minimization stats:
  Stopping criterion = energy tolerance
  Energy initial, next-to-last, final = 
     -1152449.38949739  -1152449.39322521  -1152449.39322521
  Force two-norm initial, final = 0.24237758 0.00020060065
  Force max component initial, final = 0.1010656 3.5741331e-05
  Final line search alpha, max atom move = 1.0000000 3.5741331e-05
  Iterations, force evaluations = 111 222

MPI task timing breakdown:
Section |  min time  |  avg time  |  max time  |%varavg| %total
---------------------------------------------------------------
Pair    | 0.33478    | 0.93227    | 1.2078     |  26.0 | 72.88
Neigh   | 0          | 0          | 0          |   0.0 |  0.00
Comm    | 0.018334   | 0.21234    | 0.65851    |  38.5 | 16.60
Output  | 0          | 0          | 0          |   0.0 |  0.00
Modify  | 1.276e-05  | 0.0018323  | 0.0039629  |   2.0 |  0.14
Other   |            | 0.1327     |            |       | 10.38

Nlocal:        2776.45 ave        3948 max           0 min
Histogram: 8 4 4 0 4 12 8 0 28 36
Nghost:        3879.11 ave        5424 max         232 min
Histogram: 8 0 8 0 16 0 8 8 16 40
Neighs:        79213.5 ave      115037 max           0 min
Histogram: 8 4 4 0 10 6 8 8 24 32

Total # of neighbors = 8238207
Ave neighs/atom = 28.530488
Neighbor list builds = 0
Dangerous builds = 0
The dot product: 1.94668264276738e-07
The cos of the angle between the force vector and the displacement vector: 0.0049805639335113
The angle: 89.7146335272055
Setting atom values ...
  1 settings made for x
  1 settings made for y
  1 settings made for z
Setting up cg style minimization ...
  Unit style    : metal
  Current step  : 6654
Per MPI rank memory allocation (min/avg/max) = 5.441 | 5.816 | 6.074 Mbytes
Step PotEng KinEng TotEng v_fx v_fy v_fz 
    6654   -1152449.4            0   -1152449.4  -0.06144746  0.034823217 0.0037218752 
    6769   -1152449.4            0   -1152449.4 3.8728876e-05 -2.7983756e-05 9.7917755e-06 
Loop time of 1.33737 on 104 procs for 115 steps with 288751 atoms

99.9% CPU use with 104 MPI tasks x 1 OpenMP threads

Minimization stats:
  Stopping criterion = energy tolerance
  Energy initial, next-to-last, final = 
      -1152449.4055959    -1152449.409384    -1152449.409384
  Force two-norm initial, final = 0.2430905 0.00021968903
  Force max component initial, final = 0.10435828 3.8728876e-05
  Final line search alpha, max atom move = 1.0000000 3.8728876e-05
  Iterations, force evaluations = 115 230

MPI task timing breakdown:
Section |  min time  |  avg time  |  max time  |%varavg| %total
---------------------------------------------------------------
Pair    | 0.34873    | 0.96873    | 1.2634     |  26.6 | 72.44
Neigh   | 0          | 0          | 0          |   0.0 |  0.00
Comm    | 0.019005   | 0.22348    | 0.69143    |  39.4 | 16.71
Output  | 0          | 0          | 0          |   0.0 |  0.00
Modify  | 1.3832e-05 | 0.0018935  | 0.004089   |   2.1 |  0.14
Other   |            | 0.1433     |            |       | 10.71

Nlocal:        2776.45 ave        3948 max           0 min
Histogram: 8 4 4 0 4 12 8 0 28 36
Nghost:        3879.11 ave        5424 max         232 min
Histogram: 8 0 8 0 16 0 8 8 16 40
Neighs:        79213.5 ave      115055 max           0 min
Histogram: 8 4 4 0 10 6 8 8 24 32

Total # of neighbors = 8238206
Ave neighs/atom = 28.530485
Neighbor list builds = 0
Dangerous builds = 0
The dot product: -6.34635744747807e-07
The cos of the angle between the force vector and the displacement vector: -0.0130117845607681
The angle: 90.7455413777798
Setting atom values ...
  1 settings made for x
  1 settings made for y
  1 settings made for z
Setting up cg style minimization ...
  Unit style    : metal
  Current step  : 6769
Per MPI rank memory allocation (min/avg/max) = 5.441 | 5.816 | 6.074 Mbytes
Step PotEng KinEng TotEng v_fx v_fy v_fz 
    6769   -1152449.4            0   -1152449.4 -0.032960645  0.030072076  -0.02220988 
    6944   -1152449.4            0   -1152449.4 -3.6648943e-05 2.1060005e-05 6.9478749e-08 
Loop time of 2.02915 on 104 procs for 175 steps with 288751 atoms

99.9% CPU use with 104 MPI tasks x 1 OpenMP threads

Minimization stats:
  Stopping criterion = energy tolerance
  Energy initial, next-to-last, final = 
     -1152449.42159181  -1152449.42421705  -1152449.42421705
  Force two-norm initial, final = 0.23227539 0.00017321859
  Force max component initial, final = 0.11089218 3.6648943e-05
  Final line search alpha, max atom move = 1.0000000 3.6648943e-05
  Iterations, force evaluations = 175 350

MPI task timing breakdown:
Section |  min time  |  avg time  |  max time  |%varavg| %total
---------------------------------------------------------------
Pair    | 0.52898    | 1.4691     | 1.913      |  32.7 | 72.40
Neigh   | 0          | 0          | 0          |   0.0 |  0.00
Comm    | 0.028757   | 0.33855    | 1.0607     |  48.3 | 16.68
Output  | 0          | 0          | 0          |   0.0 |  0.00
Modify  | 1.9934e-05 | 0.0028786  | 0.0061783  |   2.5 |  0.14
Other   |            | 0.2187     |            |       | 10.78

Nlocal:        2776.45 ave        3948 max           0 min
Histogram: 8 4 4 0 4 12 8 0 28 36
Nghost:        3879.12 ave        5425 max         232 min
Histogram: 8 0 8 0 16 0 8 8 16 40
Neighs:        79213.5 ave      115052 max           0 min
Histogram: 8 4 4 0 10 6 8 8 24 32

Total # of neighbors = 8238203
Ave neighs/atom = 28.530474
Neighbor list builds = 0
Dangerous builds = 0
The dot product: 6.65945130422942e-08
The cos of the angle between the force vector and the displacement vector: 0.00157549065299294
The angle: 89.9097309975773
Setting atom values ...
  1 settings made for x
  1 settings made for y
  1 settings made for z
Setting up cg style minimization ...
  Unit style    : metal
  Current step  : 6944
Per MPI rank memory allocation (min/avg/max) = 5.441 | 5.816 | 6.074 Mbytes
Step PotEng KinEng TotEng v_fx v_fy v_fz 
    6944   -1152449.4            0   -1152449.4 -0.019850331  0.029344685 -0.036106075 
    7000   -1152449.4            0   -1152449.4 0.00030846251 -0.00010560852 -0.00014317099 
    7142   -1152449.4            0   -1152449.4 1.8329038e-05 3.4977317e-07 -2.182287e-05 
Loop time of 2.29368 on 104 procs for 198 steps with 288751 atoms

99.9% CPU use with 104 MPI tasks x 1 OpenMP threads

Minimization stats:
  Stopping criterion = energy tolerance
  Energy initial, next-to-last, final = 
     -1152449.43316912  -1152449.43593985  -1152449.43593985
  Force two-norm initial, final = 0.23713669 0.00011142703
  Force max component initial, final = 0.11528961 2.1822870e-05
  Final line search alpha, max atom move = 1.0000000 2.1822870e-05
  Iterations, force evaluations = 198 396

MPI task timing breakdown:
Section |  min time  |  avg time  |  max time  |%varavg| %total
---------------------------------------------------------------
Pair    | 0.60035    | 1.6658     | 2.1674     |  34.8 | 72.63
Neigh   | 0          | 0          | 0          |   0.0 |  0.00
Comm    | 0.032476   | 0.3835     | 1.2041     |  51.7 | 16.72
Output  | 0.00010642 | 0.00011361 | 0.00028563 |   0.0 |  0.00
Modify  | 2.2345e-05 | 0.00326    | 0.0069992  |   2.7 |  0.14
Other   |            | 0.241      |            |       | 10.51

Nlocal:        2776.45 ave        3950 max           0 min
Histogram: 8 4 4 0 4 12 8 0 28 36
Nghost:        3879.11 ave        5424 max         232 min
Histogram: 8 0 8 0 16 0 8 8 16 40
Neighs:        79213.5 ave      115130 max           0 min
Histogram: 8 4 4 0 10 6 8 8 24 32

Total # of neighbors = 8238205
Ave neighs/atom = 28.530481
Neighbor list builds = 0
Dangerous builds = 0
The dot product: 4.59231684332709e-08
The cos of the angle between the force vector and the displacement vector: 0.00161127612696114
The angle: 89.907680638348
Setting atom values ...
  1 settings made for x
  1 settings made for y
  1 settings made for z
Setting up cg style minimization ...
  Unit style    : metal
  Current step  : 7142
Per MPI rank memory allocation (min/avg/max) = 5.441 | 5.816 | 6.074 Mbytes
Step PotEng KinEng TotEng v_fx v_fy v_fz 
    7142   -1152449.4            0   -1152449.4 -0.0098419784  0.027632034 -0.044480081 
    7380   -1152449.4            0   -1152449.4 4.6912205e-06 -1.8678499e-06 -1.656822e-06 
Loop time of 2.74991 on 104 procs for 238 steps with 288751 atoms

99.9% CPU use with 104 MPI tasks x 1 OpenMP threads

Minimization stats:
  Stopping criterion = energy tolerance
  Energy initial, next-to-last, final = 
     -1152449.44130735  -1152449.44422678  -1152449.44422678
  Force two-norm initial, final = 0.24301233 2.1111392e-05
  Force max component initial, final = 0.11942955 4.6912205e-06
  Final line search alpha, max atom move = 1.0000000 4.6912205e-06
  Iterations, force evaluations = 238 476

MPI task timing breakdown:
Section |  min time  |  avg time  |  max time  |%varavg| %total
---------------------------------------------------------------
Pair    | 0.72076    | 2.0012     | 2.5931     |  38.1 | 72.77
Neigh   | 0          | 0          | 0          |   0.0 |  0.00
Comm    | 0.039148   | 0.46359    | 1.4689     |  56.7 | 16.86
Output  | 0          | 0          | 0          |   0.0 |  0.00
Modify  | 2.7512e-05 | 0.003916   | 0.0084049  |   3.0 |  0.14
Other   |            | 0.2813     |            |       | 10.23

Nlocal:        2776.45 ave        3952 max           0 min
Histogram: 8 4 4 0 4 12 8 0 30 34
Nghost:        3879.03 ave        5424 max         232 min
Histogram: 8 0 8 0 16 0 8 8 16 40
Neighs:        79213.5 ave      115198 max           0 min
Histogram: 8 4 4 0 10 6 8 8 24 32

Total # of neighbors = 8238207
Ave neighs/atom = 28.530488
Neighbor list builds = 0
Dangerous builds = 0
The dot product: 7.89762321661557e-09
The cos of the angle between the force vector and the displacement vector: 0.00148611612389879
The angle: 89.9148517868919
Setting atom values ...
  1 settings made for x
  1 settings made for y
  1 settings made for z
Setting up cg style minimization ...
  Unit style    : metal
  Current step  : 7380
Per MPI rank memory allocation (min/avg/max) = 5.441 | 5.816 | 6.074 Mbytes
Step PotEng KinEng TotEng v_fx v_fy v_fz 
    7380   -1152449.4            0   -1152449.4 -0.0037662399   0.02658391 -0.049746381 
    7614   -1152449.4            0   -1152449.4 2.0431136e-06 1.5244836e-06 -5.4924105e-06 
Loop time of 2.73278 on 104 procs for 234 steps with 288751 atoms

99.9% CPU use with 104 MPI tasks x 1 OpenMP threads

Minimization stats:
  Stopping criterion = energy tolerance
  Energy initial, next-to-last, final = 
     -1152449.44597691  -1152449.44900767  -1152449.44900767
  Force two-norm initial, final = 0.24793347 2.6882077e-05
  Force max component initial, final = 0.12332079 5.4924105e-06
  Final line search alpha, max atom move = 1.0000000 5.4924105e-06
  Iterations, force evaluations = 234 468

MPI task timing breakdown:
Section |  min time  |  avg time  |  max time  |%varavg| %total
---------------------------------------------------------------
Pair    | 0.70249    | 1.9627     | 2.5852     |  37.9 | 71.82
Neigh   | 0          | 0          | 0          |   0.0 |  0.00
Comm    | 0.038093   | 0.45738    | 1.4065     |  54.9 | 16.74
Output  | 0          | 0          | 0          |   0.0 |  0.00
Modify  | 2.6669e-05 | 0.0038485  | 0.0082608  |   2.9 |  0.14
Other   |            | 0.3089     |            |       | 11.30

Nlocal:        2776.45 ave        3954 max           0 min
Histogram: 8 4 4 0 4 12 8 0 30 34
Nghost:        3879.03 ave        5424 max         232 min
Histogram: 8 0 8 0 16 0 8 8 16 40
Neighs:        79213.5 ave      115267 max           0 min
Histogram: 8 4 4 0 10 6 8 8 24 32

Total # of neighbors = 8238204
Ave neighs/atom = 28.530478
Neighbor list builds = 0
Dangerous builds = 0
The dot product: 1.98237994280085e-08
The cos of the angle between the force vector and the displacement vector: 0.00327386999578385
The angle: 89.81242073148
Setting atom values ...
  1 settings made for x
  1 settings made for y
  1 settings made for z
Setting up cg style minimization ...
  Unit style    : metal
  Current step  : 7614
Per MPI rank memory allocation (min/avg/max) = 5.441 | 5.816 | 6.074 Mbytes
Step PotEng KinEng TotEng v_fx v_fy v_fz 
    7614   -1152449.4            0   -1152449.4 -0.0025749526  0.026049907 -0.050438304 
    7893   -1152449.5            0   -1152449.5 -1.8277514e-07 5.3309362e-08 1.064774e-07 
Loop time of 3.2476 on 104 procs for 279 steps with 288751 atoms

99.9% CPU use with 104 MPI tasks x 1 OpenMP threads

Minimization stats:
  Stopping criterion = energy tolerance
  Energy initial, next-to-last, final = 
     -1152449.44724947  -1152449.45032469  -1152449.45032469
  Force two-norm initial, final = 0.25009474 2.4561040e-06
  Force max component initial, final = 0.12702279 2.5253817e-07
  Final line search alpha, max atom move = 1.0000000 2.5253817e-07
  Iterations, force evaluations = 279 558

MPI task timing breakdown:
Section |  min time  |  avg time  |  max time  |%varavg| %total
---------------------------------------------------------------
Pair    | 0.8397     | 2.3471     | 3.0531     |  41.4 | 72.27
Neigh   | 0          | 0          | 0          |   0.0 |  0.00
Comm    | 0.045865   | 0.54408    | 1.7086     |  60.8 | 16.75
Output  | 0          | 0          | 0          |   0.0 |  0.00
Modify  | 3.178e-05  | 0.0045977  | 0.0099091  |   3.2 |  0.14
Other   |            | 0.3518     |            |       | 10.83

Nlocal:        2776.45 ave        3956 max           0 min
Histogram: 8 4 4 0 4 12 8 0 30 34
Nghost:        3879.03 ave        5424 max         232 min
Histogram: 8 0 8 0 16 0 8 8 16 40
Neighs:        79213.5 ave      115317 max           0 min
Histogram: 8 4 4 0 10 6 8 8 24 32

Total # of neighbors = 8238199
Ave neighs/atom = 28.530461
Neighbor list builds = 0
Dangerous builds = 0
The dot product: -6.38758334162232e-10
The cos of the angle between the force vector and the displacement vector: -0.00292817234000202
The angle: 90.1677721565216
OMP_NUM_THREADS environment is not set. Defaulting to 1 thread. (../comm.cpp:94)
  using 1 OpenMP thread(s) per MPI task
Reading data file ...
  orthogonal box = (-122.39241 -121.13707 -37.090501) to (122.39241 121.13707 37.090501)
  13 by 4 by 2 MPI processor grid
  reading atoms ...
  288751 atoms
  read_data CPU = 0.350 seconds
199981 atoms in group inner
88770 atoms in group outer
Setting atom values ...
  1 settings made for x
  1 settings made for y
  1 settings made for z
Neighbor list info ...
  update every 1 steps, delay 0 steps, check yes
  max neighbors/atom: 2000, page size: 100000
  master list distance cutoff = 5.6
  ghost atom cutoff = 5.6
  binsize = 2.8, bins = 88 87 27
  1 neighbor lists, perpetual/occasional/extra = 1 0 0
  (1) pair eam/alloy, perpetual
      attributes: half, newton on
      pair build: half/bin/atomonly/newton
      stencil: half/bin/3d/newton
      bin: standard
Setting up cg style minimization ...
  Unit style    : metal
  Current step  : 0
Per MPI rank memory allocation (min/avg/max) = 5.441 | 5.816 | 6.074 Mbytes
Step Temp E_pair E_mol TotEng Press 
       0            0   -1152447.8            0   -1152447.8   -524.41224 
     196            0   -1152449.5            0   -1152449.5   -526.37357 
Loop time of 2.28413 on 104 procs for 196 steps with 288751 atoms

99.9% CPU use with 104 MPI tasks x 1 OpenMP threads

Minimization stats:
  Stopping criterion = energy tolerance
  Energy initial, next-to-last, final = 
     -1152447.84803725  -1152449.45035287  -1152449.45035287
  Force two-norm initial, final = 9.6879620 2.0299309e-05
  Force max component initial, final = 4.9509049 7.6470468e-06
  Final line search alpha, max atom move = 1.0000000 7.6470468e-06
  Iterations, force evaluations = 196 391

MPI task timing breakdown:
Section |  min time  |  avg time  |  max time  |%varavg| %total
---------------------------------------------------------------
Pair    | 0.60482    | 1.6453     | 2.15       |  34.1 | 72.03
Neigh   | 2.0257e-05 | 0.0059066  | 0.0085327  |   3.2 |  0.26
Comm    | 0.035942   | 0.37061    | 1.1009     |  50.9 | 16.23
Output  | 0          | 0          | 0          |   0.0 |  0.00
Modify  | 2.1491e-05 | 0.0020925  | 0.0053868  |   2.9 |  0.09
Other   |            | 0.2602     |            |       | 11.39

Nlocal:        2776.45 ave        3957 max           0 min
Histogram: 8 4 4 0 4 12 8 2 28 34
Nghost:        3879.03 ave        5424 max         232 min
Histogram: 8 0 8 0 16 0 8 8 16 40
Neighs:        79213.6 ave      115345 max           0 min
Histogram: 8 4 4 0 10 6 8 8 24 32

Total # of neighbors = 8238213
Ave neighs/atom = 28.530509
Neighbor list builds = 2
Dangerous builds = 0
