LAMMPS (29 Oct 2020)
OMP_NUM_THREADS environment is not set. Defaulting to 1 thread. (../comm.cpp:94)
  using 1 OpenMP thread(s) per MPI task
OMP_NUM_THREADS environment is not set. Defaulting to 1 thread. (../comm.cpp:94)
  using 1 OpenMP thread(s) per MPI task
Reading data file ...
  orthogonal box = (-122.39241 -121.13707 -37.090501) to (122.39241 121.13707 37.090501)
  13 by 4 by 2 MPI processor grid
  reading atoms ...
  288751 atoms
  read_data CPU = 0.397 seconds
199981 atoms in group inner
88770 atoms in group outer
1 atoms in group carbon
Neighbor list info ...
  update every 1 steps, delay 0 steps, check yes
  max neighbors/atom: 2000, page size: 100000
  master list distance cutoff = 5.6
  ghost atom cutoff = 5.6
  binsize = 2.8, bins = 88 87 27
  1 neighbor lists, perpetual/occasional/extra = 1 0 0
  (1) pair eam/alloy, perpetual
      attributes: half, newton on
      pair build: half/bin/atomonly/newton
      stencil: half/bin/3d/newton
      bin: standard
Setting up cg style minimization ...
  Unit style    : metal
  Current step  : 0
Per MPI rank memory allocation (min/avg/max) = 5.441 | 5.816 | 6.074 Mbytes
Step v_fx v_fy v_fz PotEng KinEng TotEng 
       0  -0.22911567   -30.501461   -51.076156   -1152433.1            0   -1152433.1 
     167   7.4911e-06 -8.1277852e-06 -2.588091e-05   -1152449.5            0   -1152449.5 
Loop time of 1.9507 on 104 procs for 167 steps with 288751 atoms

99.8% CPU use with 104 MPI tasks x 1 OpenMP threads

Minimization stats:
  Stopping criterion = energy tolerance
  Energy initial, next-to-last, final = 
     -1152433.07614888  -1152449.45035271  -1152449.45035271
  Force two-norm initial, final = 89.021138 0.00011852515
  Force max component initial, final = 58.139987 2.5880910e-05
  Final line search alpha, max atom move = 1.0000000 2.5880910e-05
  Iterations, force evaluations = 167 326

MPI task timing breakdown:
Section |  min time  |  avg time  |  max time  |%varavg| %total
---------------------------------------------------------------
Pair    | 0.52141    | 1.3816     | 1.7854     |  31.0 | 70.83
Neigh   | 5.157e-05  | 0.014715   | 0.021278   |   5.0 |  0.75
Comm    | 0.031376   | 0.31677    | 0.9417     |  46.0 | 16.24
Output  | 0          | 0          | 0          |   0.0 |  0.00
Modify  | 1.8232e-05 | 0.0017657  | 0.0045049  |   2.6 |  0.09
Other   |            | 0.2358     |            |       | 12.09

Nlocal:        2776.45 ave        3961 max           0 min
Histogram: 8 4 4 0 6 10 8 2 28 34
Nghost:        3879.01 ave        5424 max         232 min
Histogram: 8 0 8 0 16 0 8 8 16 40
Neighs:        79213.5 ave      115455 max           0 min
Histogram: 8 4 4 0 10 6 8 8 24 32

Total # of neighbors = 8238208
Ave neighs/atom = 28.530492
Neighbor list builds = 5
Dangerous builds = 0
Setting atom values ...
  1 settings made for x
  1 settings made for y
  1 settings made for z
Setting up cg style minimization ...
  Unit style    : metal
  Current step  : 167
Per MPI rank memory allocation (min/avg/max) = 5.441 | 5.816 | 6.074 Mbytes
Step PotEng KinEng TotEng v_fx v_fy v_fz 
     167   -1152449.4            0   -1152449.4 -0.017402171 0.0075605825   -0.0192501 
     343   -1152449.5            0   -1152449.5 -1.6015814e-06 7.4307143e-07 -1.6208104e-06 
Loop time of 2.07028 on 104 procs for 176 steps with 288751 atoms

99.9% CPU use with 104 MPI tasks x 1 OpenMP threads

Minimization stats:
  Stopping criterion = energy tolerance
  Energy initial, next-to-last, final = 
     -1152449.44953734   -1152449.4500298   -1152449.4500298
  Force two-norm initial, final = 0.10020874 9.1010457e-05
  Force max component initial, final = 0.050907117 1.0465839e-05
  Final line search alpha, max atom move = 1.0000000 1.0465839e-05
  Iterations, force evaluations = 176 352

MPI task timing breakdown:
Section |  min time  |  avg time  |  max time  |%varavg| %total
---------------------------------------------------------------
Pair    | 0.53531    | 1.4938     | 1.9278     |  33.0 | 72.16
Neigh   | 0          | 0          | 0          |   0.0 |  0.00
Comm    | 0.032837   | 0.34152    | 1.0257     |  48.1 | 16.50
Output  | 0          | 0          | 0          |   0.0 |  0.00
Modify  | 2.0894e-05 | 0.002915   | 0.006158   |   2.5 |  0.14
Other   |            | 0.232      |            |       | 11.21

Nlocal:        2776.45 ave        3961 max           0 min
Histogram: 8 4 4 0 6 10 8 2 28 34
Nghost:        3879.01 ave        5424 max         232 min
Histogram: 8 0 8 0 16 0 8 8 16 40
Neighs:        79213.4 ave      115457 max           0 min
Histogram: 8 4 4 0 10 6 8 8 24 32

Total # of neighbors = 8238197
Ave neighs/atom = 28.530454
Neighbor list builds = 0
Dangerous builds = 0
Setting atom values ...
  1 settings made for x
  1 settings made for y
  1 settings made for z
Setting up cg style minimization ...
  Unit style    : metal
  Current step  : 343
Per MPI rank memory allocation (min/avg/max) = 5.441 | 5.816 | 6.074 Mbytes
Step PotEng KinEng TotEng v_fx v_fy v_fz 
     343   -1152449.4            0   -1152449.4 -0.025151284  0.016331715  -0.02459879 
     490   -1152449.4            0   -1152449.4 1.0453334e-06 2.6505287e-06 1.5993654e-05 
Loop time of 1.72204 on 104 procs for 147 steps with 288751 atoms

99.9% CPU use with 104 MPI tasks x 1 OpenMP threads

Minimization stats:
  Stopping criterion = energy tolerance
  Energy initial, next-to-last, final = 
      -1152449.4468402  -1152449.44812641  -1152449.44812641
  Force two-norm initial, final = 0.16028404 0.0001109793
  Force max component initial, final = 0.090279776 1.5993654e-05
  Final line search alpha, max atom move = 1.0000000 1.5993654e-05
  Iterations, force evaluations = 147 294

MPI task timing breakdown:
Section |  min time  |  avg time  |  max time  |%varavg| %total
---------------------------------------------------------------
Pair    | 0.44886    | 1.2377     | 1.6065     |  30.0 | 71.87
Neigh   | 0          | 0          | 0          |   0.0 |  0.00
Comm    | 0.025684   | 0.28205    | 0.84246    |  44.1 | 16.38
Output  | 0          | 0          | 0          |   0.0 |  0.00
Modify  | 1.7453e-05 | 0.0024286  | 0.0051539  |   2.3 |  0.14
Other   |            | 0.1999     |            |       | 11.61

Nlocal:        2776.45 ave        3961 max           0 min
Histogram: 8 4 4 0 6 10 8 2 28 34
Nghost:        3879.01 ave        5424 max         232 min
Histogram: 8 0 8 0 16 0 8 8 16 40
Neighs:        79213.4 ave      115457 max           0 min
Histogram: 8 4 4 0 10 6 8 8 24 32

Total # of neighbors = 8238196
Ave neighs/atom = 28.530450
Neighbor list builds = 0
Dangerous builds = 0
The dot product: -2.36320633394079e-08
Setting atom values ...
  1 settings made for x
  1 settings made for y
  1 settings made for z
Setting up cg style minimization ...
  Unit style    : metal
  Current step  : 490
Per MPI rank memory allocation (min/avg/max) = 5.441 | 5.816 | 6.074 Mbytes
Step PotEng KinEng TotEng v_fx v_fy v_fz 
     490   -1152449.4            0   -1152449.4 -0.021966506  0.018255334 -0.015870796 
     644   -1152449.4            0   -1152449.4 -9.2941957e-06 7.6646574e-06 -7.0766617e-06 
Loop time of 1.83825 on 104 procs for 154 steps with 288751 atoms

99.9% CPU use with 104 MPI tasks x 1 OpenMP threads

Minimization stats:
  Stopping criterion = energy tolerance
  Energy initial, next-to-last, final = 
     -1152449.44335673  -1152449.44460513  -1152449.44460513
  Force two-norm initial, final = 0.15622307 6.0907598e-05
  Force max component initial, final = 0.094793223 9.2941957e-06
  Final line search alpha, max atom move = 1.0000000 9.2941957e-06
  Iterations, force evaluations = 154 308

MPI task timing breakdown:
Section |  min time  |  avg time  |  max time  |%varavg| %total
---------------------------------------------------------------
Pair    | 0.47216    | 1.3085     | 1.7004     |  30.8 | 71.18
Neigh   | 0          | 0          | 0          |   0.0 |  0.00
Comm    | 0.032848   | 0.30149    | 0.89611    |  44.5 | 16.40
Output  | 0          | 0          | 0          |   0.0 |  0.00
Modify  | 2.109e-05  | 0.002562   | 0.005453   |   2.4 |  0.14
Other   |            | 0.2257     |            |       | 12.28

Nlocal:        2776.45 ave        3961 max           0 min
Histogram: 8 4 4 0 6 10 8 2 28 34
Nghost:        3879.01 ave        5424 max         232 min
Histogram: 8 0 8 0 16 0 8 8 16 40
Neighs:        79213.4 ave      115457 max           0 min
Histogram: 8 4 4 0 10 6 8 8 24 32

Total # of neighbors = 8238195
Ave neighs/atom = 28.530447
Neighbor list builds = 0
Dangerous builds = 0
The dot product: 2.93248371884464e-08
Setting atom values ...
  1 settings made for x
  1 settings made for y
  1 settings made for z
Setting up cg style minimization ...
  Unit style    : metal
  Current step  : 644
Per MPI rank memory allocation (min/avg/max) = 5.441 | 5.816 | 6.074 Mbytes
Step PotEng KinEng TotEng v_fx v_fy v_fz 
     644   -1152449.4            0   -1152449.4 -0.019194908  0.018416628 -0.0082585715 
     801   -1152449.4            0   -1152449.4 4.0742254e-06 -3.072966e-06 7.5250683e-06 
Loop time of 1.81941 on 104 procs for 157 steps with 288751 atoms

99.9% CPU use with 104 MPI tasks x 1 OpenMP threads

Minimization stats:
  Stopping criterion = energy tolerance
  Energy initial, next-to-last, final = 
     -1152449.43830528  -1152449.43953281  -1152449.43953281
  Force two-norm initial, final = 0.15370078 6.0132978e-05
  Force max component initial, final = 0.098440468 9.3788990e-06
  Final line search alpha, max atom move = 1.0000000 9.3788990e-06
  Iterations, force evaluations = 157 314

MPI task timing breakdown:
Section |  min time  |  avg time  |  max time  |%varavg| %total
---------------------------------------------------------------
Pair    | 0.47887    | 1.32       | 1.712      |  30.9 | 72.55
Neigh   | 0          | 0          | 0          |   0.0 |  0.00
Comm    | 0.027861   | 0.29762    | 0.89597    |  45.9 | 16.36
Output  | 0          | 0          | 0          |   0.0 |  0.00
Modify  | 1.8859e-05 | 0.0025935  | 0.0055112  |   2.4 |  0.14
Other   |            | 0.1992     |            |       | 10.95

Nlocal:        2776.45 ave        3961 max           0 min
Histogram: 8 4 4 0 6 10 8 2 28 34
Nghost:        3879.01 ave        5424 max         232 min
Histogram: 8 0 8 0 16 0 8 8 16 40
Neighs:        79213.4 ave      115457 max           0 min
Histogram: 8 4 4 0 10 6 8 8 24 32

Total # of neighbors = 8238194
Ave neighs/atom = 28.530443
Neighbor list builds = 0
Dangerous builds = 0
The dot product: -1.0223568981691e-08
Setting atom values ...
  1 settings made for x
  1 settings made for y
  1 settings made for z
Setting up cg style minimization ...
  Unit style    : metal
  Current step  : 801
Per MPI rank memory allocation (min/avg/max) = 5.441 | 5.816 | 6.074 Mbytes
Step PotEng KinEng TotEng v_fx v_fy v_fz 
     801   -1152449.4            0   -1152449.4 -0.019002805  0.020155441 -0.0025699411 
     919   -1152449.4            0   -1152449.4 -1.6478218e-05 1.1755406e-05 -4.0639224e-05 
Loop time of 1.41184 on 104 procs for 118 steps with 288751 atoms

99.9% CPU use with 104 MPI tasks x 1 OpenMP threads

Minimization stats:
  Stopping criterion = energy tolerance
  Energy initial, next-to-last, final = 
      -1152449.4317235  -1152449.43293545  -1152449.43293545
  Force two-norm initial, final = 0.15255133 0.00017715806
  Force max component initial, final = 0.10151193 4.0639224e-05
  Final line search alpha, max atom move = 1.0000000 4.0639224e-05
  Iterations, force evaluations = 118 236

MPI task timing breakdown:
Section |  min time  |  avg time  |  max time  |%varavg| %total
---------------------------------------------------------------
Pair    | 0.36139    | 1.0034     | 1.307      |  27.0 | 71.07
Neigh   | 0          | 0          | 0          |   0.0 |  0.00
Comm    | 0.021787   | 0.23032    | 0.67987    |  38.8 | 16.31
Output  | 0          | 0          | 0          |   0.0 |  0.00
Modify  | 1.445e-05  | 0.0019554  | 0.0041854  |   2.1 |  0.14
Other   |            | 0.1762     |            |       | 12.48

Nlocal:        2776.45 ave        3961 max           0 min
Histogram: 8 4 4 0 6 10 8 2 28 34
Nghost:        3879.01 ave        5424 max         232 min
Histogram: 8 0 8 0 16 0 8 8 16 40
Neighs:        79213.4 ave      115457 max           0 min
Histogram: 8 4 4 0 10 6 8 8 24 32

Total # of neighbors = 8238192
Ave neighs/atom = 28.530436
Neighbor list builds = 0
Dangerous builds = 0
The dot product: 2.08033211529384e-08
Setting atom values ...
  1 settings made for x
  1 settings made for y
  1 settings made for z
Setting up cg style minimization ...
  Unit style    : metal
  Current step  : 919
Per MPI rank memory allocation (min/avg/max) = 5.441 | 5.816 | 6.074 Mbytes
Step PotEng KinEng TotEng v_fx v_fy v_fz 
     919   -1152449.4            0   -1152449.4 -0.020677009  0.023941164 0.0018350971 
    1000   -1152449.4            0   -1152449.4 0.00011544172 -0.00012668007 3.1892249e-05 
    1068   -1152449.4            0   -1152449.4 1.6665994e-05 -1.7887333e-05 7.0236825e-06 
Loop time of 1.74173 on 104 procs for 149 steps with 288751 atoms

99.9% CPU use with 104 MPI tasks x 1 OpenMP threads

Minimization stats:
  Stopping criterion = energy tolerance
  Energy initial, next-to-last, final = 
     -1152449.42366276  -1152449.42487573  -1152449.42487573
  Force two-norm initial, final = 0.15256195 0.00017184247
  Force max component initial, final = 0.10433473 2.2636457e-05
  Final line search alpha, max atom move = 1.0000000 2.2636457e-05
  Iterations, force evaluations = 149 298

MPI task timing breakdown:
Section |  min time  |  avg time  |  max time  |%varavg| %total
---------------------------------------------------------------
Pair    | 0.45489    | 1.2526     | 1.627      |  30.0 | 71.91
Neigh   | 0          | 0          | 0          |   0.0 |  0.00
Comm    | 0.02953    | 0.28281    | 0.84669    |  44.4 | 16.24
Output  | 0.000252   | 0.00026102 | 0.00038664 |   0.0 |  0.01
Modify  | 1.9269e-05 | 0.0024666  | 0.005244   |   2.3 |  0.14
Other   |            | 0.2036     |            |       | 11.69

Nlocal:        2776.45 ave        3961 max           0 min
Histogram: 8 4 4 0 6 10 8 2 28 34
Nghost:        3879.01 ave        5424 max         232 min
Histogram: 8 0 8 0 16 0 8 8 16 40
Neighs:        79213.4 ave      115457 max           0 min
Histogram: 8 4 4 0 10 6 8 8 24 32

Total # of neighbors = 8238190
Ave neighs/atom = 28.530429
Neighbor list builds = 0
Dangerous builds = 0
The dot product: -8.96062022444238e-08
Setting atom values ...
  1 settings made for x
  1 settings made for y
  1 settings made for z
Setting up cg style minimization ...
  Unit style    : metal
  Current step  : 1068
Per MPI rank memory allocation (min/avg/max) = 5.441 | 5.816 | 6.074 Mbytes
Step PotEng KinEng TotEng v_fx v_fy v_fz 
    1068   -1152449.4            0   -1152449.4 -0.024363081  0.031058778 0.0055803892 
    1197   -1152449.4            0   -1152449.4 -8.6833064e-06 1.748305e-05 3.5332283e-05 
Loop time of 1.49278 on 104 procs for 129 steps with 288751 atoms

99.9% CPU use with 104 MPI tasks x 1 OpenMP threads

Minimization stats:
  Stopping criterion = energy tolerance
  Energy initial, next-to-last, final = 
     -1152449.41422816  -1152449.41548421  -1152449.41548421
  Force two-norm initial, final = 0.15403859 0.00019984296
  Force max component initial, final = 0.10708882 4.3729534e-05
  Final line search alpha, max atom move = 1.0000000 4.3729534e-05
  Iterations, force evaluations = 129 258

MPI task timing breakdown:
Section |  min time  |  avg time  |  max time  |%varavg| %total
---------------------------------------------------------------
Pair    | 0.39455    | 1.0898     | 1.4064     |  28.0 | 73.01
Neigh   | 0          | 0          | 0          |   0.0 |  0.00
Comm    | 0.023783   | 0.24424    | 0.74124    |  41.8 | 16.36
Output  | 0          | 0          | 0          |   0.0 |  0.00
Modify  | 1.6117e-05 | 0.002139   | 0.0046292  |   2.2 |  0.14
Other   |            | 0.1566     |            |       | 10.49

Nlocal:        2776.45 ave        3961 max           0 min
Histogram: 8 4 4 0 6 10 8 2 28 34
Nghost:        3879.01 ave        5424 max         232 min
Histogram: 8 0 8 0 16 0 8 8 16 40
Neighs:        79213.4 ave      115457 max           0 min
Histogram: 8 4 4 0 10 6 8 8 24 32

Total # of neighbors = 8238191
Ave neighs/atom = 28.530433
Neighbor list builds = 0
Dangerous builds = 0
The dot product: 1.98101025983377e-07
Setting atom values ...
  1 settings made for x
  1 settings made for y
  1 settings made for z
Setting up cg style minimization ...
  Unit style    : metal
  Current step  : 1197
Per MPI rank memory allocation (min/avg/max) = 5.441 | 5.816 | 6.074 Mbytes
Step PotEng KinEng TotEng v_fx v_fy v_fz 
    1197   -1152449.4            0   -1152449.4 -0.026545701  0.038309483 0.0079513179 
    1370   -1152449.4            0   -1152449.4 1.2006574e-05 -1.2045097e-05 1.9411312e-05 
Loop time of 2.02169 on 104 procs for 173 steps with 288751 atoms

99.9% CPU use with 104 MPI tasks x 1 OpenMP threads

Minimization stats:
  Stopping criterion = energy tolerance
  Energy initial, next-to-last, final = 
     -1152449.40356121  -1152449.40487763  -1152449.40487763
  Force two-norm initial, final = 0.1557618 0.00014061435
  Force max component initial, final = 0.10971398 2.2556697e-05
  Final line search alpha, max atom move = 1.0000000 2.2556697e-05
  Iterations, force evaluations = 173 346

MPI task timing breakdown:
Section |  min time  |  avg time  |  max time  |%varavg| %total
---------------------------------------------------------------
Pair    | 0.52621    | 1.4561     | 1.8896     |  32.5 | 72.02
Neigh   | 0          | 0          | 0          |   0.0 |  0.00
Comm    | 0.029919   | 0.3302     | 0.98791    |  47.8 | 16.33
Output  | 0          | 0          | 0          |   0.0 |  0.00
Modify  | 2.044e-05  | 0.0028592  | 0.0060709  |   2.5 |  0.14
Other   |            | 0.2325     |            |       | 11.50

Nlocal:        2776.45 ave        3960 max           0 min
Histogram: 8 4 4 0 4 12 8 2 28 34
Nghost:        3879.01 ave        5424 max         232 min
Histogram: 8 0 8 0 16 0 8 8 16 40
Neighs:        79213.4 ave      115421 max           0 min
Histogram: 8 4 4 0 10 6 8 8 24 32

Total # of neighbors = 8238192
Ave neighs/atom = 28.530436
Neighbor list builds = 0
Dangerous builds = 0
The dot product: -1.17969070827779e-07
Setting atom values ...
  1 settings made for x
  1 settings made for y
  1 settings made for z
Setting up cg style minimization ...
  Unit style    : metal
  Current step  : 1370
Per MPI rank memory allocation (min/avg/max) = 5.441 | 5.816 | 6.074 Mbytes
Step PotEng KinEng TotEng v_fx v_fy v_fz 
    1370   -1152449.4            0   -1152449.4 -0.025283622  0.042066834 0.0087246815 
    1560   -1152449.4            0   -1152449.4 1.3096984e-06 -4.5612339e-06 -9.1108853e-06 
Loop time of 2.23193 on 104 procs for 190 steps with 288751 atoms

99.9% CPU use with 104 MPI tasks x 1 OpenMP threads

Minimization stats:
  Stopping criterion = energy tolerance
  Energy initial, next-to-last, final = 
     -1152449.39171296   -1152449.3930671   -1152449.3930671
  Force two-norm initial, final = 0.15663582 6.2305769e-05
  Force max component initial, final = 0.11186346 9.1108853e-06
  Final line search alpha, max atom move = 1.0000000 9.1108853e-06
  Iterations, force evaluations = 190 380

MPI task timing breakdown:
Section |  min time  |  avg time  |  max time  |%varavg| %total
---------------------------------------------------------------
Pair    | 0.578      | 1.611      | 2.0816     |  34.1 | 72.18
Neigh   | 0          | 0          | 0          |   0.0 |  0.00
Comm    | 0.045962   | 0.36518    | 1.0913     |  50.2 | 16.36
Output  | 0          | 0          | 0          |   0.0 |  0.00
Modify  | 2.2233e-05 | 0.0031454  | 0.0066838  |   2.6 |  0.14
Other   |            | 0.2526     |            |       | 11.32

Nlocal:        2776.45 ave        3959 max           0 min
Histogram: 8 4 4 0 4 12 8 2 28 34
Nghost:        3879.01 ave        5424 max         232 min
Histogram: 8 0 8 0 16 0 8 8 16 40
Neighs:        79213.4 ave      115398 max           0 min
Histogram: 8 4 4 0 10 6 8 8 24 32

Total # of neighbors = 8238191
Ave neighs/atom = 28.530433
Neighbor list builds = 0
Dangerous builds = 0
The dot product: -6.35142895095051e-08
Setting atom values ...
  1 settings made for x
  1 settings made for y
  1 settings made for z
Setting up cg style minimization ...
  Unit style    : metal
  Current step  : 1560
Per MPI rank memory allocation (min/avg/max) = 5.441 | 5.816 | 6.074 Mbytes
Step PotEng KinEng TotEng v_fx v_fy v_fz 
    1560   -1152449.4            0   -1152449.4 -0.021763387  0.041944809 0.0082655855 
    1730   -1152449.4            0   -1152449.4 -2.0163359e-05 3.4145327e-05 -6.8346988e-06 
Loop time of 2.00521 on 104 procs for 170 steps with 288751 atoms

99.9% CPU use with 104 MPI tasks x 1 OpenMP threads

Minimization stats:
  Stopping criterion = energy tolerance
  Energy initial, next-to-last, final = 
     -1152449.37865758  -1152449.38000858  -1152449.38000858
  Force two-norm initial, final = 0.15666864 0.00015501467
  Force max component initial, final = 0.11337187 3.4145327e-05
  Final line search alpha, max atom move = 1.0000000 3.4145327e-05
  Iterations, force evaluations = 170 340

MPI task timing breakdown:
Section |  min time  |  avg time  |  max time  |%varavg| %total
---------------------------------------------------------------
Pair    | 0.51952    | 1.4374     | 1.8618     |  32.4 | 71.68
Neigh   | 0          | 0          | 0          |   0.0 |  0.00
Comm    | 0.029714   | 0.32866    | 0.99195    |  47.5 | 16.39
Output  | 0          | 0          | 0          |   0.0 |  0.00
Modify  | 2.0694e-05 | 0.0028179  | 0.0059927  |   2.5 |  0.14
Other   |            | 0.2363     |            |       | 11.78

Nlocal:        2776.45 ave        3959 max           0 min
Histogram: 8 4 4 0 4 12 8 2 28 34
Nghost:        3879.09 ave        5424 max         232 min
Histogram: 8 0 8 0 16 0 8 8 16 40
Neighs:        79213.4 ave      115398 max           0 min
Histogram: 8 4 4 0 10 6 8 8 24 32

Total # of neighbors = 8238192
Ave neighs/atom = 28.530436
Neighbor list builds = 0
Dangerous builds = 0
The dot product: 4.11098165184226e-07
Setting atom values ...
  1 settings made for x
  1 settings made for y
  1 settings made for z
Setting up cg style minimization ...
  Unit style    : metal
  Current step  : 1730
Per MPI rank memory allocation (min/avg/max) = 5.441 | 5.816 | 6.074 Mbytes
Step PotEng KinEng TotEng v_fx v_fy v_fz 
    1730   -1152449.4            0   -1152449.4 -0.017382941  0.038795733  0.007573263 
    1902   -1152449.4            0   -1152449.4 -3.2033061e-06 -4.4175313e-06 -2.9166119e-05 
Loop time of 2.00371 on 104 procs for 172 steps with 288751 atoms

99.9% CPU use with 104 MPI tasks x 1 OpenMP threads

Minimization stats:
  Stopping criterion = energy tolerance
  Energy initial, next-to-last, final = 
     -1152449.36431786  -1152449.36563952  -1152449.36563952
  Force two-norm initial, final = 0.15629515 0.00014587159
  Force max component initial, final = 0.11432577 2.9166119e-05
  Final line search alpha, max atom move = 1.0000000 2.9166119e-05
  Iterations, force evaluations = 172 344

MPI task timing breakdown:
Section |  min time  |  avg time  |  max time  |%varavg| %total
---------------------------------------------------------------
Pair    | 0.52251    | 1.4544     | 1.8759     |  32.5 | 72.59
Neigh   | 0          | 0          | 0          |   0.0 |  0.00
Comm    | 0.030643   | 0.33084    | 1.0022     |  48.0 | 16.51
Output  | 0          | 0          | 0          |   0.0 |  0.00
Modify  | 2.2848e-05 | 0.0028475  | 0.0060347  |   2.5 |  0.14
Other   |            | 0.2156     |            |       | 10.76

Nlocal:        2776.45 ave        3960 max           0 min
Histogram: 8 4 4 0 4 12 8 2 28 34
Nghost:        3879.09 ave        5424 max         232 min
Histogram: 8 0 8 0 16 0 8 8 16 40
Neighs:        79213.4 ave      115421 max           0 min
Histogram: 8 4 4 0 10 6 8 8 24 32

Total # of neighbors = 8238193
Ave neighs/atom = 28.530440
Neighbor list builds = 0
Dangerous builds = 0
The dot product: -5.63614483628885e-08
Setting atom values ...
  1 settings made for x
  1 settings made for y
  1 settings made for z
Setting up cg style minimization ...
  Unit style    : metal
  Current step  : 1902
Per MPI rank memory allocation (min/avg/max) = 5.441 | 5.816 | 6.074 Mbytes
Step PotEng KinEng TotEng v_fx v_fy v_fz 
    1902   -1152449.3            0   -1152449.3 -0.013041449  0.033549252  0.006894084 
    2000   -1152449.3            0   -1152449.3 8.1073426e-06 -5.9221122e-05 -9.3037417e-05 
    2083   -1152449.3            0   -1152449.3  3.37923e-06 -4.7342836e-06 7.371793e-06 
Loop time of 2.09739 on 104 procs for 181 steps with 288751 atoms

99.9% CPU use with 104 MPI tasks x 1 OpenMP threads

Minimization stats:
  Stopping criterion = energy tolerance
  Energy initial, next-to-last, final = 
     -1152449.34862585   -1152449.3499038   -1152449.3499038
  Force two-norm initial, final = 0.15591336 8.6897290e-05
  Force max component initial, final = 0.11490193 7.9577875e-06
  Final line search alpha, max atom move = 1.0000000 7.9577875e-06
  Iterations, force evaluations = 181 362

MPI task timing breakdown:
Section |  min time  |  avg time  |  max time  |%varavg| %total
---------------------------------------------------------------
Pair    | 0.54916    | 1.5218     | 1.9744     |  33.3 | 72.56
Neigh   | 0          | 0          | 0          |   0.0 |  0.00
Comm    | 0.033783   | 0.34192    | 1.0271     |  49.2 | 16.30
Output  | 0.0002393  | 0.00024605 | 0.00037614 |   0.0 |  0.01
Modify  | 2.1541e-05 | 0.0029966  | 0.006331   |   2.6 |  0.14
Other   |            | 0.2304     |            |       | 10.99

Nlocal:        2776.45 ave        3960 max           0 min
Histogram: 8 4 4 0 4 12 8 2 28 34
Nghost:        3879.09 ave        5424 max         232 min
Histogram: 8 0 8 0 16 0 8 8 16 40
Neighs:        79213.4 ave      115421 max           0 min
Histogram: 8 4 4 0 10 6 8 8 24 32

Total # of neighbors = 8238192
Ave neighs/atom = 28.530436
Neighbor list builds = 0
Dangerous builds = 0
The dot product: -4.46873887914192e-08
Setting atom values ...
  1 settings made for x
  1 settings made for y
  1 settings made for z
Setting up cg style minimization ...
  Unit style    : metal
  Current step  : 2083
Per MPI rank memory allocation (min/avg/max) = 5.441 | 5.816 | 6.074 Mbytes
Step PotEng KinEng TotEng v_fx v_fy v_fz 
    2083   -1152449.3            0   -1152449.3 -0.0092268859  0.027241615 0.0063666927 
    2241   -1152449.3            0   -1152449.3 1.7853526e-06 -8.1989968e-06 -7.2778201e-06 
Loop time of 1.84994 on 104 procs for 158 steps with 288751 atoms

99.9% CPU use with 104 MPI tasks x 1 OpenMP threads

Minimization stats:
  Stopping criterion = energy tolerance
  Energy initial, next-to-last, final = 
     -1152449.33152607  -1152449.33275911  -1152449.33275911
  Force two-norm initial, final = 0.15581368 0.00016880709
  Force max component initial, final = 0.11532534 2.2023357e-05
  Final line search alpha, max atom move = 1.0000000 2.2023357e-05
  Iterations, force evaluations = 158 316

MPI task timing breakdown:
Section |  min time  |  avg time  |  max time  |%varavg| %total
---------------------------------------------------------------
Pair    | 0.48041    | 1.3335     | 1.7337     |  31.0 | 72.08
Neigh   | 0          | 0          | 0          |   0.0 |  0.00
Comm    | 0.027759   | 0.30116    | 0.90592    |  45.8 | 16.28
Output  | 0          | 0          | 0          |   0.0 |  0.00
Modify  | 1.8747e-05 | 0.002609   | 0.0055537  |   2.4 |  0.14
Other   |            | 0.2127     |            |       | 11.50

Nlocal:        2776.45 ave        3960 max           0 min
Histogram: 8 4 4 0 4 12 8 2 28 34
Nghost:        3879.11 ave        5424 max         232 min
Histogram: 8 0 8 0 16 0 8 8 16 40
Neighs:        79213.4 ave      115421 max           0 min
Histogram: 8 4 4 0 10 6 8 8 24 32

Total # of neighbors = 8238189
Ave neighs/atom = 28.530426
Neighbor list builds = 0
Dangerous builds = 0
The dot product: -6.56791037969978e-08
Setting atom values ...
  1 settings made for x
  1 settings made for y
  1 settings made for z
Setting up cg style minimization ...
  Unit style    : metal
  Current step  : 2241
Per MPI rank memory allocation (min/avg/max) = 5.441 | 5.816 | 6.074 Mbytes
Step PotEng KinEng TotEng v_fx v_fy v_fz 
    2241   -1152449.3            0   -1152449.3 -0.0060589688  0.020496403 0.0058157665 
    2376   -1152449.3            0   -1152449.3 1.4137013e-05 -1.7547105e-05 4.3382853e-05 
Loop time of 1.5657 on 104 procs for 135 steps with 288751 atoms

99.9% CPU use with 104 MPI tasks x 1 OpenMP threads

Minimization stats:
  Stopping criterion = energy tolerance
  Energy initial, next-to-last, final = 
     -1152449.31298246  -1152449.31417845  -1152449.31417845
  Force two-norm initial, final = 0.15616155 0.00018567468
  Force max component initial, final = 0.1157904 4.3382853e-05
  Final line search alpha, max atom move = 1.0000000 4.3382853e-05
  Iterations, force evaluations = 135 270

MPI task timing breakdown:
Section |  min time  |  avg time  |  max time  |%varavg| %total
---------------------------------------------------------------
Pair    | 0.4109     | 1.1351     | 1.4759     |  28.7 | 72.50
Neigh   | 0          | 0          | 0          |   0.0 |  0.00
Comm    | 0.023865   | 0.25582    | 0.76963    |  42.5 | 16.34
Output  | 0          | 0          | 0          |   0.0 |  0.00
Modify  | 1.648e-05  | 0.002234   | 0.0047333  |   2.2 |  0.14
Other   |            | 0.1725     |            |       | 11.02

Nlocal:        2776.45 ave        3960 max           0 min
Histogram: 8 4 4 0 4 12 8 2 28 34
Nghost:        3879.12 ave        5424 max         232 min
Histogram: 8 0 8 0 16 0 8 8 16 40
Neighs:        79213.3 ave      115421 max           0 min
Histogram: 8 4 4 0 10 6 8 8 24 32

Total # of neighbors = 8238188
Ave neighs/atom = 28.530422
Neighbor list builds = 0
Dangerous builds = 0
The dot product: -1.12510427422913e-07
Setting atom values ...
  1 settings made for x
  1 settings made for y
  1 settings made for z
Setting up cg style minimization ...
  Unit style    : metal
  Current step  : 2376
Per MPI rank memory allocation (min/avg/max) = 5.441 | 5.816 | 6.074 Mbytes
Step PotEng KinEng TotEng v_fx v_fy v_fz 
    2376   -1152449.3            0   -1152449.3 -0.0034267295  0.013636653 0.0053260268 
    2508   -1152449.3            0   -1152449.3 -2.8349009e-06 -1.5981994e-05 -4.3290963e-05 
Loop time of 1.54355 on 104 procs for 132 steps with 288751 atoms

99.9% CPU use with 104 MPI tasks x 1 OpenMP threads

Minimization stats:
  Stopping criterion = energy tolerance
  Energy initial, next-to-last, final = 
     -1152449.29297578  -1152449.29414633  -1152449.29414633
  Force two-norm initial, final = 0.15698229 0.00021594448
  Force max component initial, final = 0.11636756 4.3290963e-05
  Final line search alpha, max atom move = 1.0000000 4.3290963e-05
  Iterations, force evaluations = 132 264

MPI task timing breakdown:
Section |  min time  |  avg time  |  max time  |%varavg| %total
---------------------------------------------------------------
Pair    | 0.40443    | 1.1156     | 1.4464     |  28.3 | 72.28
Neigh   | 0          | 0          | 0          |   0.0 |  0.00
Comm    | 0.026921   | 0.25202    | 0.75852    |  42.0 | 16.33
Output  | 0          | 0          | 0          |   0.0 |  0.00
Modify  | 1.5686e-05 | 0.0021809  | 0.0046484  |   2.2 |  0.14
Other   |            | 0.1737     |            |       | 11.26

Nlocal:        2776.45 ave        3960 max           0 min
Histogram: 8 4 4 0 4 12 8 2 28 34
Nghost:        3879.12 ave        5424 max         232 min
Histogram: 8 0 8 0 16 0 8 8 16 40
Neighs:        79213.3 ave      115421 max           0 min
Histogram: 8 4 4 0 10 6 8 8 24 32

Total # of neighbors = 8238186
Ave neighs/atom = 28.530415
Neighbor list builds = 0
Dangerous builds = 0
The dot product: -7.18240261125038e-08
Setting atom values ...
  1 settings made for x
  1 settings made for y
  1 settings made for z
Setting up cg style minimization ...
  Unit style    : metal
  Current step  : 2508
Per MPI rank memory allocation (min/avg/max) = 5.441 | 5.816 | 6.074 Mbytes
Step PotEng KinEng TotEng v_fx v_fy v_fz 
    2508   -1152449.3            0   -1152449.3 -0.0011904194 0.0066857121 0.0046555495 
    2693   -1152449.3            0   -1152449.3 4.4361407e-06 -1.269875e-05 2.9343009e-06 
Loop time of 2.16393 on 104 procs for 185 steps with 288751 atoms

99.9% CPU use with 104 MPI tasks x 1 OpenMP threads

Minimization stats:
  Stopping criterion = energy tolerance
  Energy initial, next-to-last, final = 
     -1152449.27149776  -1152449.27265575  -1152449.27265575
  Force two-norm initial, final = 0.15835112 6.9607197e-05
  Force max component initial, final = 0.11716767 1.2698750e-05
  Final line search alpha, max atom move = 1.0000000 1.2698750e-05
  Iterations, force evaluations = 185 370

MPI task timing breakdown:
Section |  min time  |  avg time  |  max time  |%varavg| %total
---------------------------------------------------------------
Pair    | 0.56153    | 1.553      | 2.0187     |  33.5 | 71.77
Neigh   | 0          | 0          | 0          |   0.0 |  0.00
Comm    | 0.034414   | 0.35218    | 1.0534     |  49.2 | 16.28
Output  | 0          | 0          | 0          |   0.0 |  0.00
Modify  | 2.1984e-05 | 0.0030547  | 0.0064901  |   2.6 |  0.14
Other   |            | 0.2557     |            |       | 11.82

Nlocal:        2776.45 ave        3960 max           0 min
Histogram: 8 4 4 0 4 12 8 2 28 34
Nghost:        3879.12 ave        5424 max         232 min
Histogram: 8 0 8 0 16 0 8 8 16 40
Neighs:        79213.3 ave      115421 max           0 min
Histogram: 8 4 4 0 10 6 8 8 24 32

Total # of neighbors = 8238185
Ave neighs/atom = 28.530412
Neighbor list builds = 0
Dangerous builds = 0
The dot product: -3.83146615638816e-08
Setting atom values ...
  1 settings made for x
  1 settings made for y
  1 settings made for z
Setting up cg style minimization ...
  Unit style    : metal
  Current step  : 2693
Per MPI rank memory allocation (min/avg/max) = 5.441 | 5.816 | 6.074 Mbytes
Step PotEng KinEng TotEng v_fx v_fy v_fz 
    2693   -1152449.2            0   -1152449.2 0.00089597575 -0.00052214647 0.0040176469 
    2803   -1152449.2            0   -1152449.2 1.0813634e-06 3.9087742e-06 1.2145302e-05 
Loop time of 1.27352 on 104 procs for 110 steps with 288751 atoms

99.9% CPU use with 104 MPI tasks x 1 OpenMP threads

Minimization stats:
  Stopping criterion = energy tolerance
  Energy initial, next-to-last, final = 
     -1152449.24854787  -1152449.24970708  -1152449.24970708
  Force two-norm initial, final = 0.160307 0.00025409019
  Force max component initial, final = 0.11823354 3.4578682e-05
  Final line search alpha, max atom move = 1.0000000 3.4578682e-05
  Iterations, force evaluations = 110 220

MPI task timing breakdown:
Section |  min time  |  avg time  |  max time  |%varavg| %total
---------------------------------------------------------------
Pair    | 0.33297    | 0.93162    | 1.201      |  26.0 | 73.15
Neigh   | 0          | 0          | 0          |   0.0 |  0.00
Comm    | 0.019489   | 0.20906    | 0.63337    |  38.7 | 16.42
Output  | 0          | 0          | 0          |   0.0 |  0.00
Modify  | 1.3533e-05 | 0.0018243  | 0.0038875  |   2.0 |  0.14
Other   |            | 0.131      |            |       | 10.29

Nlocal:        2776.45 ave        3960 max           0 min
Histogram: 8 4 4 0 4 12 8 2 28 34
Nghost:        3879.12 ave        5424 max         232 min
Histogram: 8 0 8 0 16 0 8 8 16 40
Neighs:        79213.3 ave      115421 max           0 min
Histogram: 8 4 4 0 10 6 8 8 24 32

Total # of neighbors = 8238184
Ave neighs/atom = 28.530409
Neighbor list builds = 0
Dangerous builds = 0
The dot product: 2.57124046303601e-09
Setting atom values ...
  1 settings made for x
  1 settings made for y
  1 settings made for z
Setting up cg style minimization ...
  Unit style    : metal
  Current step  : 2803
Per MPI rank memory allocation (min/avg/max) = 5.441 | 5.816 | 6.074 Mbytes
Step PotEng KinEng TotEng v_fx v_fy v_fz 
    2803   -1152449.2            0   -1152449.2 0.0029433302 -0.0082976736 0.0027998523 
    2982   -1152449.2            0   -1152449.2 -5.604831e-07 1.2382802e-06 -1.0771325e-06 
Loop time of 2.127 on 104 procs for 179 steps with 288751 atoms

99.9% CPU use with 104 MPI tasks x 1 OpenMP threads

Minimization stats:
  Stopping criterion = energy tolerance
  Energy initial, next-to-last, final = 
     -1152449.22413415  -1152449.22531424  -1152449.22531424
  Force two-norm initial, final = 0.16300648 9.1097411e-05
  Force max component initial, final = 0.11969251 8.4499391e-06
  Final line search alpha, max atom move = 1.0000000 8.4499391e-06
  Iterations, force evaluations = 179 358

MPI task timing breakdown:
Section |  min time  |  avg time  |  max time  |%varavg| %total
---------------------------------------------------------------
Pair    | 0.54547    | 1.5129     | 1.9568     |  33.2 | 71.13
Neigh   | 0          | 0          | 0          |   0.0 |  0.00
Comm    | 0.036139   | 0.34694    | 1.028      |  48.2 | 16.31
Output  | 0          | 0          | 0          |   0.0 |  0.00
Modify  | 2.1852e-05 | 0.0029592  | 0.0062959  |   2.6 |  0.14
Other   |            | 0.2642     |            |       | 12.42

Nlocal:        2776.45 ave        3959 max           0 min
Histogram: 8 4 4 0 4 12 8 2 28 34
Nghost:        3879.11 ave        5424 max         232 min
Histogram: 8 0 8 0 16 0 8 8 16 40
Neighs:        79213.3 ave      115397 max           0 min
Histogram: 8 4 4 0 10 6 8 8 24 32

Total # of neighbors = 8238185
Ave neighs/atom = 28.530412
Neighbor list builds = 0
Dangerous builds = 0
The dot product: -6.8903989594453e-10
Setting atom values ...
  1 settings made for x
  1 settings made for y
  1 settings made for z
Setting up cg style minimization ...
  Unit style    : metal
  Current step  : 2982
Per MPI rank memory allocation (min/avg/max) = 5.441 | 5.816 | 6.074 Mbytes
Step PotEng KinEng TotEng v_fx v_fy v_fz 
    2982   -1152449.2            0   -1152449.2 0.0053208594 -0.017222065 0.0012977818 
    3000   -1152449.2            0   -1152449.2 -0.00024427806 0.00043844735 -0.00062790136 
    3096   -1152449.2            0   -1152449.2 4.4120611e-06 -3.7575158e-06 1.8055972e-05 
Loop time of 1.32861 on 104 procs for 114 steps with 288751 atoms

99.9% CPU use with 104 MPI tasks x 1 OpenMP threads

Minimization stats:
  Stopping criterion = energy tolerance
  Energy initial, next-to-last, final = 
     -1152449.19828828  -1152449.19951638  -1152449.19951638
  Force two-norm initial, final = 0.1665572 0.00019826721
  Force max component initial, final = 0.12149711 1.9931321e-05
  Final line search alpha, max atom move = 1.0000000 1.9931321e-05
  Iterations, force evaluations = 114 228

MPI task timing breakdown:
Section |  min time  |  avg time  |  max time  |%varavg| %total
---------------------------------------------------------------
Pair    | 0.34653    | 0.9662     | 1.2459     |  26.4 | 72.72
Neigh   | 0          | 0          | 0          |   0.0 |  0.00
Comm    | 0.019574   | 0.21789    | 0.65582    |  39.1 | 16.40
Output  | 0.00015832 | 0.00016256 | 0.0002388  |   0.0 |  0.01
Modify  | 1.3611e-05 | 0.0018993  | 0.0040668  |   2.1 |  0.14
Other   |            | 0.1425     |            |       | 10.72

Nlocal:        2776.45 ave        3959 max           0 min
Histogram: 8 4 4 0 4 12 8 2 28 34
Nghost:        3879.11 ave        5424 max         232 min
Histogram: 8 0 8 0 16 0 8 8 16 40
Neighs:        79213.3 ave      115397 max           0 min
Histogram: 8 4 4 0 10 6 8 8 24 32

Total # of neighbors = 8238184
Ave neighs/atom = 28.530409
Neighbor list builds = 0
Dangerous builds = 0
The dot product: 6.89743342892922e-10
Setting atom values ...
  1 settings made for x
  1 settings made for y
  1 settings made for z
Setting up cg style minimization ...
  Unit style    : metal
  Current step  : 3096
Per MPI rank memory allocation (min/avg/max) = 5.441 | 5.816 | 6.074 Mbytes
Step PotEng KinEng TotEng v_fx v_fy v_fz 
    3096   -1152449.2            0   -1152449.2 0.0085304761 -0.028731912 -0.0013416303 
    3310   -1152449.2            0   -1152449.2 -2.3179075e-06 4.6370272e-06 -4.9856809e-06 
Loop time of 2.48435 on 104 procs for 214 steps with 288751 atoms

99.9% CPU use with 104 MPI tasks x 1 OpenMP threads

Minimization stats:
  Stopping criterion = energy tolerance
  Energy initial, next-to-last, final = 
     -1152449.17108016  -1152449.17242234  -1152449.17242234
  Force two-norm initial, final = 0.1715284 2.2680893e-05
  Force max component initial, final = 0.12399023 4.9856809e-06
  Final line search alpha, max atom move = 1.0000000 4.9856809e-06
  Iterations, force evaluations = 214 428

MPI task timing breakdown:
Section |  min time  |  avg time  |  max time  |%varavg| %total
---------------------------------------------------------------
Pair    | 0.652      | 1.806      | 2.3411     |  36.3 | 72.70
Neigh   | 0          | 0          | 0          |   0.0 |  0.00
Comm    | 0.038909   | 0.40975    | 1.2358     |  53.6 | 16.49
Output  | 0          | 0          | 0          |   0.0 |  0.00
Modify  | 2.775e-05  | 0.0035347  | 0.0075167  |   2.8 |  0.14
Other   |            | 0.265      |            |       | 10.67

Nlocal:        2776.45 ave        3958 max           0 min
Histogram: 8 4 4 0 4 12 8 2 28 34
Nghost:        3879.10 ave        5424 max         232 min
Histogram: 8 0 8 0 16 0 8 8 16 40
Neighs:        79213.3 ave      115375 max           0 min
Histogram: 8 4 4 0 10 6 8 8 24 32

Total # of neighbors = 8238185
Ave neighs/atom = 28.530412
Neighbor list builds = 0
Dangerous builds = 0
The dot product: -2.99139387026094e-08
Setting atom values ...
  1 settings made for x
  1 settings made for y
  1 settings made for z
Setting up cg style minimization ...
  Unit style    : metal
  Current step  : 3310
Per MPI rank memory allocation (min/avg/max) = 5.441 | 5.816 | 6.074 Mbytes
Step PotEng KinEng TotEng v_fx v_fy v_fz 
    3310   -1152449.1            0   -1152449.1  0.012019073 -0.042359988  -0.01037468 
    3450   -1152449.1            0   -1152449.1 -4.6854616e-06 6.8146101e-06 -1.3882922e-05 
Loop time of 1.61757 on 104 procs for 140 steps with 288751 atoms

99.9% CPU use with 104 MPI tasks x 1 OpenMP threads

Minimization stats:
  Stopping criterion = energy tolerance
  Energy initial, next-to-last, final = 
      -1152449.1426013  -1152449.14414254  -1152449.14414254
  Force two-norm initial, final = 0.17788978 6.3166456e-05
  Force max component initial, final = 0.12745523 1.3882922e-05
  Final line search alpha, max atom move = 1.0000000 1.3882922e-05
  Iterations, force evaluations = 140 280

MPI task timing breakdown:
Section |  min time  |  avg time  |  max time  |%varavg| %total
---------------------------------------------------------------
Pair    | 0.42338    | 1.1796     | 1.5256     |  29.2 | 72.92
Neigh   | 0          | 0          | 0          |   0.0 |  0.00
Comm    | 0.024709   | 0.26375    | 0.79838    |  43.4 | 16.31
Output  | 0          | 0          | 0          |   0.0 |  0.00
Modify  | 1.638e-05  | 0.0023111  | 0.0049343  |   2.3 |  0.14
Other   |            | 0.1719     |            |       | 10.63

Nlocal:        2776.45 ave        3957 max           0 min
Histogram: 8 4 4 0 4 12 8 2 28 34
Nghost:        3879.08 ave        5424 max         232 min
Histogram: 8 0 8 0 16 0 8 8 16 40
Neighs:        79213.3 ave      115347 max           0 min
Histogram: 8 4 4 0 10 6 8 8 24 32

Total # of neighbors = 8238183
Ave neighs/atom = 28.530405
Neighbor list builds = 0
Dangerous builds = 0
The dot product: -4.07824197286349e-08
Setting atom values ...
  1 settings made for x
  1 settings made for y
  1 settings made for z
Setting up cg style minimization ...
  Unit style    : metal
  Current step  : 3450
Per MPI rank memory allocation (min/avg/max) = 5.441 | 5.816 | 6.074 Mbytes
Step PotEng KinEng TotEng v_fx v_fy v_fz 
    3450   -1152449.1            0   -1152449.1  0.015145858 -0.053032781 -0.023006513 
    3567   -1152449.1            0   -1152449.1 -7.1776023e-06 1.7359297e-05 -5.6079226e-06 
Loop time of 1.37413 on 104 procs for 117 steps with 288751 atoms

99.9% CPU use with 104 MPI tasks x 1 OpenMP threads

Minimization stats:
  Stopping criterion = energy tolerance
  Energy initial, next-to-last, final = 
     -1152449.11278905  -1152449.11458104  -1152449.11458104
  Force two-norm initial, final = 0.1858714 0.00018779141
  Force max component initial, final = 0.13185432 2.7381564e-05
  Final line search alpha, max atom move = 1.0000000 2.7381564e-05
  Iterations, force evaluations = 117 234

MPI task timing breakdown:
Section |  min time  |  avg time  |  max time  |%varavg| %total
---------------------------------------------------------------
Pair    | 0.35643    | 0.98564    | 1.2805     |  26.7 | 71.73
Neigh   | 0          | 0          | 0          |   0.0 |  0.00
Comm    | 0.02074    | 0.22292    | 0.66907    |  39.3 | 16.22
Output  | 0          | 0          | 0          |   0.0 |  0.00
Modify  | 1.4623e-05 | 0.0019396  | 0.0041231  |   2.1 |  0.14
Other   |            | 0.1636     |            |       | 11.91

Nlocal:        2776.45 ave        3956 max           0 min
Histogram: 8 4 4 0 4 12 8 2 28 34
Nghost:        3879.08 ave        5424 max         232 min
Histogram: 8 0 8 0 16 0 8 8 16 40
Neighs:        79213.3 ave      115306 max           0 min
Histogram: 8 4 4 0 10 6 8 8 24 32

Total # of neighbors = 8238181
Ave neighs/atom = 28.530398
Neighbor list builds = 0
Dangerous builds = 0
The dot product: -2.37299543033079e-07
Setting atom values ...
  1 settings made for x
  1 settings made for y
  1 settings made for z
Setting up cg style minimization ...
  Unit style    : metal
  Current step  : 3567
Per MPI rank memory allocation (min/avg/max) = 5.441 | 5.816 | 6.074 Mbytes
Step PotEng KinEng TotEng v_fx v_fy v_fz 
    3567   -1152449.1            0   -1152449.1   0.01911295 -0.060435141  -0.03117059 
    3716   -1152449.1            0   -1152449.1 -6.4338266e-06 1.093389e-05 -1.3356369e-05 
Loop time of 1.73122 on 104 procs for 149 steps with 288751 atoms

99.9% CPU use with 104 MPI tasks x 1 OpenMP threads

Minimization stats:
  Stopping criterion = energy tolerance
  Energy initial, next-to-last, final = 
     -1152449.08164604  -1152449.08364565  -1152449.08364565
  Force two-norm initial, final = 0.19335305 9.2535140e-05
  Force max component initial, final = 0.13676575 1.7849512e-05
  Final line search alpha, max atom move = 1.0000000 1.7849512e-05
  Iterations, force evaluations = 149 298

MPI task timing breakdown:
Section |  min time  |  avg time  |  max time  |%varavg| %total
---------------------------------------------------------------
Pair    | 0.45459    | 1.2593     | 1.6323     |  30.2 | 72.74
Neigh   | 0          | 0          | 0          |   0.0 |  0.00
Comm    | 0.02576    | 0.28509    | 0.86316    |  44.7 | 16.47
Output  | 0          | 0          | 0          |   0.0 |  0.00
Modify  | 1.7461e-05 | 0.0024628  | 0.0052518  |   2.3 |  0.14
Other   |            | 0.1844     |            |       | 10.65

Nlocal:        2776.45 ave        3952 max           0 min
Histogram: 8 4 4 0 4 12 8 2 28 34
Nghost:        3879.08 ave        5424 max         232 min
Histogram: 8 0 8 0 16 0 8 8 16 40
Neighs:        79213.3 ave      115186 max           0 min
Histogram: 8 4 4 0 10 6 8 8 24 32

Total # of neighbors = 8238183
Ave neighs/atom = 28.530405
Neighbor list builds = 0
Dangerous builds = 0
The dot product: -1.02724945608623e-07
Setting atom values ...
  1 settings made for x
  1 settings made for y
  1 settings made for z
Setting up cg style minimization ...
  Unit style    : metal
  Current step  : 3716
Per MPI rank memory allocation (min/avg/max) = 5.441 | 5.816 | 6.074 Mbytes
Step PotEng KinEng TotEng v_fx v_fy v_fz 
    3716     -1152449            0     -1152449  0.022724925 -0.064579197 -0.039560677 
    3932   -1152449.1            0   -1152449.1 -1.7644089e-06 2.5675626e-06 -4.5173601e-06 
Loop time of 2.5053 on 104 procs for 216 steps with 288751 atoms

99.9% CPU use with 104 MPI tasks x 1 OpenMP threads

Minimization stats:
  Stopping criterion = energy tolerance
  Energy initial, next-to-last, final = 
     -1152449.04918025  -1152449.05134006  -1152449.05134006
  Force two-norm initial, final = 0.19989138 3.8574755e-05
  Force max component initial, final = 0.14192018 4.5173601e-06
  Final line search alpha, max atom move = 1.0000000 4.5173601e-06
  Iterations, force evaluations = 216 432

MPI task timing breakdown:
Section |  min time  |  avg time  |  max time  |%varavg| %total
---------------------------------------------------------------
Pair    | 0.66485    | 1.8164     | 2.3529     |  36.2 | 72.50
Neigh   | 0          | 0          | 0          |   0.0 |  0.00
Comm    | 0.038105   | 0.40883    | 1.2293     |  53.6 | 16.32
Output  | 0          | 0          | 0          |   0.0 |  0.00
Modify  | 2.5407e-05 | 0.0035677  | 0.007596   |   2.8 |  0.14
Other   |            | 0.2765     |            |       | 11.04

Nlocal:        2776.45 ave        3944 max           0 min
Histogram: 8 4 4 0 4 12 8 2 26 36
Nghost:        3879.07 ave        5424 max         232 min
Histogram: 8 0 8 0 16 0 8 8 16 40
Neighs:        79213.3 ave      114924 max           0 min
Histogram: 8 4 4 0 10 6 8 8 22 34

Total # of neighbors = 8238179
Ave neighs/atom = 28.530391
Neighbor list builds = 0
Dangerous builds = 0
The dot product: -8.21894272871552e-09
Setting atom values ...
  1 settings made for x
  1 settings made for y
  1 settings made for z
Setting up cg style minimization ...
  Unit style    : metal
  Current step  : 3932
Per MPI rank memory allocation (min/avg/max) = 5.441 | 5.816 | 6.074 Mbytes
Step PotEng KinEng TotEng v_fx v_fy v_fz 
    3932     -1152449            0     -1152449  0.025111695 -0.065601241 -0.052856546 
    4000     -1152449            0     -1152449 1.6778909e-05 -2.206518e-05 5.0746219e-05 
    4120     -1152449            0     -1152449 -4.2202703e-06 7.7069006e-06 -4.2355578e-06 
Loop time of 2.18212 on 104 procs for 188 steps with 288751 atoms

99.9% CPU use with 104 MPI tasks x 1 OpenMP threads

Minimization stats:
  Stopping criterion = energy tolerance
  Energy initial, next-to-last, final = 
     -1152449.01547649  -1152449.01780996  -1152449.01780996
  Force two-norm initial, final = 0.20649945 0.00010749494
  Force max component initial, final = 0.14706688 3.0534392e-05
  Final line search alpha, max atom move = 1.0000000 3.0534392e-05
  Iterations, force evaluations = 188 376

MPI task timing breakdown:
Section |  min time  |  avg time  |  max time  |%varavg| %total
---------------------------------------------------------------
Pair    | 0.57047    | 1.5922     | 2.0568     |  34.0 | 72.97
Neigh   | 0          | 0          | 0          |   0.0 |  0.00
Comm    | 0.032728   | 0.35781    | 1.0926     |  50.5 | 16.40
Output  | 0.00023515 | 0.00023877 | 0.00035512 |   0.0 |  0.01
Modify  | 2.2209e-05 | 0.0031012  | 0.0065898  |   2.6 |  0.14
Other   |            | 0.2287     |            |       | 10.48

Nlocal:        2776.45 ave        3934 max           0 min
Histogram: 8 4 4 0 4 12 8 0 28 36
Nghost:        3879.13 ave        5424 max         232 min
Histogram: 8 0 8 0 16 0 8 8 16 40
Neighs:        79213.2 ave      114625 max           0 min
Histogram: 8 4 4 0 8 8 8 8 20 36

Total # of neighbors = 8238177
Ave neighs/atom = 28.530384
Neighbor list builds = 0
Dangerous builds = 0
The dot product: -8.69727767928536e-08
Setting atom values ...
  1 settings made for x
  1 settings made for y
  1 settings made for z
Setting up cg style minimization ...
  Unit style    : metal
  Current step  : 4120
Per MPI rank memory allocation (min/avg/max) = 5.441 | 5.816 | 6.074 Mbytes
Step PotEng KinEng TotEng v_fx v_fy v_fz 
    4120     -1152449            0     -1152449  0.026308467 -0.062658554 -0.067525722 
    4311     -1152449            0     -1152449 -9.0752893e-06 1.7035792e-05 -2.0228688e-06 
Loop time of 2.20789 on 104 procs for 191 steps with 288751 atoms

99.9% CPU use with 104 MPI tasks x 1 OpenMP threads

Minimization stats:
  Stopping criterion = energy tolerance
  Energy initial, next-to-last, final = 
     -1152448.98078193  -1152448.98319697  -1152448.98319697
  Force two-norm initial, final = 0.21268113 0.00011912411
  Force max component initial, final = 0.15228854 2.6899691e-05
  Final line search alpha, max atom move = 1.0000000 2.6899691e-05
  Iterations, force evaluations = 191 382

MPI task timing breakdown:
Section |  min time  |  avg time  |  max time  |%varavg| %total
---------------------------------------------------------------
Pair    | 0.58131    | 1.6054     | 2.0777     |  34.2 | 72.71
Neigh   | 0          | 0          | 0          |   0.0 |  0.00
Comm    | 0.033163   | 0.36187    | 1.0891     |  50.5 | 16.39
Output  | 0          | 0          | 0          |   0.0 |  0.00
Modify  | 2.3095e-05 | 0.0031482  | 0.0066946  |   2.6 |  0.14
Other   |            | 0.2375     |            |       | 10.76

Nlocal:        2776.45 ave        3932 max           0 min
Histogram: 8 4 4 0 4 12 8 0 26 38
Nghost:        3879.13 ave        5424 max         232 min
Histogram: 8 0 8 0 16 0 8 8 16 40
Neighs:        79213.2 ave      114559 max           0 min
Histogram: 8 4 4 0 8 8 8 8 20 36

Total # of neighbors = 8238176
Ave neighs/atom = 28.530381
Neighbor list builds = 0
Dangerous builds = 0
The dot product: -2.50268012408549e-07
Setting atom values ...
  1 settings made for x
  1 settings made for y
  1 settings made for z
Setting up cg style minimization ...
  Unit style    : metal
  Current step  : 4311
Per MPI rank memory allocation (min/avg/max) = 5.441 | 5.816 | 6.074 Mbytes
Step PotEng KinEng TotEng v_fx v_fy v_fz 
    4311   -1152448.9            0   -1152448.9  0.026003395 -0.055312809 -0.077622777 
    4552     -1152449            0     -1152449 -1.8577948e-05 2.8885764e-05 -3.934418e-05 
Loop time of 2.81821 on 104 procs for 241 steps with 288751 atoms

99.9% CPU use with 104 MPI tasks x 1 OpenMP threads

Minimization stats:
  Stopping criterion = energy tolerance
  Energy initial, next-to-last, final = 
     -1152448.94525687  -1152448.98068474  -1152448.98068474
  Force two-norm initial, final = 0.21756921 0.00019201993
  Force max component initial, final = 0.15718259 3.9344180e-05
  Final line search alpha, max atom move = 1.0000000 3.9344180e-05
  Iterations, force evaluations = 241 481

MPI task timing breakdown:
Section |  min time  |  avg time  |  max time  |%varavg| %total
---------------------------------------------------------------
Pair    | 0.73569    | 2.0412     | 2.6139     |  38.0 | 72.43
Neigh   | 1.0547e-05 | 0.0029533  | 0.0042507  |   2.2 |  0.10
Comm    | 0.042552   | 0.45973    | 1.3804     |  56.6 | 16.31
Output  | 0          | 0          | 0          |   0.0 |  0.00
Modify  | 2.8544e-05 | 0.0039695  | 0.0084836  |   3.0 |  0.14
Other   |            | 0.3103     |            |       | 11.01

Nlocal:        2776.45 ave        3931 max           0 min
Histogram: 8 4 4 0 4 12 8 0 26 38
Nghost:        3879.13 ave        5424 max         232 min
Histogram: 8 0 8 0 16 0 8 8 16 40
Neighs:        79213.3 ave      114531 max           0 min
Histogram: 8 4 4 0 8 8 8 8 20 36

Total # of neighbors = 8238185
Ave neighs/atom = 28.530412
Neighbor list builds = 1
Dangerous builds = 0
The dot product: 1.92722215232555e-06
Setting atom values ...
  1 settings made for x
  1 settings made for y
  1 settings made for z
Setting up cg style minimization ...
  Unit style    : metal
  Current step  : 4552
Per MPI rank memory allocation (min/avg/max) = 5.441 | 5.816 | 6.074 Mbytes
Step PotEng KinEng TotEng v_fx v_fy v_fz 
    4552     -1152449            0     -1152449  0.023397468 -0.024656808   -0.1326476 
    4727     -1152449            0     -1152449 -5.5805895e-06 1.3796212e-05 -3.8422874e-05 
Loop time of 2.04157 on 104 procs for 175 steps with 288751 atoms

99.9% CPU use with 104 MPI tasks x 1 OpenMP threads

Minimization stats:
  Stopping criterion = energy tolerance
  Energy initial, next-to-last, final = 
     -1152448.95838908  -1152448.96190407  -1152448.96190407
  Force two-norm initial, final = 0.24791682 0.00015405857
  Force max component initial, final = 0.16640602 3.8422874e-05
  Final line search alpha, max atom move = 1.0000000 3.8422874e-05
  Iterations, force evaluations = 175 350

MPI task timing breakdown:
Section |  min time  |  avg time  |  max time  |%varavg| %total
---------------------------------------------------------------
Pair    | 0.53203    | 1.4761     | 1.9193     |  32.8 | 72.30
Neigh   | 0          | 0          | 0          |   0.0 |  0.00
Comm    | 0.031668   | 0.33392    | 1.0038     |  48.3 | 16.36
Output  | 0          | 0          | 0          |   0.0 |  0.00
Modify  | 2.0206e-05 | 0.0028878  | 0.0061455  |   2.5 |  0.14
Other   |            | 0.2287     |            |       | 11.20

Nlocal:        2776.45 ave        3953 max           0 min
Histogram: 8 4 4 0 4 12 8 2 28 34
Nghost:        3879.12 ave        5424 max         232 min
Histogram: 8 0 8 0 16 0 8 8 16 40
Neighs:        79213.3 ave      115223 max           0 min
Histogram: 8 4 4 0 10 6 8 8 24 32

Total # of neighbors = 8238183
Ave neighs/atom = 28.530405
Neighbor list builds = 0
Dangerous builds = 0
The dot product: 9.42221425760806e-07
Setting atom values ...
  1 settings made for x
  1 settings made for y
  1 settings made for z
Setting up cg style minimization ...
  Unit style    : metal
  Current step  : 4727
Per MPI rank memory allocation (min/avg/max) = 5.441 | 5.816 | 6.074 Mbytes
Step PotEng KinEng TotEng v_fx v_fy v_fz 
    4727   -1152448.9            0   -1152448.9  0.013670598 -0.0093003464 -0.065887012 
    4877   -1152448.9            0   -1152448.9 -2.5085264e-06 8.9458917e-06 -2.3528932e-05 
Loop time of 1.74899 on 104 procs for 150 steps with 288751 atoms

99.9% CPU use with 104 MPI tasks x 1 OpenMP threads

Minimization stats:
  Stopping criterion = energy tolerance
  Energy initial, next-to-last, final = 
     -1152448.93946928  -1152448.94177933  -1152448.94177933
  Force two-norm initial, final = 0.22210254 0.00015413437
  Force max component initial, final = 0.16900486 3.6837576e-05
  Final line search alpha, max atom move = 1.0000000 3.6837576e-05
  Iterations, force evaluations = 150 300

MPI task timing breakdown:
Section |  min time  |  avg time  |  max time  |%varavg| %total
---------------------------------------------------------------
Pair    | 0.45822    | 1.2699     | 1.6415     |  30.3 | 72.61
Neigh   | 0          | 0          | 0          |   0.0 |  0.00
Comm    | 0.026026   | 0.28688    | 0.87296    |  44.8 | 16.40
Output  | 0          | 0          | 0          |   0.0 |  0.00
Modify  | 1.8784e-05 | 0.0024852  | 0.0052851  |   2.3 |  0.14
Other   |            | 0.1898     |            |       | 10.85

Nlocal:        2776.45 ave        3950 max           0 min
Histogram: 8 4 4 0 4 12 8 2 26 36
Nghost:        3879.09 ave        5424 max         232 min
Histogram: 8 0 8 0 16 0 8 8 16 40
Neighs:        79213.3 ave      115105 max           0 min
Histogram: 8 4 4 0 10 6 8 8 24 32

Total # of neighbors = 8238186
Ave neighs/atom = 28.530415
Neighbor list builds = 0
Dangerous builds = 0
The dot product: 2.89161275701981e-07
Setting atom values ...
  1 settings made for x
  1 settings made for y
  1 settings made for z
Setting up cg style minimization ...
  Unit style    : metal
  Current step  : 4877
Per MPI rank memory allocation (min/avg/max) = 5.441 | 5.816 | 6.074 Mbytes
Step PotEng KinEng TotEng v_fx v_fy v_fz 
    4877   -1152448.9            0   -1152448.9  0.008469774 -0.0039611002 -0.040646419 
    5000   -1152448.9            0   -1152448.9 1.5449213e-05 -9.1995021e-06 -6.610652e-05 
    5029   -1152448.9            0   -1152448.9 -8.1408749e-06 1.3191983e-05 8.7786631e-07 
Loop time of 1.7735 on 104 procs for 152 steps with 288751 atoms

99.9% CPU use with 104 MPI tasks x 1 OpenMP threads

Minimization stats:
  Stopping criterion = energy tolerance
  Energy initial, next-to-last, final = 
     -1152448.91934304  -1152448.92162529  -1152448.92162529
  Force two-norm initial, final = 0.22070173 0.00013626382
  Force max component initial, final = 0.1713351 1.3191983e-05
  Final line search alpha, max atom move = 1.0000000 1.3191983e-05
  Iterations, force evaluations = 152 304

MPI task timing breakdown:
Section |  min time  |  avg time  |  max time  |%varavg| %total
---------------------------------------------------------------
Pair    | 0.46148    | 1.2816     | 1.6621     |  30.6 | 72.26
Neigh   | 0          | 0          | 0          |   0.0 |  0.00
Comm    | 0.026378   | 0.29034    | 0.86997    |  45.0 | 16.37
Output  | 0.00018857 | 0.00019112 | 0.00031857 |   0.0 |  0.01
Modify  | 1.8143e-05 | 0.002515   | 0.0053486  |   2.4 |  0.14
Other   |            | 0.1989     |            |       | 11.21

Nlocal:        2776.45 ave        3950 max           0 min
Histogram: 8 4 4 0 4 12 8 2 26 36
Nghost:        3879.12 ave        5424 max         232 min
Histogram: 8 0 8 0 16 0 8 8 16 40
Neighs:        79213.3 ave      115105 max           0 min
Histogram: 8 4 4 0 10 6 8 8 24 32

Total # of neighbors = 8238183
Ave neighs/atom = 28.530405
Neighbor list builds = 0
Dangerous builds = 0
The dot product: -2.48281934826429e-08
Setting atom values ...
  1 settings made for x
  1 settings made for y
  1 settings made for z
Setting up cg style minimization ...
  Unit style    : metal
  Current step  : 5029
Per MPI rank memory allocation (min/avg/max) = 5.441 | 5.816 | 6.074 Mbytes
Step PotEng KinEng TotEng v_fx v_fy v_fz 
    5029   -1152448.9            0   -1152448.9  0.006313124 -0.0022393869 -0.029873163 
    5171   -1152448.9            0   -1152448.9 9.5264486e-06 -2.5590179e-05 3.6700349e-05 
Loop time of 1.64598 on 104 procs for 142 steps with 288751 atoms

99.9% CPU use with 104 MPI tasks x 1 OpenMP threads

Minimization stats:
  Stopping criterion = energy tolerance
  Energy initial, next-to-last, final = 
     -1152448.89936124  -1152448.90133161  -1152448.90133161
  Force two-norm initial, final = 0.22062491 0.00019960263
  Force max component initial, final = 0.17366292 4.9154972e-05
  Final line search alpha, max atom move = 1.0000000 4.9154972e-05
  Iterations, force evaluations = 142 284

MPI task timing breakdown:
Section |  min time  |  avg time  |  max time  |%varavg| %total
---------------------------------------------------------------
Pair    | 0.43112    | 1.1994     | 1.5473     |  29.4 | 72.87
Neigh   | 0          | 0          | 0          |   0.0 |  0.00
Comm    | 0.025327   | 0.27091    | 0.82247    |  43.9 | 16.46
Output  | 0          | 0          | 0          |   0.0 |  0.00
Modify  | 1.7766e-05 | 0.0023538  | 0.0051563  |   2.3 |  0.14
Other   |            | 0.1733     |            |       | 10.53

Nlocal:        2776.45 ave        3950 max           0 min
Histogram: 8 4 4 0 4 12 8 2 26 36
Nghost:        3879.12 ave        5424 max         232 min
Histogram: 8 0 8 0 16 0 8 8 16 40
Neighs:        79213.3 ave      115105 max           0 min
Histogram: 8 4 4 0 10 6 8 8 24 32

Total # of neighbors = 8238182
Ave neighs/atom = 28.530402
Neighbor list builds = 0
Dangerous builds = 0
The dot product: -1.61375458159886e-07
Setting atom values ...
  1 settings made for x
  1 settings made for y
  1 settings made for z
Setting up cg style minimization ...
  Unit style    : metal
  Current step  : 5171
Per MPI rank memory allocation (min/avg/max) = 5.441 | 5.816 | 6.074 Mbytes
Step PotEng KinEng TotEng v_fx v_fy v_fz 
    5171   -1152448.9            0   -1152448.9 0.0046744032 -0.0019481082 -0.019934599 
    5399   -1152448.9            0   -1152448.9 -1.4837044e-06 3.531469e-06 -3.8542953e-06 
Loop time of 2.63181 on 104 procs for 228 steps with 288751 atoms

99.9% CPU use with 104 MPI tasks x 1 OpenMP threads

Minimization stats:
  Stopping criterion = energy tolerance
  Energy initial, next-to-last, final = 
     -1152448.87794827  -1152448.87975855  -1152448.87975855
  Force two-norm initial, final = 0.21940304 2.7847712e-05
  Force max component initial, final = 0.17600109 4.8364073e-06
  Final line search alpha, max atom move = 1.0000000 4.8364073e-06
  Iterations, force evaluations = 228 456

MPI task timing breakdown:
Section |  min time  |  avg time  |  max time  |%varavg| %total
---------------------------------------------------------------
Pair    | 0.68924    | 1.9111     | 2.4816     |  37.2 | 72.62
Neigh   | 0          | 0          | 0          |   0.0 |  0.00
Comm    | 0.039925   | 0.42954    | 1.2932     |  55.1 | 16.32
Output  | 0          | 0          | 0          |   0.0 |  0.00
Modify  | 2.7293e-05 | 0.0037591  | 0.0079721  |   2.9 |  0.14
Other   |            | 0.2874     |            |       | 10.92

Nlocal:        2776.45 ave        3949 max           0 min
Histogram: 8 4 4 0 4 12 8 2 26 36
Nghost:        3879.12 ave        5424 max         232 min
Histogram: 8 0 8 0 16 0 8 8 16 40
Neighs:        79213.3 ave      115069 max           0 min
Histogram: 8 4 4 0 10 6 8 8 24 32

Total # of neighbors = 8238180
Ave neighs/atom = 28.530395
Neighbor list builds = 0
Dangerous builds = 0
The dot product: 8.99913922762331e-09
Setting atom values ...
  1 settings made for x
  1 settings made for y
  1 settings made for z
Setting up cg style minimization ...
  Unit style    : metal
  Current step  : 5399
Per MPI rank memory allocation (min/avg/max) = 5.441 | 5.816 | 6.074 Mbytes
Step PotEng KinEng TotEng v_fx v_fy v_fz 
    5399   -1152448.9            0   -1152448.9 0.0033252284 -0.0015483619   -0.0133176 
    5533   -1152448.9            0   -1152448.9 1.3771844e-06 -8.6576808e-06 2.1868188e-05 
Loop time of 1.57979 on 104 procs for 134 steps with 288751 atoms

99.9% CPU use with 104 MPI tasks x 1 OpenMP threads

Minimization stats:
  Stopping criterion = energy tolerance
  Energy initial, next-to-last, final = 
     -1152448.85436043  -1152448.85628414  -1152448.85628414
  Force two-norm initial, final = 0.22334114 0.00022545855
  Force max component initial, final = 0.17822503 4.6218535e-05
  Final line search alpha, max atom move = 1.0000000 4.6218535e-05
  Iterations, force evaluations = 134 268

MPI task timing breakdown:
Section |  min time  |  avg time  |  max time  |%varavg| %total
---------------------------------------------------------------
Pair    | 0.41355    | 1.1389     | 1.4727     |  28.7 | 72.09
Neigh   | 0          | 0          | 0          |   0.0 |  0.00
Comm    | 0.022773   | 0.2611     | 0.78597    |  42.0 | 16.53
Output  | 0          | 0          | 0          |   0.0 |  0.00
Modify  | 1.6873e-05 | 0.0022245  | 0.0047503  |   2.2 |  0.14
Other   |            | 0.1776     |            |       | 11.24

Nlocal:        2776.45 ave        3945 max           0 min
Histogram: 8 4 4 0 4 12 8 2 26 36
Nghost:        3879.12 ave        5424 max         232 min
Histogram: 8 0 8 0 16 0 8 8 16 40
Neighs:        79213.3 ave      114942 max           0 min
Histogram: 8 4 4 0 10 6 8 8 22 34

Total # of neighbors = 8238179
Ave neighs/atom = 28.530391
Neighbor list builds = 0
Dangerous builds = 0
The dot product: -2.02280272981263e-08
Setting atom values ...
  1 settings made for x
  1 settings made for y
  1 settings made for z
Setting up cg style minimization ...
  Unit style    : metal
  Current step  : 5533
Per MPI rank memory allocation (min/avg/max) = 5.441 | 5.816 | 6.074 Mbytes
Step PotEng KinEng TotEng v_fx v_fy v_fz 
    5533   -1152448.8            0   -1152448.8 0.0025449271 -0.0013269655 -0.009655428 
    5718   -1152448.8            0   -1152448.8 -3.3723517e-06 4.460088e-06 3.6440025e-06 
Loop time of 2.14215 on 104 procs for 185 steps with 288751 atoms

99.9% CPU use with 104 MPI tasks x 1 OpenMP threads

Minimization stats:
  Stopping criterion = energy tolerance
  Energy initial, next-to-last, final = 
     -1152448.82864873  -1152448.83068493  -1152448.83068493
  Force two-norm initial, final = 0.22802275 0.00014397977
  Force max component initial, final = 0.18052535 4.0838671e-05
  Final line search alpha, max atom move = 1.0000000 4.0838671e-05
  Iterations, force evaluations = 185 370

MPI task timing breakdown:
Section |  min time  |  avg time  |  max time  |%varavg| %total
---------------------------------------------------------------
Pair    | 0.55868    | 1.5545     | 2.0166     |  33.6 | 72.57
Neigh   | 0          | 0          | 0          |   0.0 |  0.00
Comm    | 0.03646    | 0.35109    | 1.0539     |  49.7 | 16.39
Output  | 0          | 0          | 0          |   0.0 |  0.00
Modify  | 2.2226e-05 | 0.0030556  | 0.0064792  |   2.6 |  0.14
Other   |            | 0.2335     |            |       | 10.90

Nlocal:        2776.45 ave        3941 max           0 min
Histogram: 8 4 4 0 4 12 8 2 26 36
Nghost:        3879.12 ave        5424 max         232 min
Histogram: 8 0 8 0 16 0 8 8 16 40
Neighs:        79213.2 ave      114791 max           0 min
Histogram: 8 4 4 0 10 6 8 8 22 34

Total # of neighbors = 8238176
Ave neighs/atom = 28.530381
Neighbor list builds = 0
Dangerous builds = 0
The dot product: 4.33609693320094e-09
Setting atom values ...
  1 settings made for x
  1 settings made for y
  1 settings made for z
Setting up cg style minimization ...
  Unit style    : metal
  Current step  : 5718
Per MPI rank memory allocation (min/avg/max) = 5.441 | 5.816 | 6.074 Mbytes
Step PotEng KinEng TotEng v_fx v_fy v_fz 
    5718   -1152448.8            0   -1152448.8 0.0021527917 -0.0012670124 -0.0076898479 
    5911   -1152448.8            0   -1152448.8 5.9886163e-06 -8.5452569e-06 -4.4344324e-06 
Loop time of 2.23337 on 104 procs for 193 steps with 288751 atoms

99.9% CPU use with 104 MPI tasks x 1 OpenMP threads

Minimization stats:
  Stopping criterion = energy tolerance
  Energy initial, next-to-last, final = 
     -1152448.80070265  -1152448.80283694  -1152448.80283694
  Force two-norm initial, final = 0.23252497 9.9799220e-05
  Force max component initial, final = 0.18271061 3.5694475e-05
  Final line search alpha, max atom move = 1.0000000 3.5694475e-05
  Iterations, force evaluations = 193 386

MPI task timing breakdown:
Section |  min time  |  avg time  |  max time  |%varavg| %total
---------------------------------------------------------------
Pair    | 0.58536    | 1.6324     | 2.1071     |  34.4 | 73.09
Neigh   | 0          | 0          | 0          |   0.0 |  0.00
Comm    | 0.033401   | 0.36731    | 1.1096     |  51.1 | 16.45
Output  | 0          | 0          | 0          |   0.0 |  0.00
Modify  | 2.2692e-05 | 0.0031921  | 0.0067771  |   2.7 |  0.14
Other   |            | 0.2304     |            |       | 10.32

Nlocal:        2776.45 ave        3932 max           0 min
Histogram: 8 4 4 0 4 12 8 0 26 38
Nghost:        3879.12 ave        5424 max         232 min
Histogram: 8 0 8 0 16 0 8 8 16 40
Neighs:        79213.2 ave      114515 max           0 min
Histogram: 8 4 4 0 8 8 8 8 20 36

Total # of neighbors = 8238176
Ave neighs/atom = 28.530381
Neighbor list builds = 0
Dangerous builds = 0
The dot product: -1.07548458387869e-08
Setting atom values ...
  1 settings made for x
  1 settings made for y
  1 settings made for z
Setting up cg style minimization ...
  Unit style    : metal
  Current step  : 5911
Per MPI rank memory allocation (min/avg/max) = 5.441 | 5.816 | 6.074 Mbytes
Step PotEng KinEng TotEng v_fx v_fy v_fz 
    5911   -1152448.8            0   -1152448.8 0.0020772069 -0.0015214969 -0.0064484956 
    6000   -1152448.8            0   -1152448.8 -5.1509677e-06   4.3708e-06 1.397012e-05 
    6065   -1152448.8            0   -1152448.8 -6.8814758e-06 7.9084317e-06 1.1670125e-05 
Loop time of 1.79247 on 104 procs for 154 steps with 288751 atoms

99.9% CPU use with 104 MPI tasks x 1 OpenMP threads

Minimization stats:
  Stopping criterion = energy tolerance
  Energy initial, next-to-last, final = 
      -1152448.7704455  -1152448.77265496  -1152448.77265496
  Force two-norm initial, final = 0.23648572 0.00021333491
  Force max component initial, final = 0.18501185 8.4082869e-05
  Final line search alpha, max atom move = 1.0000000 8.4082869e-05
  Iterations, force evaluations = 154 308

MPI task timing breakdown:
Section |  min time  |  avg time  |  max time  |%varavg| %total
---------------------------------------------------------------
Pair    | 0.46769    | 1.2973     | 1.6814     |  30.8 | 72.38
Neigh   | 0          | 0          | 0          |   0.0 |  0.00
Comm    | 0.026723   | 0.29277    | 0.88804    |  45.4 | 16.33
Output  | 0.00025495 | 0.00026303 | 0.00038975 |   0.0 |  0.01
Modify  | 1.8919e-05 | 0.0025469  | 0.0054252  |   2.4 |  0.14
Other   |            | 0.1996     |            |       | 11.13

Nlocal:        2776.45 ave        3931 max           0 min
Histogram: 8 4 4 0 4 12 8 0 26 38
Nghost:        3879.11 ave        5424 max         232 min
Histogram: 8 0 8 0 16 0 8 8 16 40
Neighs:        79213.2 ave      114491 max           0 min
Histogram: 8 4 4 0 8 8 8 8 20 36

Total # of neighbors = 8238169
Ave neighs/atom = 28.530357
Neighbor list builds = 0
Dangerous builds = 0
The dot product: 1.56341634490203e-08
Setting atom values ...
  1 settings made for x
  1 settings made for y
  1 settings made for z
Setting up cg style minimization ...
  Unit style    : metal
  Current step  : 6065
Per MPI rank memory allocation (min/avg/max) = 5.441 | 5.816 | 6.074 Mbytes
Step PotEng KinEng TotEng v_fx v_fy v_fz 
    6065   -1152448.7            0   -1152448.7 0.0021855293 -0.0019214175 -0.0057529213 
    6291   -1152448.7            0   -1152448.7 -2.4069973e-07 8.4066316e-07 -1.4987083e-06 
Loop time of 2.60765 on 104 procs for 226 steps with 288751 atoms

99.9% CPU use with 104 MPI tasks x 1 OpenMP threads

Minimization stats:
  Stopping criterion = energy tolerance
  Energy initial, next-to-last, final = 
      -1152448.7378215  -1152448.74008415  -1152448.74008415
  Force two-norm initial, final = 0.23977129 4.3398604e-05
  Force max component initial, final = 0.18746269 1.5507740e-05
  Final line search alpha, max atom move = 1.0000000 1.5507740e-05
  Iterations, force evaluations = 226 452

MPI task timing breakdown:
Section |  min time  |  avg time  |  max time  |%varavg| %total
---------------------------------------------------------------
Pair    | 0.68743    | 1.9063     | 2.458      |  37.1 | 73.11
Neigh   | 0          | 0          | 0          |   0.0 |  0.00
Comm    | 0.040749   | 0.42522    | 1.2895     |  55.3 | 16.31
Output  | 0          | 0          | 0          |   0.0 |  0.00
Modify  | 2.6909e-05 | 0.0037252  | 0.007911   |   2.9 |  0.14
Other   |            | 0.2724     |            |       | 10.45

Nlocal:        2776.45 ave        3930 max           0 min
Histogram: 8 4 4 0 4 12 8 0 26 38
Nghost:        3879.11 ave        5424 max         232 min
Histogram: 8 0 8 0 16 0 8 8 16 40
Neighs:        79213.1 ave      114454 max           0 min
Histogram: 8 4 4 0 8 8 8 8 20 36

Total # of neighbors = 8238166
Ave neighs/atom = 28.530346
Neighbor list builds = 0
Dangerous builds = 0
The dot product: -2.41138060341892e-10
Setting atom values ...
  1 settings made for x
  1 settings made for y
  1 settings made for z
Setting up cg style minimization ...
  Unit style    : metal
  Current step  : 6291
Per MPI rank memory allocation (min/avg/max) = 5.441 | 5.816 | 6.074 Mbytes
Step PotEng KinEng TotEng v_fx v_fy v_fz 
    6291   -1152448.7            0   -1152448.7 0.0024794165 -0.0024263453 -0.0057485039 
    6404   -1152448.7            0   -1152448.7 -5.7077457e-07 -9.6256036e-07 6.4990243e-06 
Loop time of 1.33811 on 104 procs for 113 steps with 288751 atoms

99.9% CPU use with 104 MPI tasks x 1 OpenMP threads

Minimization stats:
  Stopping criterion = energy tolerance
  Energy initial, next-to-last, final = 
     -1152448.70280364  -1152448.70509589  -1152448.70509589
  Force two-norm initial, final = 0.24221016 0.00041011311
  Force max component initial, final = 0.18975184 0.00015463967
  Final line search alpha, max atom move = 1.0000000 0.00015463967
  Iterations, force evaluations = 113 226

MPI task timing breakdown:
Section |  min time  |  avg time  |  max time  |%varavg| %total
---------------------------------------------------------------
Pair    | 0.34508    | 0.95992    | 1.2498     |  26.7 | 71.74
Neigh   | 0          | 0          | 0          |   0.0 |  0.00
Comm    | 0.021847   | 0.21906    | 0.64947    |  38.4 | 16.37
Output  | 0          | 0          | 0          |   0.0 |  0.00
Modify  | 1.3639e-05 | 0.0018723  | 0.0039866  |   2.0 |  0.14
Other   |            | 0.1573     |            |       | 11.75

Nlocal:        2776.45 ave        3930 max           0 min
Histogram: 8 4 4 0 4 12 8 0 26 38
Nghost:        3879.07 ave        5424 max         232 min
Histogram: 8 0 8 0 16 0 8 8 16 40
Neighs:        79213.1 ave      114456 max           0 min
Histogram: 8 4 4 0 8 8 8 8 20 36

Total # of neighbors = 8238166
Ave neighs/atom = 28.530346
Neighbor list builds = 0
Dangerous builds = 0
The dot product: 4.61195251613622e-09
Setting atom values ...
  1 settings made for x
  1 settings made for y
  1 settings made for z
Setting up cg style minimization ...
  Unit style    : metal
  Current step  : 6404
Per MPI rank memory allocation (min/avg/max) = 5.441 | 5.816 | 6.074 Mbytes
Step PotEng KinEng TotEng v_fx v_fy v_fz 
    6404   -1152448.7            0   -1152448.7 0.0028656627 -0.0030411407 -0.0059051344 
    6618   -1152448.7            0   -1152448.7 -1.5471362e-07 6.2472843e-07 -1.2562464e-06 
Loop time of 2.5015 on 104 procs for 214 steps with 288751 atoms

99.9% CPU use with 104 MPI tasks x 1 OpenMP threads

Minimization stats:
  Stopping criterion = energy tolerance
  Energy initial, next-to-last, final = 
     -1152448.66538115  -1152448.66768692  -1152448.66768692
  Force two-norm initial, final = 0.24402071 6.4970450e-05
  Force max component initial, final = 0.19197692 2.5710799e-05
  Final line search alpha, max atom move = 1.0000000 2.5710799e-05
  Iterations, force evaluations = 214 428

MPI task timing breakdown:
Section |  min time  |  avg time  |  max time  |%varavg| %total
---------------------------------------------------------------
Pair    | 0.64826    | 1.8105     | 2.3312     |  36.3 | 72.38
Neigh   | 0          | 0          | 0          |   0.0 |  0.00
Comm    | 0.037312   | 0.41373    | 1.2468     |  53.0 | 16.54
Output  | 0          | 0          | 0          |   0.0 |  0.00
Modify  | 2.513e-05  | 0.0035323  | 0.0075284  |   2.8 |  0.14
Other   |            | 0.2737     |            |       | 10.94

Nlocal:        2776.45 ave        3930 max           0 min
Histogram: 8 4 4 0 4 12 8 0 26 38
Nghost:        3879.07 ave        5424 max         232 min
Histogram: 8 0 8 0 16 0 8 8 16 40
Neighs:        79213.1 ave      114455 max           0 min
Histogram: 8 4 4 0 8 8 8 8 20 36

Total # of neighbors = 8238163
Ave neighs/atom = 28.530336
Neighbor list builds = 0
Dangerous builds = 0
The dot product: -5.71162230606273e-10
Setting atom values ...
  1 settings made for x
  1 settings made for y
  1 settings made for z
Setting up cg style minimization ...
  Unit style    : metal
  Current step  : 6618
Per MPI rank memory allocation (min/avg/max) = 5.441 | 5.816 | 6.074 Mbytes
Step PotEng KinEng TotEng v_fx v_fy v_fz 
    6618   -1152448.6            0   -1152448.6 0.0034177002 -0.0037499429 -0.0066943904 
    6787   -1152448.6            0   -1152448.6 -1.1469941e-06 -6.3599738e-07 8.7600643e-06 
Loop time of 1.98779 on 104 procs for 169 steps with 288751 atoms

99.9% CPU use with 104 MPI tasks x 1 OpenMP threads

[...]

Nlocal:        2776.45 ave        3961 max           0 min
Histogram: 8 4 4 0 6 10 8 3 27 34
Nghost:        3879.09 ave        5425 max         232 min
Histogram: 8 0 8 0 16 0 8 8 16 40
Neighs:        79213.4 ave      115392 max           0 min
Histogram: 8 4 4 0 10 6 8 8 24 32

Total # of neighbors = 8238193
Ave neighs/atom = 28.530440
Neighbor list builds = 0
Dangerous builds = 0
The dot product: 6.75905756790839e-09
Setting atom values ...
  1 settings made for x
  1 settings made for y
  1 settings made for z
Setting up cg style minimization ...
  Unit style    : metal
  Current step  : 26423
Per MPI rank memory allocation (min/avg/max) = 5.441 | 5.816 | 6.074 Mbytes
Step PotEng KinEng TotEng v_fx v_fy v_fz 
   26423   -1152449.4            0   -1152449.4 -0.023823327  -0.01503916 -0.033808565 
   26596   -1152449.4            0   -1152449.4 6.6584718e-06 -4.2260877e-05 9.4207087e-06 
Loop time of 2.04202 on 104 procs for 173 steps with 288751 atoms

99.9% CPU use with 104 MPI tasks x 1 OpenMP threads

Minimization stats:
  Stopping criterion = energy tolerance
  Energy initial, next-to-last, final = 
     -1152449.42894945  -1152449.43036343  -1152449.43036343
  Force two-norm initial, final = 0.17392005 0.00017025054
  Force max component initial, final = 0.080230469 4.2260877e-05
  Final line search alpha, max atom move = 1.0000000 4.2260877e-05
  Iterations, force evaluations = 173 346

MPI task timing breakdown:
Section |  min time  |  avg time  |  max time  |%varavg| %total
---------------------------------------------------------------
Pair    | 0.52887    | 1.4552     | 1.9113     |  32.6 | 71.26
Neigh   | 0          | 0          | 0          |   0.0 |  0.00
Comm    | 0.033681   | 0.33485    | 0.99214    |  47.4 | 16.40
Output  | 0          | 0          | 0          |   0.0 |  0.00
Modify  | 2.0966e-05 | 0.0028747  | 0.0061239  |   2.5 |  0.14
Other   |            | 0.2491     |            |       | 12.20

Nlocal:        2776.45 ave        3961 max           0 min
Histogram: 8 4 4 0 6 10 8 4 26 34
Nghost:        3879.09 ave        5424 max         232 min
Histogram: 8 0 8 0 16 0 8 8 16 40
Neighs:        79213.4 ave      115386 max           0 min
Histogram: 8 4 4 0 10 6 8 8 24 32

Total # of neighbors = 8238194
Ave neighs/atom = 28.530443
Neighbor list builds = 0
Dangerous builds = 0
The dot product: -2.79332897415588e-08
Setting atom values ...
  1 settings made for x
  1 settings made for y
  1 settings made for z
Setting up cg style minimization ...
  Unit style    : metal
  Current step  : 26596
Per MPI rank memory allocation (min/avg/max) = 5.441 | 5.816 | 6.074 Mbytes
Step PotEng KinEng TotEng v_fx v_fy v_fz 
   26596   -1152449.4            0   -1152449.4 -0.024367713 -0.014521566 -0.034631364 
   26752   -1152449.4            0   -1152449.4 3.7165307e-05 8.2720741e-06 5.2811571e-05 
Loop time of 1.83215 on 104 procs for 156 steps with 288751 atoms

99.9% CPU use with 104 MPI tasks x 1 OpenMP threads

Minimization stats:
  Stopping criterion = energy tolerance
  Energy initial, next-to-last, final = 
     -1152449.42260914  -1152449.42400573  -1152449.42400573
  Force two-norm initial, final = 0.17301262 0.00025885519
  Force max component initial, final = 0.080567426 5.2811571e-05
  Final line search alpha, max atom move = 1.0000000 5.2811571e-05
  Iterations, force evaluations = 156 312

MPI task timing breakdown:
Section |  min time  |  avg time  |  max time  |%varavg| %total
---------------------------------------------------------------
Pair    | 0.47529    | 1.3143     | 1.7284     |  31.0 | 71.74
Neigh   | 0          | 0          | 0          |   0.0 |  0.00
Comm    | 0.029179   | 0.30294    | 0.88873    |  44.6 | 16.53
Output  | 0          | 0          | 0          |   0.0 |  0.00
Modify  | 1.8768e-05 | 0.0025891  | 0.0055199  |   2.4 |  0.14
Other   |            | 0.2123     |            |       | 11.59

Nlocal:        2776.45 ave        3961 max           0 min
Histogram: 8 4 4 0 6 10 8 4 26 34
Nghost:        3879.12 ave        5424 max         232 min
Histogram: 8 0 8 0 16 0 8 8 16 40
Neighs:        79213.4 ave      115376 max           0 min
Histogram: 8 4 4 0 10 6 8 8 24 32

Total # of neighbors = 8238195
Ave neighs/atom = 28.530447
Neighbor list builds = 0
Dangerous builds = 0
The dot product: -1.52171234792399e-07
Setting atom values ...
  1 settings made for x
  1 settings made for y
  1 settings made for z
Setting up cg style minimization ...
  Unit style    : metal
  Current step  : 26752
Per MPI rank memory allocation (min/avg/max) = 5.441 | 5.816 | 6.074 Mbytes
Step PotEng KinEng TotEng v_fx v_fy v_fz 
   26752   -1152449.4            0   -1152449.4 -0.023436898 -0.015973187  -0.03336266 
   26911   -1152449.4            0   -1152449.4 4.6407718e-05 1.4825678e-06 6.6055195e-05 
Loop time of 1.86829 on 104 procs for 159 steps with 288751 atoms

99.9% CPU use with 104 MPI tasks x 1 OpenMP threads

Minimization stats:
  Stopping criterion = energy tolerance
  Energy initial, next-to-last, final = 
     -1152449.41494033  -1152449.41630706  -1152449.41630706
  Force two-norm initial, final = 0.17141462 0.00025736619
  Force max component initial, final = 0.080836553 6.6055195e-05
  Final line search alpha, max atom move = 1.0000000 6.6055195e-05
  Iterations, force evaluations = 159 318

MPI task timing breakdown:
Section |  min time  |  avg time  |  max time  |%varavg| %total
---------------------------------------------------------------
Pair    | 0.48459    | 1.3385     | 1.7577     |  31.2 | 71.64
Neigh   | 0          | 0          | 0          |   0.0 |  0.00
Comm    | 0.027858   | 0.30801    | 0.90883    |  45.3 | 16.49
Output  | 0          | 0          | 0          |   0.0 |  0.00
Modify  | 1.8456e-05 | 0.0026374  | 0.0057006  |   2.4 |  0.14
Other   |            | 0.2191     |            |       | 11.73

Nlocal:        2776.45 ave        3961 max           0 min
Histogram: 8 4 4 0 6 10 8 4 26 34
Nghost:        3879.14 ave        5424 max         232 min
Histogram: 8 0 8 0 16 0 8 8 16 40
Neighs:        79213.4 ave      115395 max           0 min
Histogram: 8 4 4 0 10 6 8 8 24 32

Total # of neighbors = 8238194
Ave neighs/atom = 28.530443
Neighbor list builds = 0
Dangerous builds = 0
The dot product: -1.75894553492361e-07
Setting atom values ...
  1 settings made for x
  1 settings made for y
  1 settings made for z
Setting up cg style minimization ...
  Unit style    : metal
  Current step  : 26911
Per MPI rank memory allocation (min/avg/max) = 5.441 | 5.816 | 6.074 Mbytes
Step PotEng KinEng TotEng v_fx v_fy v_fz 
   26911   -1152449.4            0   -1152449.4 -0.022535432 -0.017424187 -0.032126188 
   27000   -1152449.4            0   -1152449.4 5.7157798e-05 -1.9632742e-05 8.1483862e-05 
   27054   -1152449.4            0   -1152449.4 1.7898188e-05 -6.7801006e-05 2.5516072e-05 
Loop time of 1.68837 on 104 procs for 143 steps with 288751 atoms

99.9% CPU use with 104 MPI tasks x 1 OpenMP threads

Minimization stats:
  Stopping criterion = energy tolerance
  Energy initial, next-to-last, final = 
     -1152449.40588546  -1152449.40722686  -1152449.40722686
  Force two-norm initial, final = 0.170121 0.00033330523
  Force max component initial, final = 0.081126093 7.2633199e-05
  Final line search alpha, max atom move = 1.0000000 7.2633199e-05
  Iterations, force evaluations = 143 286

MPI task timing breakdown:
Section |  min time  |  avg time  |  max time  |%varavg| %total
---------------------------------------------------------------
Pair    | 0.43612    | 1.2059     | 1.5914     |  29.7 | 71.42
Neigh   | 0          | 0          | 0          |   0.0 |  0.00
Comm    | 0.02612    | 0.27766    | 0.82177    |  43.0 | 16.45
Output  | 0.00018318 | 0.00018657 | 0.0003301  |   0.0 |  0.01
Modify  | 1.7041e-05 | 0.0023777  | 0.0050802  |   2.3 |  0.14
Other   |            | 0.2023     |            |       | 11.98

Nlocal:        2776.45 ave        3961 max           0 min
Histogram: 8 4 4 0 6 10 8 4 26 34
Nghost:        3879.12 ave        5424 max         232 min
Histogram: 8 0 8 0 16 0 8 8 16 40
Neighs:        79213.4 ave      115396 max           0 min
Histogram: 8 4 4 0 10 6 8 8 24 32

Total # of neighbors = 8238197
Ave neighs/atom = 28.530454
Neighbor list builds = 0
Dangerous builds = 0
The dot product: -7.70316845061534e-08
Setting atom values ...
  1 settings made for x
  1 settings made for y
  1 settings made for z
Setting up cg style minimization ...
  Unit style    : metal
  Current step  : 27054
Per MPI rank memory allocation (min/avg/max) = 5.441 | 5.816 | 6.074 Mbytes
Step PotEng KinEng TotEng v_fx v_fy v_fz 
   27054   -1152449.4            0   -1152449.4 -0.021738544 -0.018741717 -0.031031573 
   27234   -1152449.4            0   -1152449.4 -1.0452798e-05 -1.4362487e-05 -1.4920532e-05 
Loop time of 2.13802 on 104 procs for 180 steps with 288751 atoms

99.9% CPU use with 104 MPI tasks x 1 OpenMP threads

Minimization stats:
  Stopping criterion = energy tolerance
  Energy initial, next-to-last, final = 
     -1152449.39541445  -1152449.39673742  -1152449.39673742
  Force two-norm initial, final = 0.16915621 0.00012687373
  Force max component initial, final = 0.081413264 1.9898150e-05
  Final line search alpha, max atom move = 1.0000000 1.9898150e-05
  Iterations, force evaluations = 180 360

MPI task timing breakdown:
Section |  min time  |  avg time  |  max time  |%varavg| %total
---------------------------------------------------------------
Pair    | 0.54973    | 1.5178     | 1.9954     |  33.2 | 70.99
Neigh   | 0          | 0          | 0          |   0.0 |  0.00
Comm    | 0.031613   | 0.35082    | 1.0337     |  48.0 | 16.41
Output  | 0          | 0          | 0          |   0.0 |  0.00
Modify  | 2.0874e-05 | 0.0029869  | 0.0063814  |   2.6 |  0.14
Other   |            | 0.2664     |            |       | 12.46

Nlocal:        2776.45 ave        3961 max           0 min
Histogram: 8 4 4 0 6 10 8 4 26 34
Nghost:        3879.12 ave        5425 max         232 min
Histogram: 8 0 8 0 16 0 8 8 16 40
Neighs:        79213.4 ave      115399 max           0 min
Histogram: 8 4 4 0 10 6 8 8 24 32

Total # of neighbors = 8238196
Ave neighs/atom = 28.530450
Neighbor list builds = 0
Dangerous builds = 0
The dot product: 3.06390950603928e-08
Setting atom values ...
  1 settings made for x
  1 settings made for y
  1 settings made for z
Setting up cg style minimization ...
  Unit style    : metal
  Current step  : 27234
Per MPI rank memory allocation (min/avg/max) = 5.441 | 5.816 | 6.074 Mbytes
Step PotEng KinEng TotEng v_fx v_fy v_fz 
   27234   -1152449.4            0   -1152449.4 -0.021008918  -0.01971167 -0.030026022 
   27423   -1152449.4            0   -1152449.4 8.2587199e-06 -1.9100931e-05 1.1808494e-05 
Loop time of 2.20773 on 104 procs for 189 steps with 288751 atoms

99.9% CPU use with 104 MPI tasks x 1 OpenMP threads

Minimization stats:
  Stopping criterion = energy tolerance
  Energy initial, next-to-last, final = 
     -1152449.38350979  -1152449.38481848  -1152449.38481848
  Force two-norm initial, final = 0.1683848 0.00010473857
  Force max component initial, final = 0.081641257 2.5697950e-05
  Final line search alpha, max atom move = 1.0000000 2.5697950e-05
  Iterations, force evaluations = 189 378

MPI task timing breakdown:
Section |  min time  |  avg time  |  max time  |%varavg| %total
---------------------------------------------------------------
Pair    | 0.57642    | 1.5924     | 2.0759     |  34.0 | 72.13
Neigh   | 0          | 0          | 0          |   0.0 |  0.00
Comm    | 0.032991   | 0.36606    | 1.0848     |  49.5 | 16.58
Output  | 0          | 0          | 0          |   0.0 |  0.00
Modify  | 2.1953e-05 | 0.0031375  | 0.0067366  |   2.6 |  0.14
Other   |            | 0.2461     |            |       | 11.15

Nlocal:        2776.45 ave        3961 max           0 min
Histogram: 8 4 4 0 6 10 8 4 26 34
Nghost:        3879.12 ave        5424 max         232 min
Histogram: 8 0 8 0 16 0 8 8 16 40
Neighs:        79213.4 ave      115399 max           0 min
Histogram: 8 4 4 0 10 6 8 8 24 32

Total # of neighbors = 8238196
Ave neighs/atom = 28.530450
Neighbor list builds = 0
Dangerous builds = 0
The dot product: -2.31409860571587e-08
Setting atom values ...
  1 settings made for x
  1 settings made for y
  1 settings made for z
Setting up cg style minimization ...
  Unit style    : metal
  Current step  : 27423
Per MPI rank memory allocation (min/avg/max) = 5.441 | 5.816 | 6.074 Mbytes
Step PotEng KinEng TotEng v_fx v_fy v_fz 
   27423   -1152449.4            0   -1152449.4 -0.020310986 -0.020505573 -0.029060311 
   27609   -1152449.4            0   -1152449.4 9.9814842e-06 -1.8839639e-05 1.4287018e-05 
Loop time of 2.18993 on 104 procs for 186 steps with 288751 atoms

99.9% CPU use with 104 MPI tasks x 1 OpenMP threads

Minimization stats:
  Stopping criterion = energy tolerance
  Energy initial, next-to-last, final = 
     -1152449.37015683  -1152449.37145709  -1152449.37145709
  Force two-norm initial, final = 0.1677733 0.00011268458
  Force max component initial, final = 0.081809804 2.4077321e-05
  Final line search alpha, max atom move = 1.0000000 2.4077321e-05
  Iterations, force evaluations = 186 372

MPI task timing breakdown:
Section |  min time  |  avg time  |  max time  |%varavg| %total
---------------------------------------------------------------
Pair    | 0.56543    | 1.5628     | 2.0662     |  33.7 | 71.36
Neigh   | 0          | 0          | 0          |   0.0 |  0.00
Comm    | 0.033931   | 0.35878    | 1.0583     |  48.7 | 16.38
Output  | 0          | 0          | 0          |   0.0 |  0.00
Modify  | 2.1484e-05 | 0.0030834  | 0.0066256  |   2.6 |  0.14
Other   |            | 0.2653     |            |       | 12.11

Nlocal:        2776.45 ave        3961 max           0 min
Histogram: 8 4 4 0 6 10 8 4 26 34
Nghost:        3879.16 ave        5424 max         232 min
Histogram: 8 0 8 0 16 0 8 8 16 40
Neighs:        79213.4 ave      115392 max           0 min
Histogram: 8 4 4 0 10 6 8 8 24 32

Total # of neighbors = 8238195
Ave neighs/atom = 28.530447
Neighbor list builds = 0
Dangerous builds = 0
The dot product: -2.43125787576892e-08
Setting atom values ...
  1 settings made for x
  1 settings made for y
  1 settings made for z
Setting up cg style minimization ...
  Unit style    : metal
  Current step  : 27609
Per MPI rank memory allocation (min/avg/max) = 5.441 | 5.816 | 6.074 Mbytes
Step PotEng KinEng TotEng v_fx v_fy v_fz 
   27609   -1152449.4            0   -1152449.4 -0.019676748 -0.021074348 -0.028179535 
   27788   -1152449.4            0   -1152449.4 -1.7889812e-05 -3.3557145e-06 -2.5623762e-05 
Loop time of 2.0976 on 104 procs for 179 steps with 288751 atoms

99.9% CPU use with 104 MPI tasks x 1 OpenMP threads

Minimization stats:
  Stopping criterion = energy tolerance
  Energy initial, next-to-last, final = 
     -1152449.35534926  -1152449.35664841  -1152449.35664841
  Force two-norm initial, final = 0.16731777 0.00014583042
  Force max component initial, final = 0.081973548 2.6912586e-05
  Final line search alpha, max atom move = 1.0000000 2.6912586e-05
  Iterations, force evaluations = 179 358

MPI task timing breakdown:
Section |  min time  |  avg time  |  max time  |%varavg| %total
---------------------------------------------------------------
Pair    | 0.54808    | 1.5101     | 1.9681     |  33.1 | 71.99
Neigh   | 0          | 0          | 0          |   0.0 |  0.00
Comm    | 0.034326   | 0.34696    | 1.0346     |  48.4 | 16.54
Output  | 0          | 0          | 0          |   0.0 |  0.00
Modify  | 2.1484e-05 | 0.0029734  | 0.0063674  |   2.6 |  0.14
Other   |            | 0.2376     |            |       | 11.33

Nlocal:        2776.45 ave        3960 max           0 min
Histogram: 8 4 4 0 4 12 8 4 26 34
Nghost:        3879.16 ave        5424 max         232 min
Histogram: 8 0 8 0 16 0 8 8 16 40
Neighs:        79213.4 ave      115361 max           0 min
Histogram: 8 4 4 0 10 6 8 8 24 32

Total # of neighbors = 8238192
Ave neighs/atom = 28.530436
Neighbor list builds = 0
Dangerous builds = 0
The dot product: 3.45276220121345e-08
Setting atom values ...
  1 settings made for x
  1 settings made for y
  1 settings made for z
Setting up cg style minimization ...
  Unit style    : metal
  Current step  : 27788
Per MPI rank memory allocation (min/avg/max) = 5.441 | 5.816 | 6.074 Mbytes
Step PotEng KinEng TotEng v_fx v_fy v_fz 
   27788   -1152449.3            0   -1152449.3 -0.019094605  -0.02142796 -0.027365228 
   28000   -1152449.3            0   -1152449.3 1.4820007e-06 7.6413438e-06 2.1221783e-06 
   28015   -1152449.3            0   -1152449.3  5.28163e-07 1.2794588e-06 7.5673182e-07 
Loop time of 2.65462 on 104 procs for 227 steps with 288751 atoms

99.9% CPU use with 104 MPI tasks x 1 OpenMP threads

Minimization stats:
  Stopping criterion = energy tolerance
  Energy initial, next-to-last, final = 
     -1152449.33909141  -1152449.34039833  -1152449.34039833
  Force two-norm initial, final = 0.16700075 2.3398172e-05
  Force max component initial, final = 0.082172098 1.2794588e-06
  Final line search alpha, max atom move = 1.0000000 1.2794588e-06
  Iterations, force evaluations = 227 454

MPI task timing breakdown:
Section |  min time  |  avg time  |  max time  |%varavg| %total
---------------------------------------------------------------
Pair    | 0.69129    | 1.9076     | 2.5052     |  37.3 | 71.86
Neigh   | 0          | 0          | 0          |   0.0 |  0.00
Comm    | 0.039406   | 0.43757    | 1.2948     |  54.2 | 16.48
Output  | 0.00014719 | 0.00015414 | 0.00033699 |   0.0 |  0.01
Modify  | 2.7228e-05 | 0.0037592  | 0.0080755  |   2.9 |  0.14
Other   |            | 0.3055     |            |       | 11.51

Nlocal:        2776.45 ave        3960 max           0 min
Histogram: 8 4 4 0 4 12 8 4 26 34
Nghost:        3879.12 ave        5424 max         232 min
Histogram: 8 0 8 0 16 0 8 8 16 40
Neighs:        79213.4 ave      115361 max           0 min
Histogram: 8 4 4 0 10 6 8 8 24 32

Total # of neighbors = 8238191
Ave neighs/atom = 28.530433
Neighbor list builds = 0
Dangerous builds = 0
The dot product: 9.95522424266234e-12
Setting up cg style minimization ...
  Unit style    : metal
  Current step  : 28015
Per MPI rank memory allocation (min/avg/max) = 5.441 | 5.816 | 6.074 Mbytes
Step PotEng KinEng TotEng v_fx v_fy v_fz 
   28015   -1152449.3            0   -1152449.3   0.69563078 -0.00013956556   -0.4852781 
   28268   -1152449.4            0   -1152449.4 -5.4500167e-06 7.5505295e-06 3.2045865e-05 
Loop time of 2.95571 on 104 procs for 253 steps with 288751 atoms

99.9% CPU use with 104 MPI tasks x 1 OpenMP threads

Minimization stats:
  Stopping criterion = energy tolerance
  Energy initial, next-to-last, final = 
     -1152449.34039833  -1152449.44109323  -1152449.44109323
  Force two-norm initial, final = 0.84817276 0.00011093377
  Force max component initial, final = 0.69563078 3.2045865e-05
  Final line search alpha, max atom move = 1.0000000 3.2045865e-05
  Iterations, force evaluations = 253 506

MPI task timing breakdown:
Section |  min time  |  avg time  |  max time  |%varavg| %total
---------------------------------------------------------------
Pair    | 0.77742    | 2.1303     | 2.7801     |  39.2 | 72.07
Neigh   | 1.0203e-05 | 0.0029388  | 0.0042938  |   2.2 |  0.10
Comm    | 0.046634   | 0.48685    | 1.4474     |  57.3 | 16.47
Output  | 0          | 0          | 0          |   0.0 |  0.00
Modify  | 3.0792e-05 | 0.002736   | 0.0070923  |   3.3 |  0.09
Other   |            | 0.3329     |            |       | 11.26

Nlocal:        2776.45 ave        3960 max           0 min
Histogram: 8 4 4 0 4 12 8 4 26 34
Nghost:        3879.11 ave        5424 max         232 min
Histogram: 8 0 8 0 16 0 8 8 16 40
Neighs:        79213.4 ave      115361 max           0 min
Histogram: 8 4 4 0 10 6 8 8 24 32

Total # of neighbors = 8238192
Ave neighs/atom = 28.530436
Neighbor list builds = 1
Dangerous builds = 0
