LAMMPS (29 Oct 2020)
OMP_NUM_THREADS environment is not set. Defaulting to 1 thread. (../comm.cpp:94)
  using 1 OpenMP thread(s) per MPI task
OMP_NUM_THREADS environment is not set. Defaulting to 1 thread. (../comm.cpp:94)
  using 1 OpenMP thread(s) per MPI task
Reading data file ...
  orthogonal box = (-122.39241 -121.13707 -37.090501) to (122.39241 121.13707 37.090501)
  13 by 4 by 2 MPI processor grid
  reading atoms ...
  288751 atoms
  read_data CPU = 0.392 seconds
199981 atoms in group inner
88770 atoms in group outer
1 atoms in group carbon
Neighbor list info ...
  update every 1 steps, delay 0 steps, check yes
  max neighbors/atom: 2000, page size: 100000
  master list distance cutoff = 5.6
  ghost atom cutoff = 5.6
  binsize = 2.8, bins = 88 87 27
  1 neighbor lists, perpetual/occasional/extra = 1 0 0
  (1) pair eam/alloy, perpetual
      attributes: half, newton on
      pair build: half/bin/atomonly/newton
      stencil: half/bin/3d/newton
      bin: standard
Setting up cg style minimization ...
  Unit style    : metal
  Current step  : 0
Per MPI rank memory allocation (min/avg/max) = 5.441 | 5.816 | 6.074 Mbytes
Step v_fx v_fy v_fz PotEng KinEng TotEng 
       0     25.85773     15.00828    50.574033   -1152433.3            0   -1152433.3 
     198 1.0690059e-06 -2.9726154e-07 6.9500269e-06   -1152449.5            0   -1152449.5 
Loop time of 2.2883 on 104 procs for 198 steps with 288751 atoms

99.9% CPU use with 104 MPI tasks x 1 OpenMP threads

Minimization stats:
  Stopping criterion = energy tolerance
  Energy initial, next-to-last, final = 
     -1152433.26171161  -1152449.45035286  -1152449.45035286
  Force two-norm initial, final = 88.057833 3.4354143e-05
  Force max component initial, final = 57.766401 6.9500269e-06
  Final line search alpha, max atom move = 1.0000000 6.9500269e-06
  Iterations, force evaluations = 198 388

MPI task timing breakdown:
Section |  min time  |  avg time  |  max time  |%varavg| %total
---------------------------------------------------------------
Pair    | 0.61664    | 1.638      | 2.1223     |  33.6 | 71.58
Neigh   | 5.1812e-05 | 0.01484    | 0.021368   |   5.0 |  0.65
Comm    | 0.047595   | 0.36938    | 1.1066     |  50.6 | 16.14
Output  | 0          | 0          | 0          |   0.0 |  0.00
Modify  | 2.2321e-05 | 0.0020866  | 0.0053932  |   2.9 |  0.09
Other   |            | 0.264      |            |       | 11.54

Nlocal:        2776.45 ave        3959 max           0 min
Histogram: 8 4 4 0 4 12 8 2 28 34
Nghost:        3879.03 ave        5424 max         232 min
Histogram: 8 0 8 0 16 0 8 8 16 40
Neighs:        79213.6 ave      115415 max           0 min
Histogram: 8 4 4 0 10 6 8 8 24 32

Total # of neighbors = 8238211
Ave neighs/atom = 28.530502
Neighbor list builds = 5
Dangerous builds = 0
Setting atom values ...
  1 settings made for x
  1 settings made for y
  1 settings made for z
Setting up cg style minimization ...
  Unit style    : metal
  Current step  : 198
Per MPI rank memory allocation (min/avg/max) = 5.441 | 5.816 | 6.074 Mbytes
Step PotEng KinEng TotEng v_fx v_fy v_fz 
     198   -1152449.4            0   -1152449.4   0.01243121 -0.016209559 -0.020758177 
     344   -1152449.5            0   -1152449.5 1.507223e-05 -8.6472156e-06 9.971452e-06 
Loop time of 1.71194 on 104 procs for 146 steps with 288751 atoms

99.9% CPU use with 104 MPI tasks x 1 OpenMP threads

Minimization stats:
  Stopping criterion = energy tolerance
  Energy initial, next-to-last, final = 
     -1152449.44947029  -1152449.45002046  -1152449.45002046
  Force two-norm initial, final = 0.10820962 0.00015956056
  Force max component initial, final = 0.047629799 2.1093237e-05
  Final line search alpha, max atom move = 1.0000000 2.1093237e-05
  Iterations, force evaluations = 146 292

MPI task timing breakdown:
Section |  min time  |  avg time  |  max time  |%varavg| %total
---------------------------------------------------------------
Pair    | 0.44628    | 1.2344     | 1.6045     |  29.9 | 72.10
Neigh   | 0          | 0          | 0          |   0.0 |  0.00
Comm    | 0.026027   | 0.27997    | 0.83844    |  43.9 | 16.35
Output  | 0          | 0          | 0          |   0.0 |  0.00
Modify  | 1.8252e-05 | 0.0024069  | 0.0052066  |   2.3 |  0.14
Other   |            | 0.1952     |            |       | 11.40

Nlocal:        2776.45 ave        3961 max           0 min
Histogram: 8 4 4 0 6 10 8 2 28 34
Nghost:        3879.03 ave        5424 max         232 min
Histogram: 8 0 8 0 16 0 8 8 16 40
Neighs:        79213.4 ave      115458 max           0 min
Histogram: 8 4 4 0 10 6 8 8 24 32

Total # of neighbors = 8238197
Ave neighs/atom = 28.530454
Neighbor list builds = 0
Dangerous builds = 0
Setting atom values ...
  1 settings made for x
  1 settings made for y
  1 settings made for z
Setting up cg style minimization ...
  Unit style    : metal
  Current step  : 344
Per MPI rank memory allocation (min/avg/max) = 5.441 | 5.816 | 6.074 Mbytes
Step PotEng KinEng TotEng v_fx v_fy v_fz 
     344   -1152449.4            0   -1152449.4  0.021660142 -0.023292022 -0.033916747 
     497   -1152449.4            0   -1152449.4 2.1848618e-05 -1.3054959e-05 1.7272086e-05 
Loop time of 1.77328 on 104 procs for 153 steps with 288751 atoms

99.9% CPU use with 104 MPI tasks x 1 OpenMP threads

Minimization stats:
  Stopping criterion = energy tolerance
  Energy initial, next-to-last, final = 
     -1152449.44665728   -1152449.4480848   -1152449.4480848
  Force two-norm initial, final = 0.17477541 0.00013339638
  Force max component initial, final = 0.079502406 2.1910943e-05
  Final line search alpha, max atom move = 1.0000000 2.1910943e-05
  Iterations, force evaluations = 153 306

MPI task timing breakdown:
Section |  min time  |  avg time  |  max time  |%varavg| %total
---------------------------------------------------------------
Pair    | 0.47008    | 1.2853     | 1.6725     |  30.4 | 72.48
Neigh   | 0          | 0          | 0          |   0.0 |  0.00
Comm    | 0.033518   | 0.2872     | 0.86554    |  45.4 | 16.20
Output  | 0          | 0          | 0          |   0.0 |  0.00
Modify  | 1.8649e-05 | 0.0025198  | 0.0054356  |   2.4 |  0.14
Other   |            | 0.1983     |            |       | 11.18

Nlocal:        2776.45 ave        3961 max           0 min
Histogram: 8 4 4 0 6 10 8 2 28 34
Nghost:        3879.03 ave        5424 max         232 min
Histogram: 8 0 8 0 16 0 8 8 16 40
Neighs:        79213.5 ave      115457 max           0 min
Histogram: 8 4 4 0 10 6 8 8 24 32

Total # of neighbors = 8238199
Ave neighs/atom = 28.530461
Neighbor list builds = 0
Dangerous builds = 0
The dot product: -3.75992951885469e-08
Setting atom values ...
  1 settings made for x
  1 settings made for y
  1 settings made for z
Setting up cg style minimization ...
  Unit style    : metal
  Current step  : 497
Per MPI rank memory allocation (min/avg/max) = 5.441 | 5.816 | 6.074 Mbytes
Step PotEng KinEng TotEng v_fx v_fy v_fz 
     497   -1152449.4            0   -1152449.4  0.021027161 -0.019095908 -0.032003095 
     625   -1152449.4            0   -1152449.4 3.4181014e-06 -1.6141392e-06 8.9390228e-06 
Loop time of 1.50149 on 104 procs for 128 steps with 288751 atoms

99.9% CPU use with 104 MPI tasks x 1 OpenMP threads

Minimization stats:
  Stopping criterion = energy tolerance
  Energy initial, next-to-last, final = 
     -1152449.44327904  -1152449.44465983  -1152449.44465983
  Force two-norm initial, final = 0.17155773 8.9178072e-05
  Force max component initial, final = 0.079118554 2.0759451e-05
  Final line search alpha, max atom move = 1.0000000 2.0759451e-05
  Iterations, force evaluations = 128 256

MPI task timing breakdown:
Section |  min time  |  avg time  |  max time  |%varavg| %total
---------------------------------------------------------------
Pair    | 0.39061    | 1.0829     | 1.4174     |  28.0 | 72.12
Neigh   | 0          | 0          | 0          |   0.0 |  0.00
Comm    | 0.02284    | 0.24689    | 0.74664    |  41.0 | 16.44
Output  | 0          | 0          | 0          |   0.0 |  0.00
Modify  | 1.621e-05  | 0.0021085  | 0.0045069  |   2.2 |  0.14
Other   |            | 0.1696     |            |       | 11.29

Nlocal:        2776.45 ave        3960 max           0 min
Histogram: 8 4 4 0 4 12 8 2 28 34
Nghost:        3879.03 ave        5424 max         232 min
Histogram: 8 0 8 0 16 0 8 8 16 40
Neighs:        79213.5 ave      115425 max           0 min
Histogram: 8 4 4 0 10 6 8 8 24 32

Total # of neighbors = 8238199
Ave neighs/atom = 28.530461
Neighbor list builds = 0
Dangerous builds = 0
The dot product: -3.21334785311613e-08
Setting atom values ...
  1 settings made for x
  1 settings made for y
  1 settings made for z
Setting up cg style minimization ...
  Unit style    : metal
  Current step  : 625
Per MPI rank memory allocation (min/avg/max) = 5.441 | 5.816 | 6.074 Mbytes
Step PotEng KinEng TotEng v_fx v_fy v_fz 
     625   -1152449.4            0   -1152449.4   0.01960826 -0.015625087 -0.026320592 
     771   -1152449.4            0   -1152449.4 7.8763738e-06 -6.0556949e-06 -1.7040473e-06 
Loop time of 1.68056 on 104 procs for 146 steps with 288751 atoms

99.9% CPU use with 104 MPI tasks x 1 OpenMP threads

Minimization stats:
  Stopping criterion = energy tolerance
  Energy initial, next-to-last, final = 
     -1152449.43854501  -1152449.43990909  -1152449.43990909
  Force two-norm initial, final = 0.16887926 0.00013389974
  Force max component initial, final = 0.077235695 1.5123507e-05
  Final line search alpha, max atom move = 1.0000000 1.5123507e-05
  Iterations, force evaluations = 146 292

MPI task timing breakdown:
Section |  min time  |  avg time  |  max time  |%varavg| %total
---------------------------------------------------------------
Pair    | 0.44351    | 1.223      | 1.5929     |  29.8 | 72.77
Neigh   | 0          | 0          | 0          |   0.0 |  0.00
Comm    | 0.027566   | 0.27188    | 0.82127    |  44.4 | 16.18
Output  | 0          | 0          | 0          |   0.0 |  0.00
Modify  | 1.7855e-05 | 0.0023959  | 0.0051337  |   2.3 |  0.14
Other   |            | 0.1833     |            |       | 10.90

Nlocal:        2776.45 ave        3960 max           0 min
Histogram: 8 4 4 0 4 12 8 2 28 34
Nghost:        3879.03 ave        5424 max         232 min
Histogram: 8 0 8 0 16 0 8 8 16 40
Neighs:        79213.5 ave      115425 max           0 min
Histogram: 8 4 4 0 10 6 8 8 24 32

Total # of neighbors = 8238201
Ave neighs/atom = 28.530467
Neighbor list builds = 0
Dangerous builds = 0
The dot product: -7.78854933583308e-09
Setting atom values ...
  1 settings made for x
  1 settings made for y
  1 settings made for z
Setting up cg style minimization ...
  Unit style    : metal
  Current step  : 771
Per MPI rank memory allocation (min/avg/max) = 5.441 | 5.816 | 6.074 Mbytes
Step PotEng KinEng TotEng v_fx v_fy v_fz 
     771   -1152449.4            0   -1152449.4  0.017887958 -0.013514022  -0.01958449 
     948   -1152449.4            0   -1152449.4 -1.3444154e-05 1.0235696e-05 1.246963e-05 
Loop time of 2.09127 on 104 procs for 177 steps with 288751 atoms

99.9% CPU use with 104 MPI tasks x 1 OpenMP threads

Minimization stats:
  Stopping criterion = energy tolerance
  Energy initial, next-to-last, final = 
     -1152449.43244052  -1152449.43379693  -1152449.43379693
  Force two-norm initial, final = 0.16732671 0.00012815019
  Force max component initial, final = 0.074578363 1.6414741e-05
  Final line search alpha, max atom move = 1.0000000 1.6414741e-05
  Iterations, force evaluations = 177 354

MPI task timing breakdown:
Section |  min time  |  avg time  |  max time  |%varavg| %total
---------------------------------------------------------------
Pair    | 0.57336    | 1.5042     | 1.939      |  32.0 | 71.93
Neigh   | 0          | 0          | 0          |   0.0 |  0.00
Comm    | 0.047291   | 0.34041    | 1.0233     |  48.0 | 16.28
Output  | 0          | 0          | 0          |   0.0 |  0.00
Modify  | 2.1645e-05 | 0.002917   | 0.0063268  |   2.6 |  0.14
Other   |            | 0.2437     |            |       | 11.65

Nlocal:        2776.45 ave        3959 max           0 min
Histogram: 8 4 4 0 4 12 8 2 28 34
Nghost:        3879.03 ave        5424 max         232 min
Histogram: 8 0 8 0 16 0 8 8 16 40
Neighs:        79213.5 ave      115393 max           0 min
Histogram: 8 4 4 0 10 6 8 8 24 32

Total # of neighbors = 8238202
Ave neighs/atom = 28.530471
Neighbor list builds = 0
Dangerous builds = 0
The dot product: -2.92940804139938e-09
Setting atom values ...
  1 settings made for x
  1 settings made for y
  1 settings made for z
Setting up cg style minimization ...
  Unit style    : metal
  Current step  : 948
Per MPI rank memory allocation (min/avg/max) = 5.441 | 5.816 | 6.074 Mbytes
Step PotEng KinEng TotEng v_fx v_fy v_fz 
     948   -1152449.4            0   -1152449.4  0.016165581 -0.012370676  -0.01356409 
    1000   -1152449.4            0   -1152449.4 -7.6938593e-05 8.6259337e-05 -0.00028297466 
    1080   -1152449.4            0   -1152449.4 -1.4105187e-05 1.3698794e-05 -2.5032441e-05 
Loop time of 1.519 on 104 procs for 132 steps with 288751 atoms

99.9% CPU use with 104 MPI tasks x 1 OpenMP threads

Minimization stats:
  Stopping criterion = energy tolerance
  Energy initial, next-to-last, final = 
     -1152449.42492599  -1152449.42628278  -1152449.42628278
  Force two-norm initial, final = 0.16676198 0.00019572772
  Force max component initial, final = 0.074386213 4.2082793e-05
  Final line search alpha, max atom move = 1.0000000 4.2082793e-05
  Iterations, force evaluations = 132 264

MPI task timing breakdown:
Section |  min time  |  avg time  |  max time  |%varavg| %total
---------------------------------------------------------------
Pair    | 0.4035     | 1.1057     | 1.4372     |  28.2 | 72.79
Neigh   | 0          | 0          | 0          |   0.0 |  0.00
Comm    | 0.023642   | 0.24581    | 0.7492     |  42.4 | 16.18
Output  | 9.1495e-05 | 9.6211e-05 | 0.00019054 |   0.0 |  0.01
Modify  | 1.6354e-05 | 0.0021719  | 0.0046848  |   2.2 |  0.14
Other   |            | 0.1652     |            |       | 10.87

Nlocal:        2776.45 ave        3959 max           0 min
Histogram: 8 4 4 0 4 12 8 2 28 34
Nghost:        3879.03 ave        5424 max         232 min
Histogram: 8 0 8 0 16 0 8 8 16 40
Neighs:        79213.5 ave      115393 max           0 min
Histogram: 8 4 4 0 10 6 8 8 24 32

Total # of neighbors = 8238201
Ave neighs/atom = 28.530467
Neighbor list builds = 0
Dangerous builds = 0
The dot product: 1.15154280240175e-07
Setting atom values ...
  1 settings made for x
  1 settings made for y
  1 settings made for z
Setting up cg style minimization ...
  Unit style    : metal
  Current step  : 1080
Per MPI rank memory allocation (min/avg/max) = 5.441 | 5.816 | 6.074 Mbytes
Step PotEng KinEng TotEng v_fx v_fy v_fz 
    1080   -1152449.4            0   -1152449.4  0.014766515 -0.011917598 -0.0086633249 
    1221   -1152449.4            0   -1152449.4 5.6798384e-06 1.6513898e-06 -5.9812679e-05 
Loop time of 1.64645 on 104 procs for 141 steps with 288751 atoms

99.9% CPU use with 104 MPI tasks x 1 OpenMP threads

Minimization stats:
  Stopping criterion = energy tolerance
  Energy initial, next-to-last, final = 
     -1152449.41597203  -1152449.41733579  -1152449.41733579
  Force two-norm initial, final = 0.16679165 0.00023733221
  Force max component initial, final = 0.074696147 5.9812679e-05
  Final line search alpha, max atom move = 1.0000000 5.9812679e-05
  Iterations, force evaluations = 141 282

MPI task timing breakdown:
Section |  min time  |  avg time  |  max time  |%varavg| %total
---------------------------------------------------------------
Pair    | 0.4303     | 1.1877     | 1.5441     |  29.3 | 72.14
Neigh   | 0          | 0          | 0          |   0.0 |  0.00
Comm    | 0.023693   | 0.26746    | 0.80713    |  43.6 | 16.24
Output  | 0          | 0          | 0          |   0.0 |  0.00
Modify  | 1.8016e-05 | 0.0023263  | 0.0050217  |   2.3 |  0.14
Other   |            | 0.1889     |            |       | 11.48

Nlocal:        2776.45 ave        3958 max           0 min
Histogram: 8 4 4 0 4 12 8 2 28 34
Nghost:        3879.03 ave        5424 max         232 min
Histogram: 8 0 8 0 16 0 8 8 16 40
Neighs:        79213.5 ave      115357 max           0 min
Histogram: 8 4 4 0 10 6 8 8 24 32

Total # of neighbors = 8238203
Ave neighs/atom = 28.530474
Neighbor list builds = 0
Dangerous builds = 0
The dot product: 1.16955888756208e-07
Setting atom values ...
  1 settings made for x
  1 settings made for y
  1 settings made for z
Setting up cg style minimization ...
  Unit style    : metal
  Current step  : 1221
Per MPI rank memory allocation (min/avg/max) = 5.441 | 5.816 | 6.074 Mbytes
Step PotEng KinEng TotEng v_fx v_fy v_fz 
    1221   -1152449.4            0   -1152449.4  0.013943906 -0.012035183 -0.0051081498 
    1384   -1152449.4            0   -1152449.4 -2.2138908e-06 5.8317725e-06 -2.8383382e-05 
Loop time of 1.87043 on 104 procs for 163 steps with 288751 atoms

99.9% CPU use with 104 MPI tasks x 1 OpenMP threads

Minimization stats:
  Stopping criterion = energy tolerance
  Energy initial, next-to-last, final = 
     -1152449.40555834  -1152449.40693028  -1152449.40693028
  Force two-norm initial, final = 0.16715325 0.00021557589
  Force max component initial, final = 0.07469489 3.1686716e-05
  Final line search alpha, max atom move = 1.0000000 3.1686716e-05
  Iterations, force evaluations = 163 326

MPI task timing breakdown:
Section |  min time  |  avg time  |  max time  |%varavg| %total
---------------------------------------------------------------
Pair    | 0.49373    | 1.3656     | 1.7727     |  31.5 | 73.01
Neigh   | 0          | 0          | 0          |   0.0 |  0.00
Comm    | 0.029301   | 0.30305    | 0.9206     |  47.1 | 16.20
Output  | 0          | 0          | 0          |   0.0 |  0.00
Modify  | 2.0179e-05 | 0.0026759  | 0.0057648  |   2.4 |  0.14
Other   |            | 0.1991     |            |       | 10.64

Nlocal:        2776.45 ave        3952 max           0 min
Histogram: 8 4 4 0 4 12 8 2 28 34
Nghost:        3879.03 ave        5424 max         232 min
Histogram: 8 0 8 0 16 0 8 8 16 40
Neighs:        79213.5 ave      115166 max           0 min
Histogram: 8 4 4 0 10 6 8 8 24 32

Total # of neighbors = 8238201
Ave neighs/atom = 28.530467
Neighbor list builds = 0
Dangerous builds = 0
The dot product: 6.85892716082131e-08
Setting atom values ...
  1 settings made for x
  1 settings made for y
  1 settings made for z
Setting up cg style minimization ...
  Unit style    : metal
  Current step  : 1384
Per MPI rank memory allocation (min/avg/max) = 5.441 | 5.816 | 6.074 Mbytes
Step PotEng KinEng TotEng v_fx v_fy v_fz 
    1384   -1152449.4            0   -1152449.4  0.013890091 -0.012798471 -0.0025655024 
    1517   -1152449.4            0   -1152449.4 7.5594319e-06 -9.8438647e-06 1.7374073e-05 
Loop time of 1.56292 on 104 procs for 133 steps with 288751 atoms

99.9% CPU use with 104 MPI tasks x 1 OpenMP threads

Minimization stats:
  Stopping criterion = energy tolerance
  Energy initial, next-to-last, final = 
     -1152449.39366439  -1152449.39504282  -1152449.39504282
  Force two-norm initial, final = 0.16757187 0.00020022134
  Force max component initial, final = 0.074512507 2.7458371e-05
  Final line search alpha, max atom move = 1.0000000 2.7458371e-05
  Iterations, force evaluations = 133 266

MPI task timing breakdown:
Section |  min time  |  avg time  |  max time  |%varavg| %total
---------------------------------------------------------------
Pair    | 0.40638    | 1.124      | 1.4681     |  28.5 | 71.92
Neigh   | 0          | 0          | 0          |   0.0 |  0.00
Comm    | 0.024016   | 0.25541    | 0.76102    |  42.0 | 16.34
Output  | 0          | 0          | 0          |   0.0 |  0.00
Modify  | 1.6445e-05 | 0.0021904  | 0.0046979  |   2.2 |  0.14
Other   |            | 0.1813     |            |       | 11.60

Nlocal:        2776.45 ave        3950 max           0 min
Histogram: 8 4 4 0 4 12 8 2 26 36
Nghost:        3879.03 ave        5424 max         232 min
Histogram: 8 0 8 0 16 0 8 8 16 40
Neighs:        79213.5 ave      115087 max           0 min
Histogram: 8 4 4 0 10 6 8 8 24 32

Total # of neighbors = 8238202
Ave neighs/atom = 28.530471
Neighbor list builds = 0
Dangerous builds = 0
The dot product: -6.29186457916914e-08
Setting atom values ...
  1 settings made for x
  1 settings made for y
  1 settings made for z
Setting up cg style minimization ...
  Unit style    : metal
  Current step  : 1517
Per MPI rank memory allocation (min/avg/max) = 5.441 | 5.816 | 6.074 Mbytes
Step PotEng KinEng TotEng v_fx v_fy v_fz 
    1517   -1152449.4            0   -1152449.4  0.014561245 -0.014183711 -0.00067770022 
    1649   -1152449.4            0   -1152449.4 -2.7404509e-05 1.5247633e-05 6.9024155e-05 
Loop time of 1.53343 on 104 procs for 132 steps with 288751 atoms

99.9% CPU use with 104 MPI tasks x 1 OpenMP threads

Minimization stats:
  Stopping criterion = energy tolerance
  Energy initial, next-to-last, final = 
     -1152449.38027047  -1152449.38165415  -1152449.38165415
  Force two-norm initial, final = 0.16799333 0.00025372179
  Force max component initial, final = 0.074305268 6.9024155e-05
  Final line search alpha, max atom move = 1.0000000 6.9024155e-05
  Iterations, force evaluations = 132 264

MPI task timing breakdown:
Section |  min time  |  avg time  |  max time  |%varavg| %total
---------------------------------------------------------------
Pair    | 0.40214    | 1.1106     | 1.4458     |  28.4 | 72.43
Neigh   | 0          | 0          | 0          |   0.0 |  0.00
Comm    | 0.025984   | 0.24802    | 0.7491     |  42.3 | 16.17
Output  | 0          | 0          | 0          |   0.0 |  0.00
Modify  | 1.6338e-05 | 0.0021767  | 0.0046908  |   2.2 |  0.14
Other   |            | 0.1726     |            |       | 11.26

Nlocal:        2776.45 ave        3948 max           0 min
Histogram: 8 4 4 0 4 12 8 2 26 36
Nghost:        3879.03 ave        5424 max         232 min
Histogram: 8 0 8 0 16 0 8 8 16 40
Neighs:        79213.5 ave      115027 max           0 min
Histogram: 8 4 4 0 10 6 8 8 24 32

Total # of neighbors = 8238203
Ave neighs/atom = 28.530474
Neighbor list builds = 0
Dangerous builds = 0
The dot product: -3.034023131894e-08
Setting atom values ...
  1 settings made for x
  1 settings made for y
  1 settings made for z
Setting up cg style minimization ...
  Unit style    : metal
  Current step  : 1649
Per MPI rank memory allocation (min/avg/max) = 5.441 | 5.816 | 6.074 Mbytes
Step PotEng KinEng TotEng v_fx v_fy v_fz 
    1649   -1152449.4            0   -1152449.4  0.015562974 -0.015766635 0.00043163994 
    1819   -1152449.4            0   -1152449.4 1.5530505e-05 -1.5372725e-05 -1.5466086e-06 
Loop time of 1.96861 on 104 procs for 170 steps with 288751 atoms

99.9% CPU use with 104 MPI tasks x 1 OpenMP threads

Minimization stats:
  Stopping criterion = energy tolerance
  Energy initial, next-to-last, final = 
     -1152449.36535963  -1152449.36674784  -1152449.36674784
  Force two-norm initial, final = 0.16837777 0.00021102076
  Force max component initial, final = 0.074347223 3.4880448e-05
  Final line search alpha, max atom move = 1.0000000 3.4880448e-05
  Iterations, force evaluations = 170 340

MPI task timing breakdown:
Section |  min time  |  avg time  |  max time  |%varavg| %total
---------------------------------------------------------------
Pair    | 0.51721    | 1.4325     | 1.8611     |  32.3 | 72.76
Neigh   | 0          | 0          | 0          |   0.0 |  0.00
Comm    | 0.029691   | 0.32487    | 0.96713    |  47.5 | 16.50
Output  | 0          | 0          | 0          |   0.0 |  0.00
Modify  | 2.0757e-05 | 0.0027976  | 0.0060381  |   2.5 |  0.14
Other   |            | 0.2085     |            |       | 10.59

Nlocal:        2776.45 ave        3945 max           0 min
Histogram: 8 4 4 0 4 12 8 2 26 36
Nghost:        3879.03 ave        5424 max         232 min
Histogram: 8 0 8 0 16 0 8 8 16 40
Neighs:        79213.5 ave      114936 max           0 min
Histogram: 8 4 4 0 10 6 8 8 22 34

Total # of neighbors = 8238204
Ave neighs/atom = 28.530478
Neighbor list builds = 0
Dangerous builds = 0
The dot product: -4.53194275813441e-08
Setting atom values ...
  1 settings made for x
  1 settings made for y
  1 settings made for z
Setting up cg style minimization ...
  Unit style    : metal
  Current step  : 1819
Per MPI rank memory allocation (min/avg/max) = 5.441 | 5.816 | 6.074 Mbytes
Step PotEng KinEng TotEng v_fx v_fy v_fz 
    1819   -1152449.3            0   -1152449.3  0.016297006   -0.0168728 0.0005108953 
    1985   -1152449.4            0   -1152449.4 4.3367873e-06 -2.6378853e-06 -9.3291615e-06 
Loop time of 1.91708 on 104 procs for 166 steps with 288751 atoms

99.9% CPU use with 104 MPI tasks x 1 OpenMP threads

Minimization stats:
  Stopping criterion = energy tolerance
  Energy initial, next-to-last, final = 
     -1152449.34890852  -1152449.35030134  -1152449.35030134
  Force two-norm initial, final = 0.16865755 0.00019992119
  Force max component initial, final = 0.074387763 3.4977571e-05
  Final line search alpha, max atom move = 1.0000000 3.4977571e-05
  Iterations, force evaluations = 166 332

MPI task timing breakdown:
Section |  min time  |  avg time  |  max time  |%varavg| %total
---------------------------------------------------------------
Pair    | 0.50386    | 1.3898     | 1.8083     |  31.7 | 72.50
Neigh   | 0          | 0          | 0          |   0.0 |  0.00
Comm    | 0.029849   | 0.31077    | 0.93991    |  47.2 | 16.21
Output  | 0          | 0          | 0          |   0.0 |  0.00
Modify  | 2.0837e-05 | 0.0027311  | 0.0058716  |   2.5 |  0.14
Other   |            | 0.2138     |            |       | 11.15

Nlocal:        2776.45 ave        3943 max           0 min
Histogram: 8 4 4 0 4 12 8 2 26 36
Nghost:        3879.03 ave        5424 max         232 min
Histogram: 8 0 8 0 16 0 8 8 16 40
Neighs:        79213.5 ave      114886 max           0 min
Histogram: 8 4 4 0 10 6 8 8 22 34

Total # of neighbors = 8238204
Ave neighs/atom = 28.530478
Neighbor list builds = 0
Dangerous builds = 0
The dot product: 7.70187881585661e-09
Setting atom values ...
  1 settings made for x
  1 settings made for y
  1 settings made for z
Setting up cg style minimization ...
  Unit style    : metal
  Current step  : 1985
Per MPI rank memory allocation (min/avg/max) = 5.441 | 5.816 | 6.074 Mbytes
Step PotEng KinEng TotEng v_fx v_fy v_fz 
    1985   -1152449.3            0   -1152449.3  0.016159165  -0.01689672 -0.0002085738 
    2000   -1152449.3            0   -1152449.3 -0.00016618654 0.00031135662 -0.00065371896 
    2188   -1152449.3            0   -1152449.3 -1.5408338e-06 1.4276841e-06 8.9452487e-07 
Loop time of 2.34066 on 104 procs for 203 steps with 288751 atoms

99.9% CPU use with 104 MPI tasks x 1 OpenMP threads

Minimization stats:
  Stopping criterion = energy tolerance
  Energy initial, next-to-last, final = 
     -1152449.33088992    -1152449.332302    -1152449.332302
  Force two-norm initial, final = 0.16876059 6.1575372e-05
  Force max component initial, final = 0.074502194 7.0871397e-06
  Final line search alpha, max atom move = 1.0000000 7.0871397e-06
  Iterations, force evaluations = 203 406

MPI task timing breakdown:
Section |  min time  |  avg time  |  max time  |%varavg| %total
---------------------------------------------------------------
Pair    | 0.61533    | 1.7045     | 2.2176     |  35.1 | 72.82
Neigh   | 0          | 0          | 0          |   0.0 |  0.00
Comm    | 0.035136   | 0.38195    | 1.1636     |  52.2 | 16.32
Output  | 9.3105e-05 | 0.00010381 | 0.00017879 |   0.0 |  0.00
Modify  | 2.4725e-05 | 0.0033382  | 0.007217   |   2.7 |  0.14
Other   |            | 0.2508     |            |       | 10.71

Nlocal:        2776.45 ave        3941 max           0 min
Histogram: 8 4 4 0 4 12 8 2 26 36
Nghost:        3879.03 ave        5424 max         232 min
Histogram: 8 0 8 0 16 0 8 8 16 40
Neighs:        79213.5 ave      114828 max           0 min
Histogram: 8 4 4 0 10 6 8 8 22 34

Total # of neighbors = 8238202
Ave neighs/atom = 28.530471
Neighbor list builds = 0
Dangerous builds = 0
The dot product: 3.25000166762659e-09
Setting atom values ...
  1 settings made for x
  1 settings made for y
  1 settings made for z
Setting up cg style minimization ...
  Unit style    : metal
  Current step  : 2188
Per MPI rank memory allocation (min/avg/max) = 5.441 | 5.816 | 6.074 Mbytes
Step PotEng KinEng TotEng v_fx v_fy v_fz 
    2188   -1152449.3            0   -1152449.3  0.013866651 -0.013869021 -0.0043650628 
    2330   -1152449.3            0   -1152449.3 -1.7196222e-05 1.2347183e-06 7.4719018e-05 
Loop time of 1.62793 on 104 procs for 142 steps with 288751 atoms

99.9% CPU use with 104 MPI tasks x 1 OpenMP threads

Minimization stats:
  Stopping criterion = energy tolerance
  Energy initial, next-to-last, final = 
      -1152449.3113015  -1152449.31286961  -1152449.31286961
  Force two-norm initial, final = 0.16864562 0.00026254154
  Force max component initial, final = 0.074302318 7.4719018e-05
  Final line search alpha, max atom move = 1.0000000 7.4719018e-05
  Iterations, force evaluations = 142 284

MPI task timing breakdown:
Section |  min time  |  avg time  |  max time  |%varavg| %total
---------------------------------------------------------------
Pair    | 0.43106    | 1.1895     | 1.5411     |  29.4 | 73.07
Neigh   | 0          | 0          | 0          |   0.0 |  0.00
Comm    | 0.026725   | 0.26435    | 0.80394    |  44.0 | 16.24
Output  | 0          | 0          | 0          |   0.0 |  0.00
Modify  | 1.7505e-05 | 0.0023344  | 0.0050414  |   2.3 |  0.14
Other   |            | 0.1718     |            |       | 10.55

Nlocal:        2776.45 ave        3936 max           0 min
Histogram: 8 4 4 0 4 12 8 0 28 36
Nghost:        3879.07 ave        5424 max         232 min
Histogram: 8 0 8 0 16 0 8 8 16 40
Neighs:        79213.4 ave      114656 max           0 min
Histogram: 8 4 4 0 8 8 8 8 22 34

Total # of neighbors = 8238196
Ave neighs/atom = 28.530450
Neighbor list builds = 0
Dangerous builds = 0
The dot product: -5.43137231151048e-07
Setting atom values ...
  1 settings made for x
  1 settings made for y
  1 settings made for z
Setting up cg style minimization ...
  Unit style    : metal
  Current step  : 2330
Per MPI rank memory allocation (min/avg/max) = 5.441 | 5.816 | 6.074 Mbytes
Step PotEng KinEng TotEng v_fx v_fy v_fz 
    2330   -1152449.3            0   -1152449.3 -0.0019487586  0.010153928 -0.027437989 
    2532   -1152449.3            0   -1152449.3 -8.6954088e-06 5.0823449e-06 1.6939215e-05 
Loop time of 2.33963 on 104 procs for 202 steps with 288751 atoms

99.9% CPU use with 104 MPI tasks x 1 OpenMP threads

Minimization stats:
  Stopping criterion = energy tolerance
  Energy initial, next-to-last, final = 
     -1152449.29038997  -1152449.29271246  -1152449.29271246
  Force two-norm initial, final = 0.17086496 0.00011534044
  Force max component initial, final = 0.072053389 3.0230370e-05
  Final line search alpha, max atom move = 1.0000000 3.0230370e-05
  Iterations, force evaluations = 202 404

MPI task timing breakdown:
Section |  min time  |  avg time  |  max time  |%varavg| %total
---------------------------------------------------------------
Pair    | 0.61442    | 1.7014     | 2.1987     |  35.0 | 72.72
Neigh   | 0          | 0          | 0          |   0.0 |  0.00
Comm    | 0.035173   | 0.38314    | 1.1797     |  52.3 | 16.38
Output  | 0          | 0          | 0          |   0.0 |  0.00
Modify  | 2.4483e-05 | 0.0033183  | 0.0071515  |   2.7 |  0.14
Other   |            | 0.2518     |            |       | 10.76

Nlocal:        2776.45 ave        3930 max           0 min
Histogram: 8 4 4 0 4 12 8 0 26 38
Nghost:        3879.07 ave        5424 max         232 min
Histogram: 8 0 8 0 16 0 8 8 16 40
Neighs:        79213.5 ave      114463 max           0 min
Histogram: 8 4 4 0 8 8 8 8 20 36

Total # of neighbors = 8238199
Ave neighs/atom = 28.530461
Neighbor list builds = 0
Dangerous builds = 0
The dot product: -9.4480851034732e-08
Setting atom values ...
  1 settings made for x
  1 settings made for y
  1 settings made for z
Setting up cg style minimization ...
  Unit style    : metal
  Current step  : 2532
Per MPI rank memory allocation (min/avg/max) = 5.441 | 5.816 | 6.074 Mbytes
Step PotEng KinEng TotEng v_fx v_fy v_fz 
    2532   -1152449.3            0   -1152449.3 -0.025322396  0.058440671  -0.05905275 
    2724   -1152449.3            0   -1152449.3 2.4596057e-05 -3.2167559e-06 -7.0906033e-05 
Loop time of 2.22753 on 104 procs for 192 steps with 288751 atoms

99.9% CPU use with 104 MPI tasks x 1 OpenMP threads

Minimization stats:
  Stopping criterion = energy tolerance
  Energy initial, next-to-last, final = 
     -1152449.26908619  -1152449.27260514  -1152449.27260514
  Force two-norm initial, final = 0.19070853 0.0002228458
  Force max component initial, final = 0.078950688 7.0906033e-05
  Final line search alpha, max atom move = 1.0000000 7.0906033e-05
  Iterations, force evaluations = 192 384

MPI task timing breakdown:
Section |  min time  |  avg time  |  max time  |%varavg| %total
---------------------------------------------------------------
Pair    | 0.58817    | 1.6087     | 2.0833     |  34.1 | 72.22
Neigh   | 0          | 0          | 0          |   0.0 |  0.00
Comm    | 0.038555   | 0.35925    | 1.0829     |  50.8 | 16.13
Output  | 0          | 0          | 0          |   0.0 |  0.00
Modify  | 2.3157e-05 | 0.0031658  | 0.0067986  |   2.7 |  0.14
Other   |            | 0.2564     |            |       | 11.51

Nlocal:        2776.45 ave        3930 max           0 min
Histogram: 8 4 4 0 4 12 8 0 26 38
Nghost:        3879.14 ave        5425 max         232 min
Histogram: 8 0 8 0 16 0 8 8 16 40
Neighs:        79213.4 ave      114462 max           0 min
Histogram: 8 4 4 0 8 8 8 8 20 36

Total # of neighbors = 8238195
Ave neighs/atom = 28.530447
Neighbor list builds = 0
Dangerous builds = 0
The dot product: 9.51066396948056e-07
Setting atom values ...
  1 settings made for x
  1 settings made for y
  1 settings made for z
Setting up cg style minimization ...
  Unit style    : metal
  Current step  : 2724
Per MPI rank memory allocation (min/avg/max) = 5.441 | 5.816 | 6.074 Mbytes
Step PotEng KinEng TotEng v_fx v_fy v_fz 
    2724   -1152449.2            0   -1152449.2 -0.031704983   0.09117796 -0.064481413 
    2944   -1152449.3            0   -1152449.3 5.6351958e-06 -4.845927e-06 -7.210936e-06 
Loop time of 2.56052 on 104 procs for 220 steps with 288751 atoms

99.9% CPU use with 104 MPI tasks x 1 OpenMP threads

Minimization stats:
  Stopping criterion = energy tolerance
  Energy initial, next-to-last, final = 
     -1152449.24799117  -1152449.25211611  -1152449.25211611
  Force two-norm initial, final = 0.20677973 8.9938033e-05
  Force max component initial, final = 0.09117796 1.4645796e-05
  Final line search alpha, max atom move = 1.0000000 1.4645796e-05
  Iterations, force evaluations = 220 440

MPI task timing breakdown:
Section |  min time  |  avg time  |  max time  |%varavg| %total
---------------------------------------------------------------
Pair    | 0.67558    | 1.8574     | 2.4207     |  36.5 | 72.54
Neigh   | 0          | 0          | 0          |   0.0 |  0.00
Comm    | 0.037846   | 0.42096    | 1.2527     |  54.0 | 16.44
Output  | 0          | 0          | 0          |   0.0 |  0.00
Modify  | 2.6722e-05 | 0.0036123  | 0.0077825  |   2.8 |  0.14
Other   |            | 0.2785     |            |       | 10.88

Nlocal:        2776.45 ave        3936 max           0 min
Histogram: 8 4 4 0 4 12 8 0 28 36
Nghost:        3879.14 ave        5425 max         232 min
Histogram: 8 0 8 0 16 0 8 8 16 40
Neighs:        79213.4 ave      114656 max           0 min
Histogram: 8 4 4 0 8 8 8 8 22 34

Total # of neighbors = 8238198
Ave neighs/atom = 28.530457
Neighbor list builds = 0
Dangerous builds = 0
The dot product: -7.14299554461147e-08
Setting atom values ...
  1 settings made for x
  1 settings made for y
  1 settings made for z
Setting up cg style minimization ...
  Unit style    : metal
  Current step  : 2944
Per MPI rank memory allocation (min/avg/max) = 5.441 | 5.816 | 6.074 Mbytes
Step PotEng KinEng TotEng v_fx v_fy v_fz 
    2944   -1152449.2            0   -1152449.2 -0.025462983   0.10291753 -0.057001868 
    3000   -1152449.2            0   -1152449.2 6.1443356e-05 -0.00010288601 -2.8096576e-05 
    3171   -1152449.2            0   -1152449.2 -3.3240601e-06 -1.2510275e-07 8.0009992e-06 
Loop time of 2.61942 on 104 procs for 227 steps with 288751 atoms

99.9% CPU use with 104 MPI tasks x 1 OpenMP threads

Minimization stats:
  Stopping criterion = energy tolerance
  Energy initial, next-to-last, final = 
     -1152449.22678255  -1152449.23080423  -1152449.23080423
  Force two-norm initial, final = 0.20958371 6.0705781e-05
  Force max component initial, final = 0.10291753 8.0009992e-06
  Final line search alpha, max atom move = 1.0000000 8.0009992e-06
  Iterations, force evaluations = 227 454

MPI task timing breakdown:
Section |  min time  |  avg time  |  max time  |%varavg| %total
---------------------------------------------------------------
Pair    | 0.68642    | 1.9024     | 2.4822     |  37.2 | 72.63
Neigh   | 0          | 0          | 0          |   0.0 |  0.00
Comm    | 0.041022   | 0.42481    | 1.2875     |  55.4 | 16.22
Output  | 0.00010135 | 0.00010379 | 0.00020493 |   0.0 |  0.00
Modify  | 2.75e-05   | 0.003727   | 0.0080257  |   2.9 |  0.14
Other   |            | 0.2883     |            |       | 11.01

Nlocal:        2776.45 ave        3942 max           0 min
Histogram: 8 4 4 0 4 12 8 2 26 36
Nghost:        3879.11 ave        5425 max         232 min
Histogram: 8 0 8 0 16 0 8 8 16 40
Neighs:        79213.5 ave      114857 max           0 min
Histogram: 8 4 4 0 10 6 8 8 22 34

Total # of neighbors = 8238203
Ave neighs/atom = 28.530474
Neighbor list builds = 0
Dangerous builds = 0
The dot product: -1.10252988636673e-07
Setting atom values ...
  1 settings made for x
  1 settings made for y
  1 settings made for z
Setting up cg style minimization ...
  Unit style    : metal
  Current step  : 3171
Per MPI rank memory allocation (min/avg/max) = 5.441 | 5.816 | 6.074 Mbytes
Step PotEng KinEng TotEng v_fx v_fy v_fz 
    3171   -1152449.2            0   -1152449.2 -0.015381826  0.093980117  -0.04322713 
    3371   -1152449.2            0   -1152449.2 9.8023293e-06 1.9425953e-07 -2.1191329e-05 
Loop time of 2.34616 on 104 procs for 200 steps with 288751 atoms

99.9% CPU use with 104 MPI tasks x 1 OpenMP threads

Minimization stats:
  Stopping criterion = energy tolerance
  Energy initial, next-to-last, final = 
     -1152449.20476223   -1152449.2082068   -1152449.2082068
  Force two-norm initial, final = 0.20085119 0.00016334384
  Force max component initial, final = 0.11011291 2.4404840e-05
  Final line search alpha, max atom move = 1.0000000 2.4404840e-05
  Iterations, force evaluations = 200 400

MPI task timing breakdown:
Section |  min time  |  avg time  |  max time  |%varavg| %total
---------------------------------------------------------------
Pair    | 0.60893    | 1.6893     | 2.2145     |  34.9 | 72.00
Neigh   | 0          | 0          | 0          |   0.0 |  0.00
Comm    | 0.03444    | 0.38634    | 1.1435     |  51.0 | 16.47
Output  | 0          | 0          | 0          |   0.0 |  0.00
Modify  | 2.4962e-05 | 0.0032956  | 0.007143   |   2.7 |  0.14
Other   |            | 0.2673     |            |       | 11.39

Nlocal:        2776.45 ave        3951 max           0 min
Histogram: 8 4 4 0 4 12 8 2 28 34
Nghost:        3879.05 ave        5425 max         232 min
Histogram: 8 0 8 0 16 0 8 8 16 40
Neighs:        79213.5 ave      115140 max           0 min
Histogram: 8 4 4 0 10 6 8 8 24 32

Total # of neighbors = 8238207
Ave neighs/atom = 28.530488
Neighbor list builds = 0
Dangerous builds = 0
The dot product: 2.81180640360772e-07
Setting atom values ...
  1 settings made for x
  1 settings made for y
  1 settings made for z
Setting up cg style minimization ...
  Unit style    : metal
  Current step  : 3371
Per MPI rank memory allocation (min/avg/max) = 5.441 | 5.816 | 6.074 Mbytes
Step PotEng KinEng TotEng v_fx v_fy v_fz 
    3371   -1152449.2            0   -1152449.2 -0.0059572977  0.077638527 -0.034124692 
    3588   -1152449.2            0   -1152449.2 -3.7122159e-06 -5.9831785e-07 7.6944544e-06 
Loop time of 2.506 on 104 procs for 217 steps with 288751 atoms

99.9% CPU use with 104 MPI tasks x 1 OpenMP threads

Minimization stats:
  Stopping criterion = energy tolerance
  Energy initial, next-to-last, final = 
     -1152449.18155932  -1152449.18464939  -1152449.18464939
  Force two-norm initial, final = 0.19071876 8.2336264e-05
  Force max component initial, final = 0.11591218 1.0615954e-05
  Final line search alpha, max atom move = 1.0000000 1.0615954e-05
  Iterations, force evaluations = 217 434

MPI task timing breakdown:
Section |  min time  |  avg time  |  max time  |%varavg| %total
---------------------------------------------------------------
Pair    | 0.6609     | 1.8253     | 2.372      |  36.5 | 72.84
Neigh   | 0          | 0          | 0          |   0.0 |  0.00
Comm    | 0.038253   | 0.40729    | 1.2335     |  54.4 | 16.25
Output  | 0          | 0          | 0          |   0.0 |  0.00
Modify  | 2.6154e-05 | 0.0035684  | 0.0077382  |   2.8 |  0.14
Other   |            | 0.2698     |            |       | 10.77

Nlocal:        2776.45 ave        3952 max           0 min
Histogram: 8 4 4 0 4 12 8 2 28 34
Nghost:        3879.06 ave        5425 max         232 min
Histogram: 8 0 8 0 16 0 8 8 16 40
Neighs:        79213.5 ave      115157 max           0 min
Histogram: 8 4 4 0 10 6 8 8 24 32

Total # of neighbors = 8238206
Ave neighs/atom = 28.530485
Neighbor list builds = 0
Dangerous builds = 0
The dot product: -1.23831797070447e-07
Setting atom values ...
  1 settings made for x
  1 settings made for y
  1 settings made for z
Setting up cg style minimization ...
  Unit style    : metal
  Current step  : 3588
Per MPI rank memory allocation (min/avg/max) = 5.441 | 5.816 | 6.074 Mbytes
Step PotEng KinEng TotEng v_fx v_fy v_fz 
    3588   -1152449.2            0   -1152449.2 0.0025365075  0.063849086 -0.032447702 
    3809   -1152449.2            0   -1152449.2 -3.4660876e-06 -3.3508628e-07 6.4747393e-06 
Loop time of 2.55197 on 104 procs for 221 steps with 288751 atoms

99.9% CPU use with 104 MPI tasks x 1 OpenMP threads

Minimization stats:
  Stopping criterion = energy tolerance
  Energy initial, next-to-last, final = 
     -1152449.15753848  -1152449.16027304  -1152449.16027304
  Force two-norm initial, final = 0.18403459 5.6021221e-05
  Force max component initial, final = 0.12002421 8.6669248e-06
  Final line search alpha, max atom move = 1.0000000 8.6669248e-06
  Iterations, force evaluations = 221 442

MPI task timing breakdown:
Section |  min time  |  avg time  |  max time  |%varavg| %total
---------------------------------------------------------------
Pair    | 0.67359    | 1.855      | 2.4161     |  36.5 | 72.69
Neigh   | 0          | 0          | 0          |   0.0 |  0.00
Comm    | 0.03711    | 0.41413    | 1.2504     |  54.4 | 16.23
Output  | 0          | 0          | 0          |   0.0 |  0.00
Modify  | 2.7123e-05 | 0.0036284  | 0.0078019  |   2.8 |  0.14
Other   |            | 0.2792     |            |       | 10.94

Nlocal:        2776.45 ave        3952 max           0 min
Histogram: 8 4 4 0 4 12 8 2 28 34
Nghost:        3878.99 ave        5425 max         232 min
Histogram: 8 0 8 0 16 0 8 8 16 40
Neighs:        79213.6 ave      115161 max           0 min
Histogram: 8 4 4 0 10 6 8 8 24 32

Total # of neighbors = 8238211
Ave neighs/atom = 28.530502
Neighbor list builds = 0
Dangerous builds = 0
The dot product: -1.09257667851714e-07
Setting atom values ...
  1 settings made for x
  1 settings made for y
  1 settings made for z
Setting up cg style minimization ...
  Unit style    : metal
  Current step  : 3809
Per MPI rank memory allocation (min/avg/max) = 5.441 | 5.816 | 6.074 Mbytes
Step PotEng KinEng TotEng v_fx v_fy v_fz 
    3809   -1152449.1            0   -1152449.1  0.008747272  0.055996901 -0.032686591 
    4000   -1152449.1            0   -1152449.1 -1.5595354e-05 -5.6300835e-07 2.6515906e-05 
    4006   -1152449.1            0   -1152449.1 -1.9891892e-05 5.9478054e-06 3.1688436e-05 
Loop time of 2.29394 on 104 procs for 197 steps with 288751 atoms

99.9% CPU use with 104 MPI tasks x 1 OpenMP threads

Minimization stats:
  Stopping criterion = energy tolerance
  Energy initial, next-to-last, final = 
     -1152449.13244169  -1152449.13490985  -1152449.13490985
  Force two-norm initial, final = 0.1813919 0.0001418144
  Force max component initial, final = 0.12421721 3.7905093e-05
  Final line search alpha, max atom move = 1.0000000 3.7905093e-05
  Iterations, force evaluations = 197 394

MPI task timing breakdown:
Section |  min time  |  avg time  |  max time  |%varavg| %total
---------------------------------------------------------------
Pair    | 0.59729    | 1.6508     | 2.1535     |  34.6 | 71.96
Neigh   | 0          | 0          | 0          |   0.0 |  0.00
Comm    | 0.037986   | 0.37129    | 1.1132     |  51.1 | 16.19
Output  | 0.00010254 | 0.00010915 | 0.00023941 |   0.0 |  0.00
Modify  | 2.3949e-05 | 0.0032357  | 0.0069574  |   2.7 |  0.14
Other   |            | 0.2685     |            |       | 11.71

Nlocal:        2776.45 ave        3954 max           0 min
Histogram: 8 4 4 0 4 12 8 2 28 34
Nghost:        3878.98 ave        5425 max         232 min
Histogram: 8 0 8 0 16 0 8 8 16 40
Neighs:        79213.6 ave      115261 max           0 min
Histogram: 8 4 4 0 10 6 8 8 24 32

Total # of neighbors = 8238214
Ave neighs/atom = 28.530512
Neighbor list builds = 0
Dangerous builds = 0
The dot product: -4.19446872450441e-07
Setting atom values ...
  1 settings made for x
  1 settings made for y
  1 settings made for z
Setting up cg style minimization ...
  Unit style    : metal
  Current step  : 4006
Per MPI rank memory allocation (min/avg/max) = 5.441 | 5.816 | 6.074 Mbytes
Step PotEng KinEng TotEng v_fx v_fy v_fz 
    4006   -1152449.1            0   -1152449.1  0.011369656  0.046533965 -0.028901885 
    4240   -1152449.1            0   -1152449.1 -3.6790321e-07 4.5838262e-07 4.7077317e-07 
Loop time of 2.70533 on 104 procs for 234 steps with 288751 atoms

99.9% CPU use with 104 MPI tasks x 1 OpenMP threads

Minimization stats:
  Stopping criterion = energy tolerance
  Energy initial, next-to-last, final = 
     -1152449.10615762  -1152449.10829518  -1152449.10829518
  Force two-norm initial, final = 0.17859026 2.3167106e-05
  Force max component initial, final = 0.12821858 3.1979071e-06
  Final line search alpha, max atom move = 1.0000000 3.1979071e-06
  Iterations, force evaluations = 234 468

MPI task timing breakdown:
Section |  min time  |  avg time  |  max time  |%varavg| %total
---------------------------------------------------------------
Pair    | 0.71219    | 1.9702     | 2.5657     |  37.8 | 72.83
Neigh   | 0          | 0          | 0          |   0.0 |  0.00
Comm    | 0.040763   | 0.43994    | 1.3284     |  56.2 | 16.26
Output  | 0          | 0          | 0          |   0.0 |  0.00
Modify  | 2.8382e-05 | 0.0038428  | 0.0082819  |   2.9 |  0.14
Other   |            | 0.2913     |            |       | 10.77

Nlocal:        2776.45 ave        3954 max           0 min
Histogram: 8 4 4 0 4 12 8 2 28 34
Nghost:        3878.98 ave        5425 max         232 min
Histogram: 8 0 8 0 16 0 8 8 16 40
Neighs:        79213.6 ave      115256 max           0 min
Histogram: 8 4 4 0 10 6 8 8 24 32

Total # of neighbors = 8238213
Ave neighs/atom = 28.530509
Neighbor list builds = 0
Dangerous builds = 0
The dot product: -1.59619257010391e-09
Setting atom values ...
  1 settings made for x
  1 settings made for y
  1 settings made for z
Setting up cg style minimization ...
  Unit style    : metal
  Current step  : 4240
Per MPI rank memory allocation (min/avg/max) = 5.441 | 5.816 | 6.074 Mbytes
Step PotEng KinEng TotEng v_fx v_fy v_fz 
    4240   -1152449.1            0   -1152449.1  0.010853449  0.035964073 -0.022581796 
    4412   -1152449.1            0   -1152449.1 5.8315212e-06 9.2623091e-07 -8.8331566e-06 
Loop time of 1.99301 on 104 procs for 172 steps with 288751 atoms

99.9% CPU use with 104 MPI tasks x 1 OpenMP threads

Minimization stats:
  Stopping criterion = energy tolerance
  Energy initial, next-to-last, final = 
     -1152449.07842553   -1152449.0803266   -1152449.0803266
  Force two-norm initial, final = 0.17611545 0.00021058846
  Force max component initial, final = 0.13179948 2.6960052e-05
  Final line search alpha, max atom move = 1.0000000 2.6960052e-05
  Iterations, force evaluations = 172 344

MPI task timing breakdown:
Section |  min time  |  avg time  |  max time  |%varavg| %total
---------------------------------------------------------------
Pair    | 0.52125    | 1.4405     | 1.8828     |  32.3 | 72.28
Neigh   | 0          | 0          | 0          |   0.0 |  0.00
Comm    | 0.034738   | 0.32248    | 0.96795    |  48.0 | 16.18
Output  | 0          | 0          | 0          |   0.0 |  0.00
Modify  | 2.1135e-05 | 0.0028281  | 0.0060783  |   2.5 |  0.14
Other   |            | 0.2272     |            |       | 11.40

Nlocal:        2776.45 ave        3955 max           0 min
Histogram: 8 4 4 0 4 12 8 2 28 34
Nghost:        3878.97 ave        5425 max         232 min
Histogram: 8 0 8 0 16 0 8 8 16 40
Neighs:        79213.6 ave      115281 max           0 min
Histogram: 8 4 4 0 10 6 8 8 24 32

Total # of neighbors = 8238212
Ave neighs/atom = 28.530506
Neighbor list builds = 0
Dangerous builds = 0
The dot product: 1.17340089685683e-07
Setting atom values ...
  1 settings made for x
  1 settings made for y
  1 settings made for z
Setting up cg style minimization ...
  Unit style    : metal
  Current step  : 4412
Per MPI rank memory allocation (min/avg/max) = 5.441 | 5.816 | 6.074 Mbytes
Step PotEng KinEng TotEng v_fx v_fy v_fz 
    4412     -1152449            0     -1152449 0.0089097573   0.02645582 -0.016382941 
    4579   -1152449.1            0   -1152449.1 3.6925898e-07 -5.7376669e-06 2.8533329e-07 
Loop time of 1.96167 on 104 procs for 167 steps with 288751 atoms

99.9% CPU use with 104 MPI tasks x 1 OpenMP threads

Minimization stats:
  Stopping criterion = energy tolerance
  Energy initial, next-to-last, final = 
     -1152449.04926614  -1152449.05102171  -1152449.05102171
  Force two-norm initial, final = 0.17484106 0.00022248854
  Force max component initial, final = 0.13497705 4.5820707e-05
  Final line search alpha, max atom move = 1.0000000 4.5820707e-05
  Iterations, force evaluations = 167 334

MPI task timing breakdown:
Section |  min time  |  avg time  |  max time  |%varavg| %total
---------------------------------------------------------------
Pair    | 0.50819    | 1.4126     | 1.8521     |  32.0 | 72.01
Neigh   | 0          | 0          | 0          |   0.0 |  0.00
Comm    | 0.028795   | 0.32111    | 0.96821    |  47.0 | 16.37
Output  | 0          | 0          | 0          |   0.0 |  0.00
Modify  | 2.0728e-05 | 0.0027438  | 0.0059062  |   2.5 |  0.14
Other   |            | 0.2252     |            |       | 11.48

Nlocal:        2776.45 ave        3955 max           0 min
Histogram: 8 4 4 0 4 12 8 0 30 34
Nghost:        3879.01 ave        5425 max         232 min
Histogram: 8 0 8 0 16 0 8 8 16 40
Neighs:        79213.6 ave      115282 max           0 min
Histogram: 8 4 4 0 10 6 8 8 24 32

Total # of neighbors = 8238215
Ave neighs/atom = 28.530516
Neighbor list builds = 0
Dangerous builds = 0
The dot product: -3.77184162974955e-08
Setting atom values ...
  1 settings made for x
  1 settings made for y
  1 settings made for z
Setting up cg style minimization ...
  Unit style    : metal
  Current step  : 4579
Per MPI rank memory allocation (min/avg/max) = 5.441 | 5.816 | 6.074 Mbytes
Step PotEng KinEng TotEng v_fx v_fy v_fz 
    4579     -1152449            0     -1152449 0.0066471367  0.018745686 -0.011266294 
    4749     -1152449            0     -1152449 -3.0287861e-05 6.5164759e-06 4.0704447e-05 
Loop time of 1.96688 on 104 procs for 170 steps with 288751 atoms

99.9% CPU use with 104 MPI tasks x 1 OpenMP threads

Minimization stats:
  Stopping criterion = energy tolerance
  Energy initial, next-to-last, final = 
     -1152449.01876808   -1152449.0204867   -1152449.0204867
  Force two-norm initial, final = 0.1745823 0.00021237569
  Force max component initial, final = 0.13767628 4.0704447e-05
  Final line search alpha, max atom move = 1.0000000 4.0704447e-05
  Iterations, force evaluations = 170 340

MPI task timing breakdown:
Section |  min time  |  avg time  |  max time  |%varavg| %total
---------------------------------------------------------------
Pair    | 0.51849    | 1.4246     | 1.8609     |  32.2 | 72.43
Neigh   | 0          | 0          | 0          |   0.0 |  0.00
Comm    | 0.03352    | 0.31917    | 0.95949    |  47.7 | 16.23
Output  | 0          | 0          | 0          |   0.0 |  0.00
Modify  | 2.0978e-05 | 0.0028009  | 0.0060181  |   2.5 |  0.14
Other   |            | 0.2203     |            |       | 11.20

Nlocal:        2776.45 ave        3955 max           0 min
Histogram: 8 4 4 0 4 12 8 0 30 34
Nghost:        3879.09 ave        5426 max         232 min
Histogram: 8 0 8 0 16 0 8 8 16 40
Neighs:        79213.6 ave      115296 max           0 min
Histogram: 8 4 4 0 10 6 8 8 24 32

Total # of neighbors = 8238218
Ave neighs/atom = 28.530526
Neighbor list builds = 0
Dangerous builds = 0
The dot product: -3.588551993563e-07
Setting atom values ...
  1 settings made for x
  1 settings made for y
  1 settings made for z
Setting up cg style minimization ...
  Unit style    : metal
  Current step  : 4749
Per MPI rank memory allocation (min/avg/max) = 5.441 | 5.816 | 6.074 Mbytes
Step PotEng KinEng TotEng v_fx v_fy v_fz 
    4749     -1152449            0     -1152449  0.004776454  0.012979552 -0.0076207737 
    4951     -1152449            0     -1152449 -1.6512083e-05 2.3411249e-06 2.1688291e-05 
Loop time of 2.37134 on 104 procs for 202 steps with 288751 atoms

99.9% CPU use with 104 MPI tasks x 1 OpenMP threads

Minimization stats:
  Stopping criterion = energy tolerance
  Energy initial, next-to-last, final = 
     -1152448.98714966   -1152448.9888327   -1152448.9888327
  Force two-norm initial, final = 0.17495889 9.5317947e-05
  Force max component initial, final = 0.14004704 2.1688291e-05
  Final line search alpha, max atom move = 1.0000000 2.1688291e-05
  Iterations, force evaluations = 202 404

MPI task timing breakdown:
Section |  min time  |  avg time  |  max time  |%varavg| %total
---------------------------------------------------------------
Pair    | 0.61429    | 1.7011     | 2.2479     |  35.2 | 71.73
Neigh   | 0          | 0          | 0          |   0.0 |  0.00
Comm    | 0.03391    | 0.39038    | 1.153      |  51.2 | 16.46
Output  | 0          | 0          | 0          |   0.0 |  0.00
Modify  | 2.4379e-05 | 0.003323   | 0.0072277  |   2.7 |  0.14
Other   |            | 0.2766     |            |       | 11.66

Nlocal:        2776.45 ave        3956 max           0 min
Histogram: 8 4 4 0 4 12 8 0 30 34
Nghost:        3879.07 ave        5426 max         232 min
Histogram: 8 0 8 0 16 0 8 8 16 40
Neighs:        79213.6 ave      115321 max           0 min
Histogram: 8 4 4 0 10 6 8 8 24 32

Total # of neighbors = 8238215
Ave neighs/atom = 28.530516
Neighbor list builds = 0
Dangerous builds = 0
The dot product: -1.76548660788946e-07
Setting atom values ...
  1 settings made for x
  1 settings made for y
  1 settings made for z
Setting up cg style minimization ...
  Unit style    : metal
  Current step  : 4951
Per MPI rank memory allocation (min/avg/max) = 5.441 | 5.816 | 6.074 Mbytes
Step PotEng KinEng TotEng v_fx v_fy v_fz 
    4951     -1152449            0     -1152449 0.0027755578  0.008770763 -0.004357538 
    5000     -1152449            0     -1152449 7.899875e-05 -3.5008611e-05 -9.9137394e-05 
    5165     -1152449            0     -1152449 -9.4710819e-06 1.7816469e-06 1.2096685e-05 
Loop time of 2.49185 on 104 procs for 214 steps with 288751 atoms

99.9% CPU use with 104 MPI tasks x 1 OpenMP threads

Minimization stats:
  Stopping criterion = energy tolerance
  Energy initial, next-to-last, final = 
     -1152448.95444714  -1152448.95615487  -1152448.95615487
  Force two-norm initial, final = 0.175656 8.2217447e-05
  Force max component initial, final = 0.1421054 1.2096685e-05
  Final line search alpha, max atom move = 1.0000000 1.2096685e-05
  Iterations, force evaluations = 214 428

MPI task timing breakdown:
Section |  min time  |  avg time  |  max time  |%varavg| %total
---------------------------------------------------------------
Pair    | 0.65932    | 1.8011     | 2.3452     |  36.0 | 72.28
Neigh   | 0          | 0          | 0          |   0.0 |  0.00
Comm    | 0.0371     | 0.40288    | 1.2132     |  53.8 | 16.17
Output  | 9.909e-05  | 0.00010869 | 0.00020368 |   0.0 |  0.00
Modify  | 2.5678e-05 | 0.0035162  | 0.00759    |   2.8 |  0.14
Other   |            | 0.2843     |            |       | 11.41

Nlocal:        2776.45 ave        3956 max           0 min
Histogram: 8 4 4 0 4 12 8 0 30 34
Nghost:        3879.05 ave        5426 max         232 min
Histogram: 8 0 8 0 16 0 8 8 16 40
Neighs:        79213.6 ave      115320 max           0 min
Histogram: 8 4 4 0 10 6 8 8 24 32

Total # of neighbors = 8238219
Ave neighs/atom = 28.530530
Neighbor list builds = 0
Dangerous builds = 0
The dot product: -9.14890096321044e-08
Setting atom values ...
  1 settings made for x
  1 settings made for y
  1 settings made for z
Setting up cg style minimization ...
  Unit style    : metal
  Current step  : 5165
Per MPI rank memory allocation (min/avg/max) = 5.441 | 5.816 | 6.074 Mbytes
Step PotEng KinEng TotEng v_fx v_fy v_fz 
    5165   -1152448.9            0   -1152448.9 0.0011841768 0.0059255372 -0.0019717616 
    5346   -1152448.9            0   -1152448.9 3.9879235e-05 -4.4041223e-06 -5.0079391e-05 
Loop time of 2.11228 on 104 procs for 181 steps with 288751 atoms

99.9% CPU use with 104 MPI tasks x 1 OpenMP threads

Minimization stats:
  Stopping criterion = energy tolerance
  Energy initial, next-to-last, final = 
     -1152448.92086083  -1152448.92257116  -1152448.92257116
  Force two-norm initial, final = 0.176349 0.00021693439
  Force max component initial, final = 0.14379338 5.0079391e-05
  Final line search alpha, max atom move = 1.0000000 5.0079391e-05
  Iterations, force evaluations = 181 362

MPI task timing breakdown:
Section |  min time  |  avg time  |  max time  |%varavg| %total
---------------------------------------------------------------
Pair    | 0.54963    | 1.5248     | 1.9907     |  33.3 | 72.19
Neigh   | 0          | 0          | 0          |   0.0 |  0.00
Comm    | 0.031221   | 0.34719    | 1.0318     |  48.7 | 16.44
Output  | 0          | 0          | 0          |   0.0 |  0.00
Modify  | 2.2207e-05 | 0.0029769  | 0.0064436  |   2.6 |  0.14
Other   |            | 0.2373     |            |       | 11.23

Nlocal:        2776.45 ave        3955 max           0 min
Histogram: 8 4 4 0 4 12 8 0 30 34
Nghost:        3879.05 ave        5426 max         232 min
Histogram: 8 0 8 0 16 0 8 8 16 40
Neighs:        79213.6 ave      115298 max           0 min
Histogram: 8 4 4 0 10 6 8 8 24 32

Total # of neighbors = 8238214
Ave neighs/atom = 28.530512
Neighbor list builds = 0
Dangerous builds = 0
The dot product: 3.46886365691029e-07
Setting atom values ...
  1 settings made for x
  1 settings made for y
  1 settings made for z
Setting up cg style minimization ...
  Unit style    : metal
  Current step  : 5346
Per MPI rank memory allocation (min/avg/max) = 5.441 | 5.816 | 6.074 Mbytes
Step PotEng KinEng TotEng v_fx v_fy v_fz 
    5346   -1152448.9            0   -1152448.9 -0.00082790358 0.0039405463 0.00073002888 
    5524   -1152448.9            0   -1152448.9 -2.8233209e-05 5.4065022e-06 3.4611096e-05 
Loop time of 2.06931 on 104 procs for 178 steps with 288751 atoms

99.9% CPU use with 104 MPI tasks x 1 OpenMP threads

Minimization stats:
  Stopping criterion = energy tolerance
  Energy initial, next-to-last, final = 
     -1152448.88636268  -1152448.88798489  -1152448.88798489
  Force two-norm initial, final = 0.17721153 0.00018100141
  Force max component initial, final = 0.14538559 3.4611096e-05
  Final line search alpha, max atom move = 1.0000000 3.4611096e-05
  Iterations, force evaluations = 178 356

MPI task timing breakdown:
Section |  min time  |  avg time  |  max time  |%varavg| %total
---------------------------------------------------------------
Pair    | 0.54261    | 1.4953     | 1.9505     |  32.9 | 72.26
Neigh   | 0          | 0          | 0          |   0.0 |  0.00
Comm    | 0.030656   | 0.33545    | 1.01       |  48.9 | 16.21
Output  | 0          | 0          | 0          |   0.0 |  0.00
Modify  | 2.1875e-05 | 0.0029331  | 0.0063298  |   2.6 |  0.14
Other   |            | 0.2356     |            |       | 11.39

Nlocal:        2776.45 ave        3956 max           0 min
Histogram: 8 4 4 0 4 12 8 0 30 34
Nghost:        3879.05 ave        5426 max         232 min
Histogram: 8 0 8 0 16 0 8 8 16 40
Neighs:        79213.6 ave      115319 max           0 min
Histogram: 8 4 4 0 10 6 8 8 24 32

Total # of neighbors = 8238216
Ave neighs/atom = 28.530519
Neighbor list builds = 0
Dangerous builds = 0
The dot product: -1.95229930691363e-07
Setting atom values ...
  1 settings made for x
  1 settings made for y
  1 settings made for z
Setting up cg style minimization ...
  Unit style    : metal
  Current step  : 5524
Per MPI rank memory allocation (min/avg/max) = 5.441 | 5.816 | 6.074 Mbytes
Step PotEng KinEng TotEng v_fx v_fy v_fz 
    5524   -1152448.9            0   -1152448.9 -0.0037261577 0.0026201192 0.0043619892 
    5720   -1152448.9            0   -1152448.9 8.6685228e-07 1.5482316e-06 -1.171468e-06 
Loop time of 2.26845 on 104 procs for 196 steps with 288751 atoms

99.9% CPU use with 104 MPI tasks x 1 OpenMP threads

Minimization stats:
  Stopping criterion = energy tolerance
  Energy initial, next-to-last, final = 
     -1152448.85072396  -1152448.85234876  -1152448.85234876
  Force two-norm initial, final = 0.17857169 0.00010550828
  Force max component initial, final = 0.14719372 1.1978773e-05
  Final line search alpha, max atom move = 1.0000000 1.1978773e-05
  Iterations, force evaluations = 196 392

MPI task timing breakdown:
Section |  min time  |  avg time  |  max time  |%varavg| %total
---------------------------------------------------------------
Pair    | 0.59488    | 1.6488     | 2.1495     |  34.6 | 72.69
Neigh   | 0          | 0          | 0          |   0.0 |  0.00
Comm    | 0.033412   | 0.3702     | 1.1161     |  51.3 | 16.32
Output  | 0          | 0          | 0          |   0.0 |  0.00
Modify  | 2.3839e-05 | 0.0032238  | 0.0069148  |   2.7 |  0.14
Other   |            | 0.2462     |            |       | 10.85

Nlocal:        2776.45 ave        3956 max           0 min
Histogram: 8 4 4 0 4 12 8 0 30 34
Nghost:        3879.04 ave        5426 max         232 min
Histogram: 8 0 8 0 16 0 8 8 16 40
Neighs:        79213.6 ave      115309 max           0 min
Histogram: 8 4 4 0 10 6 8 8 24 32

Total # of neighbors = 8238215
Ave neighs/atom = 28.530516
Neighbor list builds = 0
Dangerous builds = 0
The dot product: 5.83197864244407e-09
Setting atom values ...
  1 settings made for x
  1 settings made for y
  1 settings made for z
Setting up cg style minimization ...
  Unit style    : metal
  Current step  : 5720
Per MPI rank memory allocation (min/avg/max) = 5.441 | 5.816 | 6.074 Mbytes
Step PotEng KinEng TotEng v_fx v_fy v_fz 
    5720   -1152448.8            0   -1152448.8 -0.0062627395 0.0019392476 0.0074224035 
    5926   -1152448.8            0   -1152448.8 -5.3101609e-07 5.070044e-07 6.0493658e-07 
Loop time of 2.37401 on 104 procs for 206 steps with 288751 atoms

99.9% CPU use with 104 MPI tasks x 1 OpenMP threads

Minimization stats:
  Stopping criterion = energy tolerance
  Energy initial, next-to-last, final = 
     -1152448.81408268  -1152448.81584263  -1152448.81584263
  Force two-norm initial, final = 0.17976933 8.8218882e-05
  Force max component initial, final = 0.14873128 5.6179979e-06
  Final line search alpha, max atom move = 1.0000000 5.6179979e-06
  Iterations, force evaluations = 206 412

MPI task timing breakdown:
Section |  min time  |  avg time  |  max time  |%varavg| %total
---------------------------------------------------------------
Pair    | 0.62487    | 1.7229     | 2.2477     |  35.3 | 72.57
Neigh   | 0          | 0          | 0          |   0.0 |  0.00
Comm    | 0.036748   | 0.38354    | 1.1574     |  52.5 | 16.16
Output  | 0          | 0          | 0          |   0.0 |  0.00
Modify  | 2.4925e-05 | 0.0033816  | 0.0072547  |   2.8 |  0.14
Other   |            | 0.2642     |            |       | 11.13

Nlocal:        2776.45 ave        3955 max           0 min
Histogram: 8 4 4 0 4 12 8 0 30 34
Nghost:        3879.04 ave        5426 max         232 min
Histogram: 8 0 8 0 16 0 8 8 16 40
Neighs:        79213.6 ave      115295 max           0 min
Histogram: 8 4 4 0 10 6 8 8 24 32

Total # of neighbors = 8238213
Ave neighs/atom = 28.530509
Neighbor list builds = 0
Dangerous builds = 0
The dot product: -2.5299087081692e-09
Setting atom values ...
  1 settings made for x
  1 settings made for y
  1 settings made for z
Setting up cg style minimization ...
  Unit style    : metal
  Current step  : 5926
Per MPI rank memory allocation (min/avg/max) = 5.441 | 5.816 | 6.074 Mbytes
Step PotEng KinEng TotEng v_fx v_fy v_fz 
    5926   -1152448.8            0   -1152448.8 -0.0083726048 0.0017436615 0.0098840214 
    6000   -1152448.8            0   -1152448.8 0.00019231221 -5.1700351e-05 -0.00022620338 
    6107   -1152448.8            0   -1152448.8 4.3701942e-05 -6.8225582e-06 -5.1752336e-05 
Loop time of 2.14156 on 104 procs for 181 steps with 288751 atoms

99.9% CPU use with 104 MPI tasks x 1 OpenMP threads

Minimization stats:
  Stopping criterion = energy tolerance
  Energy initial, next-to-last, final = 
     -1152448.77674017  -1152448.77835776  -1152448.77835776
  Force two-norm initial, final = 0.18038269 0.00018503491
  Force max component initial, final = 0.14981221 5.1752336e-05
  Final line search alpha, max atom move = 1.0000000 5.1752336e-05
  Iterations, force evaluations = 181 362

MPI task timing breakdown:
Section |  min time  |  avg time  |  max time  |%varavg| %total
---------------------------------------------------------------
Pair    | 0.56687    | 1.5351     | 2.0088     |  33.0 | 71.68
Neigh   | 0          | 0          | 0          |   0.0 |  0.00
Comm    | 0.038003   | 0.34903    | 1.0354     |  48.8 | 16.30
Output  | 0.00011096 | 0.00011407 | 0.00022734 |   0.0 |  0.01
Modify  | 2.1891e-05 | 0.002975   | 0.0063989  |   2.6 |  0.14
Other   |            | 0.2543     |            |       | 11.88

Nlocal:        2776.45 ave        3955 max           0 min
Histogram: 8 4 4 0 4 12 8 0 30 34
Nghost:        3879.01 ave        5426 max         232 min
Histogram: 8 0 8 0 16 0 8 8 16 40
Neighs:        79213.6 ave      115303 max           0 min
Histogram: 8 4 4 0 10 6 8 8 24 32

Total # of neighbors = 8238215
Ave neighs/atom = 28.530516
Neighbor list builds = 0
Dangerous builds = 0
The dot product: 1.40009469046077e-07
Setting atom values ...
  1 settings made for x
  1 settings made for y
  1 settings made for z
Setting up cg style minimization ...
  Unit style    : metal
  Current step  : 6107
Per MPI rank memory allocation (min/avg/max) = 5.441 | 5.816 | 6.074 Mbytes
Step PotEng KinEng TotEng v_fx v_fy v_fz 
    6107   -1152448.7            0   -1152448.7 -0.011505682  0.002050884  0.013520745 
    6310   -1152448.7            0   -1152448.7 4.8884217e-06 -2.3163183e-06 -5.6419065e-06 
Loop time of 2.36756 on 104 procs for 203 steps with 288751 atoms

99.9% CPU use with 104 MPI tasks x 1 OpenMP threads

Minimization stats:
  Stopping criterion = energy tolerance
  Energy initial, next-to-last, final = 
     -1152448.73824658  -1152448.73989283  -1152448.73989283
  Force two-norm initial, final = 0.18128923 8.5403136e-05
  Force max component initial, final = 0.15110746 1.2899193e-05
  Final line search alpha, max atom move = 1.0000000 1.2899193e-05
  Iterations, force evaluations = 203 406

MPI task timing breakdown:
Section |  min time  |  avg time  |  max time  |%varavg| %total
---------------------------------------------------------------
Pair    | 0.61853    | 1.7009     | 2.2269     |  35.1 | 71.84
Neigh   | 0          | 0          | 0          |   0.0 |  0.00
Comm    | 0.037384   | 0.38181    | 1.1514     |  52.2 | 16.13
Output  | 0          | 0          | 0          |   0.0 |  0.00
Modify  | 2.4541e-05 | 0.0033311  | 0.0071828  |   2.7 |  0.14
Other   |            | 0.2815     |            |       | 11.89

Nlocal:        2776.45 ave        3955 max           0 min
Histogram: 8 4 4 0 4 12 8 0 30 34
Nghost:        3878.98 ave        5426 max         232 min
Histogram: 8 0 8 0 16 0 8 8 16 40
Neighs:        79213.6 ave      115304 max           0 min
Histogram: 8 4 4 0 10 6 8 8 24 32

Total # of neighbors = 8238213
Ave neighs/atom = 28.530509
Neighbor list builds = 0
Dangerous builds = 0
The dot product: 9.61412126887596e-09
Setting atom values ...
  1 settings made for x
  1 settings made for y
  1 settings made for z
Setting up cg style minimization ...
  Unit style    : metal
  Current step  : 6310
Per MPI rank memory allocation (min/avg/max) = 5.441 | 5.816 | 6.074 Mbytes
Step PotEng KinEng TotEng v_fx v_fy v_fz 
    6310   -1152448.7            0   -1152448.7 -0.014252709 0.0027468549  0.016673763 
    6458   -1152448.7            0   -1152448.7 5.4776915e-06 3.4845139e-06 -6.7342778e-06 
Loop time of 1.72608 on 104 procs for 148 steps with 288751 atoms

99.9% CPU use with 104 MPI tasks x 1 OpenMP threads

Minimization stats:
  Stopping criterion = energy tolerance
  Energy initial, next-to-last, final = 
     -1152448.69892219  -1152448.70080735  -1152448.70080735
  Force two-norm initial, final = 0.18150739 0.0001947448
  Force max component initial, final = 0.15206047 3.9797507e-05
  Final line search alpha, max atom move = 1.0000000 3.9797507e-05
  Iterations, force evaluations = 148 296

MPI task timing breakdown:
Section |  min time  |  avg time  |  max time  |%varavg| %total
---------------------------------------------------------------
Pair    | 0.45076    | 1.2502     | 1.6373     |  30.1 | 72.43
Neigh   | 0          | 0          | 0          |   0.0 |  0.00
Comm    | 0.025487   | 0.28176    | 0.8547     |  44.4 | 16.32
Output  | 0          | 0          | 0          |   0.0 |  0.00
Modify  | 1.8041e-05 | 0.0024339  | 0.0052349  |   2.3 |  0.14
Other   |            | 0.1916     |            |       | 11.10

Nlocal:        2776.45 ave        3954 max           0 min
Histogram: 8 4 4 0 4 12 8 0 30 34
Nghost:        3878.99 ave        5426 max         232 min
Histogram: 8 0 8 0 16 0 8 8 16 40
Neighs:        79213.6 ave      115279 max           0 min
Histogram: 8 4 4 0 10 6 8 8 24 32

Total # of neighbors = 8238215
Ave neighs/atom = 28.530516
Neighbor list builds = 0
Dangerous builds = 0
The dot product: 2.06847089644432e-09
Setting atom values ...
  1 settings made for x
  1 settings made for y
  1 settings made for z
Setting up cg style minimization ...
  Unit style    : metal
  Current step  : 6458
Per MPI rank memory allocation (min/avg/max) = 5.441 | 5.816 | 6.074 Mbytes
Step PotEng KinEng TotEng v_fx v_fy v_fz 
    6458   -1152448.7            0   -1152448.7 -0.016328569  0.003301242  0.019054599 
    6632   -1152448.7            0   -1152448.7 2.3805303e-05 -3.7251476e-06 -2.7859516e-05 
Loop time of 2.0266 on 104 procs for 174 steps with 288751 atoms

99.9% CPU use with 104 MPI tasks x 1 OpenMP threads

Minimization stats:
  Stopping criterion = energy tolerance
  Energy initial, next-to-last, final = 
     -1152448.65946413  -1152448.66125515  -1152448.66125515
  Force two-norm initial, final = 0.18022078 0.00013266391
  Force max component initial, final = 0.15192849 2.7859516e-05
  Final line search alpha, max atom move = 1.0000000 2.7859516e-05
  Iterations, force evaluations = 174 348

MPI task timing breakdown:
Section |  min time  |  avg time  |  max time  |%varavg| %total
---------------------------------------------------------------
Pair    | 0.529      | 1.4663     | 1.9175     |  32.8 | 72.35
Neigh   | 0          | 0          | 0          |   0.0 |  0.00
Comm    | 0.034408   | 0.32855    | 0.99917    |  48.3 | 16.21
Output  | 0          | 0          | 0          |   0.0 |  0.00
Modify  | 2.1278e-05 | 0.0028594  | 0.0061959  |   2.5 |  0.14
Other   |            | 0.2289     |            |       | 11.29

Nlocal:        2776.45 ave        3954 max           0 min
Histogram: 8 4 4 0 4 12 8 0 30 34
Nghost:        3878.92 ave        5426 max         232 min
Histogram: 8 0 8 0 16 0 8 8 16 40
Neighs:        79213.5 ave      115279 max           0 min
Histogram: 8 4 4 0 10 6 8 8 24 32

Total # of neighbors = 8238200
Ave neighs/atom = 28.530464
Neighbor list builds = 0
Dangerous builds = 0
The dot product: -1.77688218159065e-08
Setting atom values ...
  1 settings made for x
  1 settings made for y
  1 settings made for z
Setting up cg style minimization ...
  Unit style    : metal
  Current step  : 6632
Per MPI rank memory allocation (min/avg/max) = 5.441 | 5.816 | 6.074 Mbytes
Step PotEng KinEng TotEng v_fx v_fy v_fz 
    6632   -1152448.6            0   -1152448.6 -0.019181475 0.0037374731  0.022422935 
    6885   -1152448.6            0   -1152448.6 -1.417358e-06 5.2621605e-07 1.6378563e-06 
Loop time of 2.94242 on 104 procs for 253 steps with 288751 atoms

99.9% CPU use with 104 MPI tasks x 1 OpenMP threads

Minimization stats:
  Stopping criterion = energy tolerance
  Energy initial, next-to-last, final = 
     -1152448.61982922  -1152448.62197921  -1152448.62197921
  Force two-norm initial, final = 0.17909984 3.3538167e-05
  Force max component initial, final = 0.15118883 2.7759193e-06
  Final line search alpha, max atom move = 1.0000000 2.7759193e-06
  Iterations, force evaluations = 253 506

MPI task timing breakdown:
Section |  min time  |  avg time  |  max time  |%varavg| %total
---------------------------------------------------------------
Pair    | 0.76855    | 2.1283     | 2.7866     |  39.2 | 72.33
Neigh   | 0          | 0          | 0          |   0.0 |  0.00
Comm    | 0.042753   | 0.48054    | 1.4379     |  57.9 | 16.33
Output  | 0          | 0          | 0          |   0.0 |  0.00
Modify  | 3.0436e-05 | 0.0041504  | 0.0089354  |   3.1 |  0.14
Other   |            | 0.3294     |            |       | 11.19

Nlocal:        2776.45 ave        3952 max           0 min
Histogram: 8 4 4 0 4 12 8 0 30 34
Nghost:        3878.91 ave        5426 max         232 min
Histogram: 8 0 8 0 16 0 8 8 16 40
Neighs:        79213.5 ave      115217 max           0 min
Histogram: 8 4 4 0 10 6 8 8 24 32

Total # of neighbors = 8238201
Ave neighs/atom = 28.530467
Neighbor list builds = 0
Dangerous builds = 0
The dot product: 6.74879951906302e-10
Setting atom values ...
  1 settings made for x
  1 settings made for y
  1 settings made for z
Setting up cg style minimization ...
  Unit style    : metal
  Current step  : 6885
Per MPI rank memory allocation (min/avg/max) = 5.441 | 5.816 | 6.074 Mbytes
Step PotEng KinEng TotEng v_fx v_fy v_fz 
    6885   -1152448.6            0   -1152448.6 -0.021544256 0.0008576229  0.025484076 
    7000   -1152448.6            0   -1152448.6 -0.00088976188 0.00029820683  0.001031617 
    7192   -1152448.6            0   -1152448.6 -2.4144299e-06 3.2214032e-07 2.8380201e-06 
Loop time of 3.54815 on 104 procs for 307 steps with 288751 atoms

99.9% CPU use with 104 MPI tasks x 1 OpenMP threads

Minimization stats:
  Stopping criterion = energy tolerance
  Energy initial, next-to-last, final = 
     -1152448.58158925  -1152448.58609693  -1152448.58609693
  Force two-norm initial, final = 0.17845416 2.0267996e-05
  Force max component initial, final = 0.1483024 3.3685224e-06
  Final line search alpha, max atom move = 1.0000000 3.3685224e-06
  Iterations, force evaluations = 307 614

MPI task timing breakdown:
Section |  min time  |  avg time  |  max time  |%varavg| %total
---------------------------------------------------------------
Pair    | 0.93505    | 2.5753     | 3.3532     |  43.1 | 72.58
Neigh   | 1.0642e-05 | 0.0029557  | 0.0042794  |   2.2 |  0.08
Comm    | 0.059734   | 0.57487    | 1.74       |  64.4 | 16.20
Output  | 0.00010758 | 0.00011095 | 0.00024284 |   0.0 |  0.00
Modify  | 3.6923e-05 | 0.0050469  | 0.011476   |   3.4 |  0.14
Other   |            | 0.3899     |            |       | 10.99

Nlocal:        2776.45 ave        3950 max           0 min
Histogram: 8 4 4 0 4 12 8 0 28 36
Nghost:        3879.01 ave        5426 max         232 min
Histogram: 8 0 8 0 16 0 8 8 16 40
Neighs:        79213.4 ave      115192 max           0 min
Histogram: 8 4 4 0 10 6 8 8 24 32

Total # of neighbors = 8238195
Ave neighs/atom = 28.530447
Neighbor list builds = 1
Dangerous builds = 0
The dot product: -4.6871172587722e-08
Setting atom values ...
  1 settings made for x
  1 settings made for y
  1 settings made for z
Setting up cg style minimization ...
  Unit style    : metal
  Current step  : 7192
Per MPI rank memory allocation (min/avg/max) = 5.441 | 5.816 | 6.074 Mbytes
Step PotEng KinEng TotEng v_fx v_fy v_fz 
    7192   -1152448.6            0   -1152448.6 -0.011689684 -0.0012445647  0.013523697 
    7391   -1152448.6            0   -1152448.6 2.3652171e-05 -3.758766e-06 -2.6834399e-05 
Loop time of 2.30918 on 104 procs for 199 steps with 288751 atoms

99.9% CPU use with 104 MPI tasks x 1 OpenMP threads

Minimization stats:
  Stopping criterion = energy tolerance
  Energy initial, next-to-last, final = 
     -1152448.55848273  -1152448.56158087  -1152448.56158087
  Force two-norm initial, final = 0.18440562 0.00015666806
  Force max component initial, final = 0.14846666 3.5540758e-05
  Final line search alpha, max atom move = 1.0000000 3.5540758e-05
  Iterations, force evaluations = 199 398

MPI task timing breakdown:
Section |  min time  |  avg time  |  max time  |%varavg| %total
---------------------------------------------------------------
Pair    | 0.60515    | 1.6788     | 2.19       |  35.0 | 72.70
Neigh   | 0          | 0          | 0          |   0.0 |  0.00
Comm    | 0.03376    | 0.3805     | 1.1387     |  51.5 | 16.48
Output  | 0          | 0          | 0          |   0.0 |  0.00
Modify  | 2.3978e-05 | 0.0032741  | 0.0070647  |   2.7 |  0.14
Other   |            | 0.2466     |            |       | 10.68

Nlocal:        2776.45 ave        3953 max           0 min
Histogram: 8 4 4 0 4 12 8 0 30 34
Nghost:        3879.05 ave        5426 max         232 min
Histogram: 8 0 8 0 16 0 8 8 16 40
Neighs:        79213.4 ave      115286 max           0 min
Histogram: 8 4 4 0 10 6 8 8 24 32

Total # of neighbors = 8238198
Ave neighs/atom = 28.530457
Neighbor list builds = 0
Dangerous builds = 0
The dot product: 2.20647607904497e-07
Setting atom values ...
  1 settings made for x
  1 settings made for y
  1 settings made for z
Setting up cg style minimization ...
  Unit style    : metal
  Current step  : 7391
Per MPI rank memory allocation (min/avg/max) = 5.441 | 5.816 | 6.074 Mbytes
Step PotEng KinEng TotEng v_fx v_fy v_fz 
    7391   -1152448.5            0   -1152448.5 -0.024651638 0.0041708842   0.02750315 
    7565   -1152448.5            0   -1152448.5 3.2986615e-05 -2.5158885e-06 -3.7065249e-05 
[...]

Nlocal:        2776.45 ave        3930 max           0 min
Histogram: 8 4 4 0 4 12 8 0 26 38
Nghost:        3879.09 ave        5425 max         232 min
Histogram: 8 0 8 0 16 0 8 8 16 40
Neighs:        79213.3 ave      114449 max           0 min
Histogram: 8 4 4 0 8 8 8 8 20 36

Total # of neighbors = 8238184
Ave neighs/atom = 28.530409
Neighbor list builds = 0
Dangerous builds = 0
The dot product: 2.06298400702331e-09
Setting atom values ...
  1 settings made for x
  1 settings made for y
  1 settings made for z
Setting up cg style minimization ...
  Unit style    : metal
  Current step  : 21599
Per MPI rank memory allocation (min/avg/max) = 5.441 | 5.816 | 6.074 Mbytes
Step PotEng KinEng TotEng v_fx v_fy v_fz 
   21599     -1152449            0     -1152449 0.0047315971 0.0082763678 -0.012926678 
   21824     -1152449            0     -1152449 -5.255723e-06 1.6846581e-06 1.6295858e-06 
Loop time of 2.58677 on 104 procs for 225 steps with 288751 atoms

99.9% CPU use with 104 MPI tasks x 1 OpenMP threads

Minimization stats:
  Stopping criterion = energy tolerance
  Energy initial, next-to-last, final = 
     -1152448.95224363  -1152448.95358575  -1152448.95358575
  Force two-norm initial, final = 0.16975279 2.9481494e-05
  Force max component initial, final = 0.10321389 5.6178859e-06
  Final line search alpha, max atom move = 1.0000000 5.6178859e-06
  Iterations, force evaluations = 225 450

MPI task timing breakdown:
Section |  min time  |  avg time  |  max time  |%varavg| %total
---------------------------------------------------------------
Pair    | 0.67705    | 1.8802     | 2.4471     |  37.0 | 72.69
Neigh   | 0          | 0          | 0          |   0.0 |  0.00
Comm    | 0.054065   | 0.4234     | 1.2801     |  54.6 | 16.37
Output  | 0          | 0          | 0          |   0.0 |  0.00
Modify  | 2.7413e-05 | 0.0036952  | 0.0078699  |   2.9 |  0.14
Other   |            | 0.2794     |            |       | 10.80

Nlocal:        2776.45 ave        3930 max           0 min
Histogram: 8 4 4 0 4 12 8 0 26 38
Nghost:        3879.07 ave        5425 max         232 min
Histogram: 8 0 8 0 16 0 8 8 16 40
Neighs:        79213.3 ave      114448 max           0 min
Histogram: 8 4 4 0 8 8 8 8 20 36

Total # of neighbors = 8238185
Ave neighs/atom = 28.530412
Neighbor list builds = 0
Dangerous builds = 0
The dot product: 2.75624529538219e-09
Setting atom values ...
  1 settings made for x
  1 settings made for y
  1 settings made for z
Setting up cg style minimization ...
  Unit style    : metal
  Current step  : 21824
Per MPI rank memory allocation (min/avg/max) = 5.441 | 5.816 | 6.074 Mbytes
Step PotEng KinEng TotEng v_fx v_fy v_fz 
   21824     -1152449            0     -1152449 0.0063420018 0.0070048424  -0.01255072 
   22000     -1152449            0     -1152449 2.9156891e-05 3.7258676e-06 -2.4341913e-05 
   22001     -1152449            0     -1152449 -3.5804486e-05 1.5201504e-05 6.7254511e-06 
Loop time of 2.03094 on 104 procs for 177 steps with 288751 atoms

99.9% CPU use with 104 MPI tasks x 1 OpenMP threads

Minimization stats:
  Stopping criterion = energy tolerance
  Energy initial, next-to-last, final = 
     -1152448.98245763  -1152448.98379785  -1152448.98379785
  Force two-norm initial, final = 0.16907376 0.0001918098
  Force max component initial, final = 0.10237905 6.3616634e-05
  Final line search alpha, max atom move = 1.0000000 6.3616634e-05
  Iterations, force evaluations = 177 354

MPI task timing breakdown:
Section |  min time  |  avg time  |  max time  |%varavg| %total
---------------------------------------------------------------
Pair    | 0.53282    | 1.4783     | 1.9244     |  32.9 | 72.79
Neigh   | 0          | 0          | 0          |   0.0 |  0.00
Comm    | 0.040798   | 0.33223    | 0.99985    |  48.2 | 16.36
Output  | 9.9487e-05 | 0.00010683 | 0.00029596 |   0.0 |  0.01
Modify  | 2.1005e-05 | 0.0029119  | 0.0061945  |   2.5 |  0.14
Other   |            | 0.2173     |            |       | 10.70

Nlocal:        2776.45 ave        3930 max           0 min
Histogram: 8 4 4 0 4 12 8 0 26 38
Nghost:        3879.07 ave        5425 max         232 min
Histogram: 8 0 8 0 16 0 8 8 16 40
Neighs:        79213.3 ave      114448 max           0 min
Histogram: 8 4 4 0 8 8 8 8 20 36

Total # of neighbors = 8238187
Ave neighs/atom = 28.530419
Neighbor list builds = 0
Dangerous builds = 0
The dot product: 1.14485533770693e-08
Setting atom values ...
  1 settings made for x
  1 settings made for y
  1 settings made for z
Setting up cg style minimization ...
  Unit style    : metal
  Current step  : 22001
Per MPI rank memory allocation (min/avg/max) = 5.441 | 5.816 | 6.074 Mbytes
Step PotEng KinEng TotEng v_fx v_fy v_fz 
   22001     -1152449            0     -1152449 0.0074481912 0.0078785217 -0.014337487 
   22202     -1152449            0     -1152449 1.4632583e-05 4.1446656e-06 -1.4884256e-05 
Loop time of 2.29871 on 104 procs for 201 steps with 288751 atoms

99.9% CPU use with 104 MPI tasks x 1 OpenMP threads

Minimization stats:
  Stopping criterion = energy tolerance
  Energy initial, next-to-last, final = 
     -1152449.01103872  -1152449.01237881  -1152449.01237881
  Force two-norm initial, final = 0.16863569 9.4623547e-05
  Force max component initial, final = 0.10142013 2.1447548e-05
  Final line search alpha, max atom move = 1.0000000 2.1447548e-05
  Iterations, force evaluations = 201 402

MPI task timing breakdown:
Section |  min time  |  avg time  |  max time  |%varavg| %total
---------------------------------------------------------------
Pair    | 0.60501    | 1.6779     | 2.1798     |  35.1 | 72.99
Neigh   | 0          | 0          | 0          |   0.0 |  0.00
Comm    | 0.036668   | 0.37704    | 1.1376     |  51.7 | 16.40
Output  | 0          | 0          | 0          |   0.0 |  0.00
Modify  | 2.423e-05  | 0.0032992  | 0.0070725  |   2.7 |  0.14
Other   |            | 0.2405     |            |       | 10.46

Nlocal:        2776.45 ave        3930 max           0 min
Histogram: 8 4 4 0 4 12 8 0 26 38
Nghost:        3879.03 ave        5425 max         232 min
Histogram: 8 0 8 0 16 0 8 8 16 40
Neighs:        79213.4 ave      114447 max           0 min
Histogram: 8 4 4 0 8 8 8 8 20 36

Total # of neighbors = 8238189
Ave neighs/atom = 28.530426
Neighbor list builds = 0
Dangerous builds = 0
The dot product: 9.75057493569947e-09
Setting atom values ...
  1 settings made for x
  1 settings made for y
  1 settings made for z
Setting up cg style minimization ...
  Unit style    : metal
  Current step  : 22202
Per MPI rank memory allocation (min/avg/max) = 5.441 | 5.816 | 6.074 Mbytes
Step PotEng KinEng TotEng v_fx v_fy v_fz 
   22202     -1152449            0     -1152449 0.0087640301 0.0083593486 -0.015811596 
   22410     -1152449            0     -1152449 1.9074286e-05 -4.1058654e-06 -8.2585552e-06 
Loop time of 2.38697 on 104 procs for 208 steps with 288751 atoms

99.9% CPU use with 104 MPI tasks x 1 OpenMP threads

Minimization stats:
  Stopping criterion = energy tolerance
  Energy initial, next-to-last, final = 
     -1152449.03799637  -1152449.03933844  -1152449.03933844
  Force two-norm initial, final = 0.16831946 7.3269573e-05
  Force max component initial, final = 0.10052157 1.9593617e-05
  Final line search alpha, max atom move = 1.0000000 1.9593617e-05
  Iterations, force evaluations = 208 416

MPI task timing breakdown:
Section |  min time  |  avg time  |  max time  |%varavg| %total
---------------------------------------------------------------
Pair    | 0.62682    | 1.7376     | 2.2562     |  35.7 | 72.80
Neigh   | 0          | 0          | 0          |   0.0 |  0.00
Comm    | 0.043313   | 0.38888    | 1.1819     |  52.6 | 16.29
Output  | 0          | 0          | 0          |   0.0 |  0.00
Modify  | 2.4732e-05 | 0.0034173  | 0.0072932  |   2.8 |  0.14
Other   |            | 0.2571     |            |       | 10.77

Nlocal:        2776.45 ave        3930 max           0 min
Histogram: 8 4 4 0 4 12 8 0 26 38
Nghost:        3879.03 ave        5425 max         232 min
Histogram: 8 0 8 0 16 0 8 8 16 40
Neighs:        79213.4 ave      114447 max           0 min
Histogram: 8 4 4 0 8 8 8 8 20 36

Total # of neighbors = 8238189
Ave neighs/atom = 28.530426
Neighbor list builds = 0
Dangerous builds = 0
The dot product: 5.05645590445275e-09
Setting atom values ...
  1 settings made for x
  1 settings made for y
  1 settings made for z
Setting up cg style minimization ...
  Unit style    : metal
  Current step  : 22410
Per MPI rank memory allocation (min/avg/max) = 5.441 | 5.816 | 6.074 Mbytes
Step PotEng KinEng TotEng v_fx v_fy v_fz 
   22410   -1152449.1            0   -1152449.1 0.0099310947 0.0088498678 -0.017199307 
   22590   -1152449.1            0   -1152449.1 -7.5885755e-07 -1.3686424e-06 2.1270102e-06 
Loop time of 2.06306 on 104 procs for 180 steps with 288751 atoms

99.9% CPU use with 104 MPI tasks x 1 OpenMP threads

Minimization stats:
  Stopping criterion = energy tolerance
  Energy initial, next-to-last, final = 
     -1152449.06334344  -1152449.06469032  -1152449.06469032
  Force two-norm initial, final = 0.16808674 0.00016106036
  Force max component initial, final = 0.099550128 1.2625578e-05
  Final line search alpha, max atom move = 1.0000000 1.2625578e-05
  Iterations, force evaluations = 180 360

MPI task timing breakdown:
Section |  min time  |  avg time  |  max time  |%varavg| %total
---------------------------------------------------------------
Pair    | 0.54143    | 1.5024     | 1.9512     |  33.2 | 72.82
Neigh   | 0          | 0          | 0          |   0.0 |  0.00
Comm    | 0.04138    | 0.33645    | 1.0235     |  49.0 | 16.31
Output  | 0          | 0          | 0          |   0.0 |  0.00
Modify  | 2.1439e-05 | 0.0029608  | 0.0063189  |   2.6 |  0.14
Other   |            | 0.2213     |            |       | 10.72

Nlocal:        2776.45 ave        3930 max           0 min
Histogram: 8 4 4 0 4 12 8 0 26 38
Nghost:        3879.03 ave        5425 max         232 min
Histogram: 8 0 8 0 16 0 8 8 16 40
Neighs:        79213.4 ave      114461 max           0 min
Histogram: 8 4 4 0 8 8 8 8 20 36

Total # of neighbors = 8238190
Ave neighs/atom = 28.530429
Neighbor list builds = 0
Dangerous builds = 0
The dot product: -2.96436000513059e-09
Setting atom values ...
  1 settings made for x
  1 settings made for y
  1 settings made for z
Setting up cg style minimization ...
  Unit style    : metal
  Current step  : 22590
Per MPI rank memory allocation (min/avg/max) = 5.441 | 5.816 | 6.074 Mbytes
Step PotEng KinEng TotEng v_fx v_fy v_fz 
   22590   -1152449.1            0   -1152449.1  0.010888394 0.0093100547 -0.018412756 
   22772   -1152449.1            0   -1152449.1 4.5354697e-05 1.3686461e-06 -3.2739564e-05 
Loop time of 2.07957 on 104 procs for 182 steps with 288751 atoms

99.9% CPU use with 104 MPI tasks x 1 OpenMP threads

Minimization stats:
  Stopping criterion = energy tolerance
  Energy initial, next-to-last, final = 
     -1152449.08709915  -1152449.08845361  -1152449.08845361
  Force two-norm initial, final = 0.16792948 0.00015679838
  Force max component initial, final = 0.098521789 5.1590483e-05
  Final line search alpha, max atom move = 1.0000000 5.1590483e-05
  Iterations, force evaluations = 182 364

MPI task timing breakdown:
Section |  min time  |  avg time  |  max time  |%varavg| %total
---------------------------------------------------------------
Pair    | 0.54657    | 1.5193     | 1.9704     |  33.3 | 73.06
Neigh   | 0          | 0          | 0          |   0.0 |  0.00
Comm    | 0.040469   | 0.34083    | 1.0317     |  49.1 | 16.39
Output  | 0          | 0          | 0          |   0.0 |  0.00
Modify  | 2.196e-05  | 0.0029901  | 0.0064127  |   2.6 |  0.14
Other   |            | 0.2164     |            |       | 10.41

Nlocal:        2776.45 ave        3930 max           0 min
Histogram: 8 4 4 0 4 12 8 0 26 38
Nghost:        3878.99 ave        5425 max         232 min
Histogram: 8 0 8 0 16 0 8 8 16 40
Neighs:        79213.4 ave      114461 max           0 min
Histogram: 8 4 4 0 8 8 8 8 20 36

Total # of neighbors = 8238193
Ave neighs/atom = 28.530440
Neighbor list builds = 0
Dangerous builds = 0
The dot product: 5.36357203136383e-08
Setting atom values ...
  1 settings made for x
  1 settings made for y
  1 settings made for z
Setting up cg style minimization ...
  Unit style    : metal
  Current step  : 22772
Per MPI rank memory allocation (min/avg/max) = 5.441 | 5.816 | 6.074 Mbytes
Step PotEng KinEng TotEng v_fx v_fy v_fz 
   22772   -1152449.1            0   -1152449.1  0.011720817 0.0097459218 -0.019517058 
   22946   -1152449.1            0   -1152449.1 3.0347487e-05 -9.9704203e-06 -9.1258627e-06 
Loop time of 2.01539 on 104 procs for 174 steps with 288751 atoms

99.9% CPU use with 104 MPI tasks x 1 OpenMP threads

Minimization stats:
  Stopping criterion = energy tolerance
  Energy initial, next-to-last, final = 
      -1152449.1092877  -1152449.11065092  -1152449.11065092
  Force two-norm initial, final = 0.16787632 0.0002028125
  Force max component initial, final = 0.097506137 3.0347487e-05
  Final line search alpha, max atom move = 1.0000000 3.0347487e-05
  Iterations, force evaluations = 174 348

MPI task timing breakdown:
Section |  min time  |  avg time  |  max time  |%varavg| %total
---------------------------------------------------------------
Pair    | 0.53891    | 1.4585     | 1.888      |  32.3 | 72.37
Neigh   | 0          | 0          | 0          |   0.0 |  0.00
Comm    | 0.041098   | 0.32913    | 0.99786    |  47.9 | 16.33
Output  | 0          | 0          | 0          |   0.0 |  0.00
Modify  | 2.0938e-05 | 0.0028622  | 0.0061038  |   2.5 |  0.14
Other   |            | 0.2249     |            |       | 11.16

Nlocal:        2776.45 ave        3930 max           0 min
Histogram: 8 4 4 0 4 12 8 0 26 38
Nghost:        3878.95 ave        5425 max         232 min
Histogram: 8 0 8 0 16 0 8 8 16 40
Neighs:        79213.4 ave      114461 max           0 min
Histogram: 8 4 4 0 8 8 8 8 20 36

Total # of neighbors = 8238191
Ave neighs/atom = 28.530433
Neighbor list builds = 0
Dangerous builds = 0
The dot product: 1.98857888013856e-08
Setting atom values ...
  1 settings made for x
  1 settings made for y
  1 settings made for z
Setting up cg style minimization ...
  Unit style    : metal
  Current step  : 22946
Per MPI rank memory allocation (min/avg/max) = 5.441 | 5.816 | 6.074 Mbytes
Step PotEng KinEng TotEng v_fx v_fy v_fz 
   22946   -1152449.1            0   -1152449.1  0.012325416  0.010131368 -0.020410731 
   23000   -1152449.1            0   -1152449.1 -0.00056386462 -3.9832227e-08 0.00038800104 
   23127   -1152449.1            0   -1152449.1 -1.4474695e-05 3.9738586e-06 5.2794402e-06 
Loop time of 2.06732 on 104 procs for 181 steps with 288751 atoms

99.9% CPU use with 104 MPI tasks x 1 OpenMP threads

Minimization stats:
  Stopping criterion = energy tolerance
  Energy initial, next-to-last, final = 
     -1152449.12993279  -1152449.13130317  -1152449.13130317
  Force two-norm initial, final = 0.16778536 0.00014888234
  Force max component initial, final = 0.096393563 1.4474695e-05
  Final line search alpha, max atom move = 1.0000000 1.4474695e-05
  Iterations, force evaluations = 181 362

MPI task timing breakdown:
Section |  min time  |  avg time  |  max time  |%varavg| %total
---------------------------------------------------------------
Pair    | 0.54768    | 1.5124     | 1.9596     |  33.2 | 73.16
Neigh   | 0          | 0          | 0          |   0.0 |  0.00
Comm    | 0.038321   | 0.33866    | 1.0298     |  49.0 | 16.38
Output  | 0.00010483 | 0.0001086  | 0.0002501  |   0.0 |  0.01
Modify  | 2.1831e-05 | 0.0029772  | 0.0064004  |   2.6 |  0.14
Other   |            | 0.2131     |            |       | 10.31

Nlocal:        2776.45 ave        3930 max           0 min
Histogram: 8 4 4 0 4 12 8 0 26 38
Nghost:        3878.95 ave        5425 max         232 min
Histogram: 8 0 8 0 16 0 8 8 16 40
Neighs:        79213.4 ave      114486 max           0 min
Histogram: 8 4 4 0 8 8 8 8 20 36

Total # of neighbors = 8238192
Ave neighs/atom = 28.530436
Neighbor list builds = 0
Dangerous builds = 0
The dot product: -1.32173532924566e-08
Setting atom values ...
  1 settings made for x
  1 settings made for y
  1 settings made for z
Setting up cg style minimization ...
  Unit style    : metal
  Current step  : 23127
Per MPI rank memory allocation (min/avg/max) = 5.441 | 5.816 | 6.074 Mbytes
Step PotEng KinEng TotEng v_fx v_fy v_fz 
   23127   -1152449.1            0   -1152449.1  0.012760543  0.010526336 -0.021203642 
   23397   -1152449.2            0   -1152449.2 3.8959863e-09 -3.6638701e-08 4.0515005e-08 
Loop time of 3.10075 on 104 procs for 270 steps with 288751 atoms

99.9% CPU use with 104 MPI tasks x 1 OpenMP threads

Minimization stats:
  Stopping criterion = energy tolerance
  Energy initial, next-to-last, final = 
     -1152449.14905094  -1152449.15042429  -1152449.15042429
  Force two-norm initial, final = 0.1677397 3.6551540e-06
  Force max component initial, final = 0.095236026 9.2853160e-08
  Final line search alpha, max atom move = 1.0000000 9.2853160e-08
  Iterations, force evaluations = 270 540

MPI task timing breakdown:
Section |  min time  |  avg time  |  max time  |%varavg| %total
---------------------------------------------------------------
Pair    | 0.81161    | 2.2524     | 2.9351     |  40.7 | 72.64
Neigh   | 0          | 0          | 0          |   0.0 |  0.00
Comm    | 0.058905   | 0.50586    | 1.5246     |  59.8 | 16.31
Output  | 0          | 0          | 0          |   0.0 |  0.00
Modify  | 3.2108e-05 | 0.0044333  | 0.0095005  |   3.1 |  0.14
Other   |            | 0.3381     |            |       | 10.90

Nlocal:        2776.45 ave        3930 max           0 min
Histogram: 8 4 4 0 4 12 8 0 26 38
Nghost:        3879.06 ave        5426 max         232 min
Histogram: 8 0 8 0 16 0 8 8 16 40
Neighs:        79213.4 ave      114486 max           0 min
Histogram: 8 4 4 0 8 8 8 8 20 36

Total # of neighbors = 8238193
Ave neighs/atom = 28.530440
Neighbor list builds = 0
Dangerous builds = 0
The dot product: -8.29229036932672e-11
Setting up cg style minimization ...
  Unit style    : metal
  Current step  : 23397
Per MPI rank memory allocation (min/avg/max) = 5.441 | 5.816 | 6.074 Mbytes
Step PotEng KinEng TotEng v_fx v_fy v_fz 
   23397   -1152449.2            0   -1152449.2   0.37369674   0.63946899   0.54235211 
   23655   -1152449.3            0   -1152449.3 -1.2326867e-05 6.6571147e-07 7.2355495e-06 
Loop time of 2.96278 on 104 procs for 258 steps with 288751 atoms

99.9% CPU use with 104 MPI tasks x 1 OpenMP threads

Minimization stats:
  Stopping criterion = energy tolerance
  Energy initial, next-to-last, final = 
     -1152449.15042429  -1152449.26566399  -1152449.26566399
  Force two-norm initial, final = 0.91799545 7.7622756e-05
  Force max component initial, final = 0.63946899 1.2326867e-05
  Final line search alpha, max atom move = 1.0000000 1.2326867e-05
  Iterations, force evaluations = 258 516

MPI task timing breakdown:
Section |  min time  |  avg time  |  max time  |%varavg| %total
---------------------------------------------------------------
Pair    | 0.7829     | 2.155      | 2.8016     |  39.6 | 72.73
Neigh   | 1.024e-05  | 0.0029611  | 0.0042677  |   2.2 |  0.10
Comm    | 0.053725   | 0.48541    | 1.4574     |  58.2 | 16.38
Output  | 0          | 0          | 0          |   0.0 |  0.00
Modify  | 2.8918e-05 | 0.0027581  | 0.0070683  |   3.3 |  0.09
Other   |            | 0.3167     |            |       | 10.69

Nlocal:        2776.45 ave        3939 max           0 min
Histogram: 8 4 4 0 4 12 8 1 27 36
Nghost:        3879.06 ave        5426 max         232 min
Histogram: 8 0 8 0 16 0 8 8 16 40
Neighs:        79213.4 ave      114762 max           0 min
Histogram: 8 4 4 0 10 6 8 8 22 34

Total # of neighbors = 8238190
Ave neighs/atom = 28.530429
Neighbor list builds = 1
Dangerous builds = 0
