LAMMPS (29 Oct 2020)
OMP_NUM_THREADS environment is not set. Defaulting to 1 thread. (../comm.cpp:94)
  using 1 OpenMP thread(s) per MPI task
OMP_NUM_THREADS environment is not set. Defaulting to 1 thread. (../comm.cpp:94)
  using 1 OpenMP thread(s) per MPI task
Reading data file ...
  orthogonal box = (-122.39241 -121.13707 -37.090501) to (122.39241 121.13707 37.090501)
  13 by 4 by 2 MPI processor grid
  reading atoms ...
  288751 atoms
  read_data CPU = 0.388 seconds
199981 atoms in group inner
88770 atoms in group outer
1 atoms in group carbon
Neighbor list info ...
  update every 1 steps, delay 0 steps, check yes
  max neighbors/atom: 2000, page size: 100000
  master list distance cutoff = 5.6
  ghost atom cutoff = 5.6
  binsize = 2.8, bins = 88 87 27
  1 neighbor lists, perpetual/occasional/extra = 1 0 0
  (1) pair eam/alloy, perpetual
      attributes: half, newton on
      pair build: half/bin/atomonly/newton
      stencil: half/bin/3d/newton
      bin: standard
Setting up cg style minimization ...
  Unit style    : metal
  Current step  : 0
Per MPI rank memory allocation (min/avg/max) = 5.441 | 5.816 | 6.074 Mbytes
Step v_fx v_fy v_fz PotEng KinEng TotEng 
       0   0.12838042   -30.061288    50.413591   -1152433.3            0   -1152433.3 
     167 1.0030321e-05 2.4794552e-05 3.1037897e-05   -1152449.5            0   -1152449.5 
Loop time of 1.96516 on 104 procs for 167 steps with 288751 atoms

99.8% CPU use with 104 MPI tasks x 1 OpenMP threads

Minimization stats:
  Stopping criterion = energy tolerance
  Energy initial, next-to-last, final = 
     -1152433.30266341  -1152449.45035271  -1152449.45035271
  Force two-norm initial, final = 87.946012 0.00012571073
  Force max component initial, final = 57.544591 3.1037897e-05
  Final line search alpha, max atom move = 1.0000000 3.1037897e-05
  Iterations, force evaluations = 167 326

MPI task timing breakdown:
Section |  min time  |  avg time  |  max time  |%varavg| %total
---------------------------------------------------------------
Pair    | 0.51999    | 1.383      | 1.787      |  31.1 | 70.38
Neigh   | 5.2914e-05 | 0.014618   | 0.021254   |   5.0 |  0.74
Comm    | 0.032703   | 0.31817    | 0.93389    |  45.6 | 16.19
Output  | 0          | 0          | 0          |   0.0 |  0.00
Modify  | 1.8043e-05 | 0.0017711  | 0.0045134  |   2.6 |  0.09
Other   |            | 0.2476     |            |       | 12.60

Nlocal:        2776.45 ave        3960 max           0 min
Histogram: 8 4 4 0 4 12 8 2 28 34
Nghost:        3879.01 ave        5425 max         232 min
Histogram: 8 0 8 0 16 0 8 8 16 40
Neighs:        79213.5 ave      115429 max           0 min
Histogram: 8 4 4 0 10 6 8 8 24 32

Total # of neighbors = 8238208
Ave neighs/atom = 28.530492
Neighbor list builds = 5
Dangerous builds = 0
Setting atom values ...
  1 settings made for x
  1 settings made for y
  1 settings made for z
Setting up cg style minimization ...
  Unit style    : metal
  Current step  : 167
Per MPI rank memory allocation (min/avg/max) = 5.441 | 5.816 | 6.074 Mbytes
Step PotEng KinEng TotEng v_fx v_fy v_fz 
     167   -1152449.4            0   -1152449.4 -0.0077704057 0.0064610203 0.0012543493 
     313   -1152449.5            0   -1152449.5 -4.2845372e-06 -1.2751608e-06 -1.4754004e-05 
Loop time of 1.73069 on 104 procs for 146 steps with 288751 atoms

99.8% CPU use with 104 MPI tasks x 1 OpenMP threads

Minimization stats:
  Stopping criterion = energy tolerance
  Energy initial, next-to-last, final = 
     -1152449.44945328  -1152449.45006285  -1152449.45006285
  Force two-norm initial, final = 0.11543112 0.00015175228
  Force max component initial, final = 0.051747365 3.5326124e-05
  Final line search alpha, max atom move = 1.0000000 3.5326124e-05
  Iterations, force evaluations = 146 292

MPI task timing breakdown:
Section |  min time  |  avg time  |  max time  |%varavg| %total
---------------------------------------------------------------
Pair    | 0.44488    | 1.2384     | 1.6053     |  30.1 | 71.56
Neigh   | 0          | 0          | 0          |   0.0 |  0.00
Comm    | 0.031411   | 0.28337    | 0.83702    |  43.5 | 16.37
Output  | 0          | 0          | 0          |   0.0 |  0.00
Modify  | 1.8297e-05 | 0.0024204  | 0.0051555  |   2.3 |  0.14
Other   |            | 0.2065     |            |       | 11.93

Nlocal:        2776.45 ave        3961 max           0 min
Histogram: 8 4 4 0 6 10 8 2 28 34
Nghost:        3879.01 ave        5424 max         232 min
Histogram: 8 0 8 0 16 0 8 8 16 40
Neighs:        79213.4 ave      115464 max           0 min
Histogram: 8 4 4 0 10 6 8 8 24 32

Total # of neighbors = 8238198
Ave neighs/atom = 28.530457
Neighbor list builds = 0
Dangerous builds = 0
Setting atom values ...
  1 settings made for x
  1 settings made for y
  1 settings made for z
Setting up cg style minimization ...
  Unit style    : metal
  Current step  : 313
Per MPI rank memory allocation (min/avg/max) = 5.441 | 5.816 | 6.074 Mbytes
Step PotEng KinEng TotEng v_fx v_fy v_fz 
     313   -1152449.4            0   -1152449.4  -0.01870644  0.018067398 0.0026339598 
     433   -1152449.4            0   -1152449.4 5.4399403e-07 3.9083652e-06 1.7261724e-05 
Loop time of 1.42633 on 104 procs for 120 steps with 288751 atoms

99.9% CPU use with 104 MPI tasks x 1 OpenMP threads

Minimization stats:
  Stopping criterion = energy tolerance
  Energy initial, next-to-last, final = 
     -1152449.44670621  -1152449.44838192  -1152449.44838192
  Force two-norm initial, final = 0.19210661 0.00018249679
  Force max component initial, final = 0.080088098 1.7261724e-05
  Final line search alpha, max atom move = 1.0000000 1.7261724e-05
  Iterations, force evaluations = 120 240

MPI task timing breakdown:
Section |  min time  |  avg time  |  max time  |%varavg| %total
---------------------------------------------------------------
Pair    | 0.36951    | 1.013      | 1.3154     |  27.1 | 71.02
Neigh   | 0          | 0          | 0          |   0.0 |  0.00
Comm    | 0.022276   | 0.2317     | 0.68302    |  39.4 | 16.24
Output  | 0          | 0          | 0          |   0.0 |  0.00
Modify  | 1.4639e-05 | 0.0019947  | 0.004278   |   2.1 |  0.14
Other   |            | 0.1796     |            |       | 12.59

Nlocal:        2776.45 ave        3961 max           0 min
Histogram: 8 4 4 0 6 10 8 2 28 34
Nghost:        3879.01 ave        5427 max         232 min
Histogram: 8 0 8 0 16 0 8 8 16 40
Neighs:        79213.5 ave      115464 max           0 min
Histogram: 8 4 4 0 10 6 8 8 24 32

Total # of neighbors = 8238199
Ave neighs/atom = 28.530461
Neighbor list builds = 0
Dangerous builds = 0
The dot product: -2.08738130440729e-08
Setting atom values ...
  1 settings made for x
  1 settings made for y
  1 settings made for z
Setting up cg style minimization ...
  Unit style    : metal
  Current step  : 433
Per MPI rank memory allocation (min/avg/max) = 5.441 | 5.816 | 6.074 Mbytes
Step PotEng KinEng TotEng v_fx v_fy v_fz 
     433   -1152449.4            0   -1152449.4 -0.023608717  0.026759921 0.0026312591 
     549   -1152449.4            0   -1152449.4 2.2496912e-06 1.3509906e-06 1.8785376e-05 
Loop time of 1.37664 on 104 procs for 116 steps with 288751 atoms

99.9% CPU use with 104 MPI tasks x 1 OpenMP threads

Minimization stats:
  Stopping criterion = energy tolerance
  Energy initial, next-to-last, final = 
     -1152449.44354918  -1152449.44522654  -1152449.44522654
  Force two-norm initial, final = 0.1923214 0.00018213571
  Force max component initial, final = 0.076191174 3.6494180e-05
  Final line search alpha, max atom move = 1.0000000 3.6494180e-05
  Iterations, force evaluations = 116 232

MPI task timing breakdown:
Section |  min time  |  avg time  |  max time  |%varavg| %total
---------------------------------------------------------------
Pair    | 0.35256    | 0.98482    | 1.2825     |  26.8 | 71.54
Neigh   | 0          | 0          | 0          |   0.0 |  0.00
Comm    | 0.025701   | 0.22513    | 0.66146    |  38.7 | 16.35
Output  | 0          | 0          | 0          |   0.0 |  0.00
Modify  | 1.4119e-05 | 0.0019224  | 0.0040802  |   2.1 |  0.14
Other   |            | 0.1648     |            |       | 11.97

Nlocal:        2776.45 ave        3961 max           0 min
Histogram: 8 4 4 0 6 10 8 2 28 34
Nghost:        3879.01 ave        5429 max         232 min
Histogram: 8 0 8 0 16 0 8 8 16 40
Neighs:        79213.5 ave      115464 max           0 min
Histogram: 8 4 4 0 10 6 8 8 24 32

Total # of neighbors = 8238201
Ave neighs/atom = 28.530467
Neighbor list builds = 0
Dangerous builds = 0
The dot product: -3.92948639159388e-08
Setting atom values ...
  1 settings made for x
  1 settings made for y
  1 settings made for z
Setting up cg style minimization ...
  Unit style    : metal
  Current step  : 549
Per MPI rank memory allocation (min/avg/max) = 5.441 | 5.816 | 6.074 Mbytes
Step PotEng KinEng TotEng v_fx v_fy v_fz 
     549   -1152449.4            0   -1152449.4 -0.025607512  0.033910147 0.0039119326 
     679   -1152449.4            0   -1152449.4 -9.7418909e-08 5.5562941e-07 2.650528e-06 
Loop time of 1.54403 on 104 procs for 130 steps with 288751 atoms

99.8% CPU use with 104 MPI tasks x 1 OpenMP threads

Minimization stats:
  Stopping criterion = energy tolerance
  Energy initial, next-to-last, final = 
     -1152449.43890876  -1152449.44057793  -1152449.44057793
  Force two-norm initial, final = 0.19190833 8.4258286e-05
  Force max component initial, final = 0.073451138 5.2064328e-06
  Final line search alpha, max atom move = 1.0000000 5.2064328e-06
  Iterations, force evaluations = 130 260

MPI task timing breakdown:
Section |  min time  |  avg time  |  max time  |%varavg| %total
---------------------------------------------------------------
Pair    | 0.39861    | 1.0934     | 1.4198     |  28.1 | 70.81
Neigh   | 0          | 0          | 0          |   0.0 |  0.00
Comm    | 0.030797   | 0.24827    | 0.75965    |  41.4 | 16.08
Output  | 0          | 0          | 0          |   0.0 |  0.00
Modify  | 1.5524e-05 | 0.0021519  | 0.0045704  |   2.2 |  0.14
Other   |            | 0.2002     |            |       | 12.97

Nlocal:        2776.45 ave        3960 max           0 min
Histogram: 8 4 4 0 4 12 8 2 28 34
Nghost:        3879.01 ave        5429 max         232 min
Histogram: 8 0 8 0 16 0 8 8 16 40
Neighs:        79213.5 ave      115436 max           0 min
Histogram: 8 4 4 0 10 6 8 8 24 32

Total # of neighbors = 8238201
Ave neighs/atom = 28.530467
Neighbor list builds = 0
Dangerous builds = 0
The dot product: -3.06741314037069e-09
Setting atom values ...
  1 settings made for x
  1 settings made for y
  1 settings made for z
Setting up cg style minimization ...
  Unit style    : metal
  Current step  : 679
Per MPI rank memory allocation (min/avg/max) = 5.441 | 5.816 | 6.074 Mbytes
Step PotEng KinEng TotEng v_fx v_fy v_fz 
     679   -1152449.4            0   -1152449.4 -0.025937122   0.03946112 0.0061397812 
     810   -1152449.4            0   -1152449.4 -1.1201011e-06 -1.2457172e-06 -2.3120946e-05 
Loop time of 1.54752 on 104 procs for 131 steps with 288751 atoms

99.9% CPU use with 104 MPI tasks x 1 OpenMP threads

Minimization stats:
  Stopping criterion = energy tolerance
  Energy initial, next-to-last, final = 
     -1152449.43275169  -1152449.43440544  -1152449.43440544
  Force two-norm initial, final = 0.19100585 8.1707655e-05
  Force max component initial, final = 0.07378426 2.3120946e-05
  Final line search alpha, max atom move = 1.0000000 2.3120946e-05
  Iterations, force evaluations = 131 262

MPI task timing breakdown:
Section |  min time  |  avg time  |  max time  |%varavg| %total
---------------------------------------------------------------
Pair    | 0.39614    | 1.107      | 1.4404     |  28.4 | 71.53
Neigh   | 0          | 0          | 0          |   0.0 |  0.00
Comm    | 0.031057   | 0.25158    | 0.74183    |  41.4 | 16.26
Output  | 0          | 0          | 0          |   0.0 |  0.00
Modify  | 1.5977e-05 | 0.0021626  | 0.0045809  |   2.2 |  0.14
Other   |            | 0.1868     |            |       | 12.07

Nlocal:        2776.45 ave        3959 max           0 min
Histogram: 8 4 4 0 4 12 8 2 28 34
Nghost:        3879.01 ave        5429 max         232 min
Histogram: 8 0 8 0 16 0 8 8 16 40
Neighs:        79213.5 ave      115409 max           0 min
Histogram: 8 4 4 0 10 6 8 8 24 32

Total # of neighbors = 8238200
Ave neighs/atom = 28.530464
Neighbor list builds = 0
Dangerous builds = 0
The dot product: 4.14848138730429e-08
Setting atom values ...
  1 settings made for x
  1 settings made for y
  1 settings made for z
Setting up cg style minimization ...
  Unit style    : metal
  Current step  : 810
Per MPI rank memory allocation (min/avg/max) = 5.441 | 5.816 | 6.074 Mbytes
Step PotEng KinEng TotEng v_fx v_fy v_fz 
     810   -1152449.4            0   -1152449.4 -0.025539628  0.043954337 0.0090724471 
     978   -1152449.4            0   -1152449.4 6.6329133e-07 -4.8316792e-07 6.5079357e-06 
Loop time of 1.97305 on 104 procs for 168 steps with 288751 atoms

99.9% CPU use with 104 MPI tasks x 1 OpenMP threads

Minimization stats:
  Stopping criterion = energy tolerance
  Energy initial, next-to-last, final = 
     -1152449.42504309  -1152449.42667859  -1152449.42667859
  Force two-norm initial, final = 0.18987743 3.7955244e-05
  Force max component initial, final = 0.073427176 6.5079357e-06
  Final line search alpha, max atom move = 1.0000000 6.5079357e-06
  Iterations, force evaluations = 168 336

MPI task timing breakdown:
Section |  min time  |  avg time  |  max time  |%varavg| %total
---------------------------------------------------------------
Pair    | 0.50952    | 1.4126     | 1.8382     |  32.1 | 71.60
Neigh   | 0          | 0          | 0          |   0.0 |  0.00
Comm    | 0.032094   | 0.32122    | 0.9542     |  46.7 | 16.28
Output  | 0          | 0          | 0          |   0.0 |  0.00
Modify  | 1.9661e-05 | 0.0027828  | 0.0064434  |   2.5 |  0.14
Other   |            | 0.2364     |            |       | 11.98

Nlocal:        2776.45 ave        3959 max           0 min
Histogram: 8 4 4 0 4 12 8 2 28 34
Nghost:        3879.01 ave        5428 max         232 min
Histogram: 8 0 8 0 16 0 8 8 16 40
Neighs:        79213.5 ave      115409 max           0 min
Histogram: 8 4 4 0 10 6 8 8 24 32

Total # of neighbors = 8238202
Ave neighs/atom = 28.530471
Neighbor list builds = 0
Dangerous builds = 0
The dot product: -1.43297836677854e-08
Setting atom values ...
  1 settings made for x
  1 settings made for y
  1 settings made for z
Setting up cg style minimization ...
  Unit style    : metal
  Current step  : 978
Per MPI rank memory allocation (min/avg/max) = 5.441 | 5.816 | 6.074 Mbytes
Step PotEng KinEng TotEng v_fx v_fy v_fz 
     978   -1152449.4            0   -1152449.4 -0.024909322  0.047961163  0.012594092 
    1000   -1152449.4            0   -1152449.4 -9.4019045e-05 0.00023647334 0.00077317611 
    1092   -1152449.4            0   -1152449.4 2.3699092e-06 -8.1675594e-07 4.7831173e-05 
Loop time of 1.3403 on 104 procs for 114 steps with 288751 atoms

99.9% CPU use with 104 MPI tasks x 1 OpenMP threads

Minimization stats:
  Stopping criterion = energy tolerance
  Energy initial, next-to-last, final = 
     -1152449.41575731  -1152449.41737424  -1152449.41737424
  Force two-norm initial, final = 0.1887342 0.00022154536
  Force max component initial, final = 0.072540656 4.9314245e-05
  Final line search alpha, max atom move = 1.0000000 4.9314245e-05
  Iterations, force evaluations = 114 228

MPI task timing breakdown:
Section |  min time  |  avg time  |  max time  |%varavg| %total
---------------------------------------------------------------
Pair    | 0.348      | 0.9637     | 1.2484     |  26.4 | 71.90
Neigh   | 0          | 0          | 0          |   0.0 |  0.00
Comm    | 0.026342   | 0.2171     | 0.64282    |  38.7 | 16.20
Output  | 0.00022212 | 0.00022437 | 0.00030604 |   0.0 |  0.02
Modify  | 1.3354e-05 | 0.0018858  | 0.0040013  |   2.0 |  0.14
Other   |            | 0.1574     |            |       | 11.74

Nlocal:        2776.45 ave        3959 max           0 min
Histogram: 8 4 4 0 4 12 8 2 28 34
Nghost:        3879.01 ave        5424 max         232 min
Histogram: 8 0 8 0 16 0 8 8 16 40
Neighs:        79213.5 ave      115406 max           0 min
Histogram: 8 4 4 0 10 6 8 8 24 32

Total # of neighbors = 8238201
Ave neighs/atom = 28.530467
Neighbor list builds = 0
Dangerous builds = 0
The dot product: -6.51502582172857e-08
Setting atom values ...
  1 settings made for x
  1 settings made for y
  1 settings made for z
Setting up cg style minimization ...
  Unit style    : metal
  Current step  : 1092
Per MPI rank memory allocation (min/avg/max) = 5.441 | 5.816 | 6.074 Mbytes
Step PotEng KinEng TotEng v_fx v_fy v_fz 
    1092   -1152449.4            0   -1152449.4 -0.024299369  0.052066146  0.016712867 
    1232   -1152449.4            0   -1152449.4 2.8823393e-07 5.8590001e-07 1.8865151e-05 
Loop time of 1.63059 on 104 procs for 140 steps with 288751 atoms

99.9% CPU use with 104 MPI tasks x 1 OpenMP threads

Minimization stats:
  Stopping criterion = energy tolerance
  Energy initial, next-to-last, final = 
     -1152449.40488034  -1152449.40648143  -1152449.40648143
  Force two-norm initial, final = 0.18776772 6.7532891e-05
  Force max component initial, final = 0.071157092 1.8865151e-05
  Final line search alpha, max atom move = 1.0000000 1.8865151e-05
  Iterations, force evaluations = 140 280

MPI task timing breakdown:
Section |  min time  |  avg time  |  max time  |%varavg| %total
---------------------------------------------------------------
Pair    | 0.42269    | 1.1753     | 1.5254     |  29.3 | 72.08
Neigh   | 0          | 0          | 0          |   0.0 |  0.00
Comm    | 0.025565   | 0.26606    | 0.79402    |  43.1 | 16.32
Output  | 0          | 0          | 0          |   0.0 |  0.00
Modify  | 1.7316e-05 | 0.0023168  | 0.004925   |   2.3 |  0.14
Other   |            | 0.1869     |            |       | 11.46

Nlocal:        2776.45 ave        3958 max           0 min
Histogram: 8 4 4 0 4 12 8 2 28 34
Nghost:        3879.01 ave        5424 max         232 min
Histogram: 8 0 8 0 16 0 8 8 16 40
Neighs:        79213.5 ave      115383 max           0 min
Histogram: 8 4 4 0 10 6 8 8 24 32

Total # of neighbors = 8238200
Ave neighs/atom = 28.530464
Neighbor list builds = 0
Dangerous builds = 0
The dot product: -8.23896635571505e-09
Setting atom values ...
  1 settings made for x
  1 settings made for y
  1 settings made for z
Setting up cg style minimization ...
  Unit style    : metal
  Current step  : 1232
Per MPI rank memory allocation (min/avg/max) = 5.441 | 5.816 | 6.074 Mbytes
Step PotEng KinEng TotEng v_fx v_fy v_fz 
    1232   -1152449.4            0   -1152449.4 -0.023819067  0.056919842  0.021541633 
    1375   -1152449.4            0   -1152449.4 2.4524355e-06 -6.2831382e-06 -9.3205227e-06 
Loop time of 1.67754 on 104 procs for 143 steps with 288751 atoms

99.9% CPU use with 104 MPI tasks x 1 OpenMP threads

Minimization stats:
  Stopping criterion = energy tolerance
  Energy initial, next-to-last, final = 
     -1152449.39241272  -1152449.39400688  -1152449.39400688
  Force two-norm initial, final = 0.18717091 5.0464673e-05
  Force max component initial, final = 0.06910461 9.7966851e-06
  Final line search alpha, max atom move = 1.0000000 9.7966851e-06
  Iterations, force evaluations = 143 286

MPI task timing breakdown:
Section |  min time  |  avg time  |  max time  |%varavg| %total
---------------------------------------------------------------
Pair    | 0.43262    | 1.2101     | 1.5708     |  29.7 | 72.14
Neigh   | 0          | 0          | 0          |   0.0 |  0.00
Comm    | 0.031706   | 0.27361    | 0.81364    |  43.4 | 16.31
Output  | 0          | 0          | 0          |   0.0 |  0.00
Modify  | 1.728e-05  | 0.0023622  | 0.0050226  |   2.3 |  0.14
Other   |            | 0.1915     |            |       | 11.41

Nlocal:        2776.45 ave        3958 max           0 min
Histogram: 8 4 4 0 4 12 8 2 28 34
Nghost:        3879.01 ave        5424 max         232 min
Histogram: 8 0 8 0 16 0 8 8 16 40
Neighs:        79213.4 ave      115383 max           0 min
Histogram: 8 4 4 0 10 6 8 8 24 32

Total # of neighbors = 8238198
Ave neighs/atom = 28.530457
Neighbor list builds = 0
Dangerous builds = 0
The dot product: -4.84471926068376e-08
Setting atom values ...
  1 settings made for x
  1 settings made for y
  1 settings made for z
Setting up cg style minimization ...
  Unit style    : metal
  Current step  : 1375
Per MPI rank memory allocation (min/avg/max) = 5.441 | 5.816 | 6.074 Mbytes
Step PotEng KinEng TotEng v_fx v_fy v_fz 
    1375   -1152449.4            0   -1152449.4 -0.023447675  0.063312807  0.027493537 
    1517   -1152449.4            0   -1152449.4 -1.0689963e-06 3.6253401e-06 1.1956484e-05 
Loop time of 1.65284 on 104 procs for 142 steps with 288751 atoms

99.9% CPU use with 104 MPI tasks x 1 OpenMP threads

Minimization stats:
  Stopping criterion = energy tolerance
  Energy initial, next-to-last, final = 
     -1152449.37837986  -1152449.37998908  -1152449.37998908
  Force two-norm initial, final = 0.18736918 5.4668107e-05
  Force max component initial, final = 0.066293471 1.1956484e-05
  Final line search alpha, max atom move = 1.0000000 1.1956484e-05
  Iterations, force evaluations = 142 284

MPI task timing breakdown:
Section |  min time  |  avg time  |  max time  |%varavg| %total
---------------------------------------------------------------
Pair    | 0.43006    | 1.1959     | 1.5501     |  29.6 | 72.36
Neigh   | 0          | 0          | 0          |   0.0 |  0.00
Comm    | 0.026401   | 0.27023    | 0.80987    |  43.6 | 16.35
Output  | 0          | 0          | 0          |   0.0 |  0.00
Modify  | 1.7176e-05 | 0.0023497  | 0.0049846  |   2.3 |  0.14
Other   |            | 0.1843     |            |       | 11.15

Nlocal:        2776.45 ave        3958 max           0 min
Histogram: 8 4 4 0 4 12 8 2 28 34
Nghost:        3879.05 ave        5424 max         232 min
Histogram: 8 0 8 0 16 0 8 8 16 40
Neighs:        79213.4 ave      115383 max           0 min
Histogram: 8 4 4 0 10 6 8 8 24 32

Total # of neighbors = 8238198
Ave neighs/atom = 28.530457
Neighbor list builds = 0
Dangerous builds = 0
The dot product: 4.87101300421966e-08
Setting atom values ...
  1 settings made for x
  1 settings made for y
  1 settings made for z
Setting up cg style minimization ...
  Unit style    : metal
  Current step  : 1517
Per MPI rank memory allocation (min/avg/max) = 5.441 | 5.816 | 6.074 Mbytes
Step PotEng KinEng TotEng v_fx v_fy v_fz 
    1517   -1152449.4            0   -1152449.4 -0.023603963  0.074682107  0.038047858 
    1628   -1152449.4            0   -1152449.4 9.0053266e-06 -2.975361e-05 -2.6931285e-05 
Loop time of 1.30346 on 104 procs for 111 steps with 288751 atoms

99.9% CPU use with 104 MPI tasks x 1 OpenMP threads

Minimization stats:
  Stopping criterion = energy tolerance
  Energy initial, next-to-last, final = 
     -1152449.36286791  -1152449.36461417  -1152449.36461417
  Force two-norm initial, final = 0.1905385 0.00022147216
  Force max component initial, final = 0.074682107 3.6281853e-05
  Final line search alpha, max atom move = 1.0000000 3.6281853e-05
  Iterations, force evaluations = 111 222

MPI task timing breakdown:
Section |  min time  |  avg time  |  max time  |%varavg| %total
---------------------------------------------------------------
Pair    | 0.33679    | 0.93903    | 1.2152     |  26.2 | 72.04
Neigh   | 0          | 0          | 0          |   0.0 |  0.00
Comm    | 0.019632   | 0.21435    | 0.63491    |  38.1 | 16.44
Output  | 0          | 0          | 0          |   0.0 |  0.00
Modify  | 1.3512e-05 | 0.0018409  | 0.0038879  |   2.0 |  0.14
Other   |            | 0.1482     |            |       | 11.37

Nlocal:        2776.45 ave        3958 max           0 min
Histogram: 8 4 4 0 4 12 8 2 28 34
Nghost:        3879.05 ave        5424 max         232 min
Histogram: 8 0 8 0 16 0 8 8 16 40
Neighs:        79213.4 ave      115383 max           0 min
Histogram: 8 4 4 0 10 6 8 8 24 32

Total # of neighbors = 8238197
Ave neighs/atom = 28.530454
Neighbor list builds = 0
Dangerous builds = 0
The dot product: -5.55519436474586e-07
Setting atom values ...
  1 settings made for x
  1 settings made for y
  1 settings made for z
Setting up cg style minimization ...
  Unit style    : metal
  Current step  : 1628
Per MPI rank memory allocation (min/avg/max) = 5.441 | 5.816 | 6.074 Mbytes
Step PotEng KinEng TotEng v_fx v_fy v_fz 
    1628   -1152449.3            0   -1152449.3 -0.023547967   0.10246594   0.06261756 
    1772   -1152449.4            0   -1152449.4 -5.0813429e-06 1.2724433e-05 -2.8294423e-05 
Loop time of 1.68604 on 104 procs for 144 steps with 288751 atoms

99.9% CPU use with 104 MPI tasks x 1 OpenMP threads

Minimization stats:
  Stopping criterion = energy tolerance
  Energy initial, next-to-last, final = 
      -1152449.3463586  -1152449.35088825  -1152449.35088825
  Force two-norm initial, final = 0.2059006 0.00020489115
  Force max component initial, final = 0.10246594 2.8294423e-05
  Final line search alpha, max atom move = 1.0000000 2.8294423e-05
  Iterations, force evaluations = 144 288

MPI task timing breakdown:
Section |  min time  |  avg time  |  max time  |%varavg| %total
---------------------------------------------------------------
Pair    | 0.43368    | 1.2103     | 1.5693     |  29.5 | 71.78
Neigh   | 0          | 0          | 0          |   0.0 |  0.00
Comm    | 0.025948   | 0.27389    | 0.82781    |  43.9 | 16.24
Output  | 0          | 0          | 0          |   0.0 |  0.00
Modify  | 1.719e-05  | 0.0023855  | 0.0050989  |   2.3 |  0.14
Other   |            | 0.1995     |            |       | 11.83

Nlocal:        2776.45 ave        3958 max           0 min
Histogram: 8 4 4 0 4 12 8 2 28 34
Nghost:        3879.05 ave        5425 max         232 min
Histogram: 8 0 8 0 16 0 8 8 16 40
Neighs:        79213.4 ave      115382 max           0 min
Histogram: 8 4 4 0 10 6 8 8 24 32

Total # of neighbors = 8238192
Ave neighs/atom = 28.530436
Neighbor list builds = 0
Dangerous builds = 0
The dot product: -3.76309870810345e-07
Setting atom values ...
  1 settings made for x
  1 settings made for y
  1 settings made for z
Setting up cg style minimization ...
  Unit style    : metal
  Current step  : 1772
Per MPI rank memory allocation (min/avg/max) = 5.441 | 5.816 | 6.074 Mbytes
Step PotEng KinEng TotEng v_fx v_fy v_fz 
    1772   -1152449.3            0   -1152449.3  0.023750711    0.2179904   0.13880426 
    1997   -1152449.3            0   -1152449.3 -1.6996484e-06 -1.8556781e-05 -1.0359806e-05 
Loop time of 2.65674 on 104 procs for 225 steps with 288751 atoms

99.9% CPU use with 104 MPI tasks x 1 OpenMP threads

Minimization stats:
  Stopping criterion = energy tolerance
  Energy initial, next-to-last, final = 
     -1152449.33554959  -1152449.34591985  -1152449.34591985
  Force two-norm initial, final = 0.29929747 9.6452569e-05
  Force max component initial, final = 0.2179904 1.9216456e-05
  Final line search alpha, max atom move = 1.0000000 1.9216456e-05
  Iterations, force evaluations = 225 450

MPI task timing breakdown:
Section |  min time  |  avg time  |  max time  |%varavg| %total
---------------------------------------------------------------
Pair    | 0.68222    | 1.8977     | 2.4681     |  37.1 | 71.43
Neigh   | 1.009e-05  | 0.0029382  | 0.0042548  |   2.2 |  0.11
Comm    | 0.049767   | 0.43127    | 1.2684     |  53.8 | 16.23
Output  | 0          | 0          | 0          |   0.0 |  0.00
Modify  | 2.8856e-05 | 0.0037122  | 0.0078663  |   2.9 |  0.14
Other   |            | 0.3211     |            |       | 12.09

Nlocal:        2776.45 ave        3960 max           0 min
Histogram: 8 4 4 0 4 12 8 2 28 34
Nghost:        3879.05 ave        5429 max         232 min
Histogram: 8 0 8 0 16 0 8 8 16 40
Neighs:        79213.4 ave      115439 max           0 min
Histogram: 8 4 4 0 10 6 8 8 24 32

Total # of neighbors = 8238196
Ave neighs/atom = 28.530450
Neighbor list builds = 1
Dangerous builds = 0
The dot product: -1.62005906307769e-06
Setting atom values ...
  1 settings made for x
  1 settings made for y
  1 settings made for z
Setting up cg style minimization ...
  Unit style    : metal
  Current step  : 1997
Per MPI rank memory allocation (min/avg/max) = 5.441 | 5.816 | 6.074 Mbytes
Step PotEng KinEng TotEng v_fx v_fy v_fz 
    1997   -1152449.3            0   -1152449.3  0.070494114   0.17552431  0.080108798 
    2000   -1152449.3            0   -1152449.3 -0.0097808244 0.0068891682 -0.030821995 
    2263   -1152449.3            0   -1152449.3 -1.1050096e-05 -1.2743607e-05 -2.1873939e-05 
Loop time of 3.09309 on 104 procs for 266 steps with 288751 atoms

99.9% CPU use with 104 MPI tasks x 1 OpenMP threads

Minimization stats:
  Stopping criterion = energy tolerance
  Energy initial, next-to-last, final = 
     -1152449.33328242  -1152449.34468383  -1152449.34468383
  Force two-norm initial, final = 0.24754034 8.5086296e-05
  Force max component initial, final = 0.17552431 2.1873939e-05
  Final line search alpha, max atom move = 1.0000000 2.1873939e-05
  Iterations, force evaluations = 266 532

MPI task timing breakdown:
Section |  min time  |  avg time  |  max time  |%varavg| %total
---------------------------------------------------------------
Pair    | 0.8066     | 2.2336     | 2.9011     |  40.4 | 72.21
Neigh   | 1.0577e-05 | 0.0029356  | 0.0042603  |   2.2 |  0.09
Comm    | 0.050533   | 0.50441    | 1.5092     |  59.4 | 16.31
Output  | 0.00014773 | 0.00014952 | 0.00020304 |   0.0 |  0.00
Modify  | 3.0874e-05 | 0.0043927  | 0.0092963  |   3.1 |  0.14
Other   |            | 0.3476     |            |       | 11.24

Nlocal:        2776.45 ave        3960 max           0 min
Histogram: 8 4 4 0 4 12 8 2 28 34
Nghost:        3879.03 ave        5424 max         232 min
Histogram: 8 0 8 0 16 0 8 8 16 40
Neighs:        79213.3 ave      115441 max           0 min
Histogram: 8 4 4 0 10 6 8 8 24 32

Total # of neighbors = 8238188
Ave neighs/atom = 28.530422
Neighbor list builds = 1
Dangerous builds = 0
The dot product: -2.59879129700434e-06
Setting atom values ...
  1 settings made for x
  1 settings made for y
  1 settings made for z
Setting up cg style minimization ...
  Unit style    : metal
  Current step  : 2263
Per MPI rank memory allocation (min/avg/max) = 5.441 | 5.816 | 6.074 Mbytes
Step PotEng KinEng TotEng v_fx v_fy v_fz 
    2263   -1152449.3            0   -1152449.3  -0.04999962 -0.030022654 -0.047977038 
    2377   -1152449.3            0   -1152449.3 -4.8451025e-05 -3.395413e-05 -4.2660939e-05 
Loop time of 1.33302 on 104 procs for 114 steps with 288751 atoms

99.9% CPU use with 104 MPI tasks x 1 OpenMP threads

Minimization stats:
  Stopping criterion = energy tolerance
  Energy initial, next-to-last, final = 
     -1152449.34688034  -1152449.34818922  -1152449.34818922
  Force two-norm initial, final = 0.14642687 0.00022529561
  Force max component initial, final = 0.04999962 5.0688488e-05
  Final line search alpha, max atom move = 1.0000000 5.0688488e-05
  Iterations, force evaluations = 114 228

MPI task timing breakdown:
Section |  min time  |  avg time  |  max time  |%varavg| %total
---------------------------------------------------------------
Pair    | 0.34799    | 0.96204    | 1.2502     |  26.4 | 72.17
Neigh   | 0          | 0          | 0          |   0.0 |  0.00
Comm    | 0.021519   | 0.21585    | 0.64067    |  38.8 | 16.19
Output  | 0          | 0          | 0          |   0.0 |  0.00
Modify  | 1.3966e-05 | 0.0018852  | 0.0039936  |   2.0 |  0.14
Other   |            | 0.1533     |            |       | 11.50

Nlocal:        2776.45 ave        3961 max           0 min
Histogram: 8 4 4 0 6 10 8 2 28 34
Nghost:        3879.09 ave        5428 max         232 min
Histogram: 8 0 8 0 16 0 8 8 16 40
Neighs:        79213.4 ave      115448 max           0 min
Histogram: 8 4 4 0 10 6 8 8 24 32

Total # of neighbors = 8238192
Ave neighs/atom = 28.530436
Neighbor list builds = 0
Dangerous builds = 0
The dot product: 7.98457554144633e-07
Setting atom values ...
  1 settings made for x
  1 settings made for y
  1 settings made for z
Setting up cg style minimization ...
  Unit style    : metal
  Current step  : 2377
Per MPI rank memory allocation (min/avg/max) = 5.441 | 5.816 | 6.074 Mbytes
Step PotEng KinEng TotEng v_fx v_fy v_fz 
    2377   -1152449.3            0   -1152449.3 -0.0067281933 0.0095915236 -0.017582724 
    2548   -1152449.4            0   -1152449.4 2.2767425e-05 6.6275925e-06 2.9459864e-05 
Loop time of 2.01515 on 104 procs for 171 steps with 288751 atoms

99.9% CPU use with 104 MPI tasks x 1 OpenMP threads

Minimization stats:
  Stopping criterion = energy tolerance
  Energy initial, next-to-last, final = 
     -1152449.34955106  -1152449.35045733  -1152449.35045733
  Force two-norm initial, final = 0.12497573 0.00017108466
  Force max component initial, final = 0.047696542 3.2156439e-05
  Final line search alpha, max atom move = 1.0000000 3.2156439e-05
  Iterations, force evaluations = 171 342

MPI task timing breakdown:
Section |  min time  |  avg time  |  max time  |%varavg| %total
---------------------------------------------------------------
Pair    | 0.51629    | 1.4422     | 1.8886     |  32.6 | 71.57
Neigh   | 0          | 0          | 0          |   0.0 |  0.00
Comm    | 0.031107   | 0.32632    | 0.98032    |  47.4 | 16.19
Output  | 0          | 0          | 0          |   0.0 |  0.00
Modify  | 2.0739e-05 | 0.0028264  | 0.0059855  |   2.5 |  0.14
Other   |            | 0.2438     |            |       | 12.10

Nlocal:        2776.45 ave        3961 max           0 min
Histogram: 8 4 4 0 6 10 8 2 28 34
Nghost:        3879.09 ave        5428 max         232 min
Histogram: 8 0 8 0 16 0 8 8 16 40
Neighs:        79213.4 ave      115448 max           0 min
Histogram: 8 4 4 0 10 6 8 8 24 32

Total # of neighbors = 8238193
Ave neighs/atom = 28.530440
Neighbor list builds = 0
Dangerous builds = 0
The dot product: 1.4783839043378e-08
Setting atom values ...
  1 settings made for x
  1 settings made for y
  1 settings made for z
Setting up cg style minimization ...
  Unit style    : metal
  Current step  : 2548
Per MPI rank memory allocation (min/avg/max) = 5.441 | 5.816 | 6.074 Mbytes
Step PotEng KinEng TotEng v_fx v_fy v_fz 
    2548   -1152449.4            0   -1152449.4 -0.010208947  0.006318382 -0.020355456 
    2703   -1152449.4            0   -1152449.4 -7.9069313e-05 -4.0735275e-05 -8.832262e-05 
Loop time of 1.81931 on 104 procs for 155 steps with 288751 atoms

99.9% CPU use with 104 MPI tasks x 1 OpenMP threads

Minimization stats:
  Stopping criterion = energy tolerance
  Energy initial, next-to-last, final = 
     -1152449.35060909  -1152449.35151107  -1152449.35151107
  Force two-norm initial, final = 0.12556532 0.00028763309
  Force max component initial, final = 0.047069579 8.8322620e-05
  Final line search alpha, max atom move = 1.0000000 8.8322620e-05
  Iterations, force evaluations = 155 310

MPI task timing breakdown:
Section |  min time  |  avg time  |  max time  |%varavg| %total
---------------------------------------------------------------
Pair    | 0.46674    | 1.3112     | 1.698      |  31.0 | 72.07
Neigh   | 0          | 0          | 0          |   0.0 |  0.00
Comm    | 0.032701   | 0.29649    | 0.88175    |  45.1 | 16.30
Output  | 0          | 0          | 0          |   0.0 |  0.00
Modify  | 1.8734e-05 | 0.0025641  | 0.0054214  |   2.4 |  0.14
Other   |            | 0.2091     |            |       | 11.49

Nlocal:        2776.45 ave        3961 max           0 min
Histogram: 8 4 4 0 6 10 8 2 28 34
Nghost:        3879.09 ave        5427 max         232 min
Histogram: 8 0 8 0 16 0 8 8 16 40
Neighs:        79213.4 ave      115460 max           0 min
Histogram: 8 4 4 0 10 6 8 8 24 32

Total # of neighbors = 8238189
Ave neighs/atom = 28.530426
Neighbor list builds = 0
Dangerous builds = 0
The dot product: 4.35841679036992e-08
Setting atom values ...
  1 settings made for x
  1 settings made for y
  1 settings made for z
Setting up cg style minimization ...
  Unit style    : metal
  Current step  : 2703
Per MPI rank memory allocation (min/avg/max) = 5.441 | 5.816 | 6.074 Mbytes
Step PotEng KinEng TotEng v_fx v_fy v_fz 
    2703   -1152449.4            0   -1152449.4 -0.0095572547 0.0065216374  -0.01958996 
    2891   -1152449.4            0   -1152449.4 -8.0554245e-06 -5.2532768e-06 -8.1653315e-06 
Loop time of 2.177 on 104 procs for 188 steps with 288751 atoms

99.9% CPU use with 104 MPI tasks x 1 OpenMP threads

Minimization stats:
  Stopping criterion = energy tolerance
  Energy initial, next-to-last, final = 
     -1152449.35035438  -1152449.35125019  -1152449.35125019
  Force two-norm initial, final = 0.12520305 0.0001003621
  Force max component initial, final = 0.046476004 1.4497555e-05
  Final line search alpha, max atom move = 1.0000000 1.4497555e-05
  Iterations, force evaluations = 188 376

MPI task timing breakdown:
Section |  min time  |  avg time  |  max time  |%varavg| %total
---------------------------------------------------------------
Pair    | 0.56826    | 1.5787     | 2.0504     |  34.0 | 72.52
Neigh   | 0          | 0          | 0          |   0.0 |  0.00
Comm    | 0.033011   | 0.35451    | 1.0673     |  50.3 | 16.28
Output  | 0          | 0          | 0          |   0.0 |  0.00
Modify  | 2.2773e-05 | 0.0031042  | 0.0065742  |   2.6 |  0.14
Other   |            | 0.2406     |            |       | 11.05

Nlocal:        2776.45 ave        3961 max           0 min
Histogram: 8 4 4 0 6 10 8 2 28 34
Nghost:        3879.05 ave        5424 max         232 min
Histogram: 8 0 8 0 16 0 8 8 16 40
Neighs:        79213.4 ave      115468 max           0 min
Histogram: 8 4 4 0 10 6 8 8 24 32

Total # of neighbors = 8238191
Ave neighs/atom = 28.530433
Neighbor list builds = 0
Dangerous builds = 0
The dot product: 2.74286803509137e-09
Setting atom values ...
  1 settings made for x
  1 settings made for y
  1 settings made for z
Setting up cg style minimization ...
  Unit style    : metal
  Current step  : 2891
Per MPI rank memory allocation (min/avg/max) = 5.441 | 5.816 | 6.074 Mbytes
Step PotEng KinEng TotEng v_fx v_fy v_fz 
    2891   -1152449.3            0   -1152449.3 -0.0085749044 0.0064485047 -0.018095525 
    3000   -1152449.3            0   -1152449.3 -9.5584195e-05 -3.9297649e-05 -0.00011501705 
    3074   -1152449.3            0   -1152449.3 -1.7529195e-05 -7.0693885e-06 -2.1200137e-05 
Loop time of 2.13759 on 104 procs for 183 steps with 288751 atoms

99.9% CPU use with 104 MPI tasks x 1 OpenMP threads

Minimization stats:
  Stopping criterion = energy tolerance
  Energy initial, next-to-last, final = 
     -1152449.34875721  -1152449.34964056  -1152449.34964056
  Force two-norm initial, final = 0.12425956 0.00012292108
  Force max component initial, final = 0.04582438 2.1200137e-05
  Final line search alpha, max atom move = 1.0000000 2.1200137e-05
  Iterations, force evaluations = 183 366

MPI task timing breakdown:
Section |  min time  |  avg time  |  max time  |%varavg| %total
---------------------------------------------------------------
Pair    | 0.55317    | 1.5483     | 2.0101     |  33.6 | 72.43
Neigh   | 0          | 0          | 0          |   0.0 |  0.00
Comm    | 0.036528   | 0.34863    | 1.0453     |  49.4 | 16.31
Output  | 0.00023262 | 0.00023726 | 0.00036778 |   0.0 |  0.01
Modify  | 2.1894e-05 | 0.0030188  | 0.0064032  |   2.6 |  0.14
Other   |            | 0.2374     |            |       | 11.11

Nlocal:        2776.45 ave        3960 max           0 min
Histogram: 8 4 4 0 4 12 8 2 28 34
Nghost:        3879.01 ave        5424 max         232 min
Histogram: 8 0 8 0 16 0 8 8 16 40
Neighs:        79213.4 ave      115437 max           0 min
Histogram: 8 4 4 0 10 6 8 8 24 32

Total # of neighbors = 8238191
Ave neighs/atom = 28.530433
Neighbor list builds = 0
Dangerous builds = 0
The dot product: 7.76307877076129e-09
Setting atom values ...
  1 settings made for x
  1 settings made for y
  1 settings made for z
Setting up cg style minimization ...
  Unit style    : metal
  Current step  : 3074
Per MPI rank memory allocation (min/avg/max) = 5.441 | 5.816 | 6.074 Mbytes
Step PotEng KinEng TotEng v_fx v_fy v_fz 
    3074   -1152449.3            0   -1152449.3 -0.0076262612 0.0060864604 -0.016414156 
    3256   -1152449.3            0   -1152449.3 -1.4919915e-05 -1.2540048e-05 -1.2968583e-05 
Loop time of 2.11704 on 104 procs for 182 steps with 288751 atoms

99.9% CPU use with 104 MPI tasks x 1 OpenMP threads

Minimization stats:
  Stopping criterion = energy tolerance
  Energy initial, next-to-last, final = 
      -1152449.3458049  -1152449.34667434  -1152449.34667434
  Force two-norm initial, final = 0.12326618 0.00013109188
  Force max component initial, final = 0.045143621 3.0932439e-05
  Final line search alpha, max atom move = 1.0000000 3.0932439e-05
  Iterations, force evaluations = 182 364

MPI task timing breakdown:
Section |  min time  |  avg time  |  max time  |%varavg| %total
---------------------------------------------------------------
Pair    | 0.54829    | 1.5345     | 1.9894     |  33.6 | 72.48
Neigh   | 0          | 0          | 0          |   0.0 |  0.00
Comm    | 0.033445   | 0.3455     | 1.0344     |  49.6 | 16.32
Output  | 0          | 0          | 0          |   0.0 |  0.00
Modify  | 2.1352e-05 | 0.0030035  | 0.0063915  |   2.6 |  0.14
Other   |            | 0.2341     |            |       | 11.06

Nlocal:        2776.45 ave        3960 max           0 min
Histogram: 8 4 4 0 4 12 8 2 28 34
Nghost:        3879.01 ave        5424 max         232 min
Histogram: 8 0 8 0 16 0 8 8 16 40
Neighs:        79213.4 ave      115437 max           0 min
Histogram: 8 4 4 0 10 6 8 8 24 32

Total # of neighbors = 8238190
Ave neighs/atom = 28.530429
Neighbor list builds = 0
Dangerous builds = 0
The dot product: 1.3287962061485e-09
Setting atom values ...
  1 settings made for x
  1 settings made for y
  1 settings made for z
Setting up cg style minimization ...
  Unit style    : metal
  Current step  : 3256
Per MPI rank memory allocation (min/avg/max) = 5.441 | 5.816 | 6.074 Mbytes
Step PotEng KinEng TotEng v_fx v_fy v_fz 
    3256   -1152449.3            0   -1152449.3 -0.006798757 0.0054373337 -0.014677452 
    3419   -1152449.3            0   -1152449.3 -1.8300183e-06 1.4231897e-05 -1.3986522e-05 
Loop time of 1.90399 on 104 procs for 163 steps with 288751 atoms

99.9% CPU use with 104 MPI tasks x 1 OpenMP threads

Minimization stats:
  Stopping criterion = energy tolerance
  Energy initial, next-to-last, final = 
     -1152449.34148952  -1152449.34234598  -1152449.34234598
  Force two-norm initial, final = 0.12243997 0.00023615799
  Force max component initial, final = 0.044403764 1.8719160e-05
  Final line search alpha, max atom move = 1.0000000 1.8719160e-05
  Iterations, force evaluations = 163 326

MPI task timing breakdown:
Section |  min time  |  avg time  |  max time  |%varavg| %total
---------------------------------------------------------------
Pair    | 0.4946     | 1.3712     | 1.7798     |  31.5 | 72.02
Neigh   | 0          | 0          | 0          |   0.0 |  0.00
Comm    | 0.032768   | 0.30781    | 0.92127    |  46.3 | 16.17
Output  | 0          | 0          | 0          |   0.0 |  0.00
Modify  | 1.9368e-05 | 0.0026952  | 0.0057299  |   2.4 |  0.14
Other   |            | 0.2223     |            |       | 11.67

Nlocal:        2776.45 ave        3960 max           0 min
Histogram: 8 4 4 0 4 12 8 2 28 34
Nghost:        3878.99 ave        5424 max         232 min
Histogram: 8 0 8 0 16 0 8 8 16 40
Neighs:        79213.4 ave      115437 max           0 min
Histogram: 8 4 4 0 10 6 8 8 24 32

Total # of neighbors = 8238191
Ave neighs/atom = 28.530433
Neighbor list builds = 0
Dangerous builds = 0
The dot product: 9.18405636510426e-09
Setting atom values ...
  1 settings made for x
  1 settings made for y
  1 settings made for z
Setting up cg style minimization ...
  Unit style    : metal
  Current step  : 3419
Per MPI rank memory allocation (min/avg/max) = 5.441 | 5.816 | 6.074 Mbytes
Step PotEng KinEng TotEng v_fx v_fy v_fz 
    3419   -1152449.3            0   -1152449.3 -0.0061778383 0.0045190967 -0.013032749 
    3592   -1152449.3            0   -1152449.3 -3.969017e-05 -1.642549e-05 -4.7884911e-05 
Loop time of 2.00826 on 104 procs for 173 steps with 288751 atoms

99.9% CPU use with 104 MPI tasks x 1 OpenMP threads

Minimization stats:
  Stopping criterion = energy tolerance
  Energy initial, next-to-last, final = 
     -1152449.33579619  -1152449.33664523  -1152449.33664523
  Force two-norm initial, final = 0.12196095 0.00018588024
  Force max component initial, final = 0.044178371 4.7884911e-05
  Final line search alpha, max atom move = 1.0000000 4.7884911e-05
  Iterations, force evaluations = 173 346

MPI task timing breakdown:
Section |  min time  |  avg time  |  max time  |%varavg| %total
---------------------------------------------------------------
Pair    | 0.52832    | 1.4536     | 1.8842     |  32.5 | 72.38
Neigh   | 0          | 0          | 0          |   0.0 |  0.00
Comm    | 0.032022   | 0.32758    | 0.9831     |  48.0 | 16.31
Output  | 0          | 0          | 0          |   0.0 |  0.00
Modify  | 2.0143e-05 | 0.0028629  | 0.0060628  |   2.5 |  0.14
Other   |            | 0.2242     |            |       | 11.17

Nlocal:        2776.45 ave        3960 max           0 min
Histogram: 8 4 4 0 4 12 8 2 28 34
Nghost:        3879.03 ave        5424 max         232 min
Histogram: 8 0 8 0 16 0 8 8 16 40
Neighs:        79213.4 ave      115437 max           0 min
Histogram: 8 4 4 0 10 6 8 8 24 32

Total # of neighbors = 8238192
Ave neighs/atom = 28.530436
Neighbor list builds = 0
Dangerous builds = 0
The dot product: 1.17503874699925e-08
Setting atom values ...
  1 settings made for x
  1 settings made for y
  1 settings made for z
Setting up cg style minimization ...
  Unit style    : metal
  Current step  : 3592
Per MPI rank memory allocation (min/avg/max) = 5.441 | 5.816 | 6.074 Mbytes
Step PotEng KinEng TotEng v_fx v_fy v_fz 
    3592   -1152449.3            0   -1152449.3 -0.0058493985   0.00323346 -0.011533934 
    3754   -1152449.3            0   -1152449.3 2.4554506e-05 1.094078e-05 2.9039252e-05 
Loop time of 1.89126 on 104 procs for 162 steps with 288751 atoms

99.9% CPU use with 104 MPI tasks x 1 OpenMP threads

Minimization stats:
  Stopping criterion = energy tolerance
  Energy initial, next-to-last, final = 
     -1152449.32870653  -1152449.32955289  -1152449.32955289
  Force two-norm initial, final = 0.12188253 0.00024318065
  Force max component initial, final = 0.04399944 3.5011342e-05
  Final line search alpha, max atom move = 1.0000000 3.5011342e-05
  Iterations, force evaluations = 162 324

MPI task timing breakdown:
Section |  min time  |  avg time  |  max time  |%varavg| %total
---------------------------------------------------------------
Pair    | 0.48939    | 1.3663     | 1.777      |  31.6 | 72.24
Neigh   | 0          | 0          | 0          |   0.0 |  0.00
Comm    | 0.029337   | 0.30896    | 0.91966    |  46.2 | 16.34
Output  | 0          | 0          | 0          |   0.0 |  0.00
Modify  | 1.9107e-05 | 0.002674   | 0.0056883  |   2.4 |  0.14
Other   |            | 0.2134     |            |       | 11.28

Nlocal:        2776.45 ave        3960 max           0 min
Histogram: 8 4 4 0 4 12 8 2 28 34
Nghost:        3879.03 ave        5424 max         232 min
Histogram: 8 0 8 0 16 0 8 8 16 40
Neighs:        79213.4 ave      115441 max           0 min
Histogram: 8 4 4 0 10 6 8 8 24 32

Total # of neighbors = 8238190
Ave neighs/atom = 28.530429
Neighbor list builds = 0
Dangerous builds = 0
The dot product: -8.15955709181914e-09
Setting atom values ...
  1 settings made for x
  1 settings made for y
  1 settings made for z
Setting up cg style minimization ...
  Unit style    : metal
  Current step  : 3754
Per MPI rank memory allocation (min/avg/max) = 5.441 | 5.816 | 6.074 Mbytes
Step PotEng KinEng TotEng v_fx v_fy v_fz 
    3754   -1152449.3            0   -1152449.3 -0.0057188175 0.0017207808 -0.010151843 
    3938   -1152449.3            0   -1152449.3 -1.344017e-05 1.4369674e-06 -2.1793783e-05 
Loop time of 2.13063 on 104 procs for 184 steps with 288751 atoms

99.9% CPU use with 104 MPI tasks x 1 OpenMP threads

Minimization stats:
  Stopping criterion = energy tolerance
  Energy initial, next-to-last, final = 
     -1152449.32019101  -1152449.32104094  -1152449.32104094
  Force two-norm initial, final = 0.12211892 0.00011508067
  Force max component initial, final = 0.04390435 3.2001442e-05
  Final line search alpha, max atom move = 1.0000000 3.2001442e-05
  Iterations, force evaluations = 184 368

MPI task timing breakdown:
Section |  min time  |  avg time  |  max time  |%varavg| %total
---------------------------------------------------------------
Pair    | 0.55508    | 1.5427     | 2.0101     |  33.6 | 72.41
Neigh   | 0          | 0          | 0          |   0.0 |  0.00
Comm    | 0.033232   | 0.34724    | 1.0387     |  49.5 | 16.30
Output  | 0          | 0          | 0          |   0.0 |  0.00
Modify  | 2.1887e-05 | 0.0030343  | 0.006432   |   2.6 |  0.14
Other   |            | 0.2376     |            |       | 11.15

Nlocal:        2776.45 ave        3960 max           0 min
Histogram: 8 4 4 0 4 12 8 2 28 34
Nghost:        3879.03 ave        5424 max         232 min
Histogram: 8 0 8 0 16 0 8 8 16 40
Neighs:        79213.3 ave      115445 max           0 min
Histogram: 8 4 4 0 10 6 8 8 24 32

Total # of neighbors = 8238188
Ave neighs/atom = 28.530422
Neighbor list builds = 0
Dangerous builds = 0
The dot product: 6.48501689186018e-09
Setting atom values ...
  1 settings made for x
  1 settings made for y
  1 settings made for z
Setting up cg style minimization ...
  Unit style    : metal
  Current step  : 3938
Per MPI rank memory allocation (min/avg/max) = 5.441 | 5.816 | 6.074 Mbytes
Step PotEng KinEng TotEng v_fx v_fy v_fz 
    3938   -1152449.3            0   -1152449.3 -0.0059506367 -9.4481544e-05 -0.0090811445 
    4000   -1152449.3            0   -1152449.3 0.0002587228 0.00010362749 0.00031593048 
    4109   -1152449.3            0   -1152449.3 1.3011343e-05 4.7110072e-05 -1.7329646e-05 
Loop time of 1.99591 on 104 procs for 171 steps with 288751 atoms

99.9% CPU use with 104 MPI tasks x 1 OpenMP threads

Minimization stats:
  Stopping criterion = energy tolerance
  Energy initial, next-to-last, final = 
     -1152449.31021831  -1152449.31107493  -1152449.31107493
  Force two-norm initial, final = 0.12266745 0.00018957462
  Force max component initial, final = 0.04367673 4.7110072e-05
  Final line search alpha, max atom move = 1.0000000 4.7110072e-05
  Iterations, force evaluations = 171 342

MPI task timing breakdown:
Section |  min time  |  avg time  |  max time  |%varavg| %total
---------------------------------------------------------------
Pair    | 0.51753    | 1.4478     | 1.8841     |  32.5 | 72.54
Neigh   | 0          | 0          | 0          |   0.0 |  0.00
Comm    | 0.034665   | 0.32584    | 0.96992    |  47.7 | 16.33
Output  | 0.00015431 | 0.00016166 | 0.00028781 |   0.0 |  0.01
Modify  | 2.0023e-05 | 0.0028217  | 0.0059792  |   2.5 |  0.14
Other   |            | 0.2193     |            |       | 10.99

Nlocal:        2776.45 ave        3960 max           0 min
Histogram: 8 4 4 0 4 12 8 2 28 34
Nghost:        3879.01 ave        5424 max         232 min
Histogram: 8 0 8 0 16 0 8 8 16 40
Neighs:        79213.4 ave      115446 max           0 min
Histogram: 8 4 4 0 10 6 8 8 24 32

Total # of neighbors = 8238189
Ave neighs/atom = 28.530426
Neighbor list builds = 0
Dangerous builds = 0
The dot product: -1.84256129389952e-09
Setting atom values ...
  1 settings made for x
  1 settings made for y
  1 settings made for z
Setting up cg style minimization ...
  Unit style    : metal
  Current step  : 4109
Per MPI rank memory allocation (min/avg/max) = 5.441 | 5.816 | 6.074 Mbytes
Step PotEng KinEng TotEng v_fx v_fy v_fz 
    4109   -1152449.3            0   -1152449.3 -0.0064468731 -0.0020536972 -0.0083033318 
    4356   -1152449.3            0   -1152449.3 1.0000927e-06 -9.5596102e-07 2.299077e-06 
Loop time of 2.87561 on 104 procs for 247 steps with 288751 atoms

99.9% CPU use with 104 MPI tasks x 1 OpenMP threads

Minimization stats:
  Stopping criterion = energy tolerance
  Energy initial, next-to-last, final = 
     -1152449.29875985  -1152449.29962282  -1152449.29962282
  Force two-norm initial, final = 0.12332259 8.1084891e-06
  Force max component initial, final = 0.043508292 2.2990770e-06
  Final line search alpha, max atom move = 1.0000000 2.2990770e-06
  Iterations, force evaluations = 247 494

MPI task timing breakdown:
Section |  min time  |  avg time  |  max time  |%varavg| %total
---------------------------------------------------------------
Pair    | 0.74304    | 2.07       | 2.6981     |  39.0 | 71.99
Neigh   | 0          | 0          | 0          |   0.0 |  0.00
Comm    | 0.043878   | 0.4671     | 1.3991     |  57.1 | 16.24
Output  | 0          | 0          | 0          |   0.0 |  0.00
Modify  | 2.9529e-05 | 0.004075   | 0.0086309  |   3.0 |  0.14
Other   |            | 0.3344     |            |       | 11.63

Nlocal:        2776.45 ave        3960 max           0 min
Histogram: 8 4 4 0 4 12 8 2 28 34
Nghost:        3879.11 ave        5424 max         232 min
Histogram: 8 0 8 0 16 0 8 8 16 40
Neighs:        79213.4 ave      115446 max           0 min
Histogram: 8 4 4 0 10 6 8 8 24 32

Total # of neighbors = 8238189
Ave neighs/atom = 28.530426
Neighbor list builds = 0
Dangerous builds = 0
The dot product: -5.5305156596729e-10
Setting atom values ...
  1 settings made for x
  1 settings made for y
  1 settings made for z
Setting up cg style minimization ...
  Unit style    : metal
  Current step  : 4356
Per MPI rank memory allocation (min/avg/max) = 5.441 | 5.816 | 6.074 Mbytes
Step PotEng KinEng TotEng v_fx v_fy v_fz 
    4356   -1152449.3            0   -1152449.3 -0.0073795272 -0.0042262345 -0.0080329501 
    4534   -1152449.3            0   -1152449.3 -1.5667874e-05 -9.136584e-06 -1.6925409e-05 
Loop time of 2.08832 on 104 procs for 178 steps with 288751 atoms

99.9% CPU use with 104 MPI tasks x 1 OpenMP threads

Minimization stats:
  Stopping criterion = energy tolerance
  Energy initial, next-to-last, final = 
     -1152449.28579516  -1152449.28666038  -1152449.28666038
  Force two-norm initial, final = 0.12398459 0.00013714841
  Force max component initial, final = 0.043338138 3.3029418e-05
  Final line search alpha, max atom move = 1.0000000 3.3029418e-05
  Iterations, force evaluations = 178 356

MPI task timing breakdown:
Section |  min time  |  avg time  |  max time  |%varavg| %total
---------------------------------------------------------------
Pair    | 0.53708    | 1.5043     | 1.9591     |  33.2 | 72.03
Neigh   | 0          | 0          | 0          |   0.0 |  0.00
Comm    | 0.037148   | 0.34186    | 1.0093     |  48.1 | 16.37
Output  | 0          | 0          | 0          |   0.0 |  0.00
Modify  | 2.1924e-05 | 0.0029392  | 0.006217   |   2.5 |  0.14
Other   |            | 0.2392     |            |       | 11.46

Nlocal:        2776.45 ave        3960 max           0 min
Histogram: 8 4 4 0 4 12 8 2 28 34
Nghost:        3879.11 ave        5424 max         232 min
Histogram: 8 0 8 0 16 0 8 8 16 40
Neighs:        79213.3 ave      115446 max           0 min
Histogram: 8 4 4 0 10 6 8 8 24 32

Total # of neighbors = 8238187
Ave neighs/atom = 28.530419
Neighbor list builds = 0
Dangerous builds = 0
The dot product: 1.35597785022657e-08
Setting atom values ...
  1 settings made for x
  1 settings made for y
  1 settings made for z
Setting up cg style minimization ...
  Unit style    : metal
  Current step  : 4534
Per MPI rank memory allocation (min/avg/max) = 5.441 | 5.816 | 6.074 Mbytes
Step PotEng KinEng TotEng v_fx v_fy v_fz 
    4534   -1152449.3            0   -1152449.3 -0.0088735545 -0.006320803 -0.0087040812 
    4745   -1152449.3            0   -1152449.3 5.6112179e-06 5.4940863e-06 4.3172323e-06 
Loop time of 2.47118 on 104 procs for 211 steps with 288751 atoms

99.9% CPU use with 104 MPI tasks x 1 OpenMP threads

Minimization stats:
  Stopping criterion = energy tolerance
  Energy initial, next-to-last, final = 
      -1152449.2713204  -1152449.27218112  -1152449.27218112
  Force two-norm initial, final = 0.12456111 4.4102832e-05
  Force max component initial, final = 0.043154746 5.6112179e-06
  Final line search alpha, max atom move = 1.0000000 5.6112179e-06
  Iterations, force evaluations = 211 422

MPI task timing breakdown:
Section |  min time  |  avg time  |  max time  |%varavg| %total
---------------------------------------------------------------
Pair    | 0.63679    | 1.7753     | 2.3022     |  36.1 | 71.84
Neigh   | 0          | 0          | 0          |   0.0 |  0.00
Comm    | 0.038468   | 0.4013     | 1.1998     |  53.1 | 16.24
Output  | 0          | 0          | 0          |   0.0 |  0.00
Modify  | 2.4623e-05 | 0.0034845  | 0.0073957  |   2.8 |  0.14
Other   |            | 0.2911     |            |       | 11.78

Nlocal:        2776.45 ave        3960 max           0 min
Histogram: 8 4 4 0 4 12 8 2 28 34
Nghost:        3879.11 ave        5424 max         232 min
Histogram: 8 0 8 0 16 0 8 8 16 40
Neighs:        79213.3 ave      115446 max           0 min
Histogram: 8 4 4 0 10 6 8 8 24 32

Total # of neighbors = 8238186
Ave neighs/atom = 28.530415
Neighbor list builds = 0
Dangerous builds = 0
The dot product: -7.30233762647343e-09
Setting atom values ...
  1 settings made for x
  1 settings made for y
  1 settings made for z
Setting up cg style minimization ...
  Unit style    : metal
  Current step  : 4745
Per MPI rank memory allocation (min/avg/max) = 5.441 | 5.816 | 6.074 Mbytes
Step PotEng KinEng TotEng v_fx v_fy v_fz 
    4745   -1152449.3            0   -1152449.3 -0.011010117 -0.0081434743 -0.010608928 
    4918   -1152449.3            0   -1152449.3 4.0754979e-05 1.1774341e-05 5.3823519e-05 
Loop time of 2.01163 on 104 procs for 173 steps with 288751 atoms

99.9% CPU use with 104 MPI tasks x 1 OpenMP threads

Minimization stats:
  Stopping criterion = energy tolerance
  Energy initial, next-to-last, final = 
     -1152449.25536117  -1152449.25620887  -1152449.25620887
  Force two-norm initial, final = 0.12511607 0.00018501936
  Force max component initial, final = 0.044201985 5.3823519e-05
  Final line search alpha, max atom move = 1.0000000 5.3823519e-05
  Iterations, force evaluations = 173 346

MPI task timing breakdown:
Section |  min time  |  avg time  |  max time  |%varavg| %total
---------------------------------------------------------------
Pair    | 0.52114    | 1.4585     | 1.8961     |  32.7 | 72.50
Neigh   | 0          | 0          | 0          |   0.0 |  0.00
Comm    | 0.031577   | 0.32909    | 0.97974    |  47.8 | 16.36
Output  | 0          | 0          | 0          |   0.0 |  0.00
Modify  | 2.0154e-05 | 0.0028542  | 0.0060675  |   2.5 |  0.14
Other   |            | 0.2212     |            |       | 10.99

Nlocal:        2776.45 ave        3960 max           0 min
Histogram: 8 4 4 0 4 12 8 2 28 34
Nghost:        3879.11 ave        5424 max         232 min
Histogram: 8 0 8 0 16 0 8 8 16 40
Neighs:        79213.3 ave      115444 max           0 min
Histogram: 8 4 4 0 10 6 8 8 24 32

Total # of neighbors = 8238187
Ave neighs/atom = 28.530419
Neighbor list builds = 0
Dangerous builds = 0
The dot product: -7.99096224946065e-08
Setting atom values ...
  1 settings made for x
  1 settings made for y
  1 settings made for z
Setting up cg style minimization ...
  Unit style    : metal
  Current step  : 4918
Per MPI rank memory allocation (min/avg/max) = 5.441 | 5.816 | 6.074 Mbytes
Step PotEng KinEng TotEng v_fx v_fy v_fz 
    4918   -1152449.2            0   -1152449.2 -0.014245053 -0.0096105176 -0.014550708 
    5000   -1152449.2            0   -1152449.2 -8.5576583e-05 1.3332633e-05 -0.00014372749 
    5106   -1152449.2            0   -1152449.2 -7.7089655e-06 -1.9544403e-06 -1.0446913e-05 
Loop time of 2.1845 on 104 procs for 188 steps with 288751 atoms

99.9% CPU use with 104 MPI tasks x 1 OpenMP threads

Minimization stats:
  Stopping criterion = energy tolerance
  Energy initial, next-to-last, final = 
     -1152449.23799913   -1152449.2388353   -1152449.2388353
  Force two-norm initial, final = 0.12631068 8.9204083e-05
  Force max component initial, final = 0.04746093 1.3635208e-05
  Final line search alpha, max atom move = 1.0000000 1.3635208e-05
  Iterations, force evaluations = 188 376

MPI task timing breakdown:
Section |  min time  |  avg time  |  max time  |%varavg| %total
---------------------------------------------------------------
Pair    | 0.56931    | 1.5807     | 2.052      |  34.0 | 72.36
Neigh   | 0          | 0          | 0          |   0.0 |  0.00
Comm    | 0.034364   | 0.35701    | 1.0696     |  50.2 | 16.34
Output  | 0.00016342 | 0.00016928 | 0.00028717 |   0.0 |  0.01
Modify  | 2.2145e-05 | 0.0030994  | 0.0065875  |   2.6 |  0.14
Other   |            | 0.2435     |            |       | 11.15

Nlocal:        2776.45 ave        3960 max           0 min
Histogram: 8 4 4 0 4 12 8 2 28 34
Nghost:        3879.15 ave        5425 max         232 min
Histogram: 8 0 8 0 16 0 8 8 16 40
Neighs:        79213.3 ave      115444 max           0 min
Histogram: 8 4 4 0 10 6 8 8 24 32

Total # of neighbors = 8238185
Ave neighs/atom = 28.530412
Neighbor list builds = 0
Dangerous builds = 0
The dot product: 2.72254822378755e-08
Setting atom values ...
  1 settings made for x
  1 settings made for y
  1 settings made for z
Setting up cg style minimization ...
  Unit style    : metal
  Current step  : 5106
Per MPI rank memory allocation (min/avg/max) = 5.441 | 5.816 | 6.074 Mbytes
Step PotEng KinEng TotEng v_fx v_fy v_fz 
    5106   -1152449.2            0   -1152449.2 -0.019322549 -0.010407387 -0.022027774 
    5373   -1152449.3            0   -1152449.3 -1.3994038e-05 -6.4108181e-06 -1.68483e-05 
Loop time of 3.099 on 104 procs for 267 steps with 288751 atoms

99.9% CPU use with 104 MPI tasks x 1 OpenMP threads

Minimization stats:
  Stopping criterion = energy tolerance
  Energy initial, next-to-last, final = 
      -1152449.2194625  -1152449.25004447  -1152449.25004447
  Force two-norm initial, final = 0.13032133 9.7429104e-05
  Force max component initial, final = 0.05070129 2.4922021e-05
  Final line search alpha, max atom move = 1.0000000 2.4922021e-05
  Iterations, force evaluations = 267 532

MPI task timing breakdown:
Section |  min time  |  avg time  |  max time  |%varavg| %total
---------------------------------------------------------------
Pair    | 0.80865    | 2.2391     | 2.9084     |  40.2 | 72.25
Neigh   | 2.0613e-05 | 0.0058662  | 0.0085302  |   3.2 |  0.19
Comm    | 0.05234    | 0.50203    | 1.4972     |  59.4 | 16.20
Output  | 0          | 0          | 0          |   0.0 |  0.00
Modify  | 3.0776e-05 | 0.0043898  | 0.009302   |   3.1 |  0.14
Other   |            | 0.3476     |            |       | 11.22

Nlocal:        2776.45 ave        3960 max           0 min
Histogram: 8 4 4 0 4 12 8 2 28 34
Nghost:        3879.11 ave        5424 max         232 min
Histogram: 8 0 8 0 16 0 8 8 16 40
Neighs:        79213.2 ave      115440 max           0 min
Histogram: 8 4 4 0 10 6 8 8 24 32

Total # of neighbors = 8238171
Ave neighs/atom = 28.530364
Neighbor list builds = 2
Dangerous builds = 0
The dot product: 1.62957868870751e-06
Setting atom values ...
  1 settings made for x
  1 settings made for y
  1 settings made for z
Setting up cg style minimization ...
  Unit style    : metal
  Current step  : 5373
Per MPI rank memory allocation (min/avg/max) = 5.441 | 5.816 | 6.074 Mbytes
Step PotEng KinEng TotEng v_fx v_fy v_fz 
    5373   -1152449.2            0   -1152449.2 -0.027993909 -0.033891712 -0.023834804 
    5610   -1152449.2            0   -1152449.2 -9.9116075e-06 -9.0023525e-07 -2.0520024e-05 
Loop time of 2.75268 on 104 procs for 237 steps with 288751 atoms

99.9% CPU use with 104 MPI tasks x 1 OpenMP threads

Minimization stats:
  Stopping criterion = energy tolerance
  Energy initial, next-to-last, final = 
     -1152449.24564064  -1152449.24930706  -1152449.24930706
  Force two-norm initial, final = 0.15068198 7.0341115e-05
  Force max component initial, final = 0.055803021 2.0520024e-05
  Final line search alpha, max atom move = 1.0000000 2.0520024e-05
  Iterations, force evaluations = 237 474

MPI task timing breakdown:
Section |  min time  |  avg time  |  max time  |%varavg| %total
---------------------------------------------------------------
Pair    | 0.71301    | 1.9839     | 2.5795     |  38.0 | 72.07
Neigh   | 0          | 0          | 0          |   0.0 |  0.00
Comm    | 0.043179   | 0.44687    | 1.3354     |  56.1 | 16.23
Output  | 0          | 0          | 0          |   0.0 |  0.00
Modify  | 2.7505e-05 | 0.0039156  | 0.0082838  |   2.9 |  0.14
Other   |            | 0.318      |            |       | 11.55

Nlocal:        2776.45 ave        3960 max           0 min
Histogram: 8 4 4 0 4 12 8 2 28 34
Nghost:        3879.01 ave        5424 max         232 min
Histogram: 8 0 8 0 16 0 8 8 16 40
Neighs:        79213.3 ave      115435 max           0 min
Histogram: 8 4 4 0 10 6 8 8 24 32

Total # of neighbors = 8238182
Ave neighs/atom = 28.530402
Neighbor list builds = 0
Dangerous builds = 0
The dot product: 7.98885226634803e-07
Setting atom values ...
  1 settings made for x
  1 settings made for y
  1 settings made for z
Setting up cg style minimization ...
  Unit style    : metal
  Current step  : 5610
Per MPI rank memory allocation (min/avg/max) = 5.441 | 5.816 | 6.074 Mbytes
Step PotEng KinEng TotEng v_fx v_fy v_fz 
    5610   -1152449.3            0   -1152449.3 -0.014992015 -0.038240716 0.00099390506 
    5779   -1152449.3            0   -1152449.3 -2.2063005e-05 -9.0695889e-06 -4.6111995e-05 
Loop time of 1.99237 on 104 procs for 169 steps with 288751 atoms

99.9% CPU use with 104 MPI tasks x 1 OpenMP threads

Minimization stats:
  Stopping criterion = energy tolerance
  Energy initial, next-to-last, final = 
     -1152449.25028278   -1152449.2521895   -1152449.2521895
  Force two-norm initial, final = 0.15357734 0.00022181565
  Force max component initial, final = 0.055035527 5.5066044e-05
  Final line search alpha, max atom move = 1.0000000 5.5066044e-05
  Iterations, force evaluations = 169 338

MPI task timing breakdown:
Section |  min time  |  avg time  |  max time  |%varavg| %total
---------------------------------------------------------------
Pair    | 0.50776    | 1.4283     | 1.8577     |  32.3 | 71.69
Neigh   | 0          | 0          | 0          |   0.0 |  0.00
Comm    | 0.037081   | 0.32669    | 0.96785    |  47.4 | 16.40
Output  | 0          | 0          | 0          |   0.0 |  0.00
Modify  | 2.0308e-05 | 0.0027875  | 0.0059307  |   2.5 |  0.14
Other   |            | 0.2346     |            |       | 11.78

Nlocal:        2776.45 ave        3958 max           0 min
Histogram: 8 4 4 0 4 12 8 2 28 34
Nghost:        3879.09 ave        5424 max         232 min
Histogram: 8 0 8 0 16 0 8 8 16 40
Neighs:        79213.3 ave      115355 max           0 min
Histogram: 8 4 4 0 10 6 8 8 24 32

Total # of neighbors = 8238186
Ave neighs/atom = 28.530415
Neighbor list builds = 0
Dangerous builds = 0
The dot product: 5.07277493505622e-07
Setting atom values ...
  1 settings made for x
  1 settings made for y
  1 settings made for z
Setting up cg style minimization ...
  Unit style    : metal
  Current step  : 5779
Per MPI rank memory allocation (min/avg/max) = 5.441 | 5.816 | 6.074 Mbytes
Step PotEng KinEng TotEng v_fx v_fy v_fz 
    5779   -1152449.3            0   -1152449.3 -0.014301078 -0.049359259  0.012713686 
    5875   -1152449.3            0   -1152449.3 3.7360978e-06 -8.0370822e-07 1.0541426e-05 
Loop time of 1.14441 on 104 procs for 96 steps with 288751 atoms

99.9% CPU use with 104 MPI tasks x 1 OpenMP threads

Minimization stats:
  Stopping criterion = energy tolerance
  Energy initial, next-to-last, final = 
     -1152449.25427136  -1152449.25547142  -1152449.25547142
  Force two-norm initial, final = 0.15225953 0.00013064509
  Force max component initial, final = 0.055466551 1.0880105e-05
  Final line search alpha, max atom move = 1.0000000 1.0880105e-05
  Iterations, force evaluations = 96 192

MPI task timing breakdown:
Section |  min time  |  avg time  |  max time  |%varavg| %total
---------------------------------------------------------------
Pair    | 0.29059    | 0.8081     | 1.0502     |  24.3 | 70.61
Neigh   | 0          | 0          | 0          |   0.0 |  0.00
Comm    | 0.016833   | 0.18364    | 0.54895    |  35.7 | 16.05
Output  | 0          | 0          | 0          |   0.0 |  0.00
Modify  | 1.1803e-05 | 0.0015905  | 0.0033763  |   1.9 |  0.14
Other   |            | 0.1511     |            |       | 13.20

Nlocal:        2776.45 ave        3958 max           0 min
Histogram: 8 4 4 0 4 12 8 2 28 34
Nghost:        3879.09 ave        5424 max         232 min
Histogram: 8 0 8 0 16 0 8 8 16 40
Neighs:        79213.3 ave      115347 max           0 min
Histogram: 8 4 4 0 10 6 8 8 24 32

Total # of neighbors = 8238182
Ave neighs/atom = 28.530402
Neighbor list builds = 0
Dangerous builds = 0
The dot product: -3.1488547482789e-08
Setting atom values ...
  1 settings made for x
  1 settings made for y
  1 settings made for z
Setting up cg style minimization ...
  Unit style    : metal
  Current step  : 5875
Per MPI rank memory allocation (min/avg/max) = 5.441 | 5.816 | 6.074 Mbytes
Step PotEng KinEng TotEng v_fx v_fy v_fz 
    5875   -1152449.3            0   -1152449.3  -0.01363363 -0.057469499  0.020592149 
    6000   -1152449.3            0   -1152449.3 0.00018370562 -5.8897037e-05 0.00054388762 
    6140   -1152449.3            0   -1152449.3 7.7080183e-07 6.989976e-07 1.3494762e-06 
Loop time of 3.09103 on 104 procs for 265 steps with 288751 atoms

99.9% CPU use with 104 MPI tasks x 1 OpenMP threads

Minimization stats:
  Stopping criterion = energy tolerance
  Energy initial, next-to-last, final = 
     -1152449.25693146  -1152449.29755491  -1152449.29755491
  Force two-norm initial, final = 0.15748633 4.0619910e-05
  Force max component initial, final = 0.057469499 1.3851861e-06
  Final line search alpha, max atom move = 1.0000000 1.3851861e-06
  Iterations, force evaluations = 265 529

MPI task timing breakdown:
Section |  min time  |  avg time  |  max time  |%varavg| %total
---------------------------------------------------------------
Pair    | 0.8021     | 2.2353     | 2.9034     |  40.3 | 72.32
Neigh   | 1.0281e-05 | 0.002934   | 0.004261   |   2.2 |  0.09
Comm    | 0.04912    | 0.50513    | 1.5057     |  59.2 | 16.34
Output  | 0.00023396 | 0.00023924 | 0.00038652 |   0.0 |  0.01
Modify  | 3.1645e-05 | 0.004361   | 0.0092423  |   3.1 |  0.14
Other   |            | 0.3431     |            |       | 11.10

Nlocal:        2776.45 ave        3959 max           0 min
Histogram: 8 4 4 0 4 12 8 2 28 34
Nghost:        3879.07 ave        5424 max         232 min
Histogram: 8 0 8 0 16 0 8 8 16 40
Neighs:        79213.4 ave      115395 max           0 min
Histogram: 8 4 4 0 10 6 8 8 24 32

Total # of neighbors = 8238197
Ave neighs/atom = 28.530454
Neighbor list builds = 1
Dangerous builds = 0
The dot product: -1.5945112123788e-07
Setting atom values ...
  1 settings made for x
  1 settings made for y
  1 settings made for z
Setting up cg style minimization ...
  Unit style    : metal
  Current step  : 6140
Per MPI rank memory allocation (min/avg/max) = 5.441 | 5.816 | 6.074 Mbytes
Step PotEng KinEng TotEng v_fx v_fy v_fz 
    6140   -1152449.3            0   -1152449.3   0.02877263  0.059000626  0.058761637 
    6364   -1152449.3            0   -1152449.3 -1.0346431e-07 -8.6520828e-06 4.5701657e-06 
Loop time of 2.60793 on 104 procs for 224 steps with 288751 atoms

99.9% CPU use with 104 MPI tasks x 1 OpenMP threads

Minimization stats:
  Stopping criterion = energy tolerance
  Energy initial, next-to-last, final = 
     -1152449.30887094  -1152449.31115279  -1152449.31115279
  Force two-norm initial, final = 0.16258872 4.8786736e-05
  Force max component initial, final = 0.059000626 9.6148775e-06
  Final line search alpha, max atom move = 1.0000000 9.6148775e-06
  Iterations, force evaluations = 224 448

MPI task timing breakdown:
Section |  min time  |  avg time  |  max time  |%varavg| %total
---------------------------------------------------------------
Pair    | 0.67562    | 1.8805     | 2.4391     |  37.1 | 72.11
Neigh   | 0          | 0          | 0          |   0.0 |  0.00
Comm    | 0.041623   | 0.42502    | 1.2708     |  54.5 | 16.30
Output  | 0          | 0          | 0          |   0.0 |  0.00
Modify  | 2.6089e-05 | 0.0036971  | 0.0078451  |   2.9 |  0.14
Other   |            | 0.2988     |            |       | 11.46

Nlocal:        2776.45 ave        3955 max           0 min
Histogram: 8 4 4 0 4 12 8 0 30 34
Nghost:        3879.05 ave        5425 max         232 min
Histogram: 8 0 8 0 16 0 8 8 16 40
Neighs:        79213.4 ave      115257 max           0 min
Histogram: 8 4 4 0 10 6 8 8 24 32

Total # of neighbors = 8238197
Ave neighs/atom = 28.530454
Neighbor list builds = 0
Dangerous builds = 0
The dot product: -1.57410849226882e-07
Setting atom values ...
  1 settings made for x
  1 settings made for y
  1 settings made for z
Setting up cg style minimization ...
  Unit style    : metal
  Current step  : 6364
Per MPI rank memory allocation (min/avg/max) = 5.441 | 5.816 | 6.074 Mbytes
Step PotEng KinEng TotEng v_fx v_fy v_fz 
    6364   -1152449.3            0   -1152449.3 -0.0060548236 -0.071128573   0.02705361 
    6562   -1152449.3            0   -1152449.3 3.3998999e-06 2.1186507e-06 9.1443408e-06 
Loop time of 2.29891 on 104 procs for 198 steps with 288751 atoms

99.9% CPU use with 104 MPI tasks x 1 OpenMP threads

Minimization stats:
  Stopping criterion = energy tolerance
  Energy initial, next-to-last, final = 
     -1152449.32049996  -1152449.32174435  -1152449.32174435
  Force two-norm initial, final = 0.16163179 6.2807923e-05
  Force max component initial, final = 0.071128573 9.1443408e-06
  Final line search alpha, max atom move = 1.0000000 9.1443408e-06
  Iterations, force evaluations = 198 396

MPI task timing breakdown:
Section |  min time  |  avg time  |  max time  |%varavg| %total
---------------------------------------------------------------
Pair    | 0.59481    | 1.668      | 2.1668     |  34.9 | 72.56
Neigh   | 0          | 0          | 0          |   0.0 |  0.00
Comm    | 0.035916   | 0.37438    | 1.1121     |  51.1 | 16.29
Output  | 0          | 0          | 0          |   0.0 |  0.00
Modify  | 2.3577e-05 | 0.0032682  | 0.0069477  |   2.7 |  0.14
Other   |            | 0.2533     |            |       | 11.02

Nlocal:        2776.45 ave        3957 max           0 min
Histogram: 8 4 4 0 4 12 8 4 26 34
Nghost:        3879.05 ave        5427 max         232 min
Histogram: 8 0 8 0 16 0 8 8 16 40
Neighs:        79213.4 ave      115310 max           0 min
Histogram: 8 4 4 0 10 6 8 8 24 32

Total # of neighbors = 8238195
Ave neighs/atom = 28.530447
Neighbor list builds = 0
Dangerous builds = 0
The dot product: -8.47157281183387e-09
Setting atom values ...
  1 settings made for x
  1 settings made for y
  1 settings made for z
Setting up cg style minimization ...
  Unit style    : metal
  Current step  : 6562
Per MPI rank memory allocation (min/avg/max) = 5.441 | 5.816 | 6.074 Mbytes
Step PotEng KinEng TotEng v_fx v_fy v_fz 
    6562   -1152449.3            0   -1152449.3 -0.00050076299  -0.05380277  0.031391212 
    6747   -1152449.3            0   -1152449.3 -3.0059431e-06 5.3863266e-06 -1.2559768e-05 
Loop time of 2.13976 on 104 procs for 185 steps with 288751 atoms

99.9% CPU use with 104 MPI tasks x 1 OpenMP threads

Minimization stats:
  Stopping criterion = energy tolerance
  Energy initial, next-to-last, final = 
      -1152449.3295216  -1152449.33070589  -1152449.33070589
  Force two-norm initial, final = 0.15651371 9.5325455e-05
  Force max component initial, final = 0.054019894 1.2627688e-05
  Final line search alpha, max atom move = 1.0000000 1.2627688e-05
  Iterations, force evaluations = 185 370

MPI task timing breakdown:
Section |  min time  |  avg time  |  max time  |%varavg| %total
---------------------------------------------------------------
Pair    | 0.55917    | 1.5543     | 2.0176     |  33.7 | 72.64
Neigh   | 0          | 0          | 0          |   0.0 |  0.00
Comm    | 0.033443   | 0.35026    | 1.0533     |  49.9 | 16.37
Output  | 0          | 0          | 0          |   0.0 |  0.00
Modify  | 2.178e-05  | 0.0030621  | 0.0065188  |   2.6 |  0.14
Other   |            | 0.2321     |            |       | 10.85

Nlocal:        2776.45 ave        3957 max           0 min
Histogram: 8 4 4 0 4 12 8 4 26 34
Nghost:        3879.07 ave        5427 max         232 min
Histogram: 8 0 8 0 16 0 8 8 16 40
Neighs:        79213.4 ave      115310 max           0 min
Histogram: 8 4 4 0 10 6 8 8 24 32

Total # of neighbors = 8238197
Ave neighs/atom = 28.530454
Neighbor list builds = 0
Dangerous builds = 0
The dot product: -3.63642264190079e-08
Setting atom values ...
  1 settings made for x
  1 settings made for y
  1 settings made for z
Setting up cg style minimization ...
  Unit style    : metal
  Current step  : 6747
Per MPI rank memory allocation (min/avg/max) = 5.441 | 5.816 | 6.074 Mbytes
Step PotEng KinEng TotEng v_fx v_fy v_fz 
    6747   -1152449.3            0   -1152449.3 -0.0012689646 -0.058237278  0.030895028 
    7000   -1152449.3            0   -1152449.3 8.4880177e-08 8.0901974e-07 -2.2343913e-07 
    7012   -1152449.3            0   -1152449.3 -9.0709357e-08 -2.35666e-07 -1.3678103e-07 
Loop time of 3.09309 on 104 procs for 265 steps with 288751 atoms

99.9% CPU use with 104 MPI tasks x 1 OpenMP threads

Minimization stats:
  Stopping criterion = energy tolerance
  Energy initial, next-to-last, final = 
     -1152449.33684983  -1152449.33806598  -1152449.33806598
  Force two-norm initial, final = 0.15886829 3.7610625e-06
  Force max component initial, final = 0.058237278 6.6031241e-07
  Final line search alpha, max atom move = 1.0000000 6.6031241e-07
  Iterations, force evaluations = 265 530

MPI task timing breakdown:
Section |  min time  |  avg time  |  max time  |%varavg| %total
---------------------------------------------------------------
Pair    | 0.79699    | 2.2344     | 2.9087     |  40.5 | 72.24
Neigh   | 0          | 0          | 0          |   0.0 |  0.00
Comm    | 0.048227   | 0.50582    | 1.5053     |  59.2 | 16.35
Output  | 0.00025692 | 0.00026695 | 0.00043396 |   0.0 |  0.01
Modify  | 3.1991e-05 | 0.0043674  | 0.0092612  |   3.1 |  0.14
Other   |            | 0.3483     |            |       | 11.26

Nlocal:        2776.45 ave        3957 max           0 min
Histogram: 8 4 4 0 4 12 8 4 26 34
Nghost:        3879.07 ave        5428 max         232 min
Histogram: 8 0 8 0 16 0 8 8 16 40
Neighs:        79213.4 ave      115310 max           0 min
Histogram: 8 4 4 0 10 6 8 8 24 32

Total # of neighbors = 8238197
Ave neighs/atom = 28.530454
Neighbor list builds = 0
Dangerous builds = 0
The dot product: 5.70200901980843e-10
Setting atom values ...
  1 settings made for x
  1 settings made for y
  1 settings made for z
Setting up cg style minimization ...
  Unit style    : metal
  Current step  : 7012
Per MPI rank memory allocation (min/avg/max) = 5.441 | 5.816 | 6.074 Mbytes
Step PotEng KinEng TotEng v_fx v_fy v_fz 
    7012   -1152449.3            0   -1152449.3 -0.0013019718 -0.058786932  0.030114345 
    7169   -1152449.3            0   -1152449.3 -8.0151608e-06 3.0242129e-05 -4.1878672e-05 
[...]

Nlocal:        2776.45 ave        3961 max           0 min
Histogram: 8 4 4 0 6 10 8 2 28 34
Nghost:        3879.09 ave        5424 max         232 min
Histogram: 8 0 8 0 16 0 8 8 16 40
Neighs:        79213.4 ave      115448 max           0 min
Histogram: 8 4 4 0 10 6 8 8 24 32

Total # of neighbors = 8238191
Ave neighs/atom = 28.530433
Neighbor list builds = 0
Dangerous builds = 0
The dot product: 1.81363859887757e-07
Setting atom values ...
  1 settings made for x
  1 settings made for y
  1 settings made for z
Setting up cg style minimization ...
  Unit style    : metal
  Current step  : 3161
Per MPI rank memory allocation (min/avg/max) = 5.441 | 5.816 | 6.074 Mbytes
Step PotEng KinEng TotEng v_fx v_fy v_fz 
    3161   -1152449.4            0   -1152449.4 -0.0098020412 0.0060385669 -0.019510409 
    3377   -1152449.4            0   -1152449.4 3.8076164e-06 7.3448555e-06 9.4654904e-08 
Loop time of 2.4921 on 104 procs for 216 steps with 288751 atoms

99.9% CPU use with 104 MPI tasks x 1 OpenMP threads

Minimization stats:
  Stopping criterion = energy tolerance
  Energy initial, next-to-last, final = 
     -1152449.35009409  -1152449.35099855  -1152449.35099855
  Force two-norm initial, final = 0.1253406 3.4935326e-05
  Force max component initial, final = 0.047460572 7.3448555e-06
  Final line search alpha, max atom move = 1.0000000 7.3448555e-06
  Iterations, force evaluations = 216 432

MPI task timing breakdown:
Section |  min time  |  avg time  |  max time  |%varavg| %total
---------------------------------------------------------------
Pair    | 0.6542     | 1.8123     | 2.3471     |  36.3 | 72.72
Neigh   | 0          | 0          | 0          |   0.0 |  0.00
Comm    | 0.043448   | 0.40424    | 1.2129     |  53.3 | 16.22
Output  | 0          | 0          | 0          |   0.0 |  0.00
Modify  | 2.6268e-05 | 0.0035625  | 0.0076306  |   2.8 |  0.14
Other   |            | 0.272      |            |       | 10.91

Nlocal:        2776.45 ave        3961 max           0 min
Histogram: 8 4 4 0 6 10 8 2 28 34
Nghost:        3879.09 ave        5428 max         232 min
Histogram: 8 0 8 0 16 0 8 8 16 40
Neighs:        79213.4 ave      115448 max           0 min
Histogram: 8 4 4 0 10 6 8 8 24 32

Total # of neighbors = 8238192
Ave neighs/atom = 28.530436
Neighbor list builds = 0
Dangerous builds = 0
The dot product: 7.92929046045703e-10
Setting atom values ...
  1 settings made for x
  1 settings made for y
  1 settings made for z
Setting up cg style minimization ...
  Unit style    : metal
  Current step  : 3377
Per MPI rank memory allocation (min/avg/max) = 5.441 | 5.816 | 6.074 Mbytes
Step PotEng KinEng TotEng v_fx v_fy v_fz 
    3377   -1152449.4            0   -1152449.4 -0.0099326646 0.0065512374  -0.02013926 
    3550   -1152449.4            0   -1152449.4 2.6842621e-05 -2.0454891e-05 5.6554718e-05 
Loop time of 2.0071 on 104 procs for 173 steps with 288751 atoms

99.9% CPU use with 104 MPI tasks x 1 OpenMP threads

Minimization stats:
  Stopping criterion = energy tolerance
  Energy initial, next-to-last, final = 
      -1152449.3506701  -1152449.35157039  -1152449.35157039
  Force two-norm initial, final = 0.12550256 0.00018717129
  Force max component initial, final = 0.04686276 5.6554718e-05
  Final line search alpha, max atom move = 1.0000000 5.6554718e-05
  Iterations, force evaluations = 173 346

MPI task timing breakdown:
Section |  min time  |  avg time  |  max time  |%varavg| %total
---------------------------------------------------------------
Pair    | 0.52026    | 1.4545     | 1.8895     |  32.6 | 72.47
Neigh   | 0          | 0          | 0          |   0.0 |  0.00
Comm    | 0.035158   | 0.32867    | 0.97551    |  47.6 | 16.38
Output  | 0          | 0          | 0          |   0.0 |  0.00
Modify  | 2.0268e-05 | 0.0028564  | 0.0061337  |   2.5 |  0.14
Other   |            | 0.221      |            |       | 11.01

Nlocal:        2776.45 ave        3961 max           0 min
Histogram: 8 4 4 0 6 10 8 2 28 34
Nghost:        3879.05 ave        5424 max         232 min
Histogram: 8 0 8 0 16 0 8 8 16 40
Neighs:        79213.4 ave      115460 max           0 min
Histogram: 8 4 4 0 10 6 8 8 24 32

Total # of neighbors = 8238190
Ave neighs/atom = 28.530429
Neighbor list builds = 0
Dangerous builds = 0
The dot product: -3.65666502939981e-08
Setting atom values ...
  1 settings made for x
  1 settings made for y
  1 settings made for z
Setting up cg style minimization ...
  Unit style    : metal
  Current step  : 3550
Per MPI rank memory allocation (min/avg/max) = 5.441 | 5.816 | 6.074 Mbytes
Step PotEng KinEng TotEng v_fx v_fy v_fz 
    3550   -1152449.3            0   -1152449.3 -0.0091331734 0.0065265361 -0.018971082 
    3730   -1152449.4            0   -1152449.4 3.1461203e-05 1.1944033e-05 3.857921e-05 
Loop time of 2.08679 on 104 procs for 180 steps with 288751 atoms

99.9% CPU use with 104 MPI tasks x 1 OpenMP threads

Minimization stats:
  Stopping criterion = energy tolerance
  Energy initial, next-to-last, final = 
     -1152449.34991856  -1152449.35080975  -1152449.35080975
  Force two-norm initial, final = 0.12483046 0.00014681452
  Force max component initial, final = 0.0462198 3.8579210e-05
  Final line search alpha, max atom move = 1.0000000 3.8579210e-05
  Iterations, force evaluations = 180 360

MPI task timing breakdown:
Section |  min time  |  avg time  |  max time  |%varavg| %total
---------------------------------------------------------------
Pair    | 0.54493    | 1.5118     | 1.9584     |  33.1 | 72.44
Neigh   | 0          | 0          | 0          |   0.0 |  0.00
Comm    | 0.031875   | 0.3385     | 1.0158     |  48.9 | 16.22
Output  | 0          | 0          | 0          |   0.0 |  0.00
Modify  | 2.1476e-05 | 0.0029793  | 0.0063936  |   2.6 |  0.14
Other   |            | 0.2336     |            |       | 11.19

Nlocal:        2776.45 ave        3961 max           0 min
Histogram: 8 4 4 0 6 10 8 2 28 34
Nghost:        3879.05 ave        5424 max         232 min
Histogram: 8 0 8 0 16 0 8 8 16 40
Neighs:        79213.4 ave      115468 max           0 min
Histogram: 8 4 4 0 10 6 8 8 24 32

Total # of neighbors = 8238192
Ave neighs/atom = 28.530436
Neighbor list builds = 0
Dangerous builds = 0
The dot product: -1.60075757602938e-08
Setting atom values ...
  1 settings made for x
  1 settings made for y
  1 settings made for z
Setting up cg style minimization ...
  Unit style    : metal
  Current step  : 3730
Per MPI rank memory allocation (min/avg/max) = 5.441 | 5.816 | 6.074 Mbytes
Step PotEng KinEng TotEng v_fx v_fy v_fz 
    3730   -1152449.3            0   -1152449.3 -0.0081715429 0.0063648032 -0.017435172 
    3923   -1152449.3            0   -1152449.3 1.4990996e-06 5.1568168e-06 -1.7410557e-06 
Loop time of 2.22961 on 104 procs for 193 steps with 288751 atoms

99.9% CPU use with 104 MPI tasks x 1 OpenMP threads

Minimization stats:
  Stopping criterion = energy tolerance
  Energy initial, next-to-last, final = 
     -1152449.34781793   -1152449.3486961   -1152449.3486961
  Force two-norm initial, final = 0.12385607 8.7627812e-05
  Force max component initial, final = 0.045567828 5.1568168e-06
  Final line search alpha, max atom move = 1.0000000 5.1568168e-06
  Iterations, force evaluations = 193 386

MPI task timing breakdown:
Section |  min time  |  avg time  |  max time  |%varavg| %total
---------------------------------------------------------------
Pair    | 0.58131    | 1.6218     | 2.1024     |  34.4 | 72.74
Neigh   | 0          | 0          | 0          |   0.0 |  0.00
Comm    | 0.034216   | 0.36557    | 1.0853     |  50.2 | 16.40
Output  | 0          | 0          | 0          |   0.0 |  0.00
Modify  | 2.3174e-05 | 0.0031853  | 0.0068023  |   2.7 |  0.14
Other   |            | 0.239      |            |       | 10.72

Nlocal:        2776.45 ave        3960 max           0 min
Histogram: 8 4 4 0 4 12 8 2 28 34
Nghost:        3879.01 ave        5424 max         232 min
Histogram: 8 0 8 0 16 0 8 8 16 40
Neighs:        79213.4 ave      115437 max           0 min
Histogram: 8 4 4 0 10 6 8 8 24 32

Total # of neighbors = 8238191
Ave neighs/atom = 28.530433
Neighbor list builds = 0
Dangerous builds = 0
The dot product: 2.41706138879042e-09
Setting atom values ...
  1 settings made for x
  1 settings made for y
  1 settings made for z
Setting up cg style minimization ...
  Unit style    : metal
  Current step  : 3923
Per MPI rank memory allocation (min/avg/max) = 5.441 | 5.816 | 6.074 Mbytes
Step PotEng KinEng TotEng v_fx v_fy v_fz 
    3923   -1152449.3            0   -1152449.3 -0.0072780457 0.0058926009 -0.015745254 
    4000   -1152449.3            0   -1152449.3 3.2709887e-05 2.4469269e-05 3.0807911e-05 
    4123   -1152449.3            0   -1152449.3 1.312722e-05 8.2480172e-06 1.3596701e-05 
Loop time of 2.32057 on 104 procs for 200 steps with 288751 atoms

99.9% CPU use with 104 MPI tasks x 1 OpenMP threads

Minimization stats:
  Stopping criterion = energy tolerance
  Energy initial, next-to-last, final = 
     -1152449.34436002  -1152449.34522415  -1152449.34522415
  Force two-norm initial, final = 0.12292076 7.7986367e-05
  Force max component initial, final = 0.044878287 1.3596701e-05
  Final line search alpha, max atom move = 1.0000000 1.3596701e-05
  Iterations, force evaluations = 200 400

MPI task timing breakdown:
Section |  min time  |  avg time  |  max time  |%varavg| %total
---------------------------------------------------------------
Pair    | 0.60383    | 1.6777     | 2.1755     |  34.9 | 72.30
Neigh   | 0          | 0          | 0          |   0.0 |  0.00
Comm    | 0.034706   | 0.37682    | 1.1216     |  51.2 | 16.24
Output  | 0.00024154 | 0.00024491 | 0.00040027 |   0.0 |  0.01
Modify  | 2.4164e-05 | 0.0033025  | 0.0070724  |   2.7 |  0.14
Other   |            | 0.2625     |            |       | 11.31

Nlocal:        2776.45 ave        3960 max           0 min
Histogram: 8 4 4 0 4 12 8 2 28 34
Nghost:        3879.01 ave        5424 max         232 min
Histogram: 8 0 8 0 16 0 8 8 16 40
Neighs:        79213.4 ave      115437 max           0 min
Histogram: 8 4 4 0 10 6 8 8 24 32

Total # of neighbors = 8238190
Ave neighs/atom = 28.530429
Neighbor list builds = 0
Dangerous builds = 0
The dot product: -2.73926671241392e-09
Setting atom values ...
  1 settings made for x
  1 settings made for y
  1 settings made for z
Setting up cg style minimization ...
  Unit style    : metal
  Current step  : 4123
Per MPI rank memory allocation (min/avg/max) = 5.441 | 5.816 | 6.074 Mbytes
Step PotEng KinEng TotEng v_fx v_fy v_fz 
    4123   -1152449.3            0   -1152449.3 -0.0065171127 0.0051425419 -0.014025676 
    4314   -1152449.3            0   -1152449.3 3.6417769e-07 -4.9959093e-06 4.4891321e-06 
Loop time of 2.20687 on 104 procs for 191 steps with 288751 atoms

99.9% CPU use with 104 MPI tasks x 1 OpenMP threads

Minimization stats:
  Stopping criterion = energy tolerance
  Energy initial, next-to-last, final = 
     -1152449.33953408  -1152449.34038701  -1152449.34038701
  Force two-norm initial, final = 0.12221339 9.0079559e-05
  Force max component initial, final = 0.044273346 4.9959093e-06
  Final line search alpha, max atom move = 1.0000000 4.9959093e-06
  Iterations, force evaluations = 191 382

MPI task timing breakdown:
Section |  min time  |  avg time  |  max time  |%varavg| %total
---------------------------------------------------------------
Pair    | 0.57977    | 1.6061     | 2.076      |  34.1 | 72.78
Neigh   | 0          | 0          | 0          |   0.0 |  0.00
Comm    | 0.036027   | 0.36029    | 1.0757     |  50.0 | 16.33
Output  | 0          | 0          | 0          |   0.0 |  0.00
Modify  | 2.3235e-05 | 0.0031531  | 0.006736   |   2.6 |  0.14
Other   |            | 0.2373     |            |       | 10.75

Nlocal:        2776.45 ave        3960 max           0 min
Histogram: 8 4 4 0 4 12 8 2 28 34
Nghost:        3878.99 ave        5424 max         232 min
Histogram: 8 0 8 0 16 0 8 8 16 40
Neighs:        79213.4 ave      115437 max           0 min
Histogram: 8 4 4 0 10 6 8 8 24 32

Total # of neighbors = 8238190
Ave neighs/atom = 28.530429
Neighbor list builds = 0
Dangerous builds = 0
The dot product: -2.84770855336858e-09
Setting atom values ...
  1 settings made for x
  1 settings made for y
  1 settings made for z
Setting up cg style minimization ...
  Unit style    : metal
  Current step  : 4314
Per MPI rank memory allocation (min/avg/max) = 5.441 | 5.816 | 6.074 Mbytes
Step PotEng KinEng TotEng v_fx v_fy v_fz 
    4314   -1152449.3            0   -1152449.3 -0.0060096061  0.004069345 -0.012427488 
    4494   -1152449.3            0   -1152449.3 -2.4330837e-05 -8.1929343e-06 -3.0844874e-05 
Loop time of 2.07646 on 104 procs for 180 steps with 288751 atoms

99.9% CPU use with 104 MPI tasks x 1 OpenMP threads

Minimization stats:
  Stopping criterion = energy tolerance
  Energy initial, next-to-last, final = 
     -1152449.33332421  -1152449.33417142  -1152449.33417142
  Force two-norm initial, final = 0.12187843 0.00013480317
  Force max component initial, final = 0.044128014 3.0844874e-05
  Final line search alpha, max atom move = 1.0000000 3.0844874e-05
  Iterations, force evaluations = 180 360

MPI task timing breakdown:
Section |  min time  |  avg time  |  max time  |%varavg| %total
---------------------------------------------------------------
Pair    | 0.54763    | 1.5101     | 1.9567     |  33.0 | 72.72
Neigh   | 0          | 0          | 0          |   0.0 |  0.00
Comm    | 0.033274   | 0.33825    | 1.0075     |  48.6 | 16.29
Output  | 0          | 0          | 0          |   0.0 |  0.00
Modify  | 2.1427e-05 | 0.002974   | 0.0063765  |   2.6 |  0.14
Other   |            | 0.2252     |            |       | 10.84

Nlocal:        2776.45 ave        3960 max           0 min
Histogram: 8 4 4 0 4 12 8 2 28 34
Nghost:        3879.03 ave        5424 max         232 min
Histogram: 8 0 8 0 16 0 8 8 16 40
Neighs:        79213.4 ave      115441 max           0 min
Histogram: 8 4 4 0 10 6 8 8 24 32

Total # of neighbors = 8238191
Ave neighs/atom = 28.530433
Neighbor list builds = 0
Dangerous builds = 0
The dot product: 8.4765295048798e-09
Setting atom values ...
  1 settings made for x
  1 settings made for y
  1 settings made for z
Setting up cg style minimization ...
  Unit style    : metal
  Current step  : 4494
Per MPI rank memory allocation (min/avg/max) = 5.441 | 5.816 | 6.074 Mbytes
Step PotEng KinEng TotEng v_fx v_fy v_fz 
    4494   -1152449.3            0   -1152449.3 -0.0057778407 0.0027020485 -0.011009664 
    4657   -1152449.3            0   -1152449.3 1.0981011e-05 1.1870683e-05 7.4716148e-06 
Loop time of 1.89044 on 104 procs for 163 steps with 288751 atoms

99.9% CPU use with 104 MPI tasks x 1 OpenMP threads

Minimization stats:
  Stopping criterion = energy tolerance
  Energy initial, next-to-last, final = 
     -1152449.32570788  -1152449.32655487  -1152449.32655487
  Force two-norm initial, final = 0.12193736 0.00024245975
  Force max component initial, final = 0.043948055 3.5653069e-05
  Final line search alpha, max atom move = 1.0000000 3.5653069e-05
  Iterations, force evaluations = 163 326

MPI task timing breakdown:
Section |  min time  |  avg time  |  max time  |%varavg| %total
---------------------------------------------------------------
Pair    | 0.49459    | 1.3723     | 1.7764     |  31.5 | 72.59
Neigh   | 0          | 0          | 0          |   0.0 |  0.00
Comm    | 0.029666   | 0.30712    | 0.92965    |  46.7 | 16.25
Output  | 0          | 0          | 0          |   0.0 |  0.00
Modify  | 1.9098e-05 | 0.0026948  | 0.0057548  |   2.4 |  0.14
Other   |            | 0.2083     |            |       | 11.02

Nlocal:        2776.45 ave        3960 max           0 min
Histogram: 8 4 4 0 4 12 8 2 28 34
Nghost:        3879.03 ave        5424 max         232 min
Histogram: 8 0 8 0 16 0 8 8 16 40
Neighs:        79213.4 ave      115445 max           0 min
Histogram: 8 4 4 0 10 6 8 8 24 32

Total # of neighbors = 8238190
Ave neighs/atom = 28.530429
Neighbor list builds = 0
Dangerous builds = 0
The dot product: -1.65312657686388e-09
Setting atom values ...
  1 settings made for x
  1 settings made for y
  1 settings made for z
Setting up cg style minimization ...
  Unit style    : metal
  Current step  : 4657
Per MPI rank memory allocation (min/avg/max) = 5.441 | 5.816 | 6.074 Mbytes
Step PotEng KinEng TotEng v_fx v_fy v_fz 
    4657   -1152449.3            0   -1152449.3 -0.0057761475 0.0010802865 -0.0097371088 
    4974   -1152449.3            0   -1152449.3 1.2582962e-07 9.9937087e-08 1.1428555e-07 
Loop time of 3.66061 on 104 procs for 317 steps with 288751 atoms

99.9% CPU use with 104 MPI tasks x 1 OpenMP threads

Minimization stats:
  Stopping criterion = energy tolerance
  Energy initial, next-to-last, final = 
     -1152449.31665386  -1152449.31750621  -1152449.31750621
  Force two-norm initial, final = 0.12230527 5.5205655e-07
  Force max component initial, final = 0.043789762 1.2582962e-07
  Final line search alpha, max atom move = 1.0000000 1.2582962e-07
  Iterations, force evaluations = 317 634

MPI task timing breakdown:
Section |  min time  |  avg time  |  max time  |%varavg| %total
---------------------------------------------------------------
Pair    | 0.95595    | 2.6576     | 3.4426     |  44.0 | 72.60
Neigh   | 0          | 0          | 0          |   0.0 |  0.00
Comm    | 0.062894   | 0.59395    | 1.7756     |  64.4 | 16.23
Output  | 0          | 0          | 0          |   0.0 |  0.00
Modify  | 3.7395e-05 | 0.0052258  | 0.011214   |   3.4 |  0.14
Other   |            | 0.4038     |            |       | 11.03

Nlocal:        2776.45 ave        3960 max           0 min
Histogram: 8 4 4 0 4 12 8 2 28 34
Nghost:        3879.01 ave        5424 max         232 min
Histogram: 8 0 8 0 16 0 8 8 16 40
Neighs:        79213.3 ave      115445 max           0 min
Histogram: 8 4 4 0 10 6 8 8 24 32

Total # of neighbors = 8238188
Ave neighs/atom = 28.530422
Neighbor list builds = 0
Dangerous builds = 0
The dot product: -4.05696399052626e-11
Setting up cg style minimization ...
  Unit style    : metal
  Current step  : 4974
Per MPI rank memory allocation (min/avg/max) = 5.441 | 5.816 | 6.074 Mbytes
Step PotEng KinEng TotEng v_fx v_fy v_fz 
    4974   -1152449.3            0   -1152449.3   0.37617997  -0.19385547  -0.24466079 
    5000   -1152449.4            0   -1152449.4 1.8721257e-05  0.001313034 -0.001680984 
    5284   -1152449.4            0   -1152449.4 -5.1237471e-07 4.3579128e-08 -1.2325345e-06 
Loop time of 3.5902 on 104 procs for 310 steps with 288751 atoms

99.9% CPU use with 104 MPI tasks x 1 OpenMP threads

Minimization stats:
  Stopping criterion = energy tolerance
  Energy initial, next-to-last, final = 
     -1152449.31750621  -1152449.35157334  -1152449.35157334
  Force two-norm initial, final = 0.48882534 5.1547951e-06
  Force max component initial, final = 0.37617997 1.2325345e-06
  Final line search alpha, max atom move = 1.0000000 1.2325345e-06
  Iterations, force evaluations = 310 620

MPI task timing breakdown:
Section |  min time  |  avg time  |  max time  |%varavg| %total
---------------------------------------------------------------
Pair    | 0.93584    | 2.6022     | 3.3822     |  43.3 | 72.48
Neigh   | 1.0202e-05 | 0.0029367  | 0.0042763  |   2.2 |  0.08
Comm    | 0.059689   | 0.58506    | 1.7384     |  63.8 | 16.30
Output  | 0.00015908 | 0.00016175 | 0.00028332 |   0.0 |  0.00
Modify  | 3.4338e-05 | 0.0033309  | 0.0085833  |   3.6 |  0.09
Other   |            | 0.3965     |            |       | 11.04

Nlocal:        2776.45 ave        3960 max           0 min
Histogram: 8 4 4 0 4 12 8 2 28 34
Nghost:        3879.01 ave        5424 max         232 min
Histogram: 8 0 8 0 16 0 8 8 16 40
Neighs:        79213.4 ave      115446 max           0 min
Histogram: 8 4 4 0 10 6 8 8 24 32

Total # of neighbors = 8238191
Ave neighs/atom = 28.530433
Neighbor list builds = 1
Dangerous builds = 0
