LAMMPS (29 Oct 2020)
OMP_NUM_THREADS environment is not set. Defaulting to 1 thread. (../comm.cpp:94)
  using 1 OpenMP thread(s) per MPI task
OMP_NUM_THREADS environment is not set. Defaulting to 1 thread. (../comm.cpp:94)
  using 1 OpenMP thread(s) per MPI task
Reading data file ...
  orthogonal box = (-122.39241 -121.13707 -37.090501) to (122.39241 121.13707 37.090501)
  13 by 4 by 2 MPI processor grid
  reading atoms ...
  288751 atoms
  read_data CPU = 0.385 seconds
199981 atoms in group inner
88770 atoms in group outer
1 atoms in group carbon
Neighbor list info ...
  update every 1 steps, delay 0 steps, check yes
  max neighbors/atom: 2000, page size: 100000
  master list distance cutoff = 5.6
  ghost atom cutoff = 5.6
  binsize = 2.8, bins = 88 87 27
  1 neighbor lists, perpetual/occasional/extra = 1 0 0
  (1) pair eam/alloy, perpetual
      attributes: half, newton on
      pair build: half/bin/atomonly/newton
      stencil: half/bin/3d/newton
      bin: standard
Setting up cg style minimization ...
  Unit style    : metal
  Current step  : 0
Per MPI rank memory allocation (min/avg/max) = 5.441 | 5.816 | 6.074 Mbytes
Step v_fx v_fy v_fz PotEng KinEng TotEng 
       0   -25.816239  -0.40745034    13.097731   -1152441.8            0   -1152441.8 
     253 -2.2401543e-05 -3.1250715e-06 2.2924604e-05     -1152449            0     -1152449 
Loop time of 2.95147 on 104 procs for 253 steps with 288751 atoms

99.8% CPU use with 104 MPI tasks x 1 OpenMP threads

Minimization stats:
  Stopping criterion = energy tolerance
  Energy initial, next-to-last, final = 
     -1152441.82201427  -1152448.97218899  -1152448.97218899
  Force two-norm initial, final = 47.220271 9.7544574e-05
  Force max component initial, final = 32.844188 2.3133374e-05
  Final line search alpha, max atom move = 1.0000000 2.3133374e-05
  Iterations, force evaluations = 253 502

MPI task timing breakdown:
Section |  min time  |  avg time  |  max time  |%varavg| %total
---------------------------------------------------------------
Pair    | 0.8012     | 2.1141     | 2.7321     |  38.2 | 71.63
Neigh   | 8.3254e-05 | 0.023556   | 0.034141   |   6.3 |  0.80
Comm    | 0.050628   | 0.47518    | 1.4197     |  57.6 | 16.10
Output  | 0          | 0          | 0          |   0.0 |  0.00
Modify  | 3.0521e-05 | 0.0027024  | 0.0069215  |   3.2 |  0.09
Other   |            | 0.3359     |            |       | 11.38

Nlocal:        2776.45 ave        3957 max           0 min
Histogram: 8 4 4 0 4 12 8 2 28 34
Nghost:        3879.11 ave        5424 max         232 min
Histogram: 8 0 8 0 16 0 8 8 16 40
Neighs:        79213.6 ave      115295 max           0 min
Histogram: 8 4 4 0 10 6 8 8 24 32

Total # of neighbors = 8238213
Ave neighs/atom = 28.530509
Neighbor list builds = 8
Dangerous builds = 0
Setting atom values ...
  1 settings made for x
  1 settings made for y
  1 settings made for z
Setting up cg style minimization ...
  Unit style    : metal
  Current step  : 253
Per MPI rank memory allocation (min/avg/max) = 5.441 | 5.816 | 6.074 Mbytes
Step PotEng KinEng TotEng v_fx v_fy v_fz 
     253     -1152449            0     -1152449 -0.0016657981 0.0028132135 0.0050279731 
     490     -1152449            0     -1152449 1.5292704e-06 3.4159509e-07 -2.1143339e-06 
Loop time of 2.76764 on 104 procs for 237 steps with 288751 atoms

99.9% CPU use with 104 MPI tasks x 1 OpenMP threads

Minimization stats:
  Stopping criterion = energy tolerance
  Energy initial, next-to-last, final = 
     -1152448.97154955  -1152448.97202172  -1152448.97202172
  Force two-norm initial, final = 0.087724715 1.8363310e-05
  Force max component initial, final = 0.041883308 2.4085950e-06
  Final line search alpha, max atom move = 1.0000000 2.4085950e-06
  Iterations, force evaluations = 237 474

MPI task timing breakdown:
Section |  min time  |  avg time  |  max time  |%varavg| %total
---------------------------------------------------------------
Pair    | 0.72581    | 2.0008     | 2.6092     |  38.1 | 72.29
Neigh   | 0          | 0          | 0          |   0.0 |  0.00
Comm    | 0.046722   | 0.44872    | 1.3588     |  56.8 | 16.21
Output  | 0          | 0          | 0          |   0.0 |  0.00
Modify  | 3.0379e-05 | 0.0039101  | 0.0083623  |   3.0 |  0.14
Other   |            | 0.3142     |            |       | 11.35

Nlocal:        2776.45 ave        3955 max           0 min
Histogram: 8 4 4 0 4 12 8 0 30 34
Nghost:        3879.16 ave        5424 max         232 min
Histogram: 8 0 8 0 16 0 8 8 16 40
Neighs:        79213.5 ave      115247 max           0 min
Histogram: 8 4 4 0 10 6 8 8 24 32

Total # of neighbors = 8238206
Ave neighs/atom = 28.530485
Neighbor list builds = 0
Dangerous builds = 0
Setting atom values ...
  1 settings made for x
  1 settings made for y
  1 settings made for z
Setting up cg style minimization ...
  Unit style    : metal
  Current step  : 490
Per MPI rank memory allocation (min/avg/max) = 5.441 | 5.816 | 6.074 Mbytes
Step PotEng KinEng TotEng v_fx v_fy v_fz 
     490     -1152449            0     -1152449 0.0058063424  0.019716546  0.001919438 
     751     -1152449            0     -1152449 -1.4295538e-05 -2.3222124e-06 1.3482753e-05 
Loop time of 3.01217 on 104 procs for 261 steps with 288751 atoms

99.9% CPU use with 104 MPI tasks x 1 OpenMP threads

Minimization stats:
  Stopping criterion = energy tolerance
  Energy initial, next-to-last, final = 
     -1152448.96937487   -1152448.9710953   -1152448.9710953
  Force two-norm initial, final = 0.15684485 5.4144632e-05
  Force max component initial, final = 0.089795998 1.5516689e-05
  Final line search alpha, max atom move = 1.0000000 1.5516689e-05
  Iterations, force evaluations = 261 522

MPI task timing breakdown:
Section |  min time  |  avg time  |  max time  |%varavg| %total
---------------------------------------------------------------
Pair    | 0.79777    | 2.185      | 2.8448     |  39.8 | 72.54
Neigh   | 0          | 0          | 0          |   0.0 |  0.00
Comm    | 0.055305   | 0.48934    | 1.4821     |  59.2 | 16.25
Output  | 0          | 0          | 0          |   0.0 |  0.00
Modify  | 3.0934e-05 | 0.0042917  | 0.0091889  |   3.1 |  0.14
Other   |            | 0.3335     |            |       | 11.07

Nlocal:        2776.45 ave        3955 max           0 min
Histogram: 8 4 4 0 4 12 8 0 30 34
Nghost:        3879.16 ave        5424 max         232 min
Histogram: 8 0 8 0 16 0 8 8 16 40
Neighs:        79213.5 ave      115247 max           0 min
Histogram: 8 4 4 0 10 6 8 8 24 32

Total # of neighbors = 8238203
Ave neighs/atom = 28.530474
Neighbor list builds = 0
Dangerous builds = 0
The dot product: 1.71519719827884e-07
Setting atom values ...
  1 settings made for x
  1 settings made for y
  1 settings made for z
Setting up cg style minimization ...
  Unit style    : metal
  Current step  : 751
Per MPI rank memory allocation (min/avg/max) = 5.441 | 5.816 | 6.074 Mbytes
Step PotEng KinEng TotEng v_fx v_fy v_fz 
     751     -1152449            0     -1152449  0.015965732  0.033565774 -0.0042362694 
    1000     -1152449            0     -1152449 -6.7659132e-06 -3.5631077e-07 3.6630197e-06 
    1094     -1152449            0     -1152449 -2.4653163e-07 -1.2817965e-08 1.3349279e-07 
Loop time of 4.00541 on 104 procs for 343 steps with 288751 atoms

99.9% CPU use with 104 MPI tasks x 1 OpenMP threads

Minimization stats:
  Stopping criterion = energy tolerance
  Energy initial, next-to-last, final = 
     -1152448.96765443  -1152448.96947541  -1152448.96947541
  Force two-norm initial, final = 0.16325799 7.0185235e-07
  Force max component initial, final = 0.096681705 2.4653163e-07
  Final line search alpha, max atom move = 1.0000000 2.4653163e-07
  Iterations, force evaluations = 343 686

MPI task timing breakdown:
Section |  min time  |  avg time  |  max time  |%varavg| %total
---------------------------------------------------------------
Pair    | 1.0503     | 2.8915     | 3.7407     |  45.8 | 72.19
Neigh   | 0          | 0          | 0          |   0.0 |  0.00
Comm    | 0.066828   | 0.6539     | 1.9601     |  68.0 | 16.33
Output  | 0.00016438 | 0.00017307 | 0.00033951 |   0.0 |  0.00
Modify  | 4.25e-05   | 0.0056435  | 0.01206    |   3.5 |  0.14
Other   |            | 0.4542     |            |       | 11.34

Nlocal:        2776.45 ave        3956 max           0 min
Histogram: 8 4 4 0 4 12 8 0 30 34
Nghost:        3879.20 ave        5424 max         232 min
Histogram: 8 0 8 0 16 0 8 8 16 40
Neighs:        79213.5 ave      115267 max           0 min
Histogram: 8 4 4 0 10 6 8 8 24 32

Total # of neighbors = 8238201
Ave neighs/atom = 28.530467
Neighbor list builds = 0
Dangerous builds = 0
The dot product: 2.75573204532522e-09
Setting atom values ...
  1 settings made for x
  1 settings made for y
  1 settings made for z
Setting up cg style minimization ...
  Unit style    : metal
  Current step  : 1094
Per MPI rank memory allocation (min/avg/max) = 5.441 | 5.816 | 6.074 Mbytes
Step PotEng KinEng TotEng v_fx v_fy v_fz 
    1094     -1152449            0     -1152449  0.028927422  0.038016877 -0.0087271995 
    1262     -1152449            0     -1152449 4.9788388e-05 3.0419483e-06 -1.6167779e-05 
Loop time of 1.94988 on 104 procs for 168 steps with 288751 atoms

99.9% CPU use with 104 MPI tasks x 1 OpenMP threads

Minimization stats:
  Stopping criterion = energy tolerance
  Energy initial, next-to-last, final = 
     -1152448.96521395  -1152448.96758263  -1152448.96758263
  Force two-norm initial, final = 0.1729033 0.00016658936
  Force max component initial, final = 0.095778053 4.9788388e-05
  Final line search alpha, max atom move = 1.0000000 4.9788388e-05
  Iterations, force evaluations = 168 336

MPI task timing breakdown:
Section |  min time  |  avg time  |  max time  |%varavg| %total
---------------------------------------------------------------
Pair    | 0.5115     | 1.4094     | 1.8254     |  31.8 | 72.28
Neigh   | 0          | 0          | 0          |   0.0 |  0.00
Comm    | 0.035917   | 0.31796    | 0.95285    |  47.2 | 16.31
Output  | 0          | 0          | 0          |   0.0 |  0.00
Modify  | 2.0071e-05 | 0.0027638  | 0.0059019  |   2.5 |  0.14
Other   |            | 0.2198     |            |       | 11.27

Nlocal:        2776.45 ave        3957 max           0 min
Histogram: 8 4 4 0 4 12 8 2 28 34
Nghost:        3879.22 ave        5424 max         232 min
Histogram: 8 0 8 0 16 0 8 8 16 40
Neighs:        79213.5 ave      115305 max           0 min
Histogram: 8 4 4 0 10 6 8 8 24 32

Total # of neighbors = 8238206
Ave neighs/atom = 28.530485
Neighbor list builds = 0
Dangerous builds = 0
The dot product: -1.22070440138021e-06
Setting atom values ...
  1 settings made for x
  1 settings made for y
  1 settings made for z
Setting up cg style minimization ...
  Unit style    : metal
  Current step  : 1262
Per MPI rank memory allocation (min/avg/max) = 5.441 | 5.816 | 6.074 Mbytes
Step PotEng KinEng TotEng v_fx v_fy v_fz 
    1262     -1152449            0     -1152449  0.034741363  0.034114737 -0.00096588748 
    1411     -1152449            0     -1152449 9.5190519e-06 -6.0866285e-08 -8.4548776e-08 
Loop time of 1.7217 on 104 procs for 149 steps with 288751 atoms

99.9% CPU use with 104 MPI tasks x 1 OpenMP threads

Minimization stats:
  Stopping criterion = energy tolerance
  Energy initial, next-to-last, final = 
     -1152448.96331152  -1152448.96592459  -1152448.96592459
  Force two-norm initial, final = 0.19175753 0.0001055201
  Force max component initial, final = 0.082600294 2.9860108e-05
  Final line search alpha, max atom move = 1.0000000 2.9860108e-05
  Iterations, force evaluations = 149 298

MPI task timing breakdown:
Section |  min time  |  avg time  |  max time  |%varavg| %total
---------------------------------------------------------------
Pair    | 0.45705    | 1.2545     | 1.6312     |  30.1 | 72.87
Neigh   | 0          | 0          | 0          |   0.0 |  0.00
Comm    | 0.030678   | 0.27829    | 0.84529    |  45.1 | 16.16
Output  | 0          | 0          | 0          |   0.0 |  0.00
Modify  | 1.8021e-05 | 0.0024521  | 0.0052239  |   2.3 |  0.14
Other   |            | 0.1864     |            |       | 10.83

Nlocal:        2776.45 ave        3958 max           0 min
Histogram: 8 4 4 0 4 12 8 2 28 34
Nghost:        3879.18 ave        5424 max         232 min
Histogram: 8 0 8 0 16 0 8 8 16 40
Neighs:        79213.6 ave      115347 max           0 min
Histogram: 8 4 4 0 10 6 8 8 24 32

Total # of neighbors = 8238213
Ave neighs/atom = 28.530509
Neighbor list builds = 0
Dangerous builds = 0
The dot product: -1.44866838955212e-07
Setting atom values ...
  1 settings made for x
  1 settings made for y
  1 settings made for z
Setting up cg style minimization ...
  Unit style    : metal
  Current step  : 1411
Per MPI rank memory allocation (min/avg/max) = 5.441 | 5.816 | 6.074 Mbytes
Step PotEng KinEng TotEng v_fx v_fy v_fz 
    1411     -1152449            0     -1152449  0.047383312   0.03217172 0.0060314257 
    1604     -1152449            0     -1152449 -3.123407e-05 -1.3888031e-06 -4.5258871e-06 
Loop time of 2.22128 on 104 procs for 193 steps with 288751 atoms

99.9% CPU use with 104 MPI tasks x 1 OpenMP threads

Minimization stats:
  Stopping criterion = energy tolerance
  Energy initial, next-to-last, final = 
     -1152448.96135247  -1152448.96446095  -1152448.96446095
  Force two-norm initial, final = 0.20501949 0.00026301463
  Force max component initial, final = 0.098979779 8.8941323e-05
  Final line search alpha, max atom move = 1.0000000 8.8941323e-05
  Iterations, force evaluations = 193 386

MPI task timing breakdown:
Section |  min time  |  avg time  |  max time  |%varavg| %total
---------------------------------------------------------------
Pair    | 0.58662    | 1.6137     | 2.0962     |  34.2 | 72.65
Neigh   | 0          | 0          | 0          |   0.0 |  0.00
Comm    | 0.036712   | 0.36017    | 1.083      |  51.0 | 16.21
Output  | 0          | 0          | 0          |   0.0 |  0.00
Modify  | 2.627e-05  | 0.003172   | 0.0067561  |   2.7 |  0.14
Other   |            | 0.2443     |            |       | 11.00

Nlocal:        2776.45 ave        3958 max           0 min
Histogram: 8 4 4 0 4 12 8 2 28 34
Nghost:        3879.18 ave        5424 max         232 min
Histogram: 8 0 8 0 16 0 8 8 16 40
Neighs:        79213.6 ave      115360 max           0 min
Histogram: 8 4 4 0 10 6 8 8 24 32

Total # of neighbors = 8238215
Ave neighs/atom = 28.530516
Neighbor list builds = 0
Dangerous builds = 0
The dot product: 3.86116987107738e-07
Setting atom values ...
  1 settings made for x
  1 settings made for y
  1 settings made for z
Setting up cg style minimization ...
  Unit style    : metal
  Current step  : 1604
Per MPI rank memory allocation (min/avg/max) = 5.441 | 5.816 | 6.074 Mbytes
Step PotEng KinEng TotEng v_fx v_fy v_fz 
    1604     -1152449            0     -1152449  0.052741031  0.030257384  0.012604135 
    1765     -1152449            0     -1152449 1.8866249e-05 1.8596165e-06 4.7188004e-06 
Loop time of 1.8661 on 104 procs for 161 steps with 288751 atoms

99.9% CPU use with 104 MPI tasks x 1 OpenMP threads

Minimization stats:
  Stopping criterion = energy tolerance
  Energy initial, next-to-last, final = 
     -1152448.96033275  -1152448.96295233  -1152448.96295233
  Force two-norm initial, final = 0.21448729 0.00016502107
  Force max component initial, final = 0.10957514 4.5263792e-05
  Final line search alpha, max atom move = 1.0000000 4.5263792e-05
  Iterations, force evaluations = 161 322

MPI task timing breakdown:
Section |  min time  |  avg time  |  max time  |%varavg| %total
---------------------------------------------------------------
Pair    | 0.49311    | 1.3549     | 1.7614     |  31.3 | 72.60
Neigh   | 0          | 0          | 0          |   0.0 |  0.00
Comm    | 0.034481   | 0.30056    | 0.91268    |  47.1 | 16.11
Output  | 0          | 0          | 0          |   0.0 |  0.00
Modify  | 1.8973e-05 | 0.00265    | 0.0056528  |   2.4 |  0.14
Other   |            | 0.208      |            |       | 11.15

Nlocal:        2776.45 ave        3959 max           0 min
Histogram: 8 4 4 0 4 12 8 2 28 34
Nghost:        3879.05 ave        5424 max         232 min
Histogram: 8 0 8 0 16 0 8 8 16 40
Neighs:        79213.6 ave      115392 max           0 min
Histogram: 8 4 4 0 10 6 8 8 24 32

Total # of neighbors = 8238214
Ave neighs/atom = 28.530512
Neighbor list builds = 0
Dangerous builds = 0
The dot product: 1.53140521851404e-08
Setting atom values ...
  1 settings made for x
  1 settings made for y
  1 settings made for z
Setting up cg style minimization ...
  Unit style    : metal
  Current step  : 1765
Per MPI rank memory allocation (min/avg/max) = 5.441 | 5.816 | 6.074 Mbytes
Step PotEng KinEng TotEng v_fx v_fy v_fz 
    1765     -1152449            0     -1152449  0.062120786    0.0325794  0.014304655 
    1968     -1152449            0     -1152449 1.4709388e-05 1.1493912e-06 3.6008305e-06 
Loop time of 2.33758 on 104 procs for 203 steps with 288751 atoms

99.9% CPU use with 104 MPI tasks x 1 OpenMP threads

Minimization stats:
  Stopping criterion = energy tolerance
  Energy initial, next-to-last, final = 
     -1152448.95832008  -1152448.96079067  -1152448.96079067
  Force two-norm initial, final = 0.21719529 8.5002030e-05
  Force max component initial, final = 0.11005528 2.6292034e-05
  Final line search alpha, max atom move = 1.0000000 2.6292034e-05
  Iterations, force evaluations = 203 406

MPI task timing breakdown:
Section |  min time  |  avg time  |  max time  |%varavg| %total
---------------------------------------------------------------
Pair    | 0.61687    | 1.6997     | 2.205      |  35.0 | 72.71
Neigh   | 0          | 0          | 0          |   0.0 |  0.00
Comm    | 0.038467   | 0.37796    | 1.145      |  52.5 | 16.17
Output  | 0          | 0          | 0          |   0.0 |  0.00
Modify  | 2.4229e-05 | 0.003346   | 0.0072573  |   2.7 |  0.14
Other   |            | 0.2566     |            |       | 10.98

Nlocal:        2776.45 ave        3960 max           0 min
Histogram: 8 4 4 0 4 12 8 2 28 34
Nghost:        3879.09 ave        5424 max         232 min
Histogram: 8 0 8 0 16 0 8 8 16 40
Neighs:        79213.6 ave      115410 max           0 min
Histogram: 8 4 4 0 10 6 8 8 24 32

Total # of neighbors = 8238212
Ave neighs/atom = 28.530506
Neighbor list builds = 0
Dangerous builds = 0
The dot product: 7.82627680845151e-08
Setting atom values ...
  1 settings made for x
  1 settings made for y
  1 settings made for z
Setting up cg style minimization ...
  Unit style    : metal
  Current step  : 1968
Per MPI rank memory allocation (min/avg/max) = 5.441 | 5.816 | 6.074 Mbytes
Step PotEng KinEng TotEng v_fx v_fy v_fz 
    1968     -1152449            0     -1152449  0.069455528  0.034998056  0.013301355 
    2000     -1152449            0     -1152449 -0.00052016507 8.2603326e-05 -0.00011517653 
    2158     -1152449            0     -1152449 -2.416821e-05 -1.6669065e-06 -5.1029077e-06 
Loop time of 2.19113 on 104 procs for 190 steps with 288751 atoms

99.9% CPU use with 104 MPI tasks x 1 OpenMP threads

Minimization stats:
  Stopping criterion = energy tolerance
  Energy initial, next-to-last, final = 
     -1152448.95556587  -1152448.95816668  -1152448.95816668
  Force two-norm initial, final = 0.21717755 0.00015734182
  Force max component initial, final = 0.10763679 5.0320742e-05
  Final line search alpha, max atom move = 1.0000000 5.0320742e-05
  Iterations, force evaluations = 190 380

MPI task timing breakdown:
Section |  min time  |  avg time  |  max time  |%varavg| %total
---------------------------------------------------------------
Pair    | 0.58003    | 1.602      | 2.0785     |  34.1 | 73.11
Neigh   | 0          | 0          | 0          |   0.0 |  0.00
Comm    | 0.033971   | 0.35823    | 1.0788     |  51.1 | 16.35
Output  | 9.4872e-05 | 0.00010149 | 0.00018427 |   0.0 |  0.00
Modify  | 2.2455e-05 | 0.003122   | 0.0066667  |   2.6 |  0.14
Other   |            | 0.2276     |            |       | 10.39

Nlocal:        2776.45 ave        3960 max           0 min
Histogram: 8 4 4 0 4 12 8 2 28 34
Nghost:        3879.12 ave        5424 max         232 min
Histogram: 8 0 8 0 16 0 8 8 16 40
Neighs:        79213.5 ave      115409 max           0 min
Histogram: 8 4 4 0 10 6 8 8 24 32

Total # of neighbors = 8238208
Ave neighs/atom = 28.530492
Neighbor list builds = 0
Dangerous builds = 0
The dot product: -1.0714433142692e-07
Setting atom values ...
  1 settings made for x
  1 settings made for y
  1 settings made for z
Setting up cg style minimization ...
  Unit style    : metal
  Current step  : 2158
Per MPI rank memory allocation (min/avg/max) = 5.441 | 5.816 | 6.074 Mbytes
Step PotEng KinEng TotEng v_fx v_fy v_fz 
    2158     -1152449            0     -1152449  0.072346835  0.036774938  0.011619636 
    2365     -1152449            0     -1152449 1.4495679e-05 1.0924957e-06 2.6911331e-06 
Loop time of 2.37846 on 104 procs for 207 steps with 288751 atoms

99.9% CPU use with 104 MPI tasks x 1 OpenMP threads

Minimization stats:
  Stopping criterion = energy tolerance
  Energy initial, next-to-last, final = 
     -1152448.95265498  -1152448.95496671  -1152448.95496671
  Force two-norm initial, final = 0.21630788 8.9382466e-05
  Force max component initial, final = 0.10556019 2.7136385e-05
  Final line search alpha, max atom move = 1.0000000 2.7136385e-05
  Iterations, force evaluations = 207 414

MPI task timing breakdown:
Section |  min time  |  avg time  |  max time  |%varavg| %total
---------------------------------------------------------------
Pair    | 0.63272    | 1.7353     | 2.2536     |  35.5 | 72.96
Neigh   | 0          | 0          | 0          |   0.0 |  0.00
Comm    | 0.037807   | 0.38789    | 1.18       |  53.0 | 16.31
Output  | 0          | 0          | 0          |   0.0 |  0.00
Modify  | 2.5225e-05 | 0.0034051  | 0.007305   |   2.8 |  0.14
Other   |            | 0.2519     |            |       | 10.59

Nlocal:        2776.45 ave        3960 max           0 min
Histogram: 8 4 4 0 4 12 8 2 28 34
Nghost:        3879.14 ave        5424 max         232 min
Histogram: 8 0 8 0 16 0 8 8 16 40
Neighs:        79213.5 ave      115412 max           0 min
Histogram: 8 4 4 0 10 6 8 8 24 32

Total # of neighbors = 8238204
Ave neighs/atom = 28.530478
Neighbor list builds = 0
Dangerous builds = 0
The dot product: 9.41551124779566e-08
Setting atom values ...
  1 settings made for x
  1 settings made for y
  1 settings made for z
Setting up cg style minimization ...
  Unit style    : metal
  Current step  : 2365
Per MPI rank memory allocation (min/avg/max) = 5.441 | 5.816 | 6.074 Mbytes
Step PotEng KinEng TotEng v_fx v_fy v_fz 
    2365   -1152448.9            0   -1152448.9  0.077429662  0.038798553 0.0094598041 
    2529     -1152449            0     -1152449 4.175441e-05 6.1022126e-06 6.1637992e-06 
Loop time of 1.89723 on 104 procs for 164 steps with 288751 atoms

99.9% CPU use with 104 MPI tasks x 1 OpenMP threads

Minimization stats:
  Stopping criterion = energy tolerance
  Energy initial, next-to-last, final = 
     -1152448.94873326  -1152448.95097364  -1152448.95097364
  Force two-norm initial, final = 0.21543403 0.0002082039
  Force max component initial, final = 0.10258967 4.8202509e-05
  Final line search alpha, max atom move = 1.0000000 4.8202509e-05
  Iterations, force evaluations = 164 328

MPI task timing breakdown:
Section |  min time  |  avg time  |  max time  |%varavg| %total
---------------------------------------------------------------
Pair    | 0.50186    | 1.3806     | 1.7995     |  31.6 | 72.77
Neigh   | 0          | 0          | 0          |   0.0 |  0.00
Comm    | 0.029727   | 0.31004    | 0.9393     |  47.3 | 16.34
Output  | 0          | 0          | 0          |   0.0 |  0.00
Modify  | 1.9459e-05 | 0.0027004  | 0.0057556  |   2.5 |  0.14
Other   |            | 0.2039     |            |       | 10.75

Nlocal:        2776.45 ave        3960 max           0 min
Histogram: 8 4 4 0 4 12 8 2 28 34
Nghost:        3879.11 ave        5424 max         232 min
Histogram: 8 0 8 0 16 0 8 8 16 40
Neighs:        79213.5 ave      115425 max           0 min
Histogram: 8 4 4 0 10 6 8 8 24 32

Total # of neighbors = 8238200
Ave neighs/atom = 28.530464
Neighbor list builds = 0
Dangerous builds = 0
The dot product: 3.37411387595997e-07
Setting atom values ...
  1 settings made for x
  1 settings made for y
  1 settings made for z
Setting up cg style minimization ...
  Unit style    : metal
  Current step  : 2529
Per MPI rank memory allocation (min/avg/max) = 5.441 | 5.816 | 6.074 Mbytes
Step PotEng KinEng TotEng v_fx v_fy v_fz 
    2529   -1152448.9            0   -1152448.9  0.081657783  0.040056261 0.0066394811 
    2711   -1152448.9            0   -1152448.9 -2.880877e-07 4.7441751e-07 -7.5640133e-08 
Loop time of 2.10463 on 104 procs for 182 steps with 288751 atoms

99.9% CPU use with 104 MPI tasks x 1 OpenMP threads

Minimization stats:
  Stopping criterion = energy tolerance
  Energy initial, next-to-last, final = 
     -1152448.94402692  -1152448.94623675  -1152448.94623675
  Force two-norm initial, final = 0.21386767 0.00011303039
  Force max component initial, final = 0.098662535 1.0779472e-05
  Final line search alpha, max atom move = 1.0000000 1.0779472e-05
  Iterations, force evaluations = 182 364

MPI task timing breakdown:
Section |  min time  |  avg time  |  max time  |%varavg| %total
---------------------------------------------------------------
Pair    | 0.55381    | 1.5223     | 1.978      |  33.2 | 72.33
Neigh   | 0          | 0          | 0          |   0.0 |  0.00
Comm    | 0.033297   | 0.34242    | 1.0243     |  49.1 | 16.27
Output  | 0          | 0          | 0          |   0.0 |  0.00
Modify  | 2.2924e-05 | 0.0029985  | 0.0063834  |   2.6 |  0.14
Other   |            | 0.2369     |            |       | 11.26

Nlocal:        2776.45 ave        3961 max           0 min
Histogram: 8 4 4 0 6 10 8 2 28 34
Nghost:        3879.12 ave        5424 max         232 min
Histogram: 8 0 8 0 16 0 8 8 16 40
Neighs:        79213.5 ave      115473 max           0 min
Histogram: 8 4 4 0 10 6 8 8 24 32

Total # of neighbors = 8238209
Ave neighs/atom = 28.530495
Neighbor list builds = 0
Dangerous builds = 0
The dot product: -9.98833744793186e-10
Setting atom values ...
  1 settings made for x
  1 settings made for y
  1 settings made for z
Setting up cg style minimization ...
  Unit style    : metal
  Current step  : 2711
Per MPI rank memory allocation (min/avg/max) = 5.441 | 5.816 | 6.074 Mbytes
Step PotEng KinEng TotEng v_fx v_fy v_fz 
    2711   -1152448.9            0   -1152448.9  0.084348671  0.040780223 0.0034706371 
    2859   -1152448.9            0   -1152448.9 3.9209372e-05 5.4806353e-06 2.9219469e-06 
Loop time of 1.725 on 104 procs for 148 steps with 288751 atoms

99.9% CPU use with 104 MPI tasks x 1 OpenMP threads

Minimization stats:
  Stopping criterion = energy tolerance
  Energy initial, next-to-last, final = 
     -1152448.93862924  -1152448.94072169  -1152448.94072169
  Force two-norm initial, final = 0.21165052 0.00027067975
  Force max component initial, final = 0.094219146 5.5413162e-05
  Final line search alpha, max atom move = 1.0000000 5.5413162e-05
  Iterations, force evaluations = 148 296

MPI task timing breakdown:
Section |  min time  |  avg time  |  max time  |%varavg| %total
---------------------------------------------------------------
Pair    | 0.45364    | 1.245      | 1.6195     |  30.0 | 72.17
Neigh   | 0          | 0          | 0          |   0.0 |  0.00
Comm    | 0.036925   | 0.27885    | 0.83899    |  44.8 | 16.17
Output  | 0          | 0          | 0          |   0.0 |  0.00
Modify  | 1.792e-05  | 0.0024351  | 0.0051684  |   2.3 |  0.14
Other   |            | 0.1987     |            |       | 11.52

Nlocal:        2776.45 ave        3961 max           0 min
Histogram: 8 4 4 0 6 10 8 2 28 34
Nghost:        3879.14 ave        5424 max         232 min
Histogram: 8 0 8 0 16 0 8 8 16 40
Neighs:        79213.5 ave      115471 max           0 min
Histogram: 8 4 4 0 10 6 8 8 24 32

Total # of neighbors = 8238204
Ave neighs/atom = 28.530478
Neighbor list builds = 0
Dangerous builds = 0
The dot product: 3.03783772556733e-07
Setting atom values ...
  1 settings made for x
  1 settings made for y
  1 settings made for z
Setting up cg style minimization ...
  Unit style    : metal
  Current step  : 2859
Per MPI rank memory allocation (min/avg/max) = 5.441 | 5.816 | 6.074 Mbytes
Step PotEng KinEng TotEng v_fx v_fy v_fz 
    2859   -1152448.9            0   -1152448.9  0.084438266  0.041839314 0.00043195425 
    3000   -1152448.9            0   -1152448.9 -3.4688756e-05 -2.9340058e-06 -1.7573159e-06 
    3017   -1152448.9            0   -1152448.9 -5.8816308e-05 -1.0915636e-05 -2.321154e-06 
Loop time of 1.82583 on 104 procs for 158 steps with 288751 atoms

99.9% CPU use with 104 MPI tasks x 1 OpenMP threads

Minimization stats:
  Stopping criterion = energy tolerance
  Energy initial, next-to-last, final = 
     -1152448.93236667  -1152448.93437298  -1152448.93437298
  Force two-norm initial, final = 0.20932863 0.00020033101
  Force max component initial, final = 0.090352927 6.8488329e-05
  Final line search alpha, max atom move = 1.0000000 6.8488329e-05
  Iterations, force evaluations = 158 316

MPI task timing breakdown:
Section |  min time  |  avg time  |  max time  |%varavg| %total
---------------------------------------------------------------
Pair    | 0.48201    | 1.3214     | 1.7222     |  30.9 | 72.37
Neigh   | 0          | 0          | 0          |   0.0 |  0.00
Comm    | 0.028743   | 0.29522    | 0.89004    |  46.2 | 16.17
Output  | 0.00013241 | 0.00014212 | 0.00028445 |   0.0 |  0.01
Modify  | 1.8829e-05 | 0.0026004  | 0.0055843  |   2.4 |  0.14
Other   |            | 0.2065     |            |       | 11.31

Nlocal:        2776.45 ave        3961 max           0 min
Histogram: 8 4 4 0 6 10 8 2 28 34
Nghost:        3879.12 ave        5424 max         232 min
Histogram: 8 0 8 0 16 0 8 8 16 40
Neighs:        79213.5 ave      115472 max           0 min
Histogram: 8 4 4 0 10 6 8 8 24 32

Total # of neighbors = 8238201
Ave neighs/atom = 28.530467
Neighbor list builds = 0
Dangerous builds = 0
The dot product: -4.14035627739389e-07
Setting atom values ...
  1 settings made for x
  1 settings made for y
  1 settings made for z
Setting up cg style minimization ...
  Unit style    : metal
  Current step  : 3017
Per MPI rank memory allocation (min/avg/max) = 5.441 | 5.816 | 6.074 Mbytes
Step PotEng KinEng TotEng v_fx v_fy v_fz 
    3017   -1152448.9            0   -1152448.9  0.083528806  0.038333157 -0.0016906675 
    3189   -1152448.9            0   -1152448.9 -1.8273674e-05 -2.2959487e-06 -3.9661699e-07 
Loop time of 1.98288 on 104 procs for 172 steps with 288751 atoms

99.9% CPU use with 104 MPI tasks x 1 OpenMP threads

Minimization stats:
  Stopping criterion = energy tolerance
  Energy initial, next-to-last, final = 
     -1152448.92517433  -1152448.92707984  -1152448.92707984
  Force two-norm initial, final = 0.20590964 0.0001123766
  Force max component initial, final = 0.086862893 1.8302907e-05
  Final line search alpha, max atom move = 1.0000000 1.8302907e-05
  Iterations, force evaluations = 172 344

MPI task timing breakdown:
Section |  min time  |  avg time  |  max time  |%varavg| %total
---------------------------------------------------------------
Pair    | 0.52423    | 1.4452     | 1.8722     |  32.3 | 72.88
Neigh   | 0          | 0          | 0          |   0.0 |  0.00
Comm    | 0.032549   | 0.32072    | 0.96991    |  48.6 | 16.17
Output  | 0          | 0          | 0          |   0.0 |  0.00
Modify  | 2.0356e-05 | 0.0028304  | 0.0060577  |   2.5 |  0.14
Other   |            | 0.2141     |            |       | 10.80

Nlocal:        2776.45 ave        3961 max           0 min
Histogram: 8 4 4 0 6 10 8 2 28 34
Nghost:        3879.14 ave        5424 max         232 min
Histogram: 8 0 8 0 16 0 8 8 16 40
Neighs:        79213.5 ave      115476 max           0 min
Histogram: 8 4 4 0 10 6 8 8 24 32

Total # of neighbors = 8238200
Ave neighs/atom = 28.530464
Neighbor list builds = 0
Dangerous builds = 0
The dot product: -1.09531060500197e-07
Setting atom values ...
  1 settings made for x
  1 settings made for y
  1 settings made for z
Setting up cg style minimization ...
  Unit style    : metal
  Current step  : 3189
Per MPI rank memory allocation (min/avg/max) = 5.441 | 5.816 | 6.074 Mbytes
Step PotEng KinEng TotEng v_fx v_fy v_fz 
    3189   -1152448.9            0   -1152448.9  0.082859835   0.02823995 -0.002307684 
    3348   -1152448.9            0   -1152448.9 8.4440734e-06 -8.4997402e-07 2.7467926e-07 
Loop time of 1.82602 on 104 procs for 159 steps with 288751 atoms

99.9% CPU use with 104 MPI tasks x 1 OpenMP threads

Minimization stats:
  Stopping criterion = energy tolerance
  Energy initial, next-to-last, final = 
     -1152448.91671712  -1152448.91858897  -1152448.91858897
  Force two-norm initial, final = 0.2025394 0.00016962923
  Force max component initial, final = 0.08420575 2.0070445e-05
  Final line search alpha, max atom move = 1.0000000 2.0070445e-05
  Iterations, force evaluations = 159 318

MPI task timing breakdown:
Section |  min time  |  avg time  |  max time  |%varavg| %total
---------------------------------------------------------------
Pair    | 0.48333    | 1.3281     | 1.7309     |  31.0 | 72.73
Neigh   | 0          | 0          | 0          |   0.0 |  0.00
Comm    | 0.030031   | 0.2956     | 0.89115    |  46.4 | 16.19
Output  | 0          | 0          | 0          |   0.0 |  0.00
Modify  | 1.8764e-05 | 0.0026159  | 0.0056067  |   2.4 |  0.14
Other   |            | 0.1997     |            |       | 10.94

Nlocal:        2776.45 ave        3961 max           0 min
Histogram: 8 4 4 0 6 10 8 2 28 34
Nghost:        3879.14 ave        5424 max         232 min
Histogram: 8 0 8 0 16 0 8 8 16 40
Neighs:        79213.4 ave      115476 max           0 min
Histogram: 8 4 4 0 10 6 8 8 24 32

Total # of neighbors = 8238198
Ave neighs/atom = 28.530457
Neighbor list builds = 0
Dangerous builds = 0
The dot product: 4.03044474862582e-08
Setting atom values ...
  1 settings made for x
  1 settings made for y
  1 settings made for z
Setting up cg style minimization ...
  Unit style    : metal
  Current step  : 3348
Per MPI rank memory allocation (min/avg/max) = 5.441 | 5.816 | 6.074 Mbytes
Step PotEng KinEng TotEng v_fx v_fy v_fz 
    3348   -1152448.9            0   -1152448.9  0.082475992  0.021494596 -0.0027569351 
    3505   -1152448.9            0   -1152448.9 2.416193e-06 3.3975956e-07 -3.9896681e-08 
Loop time of 1.81733 on 104 procs for 157 steps with 288751 atoms

99.9% CPU use with 104 MPI tasks x 1 OpenMP threads

Minimization stats:
  Stopping criterion = energy tolerance
  Energy initial, next-to-last, final = 
     -1152448.90688976  -1152448.90875512  -1152448.90875512
  Force two-norm initial, final = 0.20078602 0.00018635081
  Force max component initial, final = 0.082792188 3.9480364e-05
  Final line search alpha, max atom move = 1.0000000 3.9480364e-05
  Iterations, force evaluations = 157 314

MPI task timing breakdown:
Section |  min time  |  avg time  |  max time  |%varavg| %total
---------------------------------------------------------------
Pair    | 0.48442    | 1.3244     | 1.7186     |  30.9 | 72.88
Neigh   | 0          | 0          | 0          |   0.0 |  0.00
Comm    | 0.028141   | 0.29646    | 0.89044    |  46.4 | 16.31
Output  | 0          | 0          | 0          |   0.0 |  0.00
Modify  | 1.8731e-05 | 0.0025825  | 0.0055133  |   2.4 |  0.14
Other   |            | 0.1938     |            |       | 10.67

Nlocal:        2776.45 ave        3961 max           0 min
Histogram: 8 4 4 0 6 10 8 2 28 34
Nghost:        3879.12 ave        5424 max         232 min
Histogram: 8 0 8 0 16 0 8 8 16 40
Neighs:        79213.4 ave      115476 max           0 min
Histogram: 8 4 4 0 10 6 8 8 24 32

Total # of neighbors = 8238198
Ave neighs/atom = 28.530457
Neighbor list builds = 0
Dangerous builds = 0
The dot product: 1.05042462084812e-08
Setting atom values ...
  1 settings made for x
  1 settings made for y
  1 settings made for z
Setting up cg style minimization ...
  Unit style    : metal
  Current step  : 3505
Per MPI rank memory allocation (min/avg/max) = 5.441 | 5.816 | 6.074 Mbytes
Step PotEng KinEng TotEng v_fx v_fy v_fz 
    3505   -1152448.9            0   -1152448.9  0.082087722   0.01775019 -0.0032914327 
    3663   -1152448.9            0   -1152448.9 1.7124603e-05 2.5713665e-06 -5.2656349e-07 
Loop time of 1.8143 on 104 procs for 158 steps with 288751 atoms

99.9% CPU use with 104 MPI tasks x 1 OpenMP threads

Minimization stats:
  Stopping criterion = energy tolerance
  Energy initial, next-to-last, final = 
     -1152448.89569984  -1152448.89756689  -1152448.89756689
  Force two-norm initial, final = 0.19970059 0.00019416522
  Force max component initial, final = 0.083765564 2.3953127e-05
  Final line search alpha, max atom move = 1.0000000 2.3953127e-05
  Iterations, force evaluations = 158 316

MPI task timing breakdown:
Section |  min time  |  avg time  |  max time  |%varavg| %total
---------------------------------------------------------------
Pair    | 0.48287    | 1.3243     | 1.7203     |  31.0 | 72.99
Neigh   | 0          | 0          | 0          |   0.0 |  0.00
Comm    | 0.030262   | 0.29632    | 0.90023    |  46.3 | 16.33
Output  | 0          | 0          | 0          |   0.0 |  0.00
Modify  | 1.8723e-05 | 0.0026038  | 0.0055984  |   2.4 |  0.14
Other   |            | 0.1911     |            |       | 10.53

Nlocal:        2776.45 ave        3961 max           0 min
Histogram: 8 4 4 0 6 10 8 2 28 34
Nghost:        3879.12 ave        5424 max         232 min
Histogram: 8 0 8 0 16 0 8 8 16 40
Neighs:        79213.5 ave      115481 max           0 min
Histogram: 8 4 4 0 10 6 8 8 24 32

Total # of neighbors = 8238200
Ave neighs/atom = 28.530464
Neighbor list builds = 0
Dangerous builds = 0
The dot product: 5.76747499669809e-08
Setting atom values ...
  1 settings made for x
  1 settings made for y
  1 settings made for z
Setting up cg style minimization ...
  Unit style    : metal
  Current step  : 3663
Per MPI rank memory allocation (min/avg/max) = 5.441 | 5.816 | 6.074 Mbytes
Step PotEng KinEng TotEng v_fx v_fy v_fz 
    3663   -1152448.9            0   -1152448.9  0.081003254  0.015041939 -0.0036594661 
    3839   -1152448.9            0   -1152448.9 2.4537829e-05 3.2179542e-06 -9.2029372e-07 
Loop time of 2.03819 on 104 procs for 176 steps with 288751 atoms

99.9% CPU use with 104 MPI tasks x 1 OpenMP threads

Minimization stats:
  Stopping criterion = energy tolerance
  Energy initial, next-to-last, final = 
     -1152448.88317758  -1152448.88509604  -1152448.88509604
  Force two-norm initial, final = 0.19884897 0.00018017689
  Force max component initial, final = 0.085300385 6.0762994e-05
  Final line search alpha, max atom move = 1.0000000 6.0762994e-05
  Iterations, force evaluations = 176 352

MPI task timing breakdown:
Section |  min time  |  avg time  |  max time  |%varavg| %total
---------------------------------------------------------------
Pair    | 0.53741    | 1.4829     | 1.9272     |  32.7 | 72.76
Neigh   | 0          | 0          | 0          |   0.0 |  0.00
Comm    | 0.031646   | 0.33468    | 1.0034     |  48.9 | 16.42
Output  | 0          | 0          | 0          |   0.0 |  0.00
Modify  | 2.1035e-05 | 0.0028924  | 0.0062171  |   2.5 |  0.14
Other   |            | 0.2177     |            |       | 10.68

Nlocal:        2776.45 ave        3961 max           0 min
Histogram: 8 4 4 0 6 10 8 2 28 34
Nghost:        3879.11 ave        5425 max         232 min
Histogram: 8 0 8 0 16 0 8 8 16 40
Neighs:        79213.4 ave      115485 max           0 min
Histogram: 8 4 4 0 10 6 8 8 24 32

Total # of neighbors = 8238197
Ave neighs/atom = 28.530454
Neighbor list builds = 0
Dangerous builds = 0
The dot product: 4.9265895158501e-10
Setting atom values ...
  1 settings made for x
  1 settings made for y
  1 settings made for z
Setting up cg style minimization ...
  Unit style    : metal
  Current step  : 3839
Per MPI rank memory allocation (min/avg/max) = 5.441 | 5.816 | 6.074 Mbytes
Step PotEng KinEng TotEng v_fx v_fy v_fz 
    3839   -1152448.9            0   -1152448.9  0.075946712  0.013369302 -0.0033274122 
    4000   -1152448.9            0   -1152448.9 6.5911543e-06 1.5000123e-06 -3.3610415e-07 
    4007   -1152448.9            0   -1152448.9 1.1047875e-05 2.2961227e-06 -5.3297594e-07 
Loop time of 1.93777 on 104 procs for 168 steps with 288751 atoms

99.9% CPU use with 104 MPI tasks x 1 OpenMP threads

Minimization stats:
  Stopping criterion = energy tolerance
  Energy initial, next-to-last, final = 
     -1152448.86956478  -1152448.87211911  -1152448.87211911
  Force two-norm initial, final = 0.19727843 4.9975015e-05
  Force max component initial, final = 0.085948357 1.1047875e-05
  Final line search alpha, max atom move = 1.0000000 1.1047875e-05
  Iterations, force evaluations = 168 336

MPI task timing breakdown:
Section |  min time  |  avg time  |  max time  |%varavg| %total
---------------------------------------------------------------
Pair    | 0.51858    | 1.4131     | 1.8344     |  32.0 | 72.92
Neigh   | 0          | 0          | 0          |   0.0 |  0.00
Comm    | 0.030131   | 0.31471    | 0.95648    |  47.9 | 16.24
Output  | 0.00014589 | 0.0001485  | 0.00029067 |   0.0 |  0.01
Modify  | 2.0103e-05 | 0.0027666  | 0.0059358  |   2.5 |  0.14
Other   |            | 0.2071     |            |       | 10.69

Nlocal:        2776.45 ave        3961 max           0 min
Histogram: 8 4 4 0 6 10 8 2 28 34
Nghost:        3879.15 ave        5425 max         232 min
Histogram: 8 0 8 0 16 0 8 8 16 40
Neighs:        79213.4 ave      115481 max           0 min
Histogram: 8 4 4 0 10 6 8 8 24 32

Total # of neighbors = 8238194
Ave neighs/atom = 28.530443
Neighbor list builds = 0
Dangerous builds = 0
The dot product: -1.94621145526115e-07
Setting atom values ...
  1 settings made for x
  1 settings made for y
  1 settings made for z
Setting up cg style minimization ...
  Unit style    : metal
  Current step  : 4007
Per MPI rank memory allocation (min/avg/max) = 5.441 | 5.816 | 6.074 Mbytes
Step PotEng KinEng TotEng v_fx v_fy v_fz 
    4007   -1152448.9            0   -1152448.9  0.050002296  0.013578423 -0.00063149158 
    4196   -1152448.9            0   -1152448.9 3.9007608e-05 6.606418e-06 5.3408837e-08 
Loop time of 2.17162 on 104 procs for 189 steps with 288751 atoms

99.9% CPU use with 104 MPI tasks x 1 OpenMP threads

Minimization stats:
  Stopping criterion = energy tolerance
  Energy initial, next-to-last, final = 
     -1152448.85639428  -1152448.85869703  -1152448.85869703
  Force two-norm initial, final = 0.19285959 0.000148249
  Force max component initial, final = 0.085587199 4.6934411e-05
  Final line search alpha, max atom move = 1.0000000 4.6934411e-05
  Iterations, force evaluations = 189 378

MPI task timing breakdown:
Section |  min time  |  avg time  |  max time  |%varavg| %total
---------------------------------------------------------------
Pair    | 0.57642    | 1.5849     | 2.0585     |  33.8 | 72.98
Neigh   | 0          | 0          | 0          |   0.0 |  0.00
Comm    | 0.039375   | 0.35075    | 1.0656     |  50.8 | 16.15
Output  | 0          | 0          | 0          |   0.0 |  0.00
Modify  | 2.2587e-05 | 0.003114   | 0.0067098  |   2.6 |  0.14
Other   |            | 0.2328     |            |       | 10.72

Nlocal:        2776.45 ave        3961 max           0 min
Histogram: 8 4 4 0 6 10 8 2 28 34
Nghost:        3879.12 ave        5425 max         232 min
Histogram: 8 0 8 0 16 0 8 8 16 40
Neighs:        79213.4 ave      115480 max           0 min
Histogram: 8 4 4 0 10 6 8 8 24 32

Total # of neighbors = 8238193
Ave neighs/atom = 28.530440
Neighbor list builds = 0
Dangerous builds = 0
The dot product: -5.52923555650756e-07
Setting atom values ...
  1 settings made for x
  1 settings made for y
  1 settings made for z
Setting up cg style minimization ...
  Unit style    : metal
  Current step  : 4196
Per MPI rank memory allocation (min/avg/max) = 5.441 | 5.816 | 6.074 Mbytes
Step PotEng KinEng TotEng v_fx v_fy v_fz 
    4196   -1152448.8            0   -1152448.8    0.0557922  0.011945363 0.0016403767 
    4425   -1152448.8            0   -1152448.8 -8.2321223e-06 -7.0175414e-07 -3.8340981e-07 
Loop time of 2.6373 on 104 procs for 229 steps with 288751 atoms

99.9% CPU use with 104 MPI tasks x 1 OpenMP threads

Minimization stats:
  Stopping criterion = energy tolerance
  Energy initial, next-to-last, final = 
     -1152448.84178435  -1152448.84385395  -1152448.84385395
  Force two-norm initial, final = 0.19720801 3.2089053e-05
  Force max component initial, final = 0.089931134 1.0525337e-05
  Final line search alpha, max atom move = 1.0000000 1.0525337e-05
  Iterations, force evaluations = 229 458

MPI task timing breakdown:
Section |  min time  |  avg time  |  max time  |%varavg| %total
---------------------------------------------------------------
Pair    | 0.69713    | 1.915      | 2.4935     |  37.3 | 72.61
Neigh   | 0          | 0          | 0          |   0.0 |  0.00
Comm    | 0.040946   | 0.42809    | 1.2888     |  55.5 | 16.23
Output  | 0          | 0          | 0          |   0.0 |  0.00
Modify  | 2.8588e-05 | 0.0037642  | 0.0080566  |   2.9 |  0.14
Other   |            | 0.2904     |            |       | 11.01

Nlocal:        2776.45 ave        3961 max           0 min
Histogram: 8 4 4 0 6 10 8 2 28 34
Nghost:        3879.20 ave        5425 max         232 min
Histogram: 8 0 8 0 16 0 8 8 16 40
Neighs:        79213.4 ave      115474 max           0 min
Histogram: 8 4 4 0 10 6 8 8 24 32

Total # of neighbors = 8238192
Ave neighs/atom = 28.530436
Neighbor list builds = 0
Dangerous builds = 0
The dot product: 8.80733104300006e-08
Setting atom values ...
  1 settings made for x
  1 settings made for y
  1 settings made for z
Setting up cg style minimization ...
  Unit style    : metal
  Current step  : 4425
Per MPI rank memory allocation (min/avg/max) = 5.441 | 5.816 | 6.074 Mbytes
Step PotEng KinEng TotEng v_fx v_fy v_fz 
    4425   -1152448.8            0   -1152448.8  0.061022301 0.0093605096 0.0038063099 
    4595   -1152448.8            0   -1152448.8 5.2924958e-05 1.2533779e-05 2.7368426e-06 
Loop time of 1.97936 on 104 procs for 170 steps with 288751 atoms

99.9% CPU use with 104 MPI tasks x 1 OpenMP threads

Minimization stats:
  Stopping criterion = energy tolerance
  Energy initial, next-to-last, final = 
     -1152448.82558959  -1152448.82774522  -1152448.82774522
  Force two-norm initial, final = 0.20060538 0.0002177637
  Force max component initial, final = 0.094260325 5.2924958e-05
  Final line search alpha, max atom move = 1.0000000 5.2924958e-05
  Iterations, force evaluations = 170 340

MPI task timing breakdown:
Section |  min time  |  avg time  |  max time  |%varavg| %total
---------------------------------------------------------------
Pair    | 0.52017    | 1.4347     | 1.8679     |  32.1 | 72.48
Neigh   | 0          | 0          | 0          |   0.0 |  0.00
Comm    | 0.029508   | 0.31884    | 0.96585    |  48.1 | 16.11
Output  | 0          | 0          | 0          |   0.0 |  0.00
Modify  | 2.0325e-05 | 0.0028041  | 0.0059803  |   2.5 |  0.14
Other   |            | 0.223      |            |       | 11.27

Nlocal:        2776.45 ave        3961 max           0 min
Histogram: 8 4 4 0 6 10 8 2 28 34
Nghost:        3879.20 ave        5425 max         232 min
Histogram: 8 0 8 0 16 0 8 8 16 40
Neighs:        79213.4 ave      115473 max           0 min
Histogram: 8 4 4 0 10 6 8 8 24 32

Total # of neighbors = 8238191
Ave neighs/atom = 28.530433
Neighbor list builds = 0
Dangerous builds = 0
The dot product: -5.18346945016901e-07
Setting atom values ...
  1 settings made for x
  1 settings made for y
  1 settings made for z
Setting up cg style minimization ...
  Unit style    : metal
  Current step  : 4595
Per MPI rank memory allocation (min/avg/max) = 5.441 | 5.816 | 6.074 Mbytes
Step PotEng KinEng TotEng v_fx v_fy v_fz 
    4595   -1152448.8            0   -1152448.8  0.063835478 0.0079444515 0.0055468827 
    4905   -1152448.8            0   -1152448.8 3.9043957e-07 8.9530469e-08 2.8936631e-08 
Loop time of 3.60895 on 104 procs for 310 steps with 288751 atoms

99.9% CPU use with 104 MPI tasks x 1 OpenMP threads

Minimization stats:
  Stopping criterion = energy tolerance
  Energy initial, next-to-last, final = 
     -1152448.80820247  -1152448.81022162  -1152448.81022162
  Force two-norm initial, final = 0.20314126 2.1138698e-06
  Force max component initial, final = 0.098065491 3.9043957e-07
  Final line search alpha, max atom move = 1.0000000 3.9043957e-07
  Iterations, force evaluations = 310 620

MPI task timing breakdown:
Section |  min time  |  avg time  |  max time  |%varavg| %total
---------------------------------------------------------------
Pair    | 0.95763    | 2.5983     | 3.3819     |  43.1 | 71.99
Neigh   | 0          | 0          | 0          |   0.0 |  0.00
Comm    | 0.062125   | 0.58357    | 1.7576     |  64.1 | 16.17
Output  | 0          | 0          | 0          |   0.0 |  0.00
Modify  | 3.9523e-05 | 0.0050962  | 0.010877   |   3.4 |  0.14
Other   |            | 0.422      |            |       | 11.69

Nlocal:        2776.45 ave        3961 max           0 min
Histogram: 8 4 4 0 6 10 8 2 28 34
Nghost:        3879.20 ave        5425 max         232 min
Histogram: 8 0 8 0 16 0 8 8 16 40
Neighs:        79213.4 ave      115466 max           0 min
Histogram: 8 4 4 0 10 6 8 8 24 32

Total # of neighbors = 8238192
Ave neighs/atom = 28.530436
Neighbor list builds = 0
Dangerous builds = 0
The dot product: -2.0697075379579e-09
Setting atom values ...
  1 settings made for x
  1 settings made for y
  1 settings made for z
Setting up cg style minimization ...
  Unit style    : metal
  Current step  : 4905
Per MPI rank memory allocation (min/avg/max) = 5.441 | 5.816 | 6.074 Mbytes
Step PotEng KinEng TotEng v_fx v_fy v_fz 
    4905   -1152448.8            0   -1152448.8  0.072094468 0.0084493433 0.0070971404 
    5000   -1152448.8            0   -1152448.8 -0.00035356033 -8.1197352e-05 -3.0131563e-05 
    5075   -1152448.8            0   -1152448.8 2.152393e-05 5.2954828e-06 1.7929189e-06 
Loop time of 1.96513 on 104 procs for 170 steps with 288751 atoms

99.9% CPU use with 104 MPI tasks x 1 OpenMP threads

Minimization stats:
  Stopping criterion = energy tolerance
  Energy initial, next-to-last, final = 
     -1152448.78929177  -1152448.79126448  -1152448.79126448
  Force two-norm initial, final = 0.20662881 0.00014565141
  Force max component initial, final = 0.099950183 3.4724293e-05
  Final line search alpha, max atom move = 1.0000000 3.4724293e-05
  Iterations, force evaluations = 170 340

MPI task timing breakdown:
Section |  min time  |  avg time  |  max time  |%varavg| %total
---------------------------------------------------------------
Pair    | 0.5177     | 1.4347     | 1.863      |  32.3 | 73.01
Neigh   | 0          | 0          | 0          |   0.0 |  0.00
Comm    | 0.030726   | 0.31993    | 0.96343    |  48.6 | 16.28
Output  | 0.00014153 | 0.0001444  | 0.00027092 |   0.0 |  0.01
Modify  | 2.0769e-05 | 0.0027963  | 0.0059849  |   2.5 |  0.14
Other   |            | 0.2076     |            |       | 10.56

Nlocal:        2776.45 ave        3961 max           0 min
Histogram: 8 4 4 0 6 10 8 2 28 34
Nghost:        3879.12 ave        5424 max         232 min
Histogram: 8 0 8 0 16 0 8 8 16 40
Neighs:        79213.4 ave      115466 max           0 min
Histogram: 8 4 4 0 10 6 8 8 24 32

Total # of neighbors = 8238191
Ave neighs/atom = 28.530433
Neighbor list builds = 0
Dangerous builds = 0
The dot product: -4.02260618346956e-08
Setting atom values ...
  1 settings made for x
  1 settings made for y
  1 settings made for z
Setting up cg style minimization ...
  Unit style    : metal
  Current step  : 5075
Per MPI rank memory allocation (min/avg/max) = 5.441 | 5.816 | 6.074 Mbytes
Step PotEng KinEng TotEng v_fx v_fy v_fz 
    5075   -1152448.8            0   -1152448.8  0.078812394 0.0086104661 0.0080910578 
    5336   -1152448.8            0   -1152448.8 -1.3894514e-06 -3.115401e-07 -1.2443791e-07 
Loop time of 3.02218 on 104 procs for 261 steps with 288751 atoms

99.9% CPU use with 104 MPI tasks x 1 OpenMP threads

Minimization stats:
  Stopping criterion = energy tolerance
  Energy initial, next-to-last, final = 
     -1152448.76891022  -1152448.77079723  -1152448.77079723
  Force two-norm initial, final = 0.20909376 4.7688505e-06
  Force max component initial, final = 0.10056162 1.3894514e-06
  Final line search alpha, max atom move = 1.0000000 1.3894514e-06
  Iterations, force evaluations = 261 522

MPI task timing breakdown:
Section |  min time  |  avg time  |  max time  |%varavg| %total
---------------------------------------------------------------
Pair    | 0.79968    | 2.1821     | 2.8528     |  39.7 | 72.20
Neigh   | 0          | 0          | 0          |   0.0 |  0.00
Comm    | 0.049319   | 0.48842    | 1.4685     |  58.9 | 16.16
Output  | 0          | 0          | 0          |   0.0 |  0.00
Modify  | 3.1408e-05 | 0.0042908  | 0.0091561  |   3.1 |  0.14
Other   |            | 0.3474     |            |       | 11.50

Nlocal:        2776.45 ave        3960 max           0 min
Histogram: 8 4 4 0 4 12 8 2 28 34
Nghost:        3879.05 ave        5423 max         232 min
Histogram: 8 0 8 0 16 0 8 8 16 40
Neighs:        79213.3 ave      115434 max           0 min
Histogram: 8 4 4 0 10 6 8 8 24 32

Total # of neighbors = 8238188
Ave neighs/atom = 28.530422
Neighbor list builds = 0
Dangerous builds = 0
The dot product: -2.24882196756143e-09
Setting atom values ...
  1 settings made for x
  1 settings made for y
  1 settings made for z
Setting up cg style minimization ...
  Unit style    : metal
  Current step  : 5336
Per MPI rank memory allocation (min/avg/max) = 5.441 | 5.816 | 6.074 Mbytes
Step PotEng KinEng TotEng v_fx v_fy v_fz 
    5336   -1152448.7            0   -1152448.7  0.085328885 0.0082838594 0.0085712193 
    5499   -1152448.7            0   -1152448.7 -3.1922479e-05 -4.1847794e-06 -3.0867696e-06 
Loop time of 1.87906 on 104 procs for 163 steps with 288751 atoms

99.9% CPU use with 104 MPI tasks x 1 OpenMP threads

Minimization stats:
  Stopping criterion = energy tolerance
  Energy initial, next-to-last, final = 
     -1152448.74694187  -1152448.74880181  -1152448.74880181
  Force two-norm initial, final = 0.21088046 0.00012002118
  Force max component initial, final = 0.099783781 4.0315968e-05
  Final line search alpha, max atom move = 1.0000000 4.0315968e-05
  Iterations, force evaluations = 163 326

MPI task timing breakdown:
Section |  min time  |  avg time  |  max time  |%varavg| %total
---------------------------------------------------------------
Pair    | 0.49583    | 1.3717     | 1.7762     |  31.6 | 73.00
Neigh   | 0          | 0          | 0          |   0.0 |  0.00
Comm    | 0.028677   | 0.31153    | 0.92972    |  46.8 | 16.58
Output  | 0          | 0          | 0          |   0.0 |  0.00
Modify  | 1.9305e-05 | 0.0026789  | 0.0057348  |   2.4 |  0.14
Other   |            | 0.1931     |            |       | 10.28

Nlocal:        2776.45 ave        3960 max           0 min
Histogram: 8 4 4 0 4 12 8 2 28 34
Nghost:        3879.09 ave        5423 max         232 min
Histogram: 8 0 8 0 16 0 8 8 16 40
Neighs:        79213.3 ave      115427 max           0 min
Histogram: 8 4 4 0 10 6 8 8 24 32

Total # of neighbors = 8238188
Ave neighs/atom = 28.530422
Neighbor list builds = 0
Dangerous builds = 0
The dot product: -1.27074356064653e-07
Setting atom values ...
  1 settings made for x
  1 settings made for y
  1 settings made for z
Setting up cg style minimization ...
  Unit style    : metal
  Current step  : 5499
Per MPI rank memory allocation (min/avg/max) = 5.441 | 5.816 | 6.074 Mbytes
Step PotEng KinEng TotEng v_fx v_fy v_fz 
    5499   -1152448.7            0   -1152448.7  0.089247823 0.0082813903 0.0083313165 
    5659   -1152448.7            0   -1152448.7 -2.6029772e-06 2.2828083e-06 -5.1219399e-07 
Loop time of 1.8484 on 104 procs for 160 steps with 288751 atoms

99.9% CPU use with 104 MPI tasks x 1 OpenMP threads

Minimization stats:
  Stopping criterion = energy tolerance
  Energy initial, next-to-last, final = 
     -1152448.72345027  -1152448.72528731  -1152448.72528731
  Force two-norm initial, final = 0.21130492 0.00012100741
  Force max component initial, final = 0.098146205 1.0727594e-05
  Final line search alpha, max atom move = 1.0000000 1.0727594e-05
  Iterations, force evaluations = 160 320

MPI task timing breakdown:
Section |  min time  |  avg time  |  max time  |%varavg| %total
---------------------------------------------------------------
Pair    | 0.49036    | 1.3454     | 1.7491     |  31.3 | 72.79
Neigh   | 0          | 0          | 0          |   0.0 |  0.00
Comm    | 0.028544   | 0.30114    | 0.90829    |  46.6 | 16.29
Output  | 0          | 0          | 0          |   0.0 |  0.00
Modify  | 1.8905e-05 | 0.0026355  | 0.005611   |   2.4 |  0.14
Other   |            | 0.1993     |            |       | 10.78

Nlocal:        2776.45 ave        3960 max           0 min
Histogram: 8 4 4 0 4 12 8 2 28 34
Nghost:        3879.03 ave        5423 max         232 min
Histogram: 8 0 8 0 16 0 8 8 16 40
Neighs:        79213.3 ave      115427 max           0 min
Histogram: 8 4 4 0 10 6 8 8 24 32

Total # of neighbors = 8238186
Ave neighs/atom = 28.530415
Neighbor list builds = 0
Dangerous builds = 0
The dot product: -1.93190496954142e-08
Setting atom values ...
  1 settings made for x
  1 settings made for y
  1 settings made for z
Setting up cg style minimization ...
  Unit style    : metal
  Current step  : 5659
Per MPI rank memory allocation (min/avg/max) = 5.441 | 5.816 | 6.074 Mbytes
Step PotEng KinEng TotEng v_fx v_fy v_fz 
    5659   -1152448.7            0   -1152448.7   0.09133711 0.0089781372 0.0075831862 
    5821   -1152448.7            0   -1152448.7 -4.9891183e-05 -8.10686e-06 -3.8124509e-06 
Loop time of 1.87977 on 104 procs for 162 steps with 288751 atoms

99.9% CPU use with 104 MPI tasks x 1 OpenMP threads

Minimization stats:
  Stopping criterion = energy tolerance
  Energy initial, next-to-last, final = 
      -1152448.6984616  -1152448.70026984  -1152448.70026984
  Force two-norm initial, final = 0.21082148 0.00012944427
  Force max component initial, final = 0.096018768 5.1221122e-05
  Final line search alpha, max atom move = 1.0000000 5.1221122e-05
  Iterations, force evaluations = 162 324

MPI task timing breakdown:
Section |  min time  |  avg time  |  max time  |%varavg| %total
---------------------------------------------------------------
Pair    | 0.49378    | 1.3639     | 1.7836     |  31.5 | 72.56
Neigh   | 0          | 0          | 0          |   0.0 |  0.00
Comm    | 0.03113    | 0.3044     | 0.92139    |  47.0 | 16.19
Output  | 0          | 0          | 0          |   0.0 |  0.00
Modify  | 1.912e-05  | 0.0026646  | 0.0056774  |   2.4 |  0.14
Other   |            | 0.2088     |            |       | 11.11

Nlocal:        2776.45 ave        3960 max           0 min
Histogram: 8 4 4 0 4 12 8 2 28 34
Nghost:        3878.97 ave        5423 max         232 min
Histogram: 8 0 8 0 16 0 8 8 16 40
Neighs:        79213.3 ave      115427 max           0 min
Histogram: 8 4 4 0 10 6 8 8 24 32

Total # of neighbors = 8238188
Ave neighs/atom = 28.530422
Neighbor list builds = 0
Dangerous builds = 0
The dot product: -3.08571813607418e-07
Setting atom values ...
  1 settings made for x
  1 settings made for y
  1 settings made for z
Setting up cg style minimization ...
  Unit style    : metal
  Current step  : 5821
Per MPI rank memory allocation (min/avg/max) = 5.441 | 5.816 | 6.074 Mbytes
Step PotEng KinEng TotEng v_fx v_fy v_fz 
    5821   -1152448.7            0   -1152448.7  0.091946652  0.010560984 0.0064761241 
    6000   -1152448.7            0   -1152448.7 -8.128196e-06 -2.1962409e-07 -6.4352554e-07 
    6008   -1152448.7            0   -1152448.7 -2.1411739e-05 -2.7912159e-06 -1.4750889e-06 
Loop time of 2.16066 on 104 procs for 187 steps with 288751 atoms

99.9% CPU use with 104 MPI tasks x 1 OpenMP threads

Minimization stats:
  Stopping criterion = energy tolerance
  Energy initial, next-to-last, final = 
     -1152448.67199986  -1152448.67377173  -1152448.67377173
  Force two-norm initial, final = 0.20960412 5.2987294e-05
  Force max component initial, final = 0.093426356 2.1411739e-05
  Final line search alpha, max atom move = 1.0000000 2.1411739e-05
  Iterations, force evaluations = 187 374

MPI task timing breakdown:
Section |  min time  |  avg time  |  max time  |%varavg| %total
---------------------------------------------------------------
Pair    | 0.57069    | 1.5671     | 2.042      |  33.7 | 72.53
Neigh   | 0          | 0          | 0          |   0.0 |  0.00
Comm    | 0.033193   | 0.34991    | 1.057      |  50.3 | 16.19
Output  | 9.5645e-05 | 9.8518e-05 | 0.00023816 |   0.0 |  0.00
Modify  | 2.2065e-05 | 0.0030811  | 0.0066137  |   2.6 |  0.14
Other   |            | 0.2405     |            |       | 11.13

Nlocal:        2776.45 ave        3960 max           0 min
Histogram: 8 4 4 0 4 12 8 2 28 34
Nghost:        3878.99 ave        5423 max         232 min
Histogram: 8 0 8 0 16 0 8 8 16 40
Neighs:        79213.3 ave      115427 max           0 min
Histogram: 8 4 4 0 10 6 8 8 24 32

Total # of neighbors = 8238186
Ave neighs/atom = 28.530415
Neighbor list builds = 0
Dangerous builds = 0
The dot product: -1.47110095785448e-07
Setting atom values ...
  1 settings made for x
  1 settings made for y
  1 settings made for z
Setting up cg style minimization ...
  Unit style    : metal
  Current step  : 6008
Per MPI rank memory allocation (min/avg/max) = 5.441 | 5.816 | 6.074 Mbytes
Step PotEng KinEng TotEng v_fx v_fy v_fz 
    6008   -1152448.6            0   -1152448.6  0.091422645  0.013226464 0.0051207722 
    6163   -1152448.6            0   -1152448.6 -3.4701137e-05 -5.9024784e-06 -1.8585744e-06 
Loop time of 1.79258 on 104 procs for 155 steps with 288751 atoms

99.9% CPU use with 104 MPI tasks x 1 OpenMP threads

Minimization stats:
  Stopping criterion = energy tolerance
  Energy initial, next-to-last, final = 
     -1152448.64409127   -1152448.6458214   -1152448.6458214
  Force two-norm initial, final = 0.20802559 0.00017001661
  Force max component initial, final = 0.091422645 6.1163729e-05
  Final line search alpha, max atom move = 1.0000000 6.1163729e-05
  Iterations, force evaluations = 155 310

MPI task timing breakdown:
Section |  min time  |  avg time  |  max time  |%varavg| %total
---------------------------------------------------------------
Pair    | 0.47454    | 1.3037     | 1.6991     |  30.7 | 72.73
Neigh   | 0          | 0          | 0          |   0.0 |  0.00
Comm    | 0.032722   | 0.2895     | 0.87874    |  46.2 | 16.15
Output  | 0          | 0          | 0          |   0.0 |  0.00
Modify  | 1.8413e-05 | 0.0025492  | 0.005455   |   2.4 |  0.14
Other   |            | 0.1968     |            |       | 10.98

Nlocal:        2776.45 ave        3960 max           0 min
Histogram: 8 4 4 0 4 12 8 2 28 34
Nghost:        3878.99 ave        5423 max         232 min
Histogram: 8 0 8 0 16 0 8 8 16 40
Neighs:        79213.3 ave      115417 max           0 min
Histogram: 8 4 4 0 10 6 8 8 24 32

Total # of neighbors = 8238188
Ave neighs/atom = 28.530422
Neighbor list builds = 0
Dangerous builds = 0
The dot product: -2.52953583117208e-07
Setting atom values ...
  1 settings made for x
  1 settings made for y
  1 settings made for z
Setting up cg style minimization ...
  Unit style    : metal
  Current step  : 6163
Per MPI rank memory allocation (min/avg/max) = 5.441 | 5.816 | 6.074 Mbytes
Step PotEng KinEng TotEng v_fx v_fy v_fz 
    6163   -1152448.6            0   -1152448.6  0.089713318  0.017244841 0.0035596409 
    6316   -1152448.6            0   -1152448.6 1.5020005e-05 -1.4496072e-06 1.0049459e-06 
Loop time of 1.76396 on 104 procs for 153 steps with 288751 atoms

99.9% CPU use with 104 MPI tasks x 1 OpenMP threads

Minimization stats:
  Stopping criterion = energy tolerance
  Energy initial, next-to-last, final = 
     -1152448.61476966  -1152448.61645561  -1152448.61645561
  Force two-norm initial, final = 0.20615301 0.00017702399
  Force max component initial, final = 0.089713318 1.9658754e-05
  Final line search alpha, max atom move = 1.0000000 1.9658754e-05
  Iterations, force evaluations = 153 306

MPI task timing breakdown:
Section |  min time  |  avg time  |  max time  |%varavg| %total
---------------------------------------------------------------
Pair    | 0.46698    | 1.2784     | 1.6667     |  30.4 | 72.47
Neigh   | 0          | 0          | 0          |   0.0 |  0.00
Comm    | 0.028357   | 0.28373    | 0.85748    |  45.5 | 16.09
Output  | 0          | 0          | 0          |   0.0 |  0.00
Modify  | 1.8445e-05 | 0.0025179  | 0.0053812  |   2.4 |  0.14
Other   |            | 0.1994     |            |       | 11.30

Nlocal:        2776.45 ave        3960 max           0 min
Histogram: 8 4 4 0 4 12 8 2 28 34
Nghost:        3878.99 ave        5423 max         232 min
Histogram: 8 0 8 0 16 0 8 8 16 40
Neighs:        79213.3 ave      115420 max           0 min
Histogram: 8 4 4 0 10 6 8 8 24 32

Total # of neighbors = 8238188
Ave neighs/atom = 28.530422
Neighbor list builds = 0
Dangerous builds = 0
The dot product: 1.18097297637261e-07
Setting atom values ...
  1 settings made for x
  1 settings made for y
  1 settings made for z
Setting up cg style minimization ...
  Unit style    : metal
  Current step  : 6316
Per MPI rank memory allocation (min/avg/max) = 5.441 | 5.816 | 6.074 Mbytes
Step PotEng KinEng TotEng v_fx v_fy v_fz 
    6316   -1152448.6            0   -1152448.6  0.086984065   0.02237205 0.0018716537 
    6471   -1152448.6            0   -1152448.6 3.6284395e-05 5.4659359e-06 1.1422593e-06 
Loop time of 1.82753 on 104 procs for 155 steps with 288751 atoms

99.9% CPU use with 104 MPI tasks x 1 OpenMP threads

Minimization stats:
  Stopping criterion = energy tolerance
  Energy initial, next-to-last, final = 
     -1152448.58408262  -1152448.58572639  -1152448.58572639
  Force two-norm initial, final = 0.20424216 0.00016720867
  Force max component initial, final = 0.086984065 5.2808632e-05
  Final line search alpha, max atom move = 1.0000000 5.2808632e-05
  Iterations, force evaluations = 155 310

MPI task timing breakdown:
Section |  min time  |  avg time  |  max time  |%varavg| %total
---------------------------------------------------------------
Pair    | 0.47515    | 1.3131     | 1.7068     |  30.8 | 71.85
Neigh   | 0          | 0          | 0          |   0.0 |  0.00
Comm    | 0.030995   | 0.29424    | 0.88622    |  46.2 | 16.10
Output  | 0          | 0          | 0          |   0.0 |  0.00
Modify  | 1.8478e-05 | 0.0025533  | 0.0054334  |   2.4 |  0.14
Other   |            | 0.2177     |            |       | 11.91

Nlocal:        2776.45 ave        3960 max           0 min
Histogram: 8 4 4 0 4 12 8 2 28 34
Nghost:        3879.03 ave        5423 max         232 min
Histogram: 8 0 8 0 16 0 8 8 16 40
Neighs:        79213.3 ave      115420 max           0 min
Histogram: 8 4 4 0 10 6 8 8 24 32

Total # of neighbors = 8238187
Ave neighs/atom = 28.530419
Neighbor list builds = 0
Dangerous builds = 0
The dot product: 2.98483076646031e-07
Setting atom values ...
  1 settings made for x
  1 settings made for y
  1 settings made for z
Setting up cg style minimization ...
  Unit style    : metal
  Current step  : 6471
Per MPI rank memory allocation (min/avg/max) = 5.441 | 5.816 | 6.074 Mbytes
Step PotEng KinEng TotEng v_fx v_fy v_fz 
    6471   -1152448.6            0   -1152448.6  0.083171489  0.029199046 -5.1015776e-06 
    6636   -1152448.6            0   -1152448.6 -1.4679968e-05 -1.2404487e-06 -3.7105617e-07 
Loop time of 1.91481 on 104 procs for 165 steps with 288751 atoms

99.9% CPU use with 104 MPI tasks x 1 OpenMP threads

Minimization stats:
  Stopping criterion = energy tolerance
  Energy initial, next-to-last, final = 
     -1152448.55214826  -1152448.55376789  -1152448.55376789
  Force two-norm initial, final = 0.20226774 0.00011526935
  Force max component initial, final = 0.087935422 2.3388816e-05
  Final line search alpha, max atom move = 1.0000000 2.3388816e-05
  Iterations, force evaluations = 165 330

MPI task timing breakdown:
Section |  min time  |  avg time  |  max time  |%varavg| %total
---------------------------------------------------------------
Pair    | 0.50497    | 1.382      | 1.8046     |  31.6 | 72.17
Neigh   | 0          | 0          | 0          |   0.0 |  0.00
Comm    | 0.031791   | 0.31111    | 0.92978    |  46.8 | 16.25
Output  | 0          | 0          | 0          |   0.0 |  0.00
Modify  | 1.9881e-05 | 0.0027099  | 0.0057794  |   2.5 |  0.14
Other   |            | 0.219      |            |       | 11.44

Nlocal:        2776.45 ave        3960 max           0 min
Histogram: 8 4 4 0 4 12 8 2 28 34
Nghost:        3879.03 ave        5423 max         232 min
Histogram: 8 0 8 0 16 0 8 8 16 40
Neighs:        79213.4 ave      115420 max           0 min
Histogram: 8 4 4 0 10 6 8 8 24 32

Total # of neighbors = 8238193
Ave neighs/atom = 28.530440
Neighbor list builds = 0
Dangerous builds = 0
The dot product: -1.3792596141164e-07
Setting atom values ...
  1 settings made for x
  1 settings made for y
  1 settings made for z
Setting up cg style minimization ...
  Unit style    : metal
  Current step  : 6636
Per MPI rank memory allocation (min/avg/max) = 5.441 | 5.816 | 6.074 Mbytes
Step PotEng KinEng TotEng v_fx v_fy v_fz 
    6636   -1152448.5            0   -1152448.5  0.079020801  0.053250899 -0.0039392731 
    6901   -1152448.6            0   -1152448.6 -2.5661037e-05 -5.0429831e-06 5.7416596e-09 
Loop time of 3.07658 on 104 procs for 265 steps with 288751 atoms

99.9% CPU use with 104 MPI tasks x 1 OpenMP threads

Minimization stats:
  Stopping criterion = energy tolerance
  Energy initial, next-to-last, final = 
     -1152448.51934962  -1152448.61344984  -1152448.61344984
  Force two-norm initial, final = 0.2052939 0.00015769487
  Force max component initial, final = 0.089606182 3.4474812e-05
  Final line search alpha, max atom move = 1.0000000 3.4474812e-05
  Iterations, force evaluations = 265 529

MPI task timing breakdown:
Section |  min time  |  avg time  |  max time  |%varavg| %total
---------------------------------------------------------------
Pair    | 0.81616    | 2.2283     | 2.8938     |  40.0 | 72.43
Neigh   | 2.0459e-05 | 0.0059242  | 0.0086062  |   3.2 |  0.19
Comm    | 0.050037   | 0.49976    | 1.5103     |  59.9 | 16.24
Output  | 0          | 0          | 0          |   0.0 |  0.00
Modify  | 3.162e-05  | 0.0043471  | 0.0092663  |   3.1 |  0.14
Other   |            | 0.3382     |            |       | 10.99

Nlocal:        2776.45 ave        3960 max           0 min
Histogram: 8 4 4 0 4 12 8 2 28 34
Nghost:        3879.01 ave        5423 max         232 min
Histogram: 8 0 8 0 16 0 8 8 16 40
Neighs:        79213.5 ave      115419 max           0 min
Histogram: 8 4 4 0 10 6 8 8 24 32

Total # of neighbors = 8238205
Ave neighs/atom = 28.530481
Neighbor list builds = 2
Dangerous builds = 0
The dot product: -2.63716918314362e-06
Setting atom values ...
  1 settings made for x
  1 settings made for y
  1 settings made for z
Setting up cg style minimization ...
  Unit style    : metal
  Current step  : 6901
Per MPI rank memory allocation (min/avg/max) = 5.441 | 5.816 | 6.074 Mbytes
Step PotEng KinEng TotEng v_fx v_fy v_fz 
    6901   -1152448.6            0   -1152448.6  0.085507072   0.13437169 -0.082061554 
    7000     -1152449            0     -1152449 -0.0005504517 0.0047778084 -0.0027760862 
    7242     -1152449            0     -1152449 -1.4132232e-06 5.592393e-06 -3.2190368e-06 
Loop time of 3.93337 on 104 procs for 341 steps with 288751 atoms

99.9% CPU use with 104 MPI tasks x 1 OpenMP threads

Minimization stats:
  Stopping criterion = energy tolerance
  Energy initial, next-to-last, final = 
     -1152448.60700483  -1152449.00024891  -1152449.00024891
  Force two-norm initial, final = 0.22909088 2.3985027e-05
  Force max component initial, final = 0.13437169 5.5923930e-06
  Final line search alpha, max atom move = 1.0000000 5.5923930e-06
  Iterations, force evaluations = 341 680

MPI task timing breakdown:
Section |  min time  |  avg time  |  max time  |%varavg| %total
---------------------------------------------------------------
Pair    | 1.0566     | 2.8482     | 3.6924     |  45.0 | 72.41
Neigh   | 6.0608e-05 | 0.017753   | 0.025744   |   5.5 |  0.45
Comm    | 0.06427    | 0.6352     | 1.9261     |  67.8 | 16.15
Output  | 9.8616e-05 | 0.00010244 | 0.00025342 |   0.0 |  0.00
Modify  | 4.3174e-05 | 0.0055893  | 0.01196    |   3.5 |  0.14
Other   |            | 0.4266     |            |       | 10.84

Nlocal:        2776.45 ave        3959 max           0 min
Histogram: 8 4 4 0 4 12 8 2 28 34
Nghost:        3879.14 ave        5424 max         232 min
Histogram: 8 0 8 0 16 0 8 8 16 40
Neighs:        79213.6 ave      115398 max           0 min
Histogram: 8 4 4 0 10 6 8 8 24 32

Total # of neighbors = 8238212
Ave neighs/atom = 28.530506
Neighbor list builds = 6
Dangerous builds = 0
The dot product: 1.83394568652996e-06
Setting atom values ...
  1 settings made for x
  1 settings made for y
  1 settings made for z
Setting up cg style minimization ...
  Unit style    : metal
  Current step  : 7242
Per MPI rank memory allocation (min/avg/max) = 5.441 | 5.816 | 6.074 Mbytes
Step PotEng KinEng TotEng v_fx v_fy v_fz 
    7242     -1152449            0     -1152449  -0.58125777  -0.11163765   0.80610236 
    7518   -1152449.2            0   -1152449.2 1.2001883e-05 -2.3240908e-05 2.2870316e-05 
Loop time of 3.17291 on 104 procs for 276 steps with 288751 atoms

99.9% CPU use with 104 MPI tasks x 1 OpenMP threads

Minimization stats:
  Stopping criterion = energy tolerance
  Energy initial, next-to-last, final = 
     -1152449.02385722  -1152449.18190646  -1152449.18190646
  Force two-norm initial, final = 1.0117922 9.4143458e-05
  Force max component initial, final = 0.80610236 2.3240908e-05
  Final line search alpha, max atom move = 1.0000000 2.3240908e-05
  Iterations, force evaluations = 276 552

MPI task timing breakdown:
Section |  min time  |  avg time  |  max time  |%varavg| %total
---------------------------------------------------------------
Pair    | 0.84901    | 2.3198     | 2.9996     |  40.7 | 73.11
Neigh   | 2.0169e-05 | 0.0059174  | 0.0085469  |   3.2 |  0.19
Comm    | 0.056732   | 0.51644    | 1.5642     |  61.6 | 16.28
Output  | 0          | 0          | 0          |   0.0 |  0.00
Modify  | 3.2767e-05 | 0.004537   | 0.0096855  |   3.2 |  0.14
Other   |            | 0.3262     |            |       | 10.28

Nlocal:        2776.45 ave        3940 max           0 min
Histogram: 8 4 4 0 4 12 8 0 28 36
Nghost:        3879.18 ave        5425 max         232 min
Histogram: 8 0 8 0 16 0 8 8 16 40
Neighs:        79213.5 ave      114767 max           0 min
Histogram: 8 4 4 0 10 6 8 8 22 34

Total # of neighbors = 8238205
Ave neighs/atom = 28.530481
Neighbor list builds = 2
Dangerous builds = 0
The dot product: 2.56867242012646e-06
Setting atom values ...
  1 settings made for x
  1 settings made for y
  1 settings made for z
Setting up cg style minimization ...
  Unit style    : metal
  Current step  : 7518
Per MPI rank memory allocation (min/avg/max) = 5.441 | 5.816 | 6.074 Mbytes
Step PotEng KinEng TotEng v_fx v_fy v_fz 
    7518   -1152449.2            0   -1152449.2   0.35917596  0.088956831  -0.24545915 
    7777   -1152449.2            0   -1152449.2 1.2955522e-06 -9.4282304e-06 9.3328927e-06 
Loop time of 2.97605 on 104 procs for 259 steps with 288751 atoms

99.9% CPU use with 104 MPI tasks x 1 OpenMP threads

Minimization stats:
  Stopping criterion = energy tolerance
  Energy initial, next-to-last, final = 
     -1152449.20587981  -1152449.23148757  -1152449.23148757
  Force two-norm initial, final = 0.4749018 3.9638211e-05
  Force max component initial, final = 0.35917596 1.0931119e-05
  Final line search alpha, max atom move = 1.0000000 1.0931119e-05
  Iterations, force evaluations = 259 518

MPI task timing breakdown:
Section |  min time  |  avg time  |  max time  |%varavg| %total
---------------------------------------------------------------
Pair    | 0.79001    | 2.1668     | 2.8106     |  39.6 | 72.81
Neigh   | 1.0152e-05 | 0.002974   | 0.0042724  |   2.2 |  0.10
Comm    | 0.047539   | 0.48277    | 1.4658     |  59.4 | 16.22
Output  | 0          | 0          | 0          |   0.0 |  0.00
Modify  | 3.0692e-05 | 0.0042627  | 0.0091166  |   3.1 |  0.14
Other   |            | 0.3192     |            |       | 10.73

Nlocal:        2776.45 ave        3934 max           0 min
Histogram: 8 4 4 0 4 12 8 0 28 36
Nghost:        3879.15 ave        5426 max         232 min
Histogram: 8 0 8 0 16 0 8 8 16 40
Neighs:        79213.4 ave      114590 max           0 min
Histogram: 8 4 4 0 8 8 8 8 20 36

Total # of neighbors = 8238196
Ave neighs/atom = 28.530450
Neighbor list builds = 1
Dangerous builds = 0
The dot product: -5.55911476779733e-07
Setting atom values ...
  1 settings made for x
  1 settings made for y
  1 settings made for z
Setting up cg style minimization ...
  Unit style    : metal
  Current step  : 7777
Per MPI rank memory allocation (min/avg/max) = 5.441 | 5.816 | 6.074 Mbytes
Step PotEng KinEng TotEng v_fx v_fy v_fz 
    7777   -1152449.3            0   -1152449.3 -0.081625742 -0.0021764816  0.052697394 
    7961   -1152449.3            0   -1152449.3 -2.0933922e-05 -6.5332242e-06 2.0461233e-05 
Loop time of 2.12864 on 104 procs for 184 steps with 288751 atoms

99.9% CPU use with 104 MPI tasks x 1 OpenMP threads

Minimization stats:
  Stopping criterion = energy tolerance
  Energy initial, next-to-last, final = 
     -1152449.25295316  -1152449.25736514  -1152449.25736514
  Force two-norm initial, final = 0.18603177 0.000265656
  Force max component initial, final = 0.08801254 3.3665809e-05
  Final line search alpha, max atom move = 1.0000000 3.3665809e-05
  Iterations, force evaluations = 184 368

MPI task timing breakdown:
Section |  min time  |  avg time  |  max time  |%varavg| %total
---------------------------------------------------------------
Pair    | 0.56289    | 1.5509     | 2.0164     |  33.5 | 72.86
Neigh   | 0          | 0          | 0          |   0.0 |  0.00
Comm    | 0.032429   | 0.34539    | 1.0534     |  50.3 | 16.23
Output  | 0          | 0          | 0          |   0.0 |  0.00
Modify  | 2.1678e-05 | 0.0030274  | 0.0064774  |   2.6 |  0.14
Other   |            | 0.2293     |            |       | 10.77

Nlocal:        2776.45 ave        3933 max           0 min
Histogram: 8 4 4 0 4 12 8 0 26 38
Nghost:        3879.16 ave        5426 max         232 min
Histogram: 8 0 8 0 16 0 8 8 16 40
Neighs:        79213.5 ave      114570 max           0 min
Histogram: 8 4 4 0 8 8 8 8 20 36

Total # of neighbors = 8238205
Ave neighs/atom = 28.530481
Neighbor list builds = 0
Dangerous builds = 0
The dot product: 1.20829298342953e-06
Setting atom values ...
  1 settings made for x
  1 settings made for y
  1 settings made for z
Setting up cg style minimization ...
  Unit style    : metal
  Current step  : 7961
Per MPI rank memory allocation (min/avg/max) = 5.441 | 5.816 | 6.074 Mbytes
Step PotEng KinEng TotEng v_fx v_fy v_fz 
    7961   -1152449.3            0   -1152449.3  0.063942285 0.0071762978 -0.042853704 
    8000   -1152449.3            0   -1152449.3 -0.00031045741 -3.0426554e-05 0.00020309301 
[...]
Histogram: 8 4 4 0 4 12 8 0 24 40
Nghost:        3879.53 ave        5424 max         232 min
Histogram: 8 0 8 0 16 0 8 8 16 40
Neighs:        79213.4 ave      114241 max           0 min
Histogram: 8 4 4 0 8 8 8 8 18 38

Total # of neighbors = 8238195
Ave neighs/atom = 28.530447
Neighbor list builds = 0
Dangerous builds = 0
The dot product: 2.36714927944735e-08
Setting atom values ...
  1 settings made for x
  1 settings made for y
  1 settings made for z
Setting up cg style minimization ...
  Unit style    : metal
  Current step  : 28190
Per MPI rank memory allocation (min/avg/max) = 5.441 | 5.816 | 6.074 Mbytes
Step PotEng KinEng TotEng v_fx v_fy v_fz 
   28190   -1152449.4            0   -1152449.4 -3.3407429e-05 -0.030206016  0.031569238 
   28378   -1152449.4            0   -1152449.4 2.9049224e-06 4.2791641e-06 -6.3844001e-06 
Loop time of 2.14758 on 104 procs for 188 steps with 288751 atoms

99.9% CPU use with 104 MPI tasks x 1 OpenMP threads

Minimization stats:
  Stopping criterion = energy tolerance
  Energy initial, next-to-last, final = 
     -1152449.41258353  -1152449.41409543  -1152449.41409543
  Force two-norm initial, final = 0.17778326 0.00012583428
  Force max component initial, final = 0.08152039 2.7785850e-05
  Final line search alpha, max atom move = 1.0000000 2.7785850e-05
  Iterations, force evaluations = 188 376

MPI task timing breakdown:
Section |  min time  |  avg time  |  max time  |%varavg| %total
---------------------------------------------------------------
Pair    | 0.57136    | 1.574      | 2.0353     |  33.8 | 73.29
Neigh   | 0          | 0          | 0          |   0.0 |  0.00
Comm    | 0.041097   | 0.35071    | 1.0657     |  50.2 | 16.33
Output  | 0          | 0          | 0          |   0.0 |  0.00
Modify  | 2.1388e-05 | 0.0030953  | 0.0066762  |   2.6 |  0.14
Other   |            | 0.2198     |            |       | 10.24

Nlocal:        2776.45 ave        3930 max           0 min
Histogram: 8 4 4 0 4 12 8 0 24 40
Nghost:        3879.53 ave        5424 max         232 min
Histogram: 8 0 8 0 16 0 8 8 16 40
Neighs:        79213.5 ave      114250 max           0 min
Histogram: 8 4 4 0 8 8 8 8 18 38

Total # of neighbors = 8238199
Ave neighs/atom = 28.530461
Neighbor list builds = 0
Dangerous builds = 0
The dot product: -9.57429453756524e-09
Setting atom values ...
  1 settings made for x
  1 settings made for y
  1 settings made for z
Setting up cg style minimization ...
  Unit style    : metal
  Current step  : 28378
Per MPI rank memory allocation (min/avg/max) = 5.441 | 5.816 | 6.074 Mbytes
Step PotEng KinEng TotEng v_fx v_fy v_fz 
   28378   -1152449.4            0   -1152449.4 -0.0090995033 -0.030594473  0.037985993 
   28557   -1152449.4            0   -1152449.4 5.4125314e-05 1.2625464e-05 -4.8893956e-05 
Loop time of 2.04337 on 104 procs for 179 steps with 288751 atoms

99.9% CPU use with 104 MPI tasks x 1 OpenMP threads

Minimization stats:
  Stopping criterion = energy tolerance
  Energy initial, next-to-last, final = 
     -1152449.41344461  -1152449.41498207  -1152449.41498207
  Force two-norm initial, final = 0.17943694 0.00018254559
  Force max component initial, final = 0.080908787 5.4125314e-05
  Final line search alpha, max atom move = 1.0000000 5.4125314e-05
  Iterations, force evaluations = 179 358

MPI task timing breakdown:
Section |  min time  |  avg time  |  max time  |%varavg| %total
---------------------------------------------------------------
Pair    | 0.54533    | 1.501      | 1.9316     |  33.1 | 73.46
Neigh   | 0          | 0          | 0          |   0.0 |  0.00
Comm    | 0.034717   | 0.33334    | 1.014      |  49.2 | 16.31
Output  | 0          | 0          | 0          |   0.0 |  0.00
Modify  | 2.0426e-05 | 0.0029531  | 0.0063315  |   2.6 |  0.14
Other   |            | 0.2061     |            |       | 10.08

Nlocal:        2776.45 ave        3930 max           0 min
Histogram: 8 4 4 0 4 12 8 1 23 40
Nghost:        3879.57 ave        5424 max         232 min
Histogram: 8 0 8 0 16 0 8 8 16 40
Neighs:        79213.4 ave      114230 max           0 min
Histogram: 8 4 4 0 8 8 8 8 18 38

Total # of neighbors = 8238196
Ave neighs/atom = 28.530450
Neighbor list builds = 0
Dangerous builds = 0
The dot product: -1.63146788948731e-07
Setting atom values ...
  1 settings made for x
  1 settings made for y
  1 settings made for z
Setting up cg style minimization ...
  Unit style    : metal
  Current step  : 28557
Per MPI rank memory allocation (min/avg/max) = 5.441 | 5.816 | 6.074 Mbytes
Step PotEng KinEng TotEng v_fx v_fy v_fz 
   28557   -1152449.4            0   -1152449.4 -0.014948486 -0.031912262  0.043288475 
   28744   -1152449.4            0   -1152449.4 3.1699638e-05 1.0629625e-05 -3.2072738e-05 
Loop time of 2.13482 on 104 procs for 187 steps with 288751 atoms

99.9% CPU use with 104 MPI tasks x 1 OpenMP threads

Minimization stats:
  Stopping criterion = energy tolerance
  Energy initial, next-to-last, final = 
     -1152449.41254859  -1152449.41411112  -1152449.41411112
  Force two-norm initial, final = 0.18128258 0.00013071371
  Force max component initial, final = 0.08007473 3.7362033e-05
  Final line search alpha, max atom move = 1.0000000 3.7362033e-05
  Iterations, force evaluations = 187 374

MPI task timing breakdown:
Section |  min time  |  avg time  |  max time  |%varavg| %total
---------------------------------------------------------------
Pair    | 0.5705     | 1.5656     | 2.0196     |  33.8 | 73.34
Neigh   | 0          | 0          | 0          |   0.0 |  0.00
Comm    | 0.034173   | 0.34971    | 1.0704     |  50.1 | 16.38
Output  | 0          | 0          | 0          |   0.0 |  0.00
Modify  | 2.1443e-05 | 0.0030939  | 0.0066563  |   2.6 |  0.14
Other   |            | 0.2164     |            |       | 10.14

Nlocal:        2776.45 ave        3930 max           0 min
Histogram: 8 4 4 0 4 12 8 2 22 40
Nghost:        3879.57 ave        5424 max         232 min
Histogram: 8 0 8 0 16 0 8 8 16 40
Neighs:        79213.5 ave      114230 max           0 min
Histogram: 8 4 4 0 8 8 8 8 18 38

Total # of neighbors = 8238199
Ave neighs/atom = 28.530461
Neighbor list builds = 0
Dangerous builds = 0
The dot product: -1.83999861738999e-07
Setting atom values ...
  1 settings made for x
  1 settings made for y
  1 settings made for z
Setting up cg style minimization ...
  Unit style    : metal
  Current step  : 28744
Per MPI rank memory allocation (min/avg/max) = 5.441 | 5.816 | 6.074 Mbytes
Step PotEng KinEng TotEng v_fx v_fy v_fz 
   28744   -1152449.4            0   -1152449.4 -0.013720237 -0.032581806  0.043283738 
   28947   -1152449.4            0   -1152449.4 3.8566437e-06 1.0767355e-05 -1.3854913e-05 
Loop time of 2.36014 on 104 procs for 203 steps with 288751 atoms

99.9% CPU use with 104 MPI tasks x 1 OpenMP threads

Minimization stats:
  Stopping criterion = energy tolerance
  Energy initial, next-to-last, final = 
     -1152449.41003007  -1152449.41157046  -1152449.41157046
  Force two-norm initial, final = 0.18006357 8.0012781e-05
  Force max component initial, final = 0.079106101 1.3854913e-05
  Final line search alpha, max atom move = 1.0000000 1.3854913e-05
  Iterations, force evaluations = 203 406

MPI task timing breakdown:
Section |  min time  |  avg time  |  max time  |%varavg| %total
---------------------------------------------------------------
Pair    | 0.61914    | 1.7046     | 2.2018     |  35.3 | 72.22
Neigh   | 0          | 0          | 0          |   0.0 |  0.00
Comm    | 0.043417   | 0.38529    | 1.1582     |  51.6 | 16.32
Output  | 0          | 0          | 0          |   0.0 |  0.00
Modify  | 2.2873e-05 | 0.00337    | 0.0072814  |   2.8 |  0.14
Other   |            | 0.2669     |            |       | 11.31

Nlocal:        2776.45 ave        3930 max           0 min
Histogram: 8 4 4 0 4 12 8 2 22 40
Nghost:        3879.57 ave        5424 max         232 min
Histogram: 8 0 8 0 16 0 8 8 16 40
Neighs:        79213.5 ave      114230 max           0 min
Histogram: 8 4 4 0 8 8 8 8 18 38

Total # of neighbors = 8238202
Ave neighs/atom = 28.530471
Neighbor list builds = 0
Dangerous builds = 0
The dot product: -6.5671871620534e-08
Setting atom values ...
  1 settings made for x
  1 settings made for y
  1 settings made for z
Setting up cg style minimization ...
  Unit style    : metal
  Current step  : 28947
Per MPI rank memory allocation (min/avg/max) = 5.441 | 5.816 | 6.074 Mbytes
Step PotEng KinEng TotEng v_fx v_fy v_fz 
   28947   -1152449.4            0   -1152449.4 -0.010696855 -0.033315578  0.042151276 
   29000   -1152449.4            0   -1152449.4 -1.8374107e-05 0.0001143074 -0.00010799285 
   29142   -1152449.4            0   -1152449.4 1.2664674e-05 1.0225662e-05 -1.9177156e-05 
Loop time of 2.23088 on 104 procs for 195 steps with 288751 atoms

99.9% CPU use with 104 MPI tasks x 1 OpenMP threads

Minimization stats:
  Stopping criterion = energy tolerance
  Energy initial, next-to-last, final = 
     -1152449.40584872  -1152449.40734917  -1152449.40734917
  Force two-norm initial, final = 0.17783867 0.00011429874
  Force max component initial, final = 0.078126325 3.2554873e-05
  Final line search alpha, max atom move = 1.0000000 3.2554873e-05
  Iterations, force evaluations = 195 390

MPI task timing breakdown:
Section |  min time  |  avg time  |  max time  |%varavg| %total
---------------------------------------------------------------
Pair    | 0.59729    | 1.6333     | 2.1011     |  34.4 | 73.21
Neigh   | 0          | 0          | 0          |   0.0 |  0.00
Comm    | 0.035845   | 0.36692    | 1.1095     |  50.8 | 16.45
Output  | 9.7079e-05 | 0.00010314 | 0.00023018 |   0.0 |  0.00
Modify  | 2.257e-05  | 0.0032228  | 0.0070056  |   2.7 |  0.14
Other   |            | 0.2274     |            |       | 10.19

Nlocal:        2776.45 ave        3930 max           0 min
Histogram: 8 4 4 0 4 12 8 2 22 40
Nghost:        3879.66 ave        5424 max         232 min
Histogram: 8 0 8 0 16 0 8 8 16 40
Neighs:        79213.5 ave      114230 max           0 min
Histogram: 8 4 4 0 8 8 8 8 18 38

Total # of neighbors = 8238202
Ave neighs/atom = 28.530471
Neighbor list builds = 0
Dangerous builds = 0
The dot product: -9.43055797996602e-08
Setting atom values ...
  1 settings made for x
  1 settings made for y
  1 settings made for z
Setting up cg style minimization ...
  Unit style    : metal
  Current step  : 29142
Per MPI rank memory allocation (min/avg/max) = 5.441 | 5.816 | 6.074 Mbytes
Step PotEng KinEng TotEng v_fx v_fy v_fz 
   29142   -1152449.4            0   -1152449.4 -0.0067207822 -0.034373591  0.040711822 
   29339   -1152449.4            0   -1152449.4 7.1648291e-06 7.4074554e-06 -1.2586486e-05 
Loop time of 2.2501 on 104 procs for 197 steps with 288751 atoms

99.9% CPU use with 104 MPI tasks x 1 OpenMP threads

Minimization stats:
  Stopping criterion = energy tolerance
  Energy initial, next-to-last, final = 
     -1152449.40000435  -1152449.40145602  -1152449.40145602
  Force two-norm initial, final = 0.17530805 0.00010024203
  Force max component initial, final = 0.077107725 1.2586486e-05
  Final line search alpha, max atom move = 1.0000000 1.2586486e-05
  Iterations, force evaluations = 197 394

MPI task timing breakdown:
Section |  min time  |  avg time  |  max time  |%varavg| %total
---------------------------------------------------------------
Pair    | 0.60226    | 1.6507     | 2.1322     |  34.7 | 73.36
Neigh   | 0          | 0          | 0          |   0.0 |  0.00
Comm    | 0.036292   | 0.36809    | 1.1149     |  51.4 | 16.36
Output  | 0          | 0          | 0          |   0.0 |  0.00
Modify  | 2.3689e-05 | 0.0032447  | 0.0070028  |   2.7 |  0.14
Other   |            | 0.2281     |            |       | 10.14

Nlocal:        2776.45 ave        3930 max           0 min
Histogram: 8 4 4 0 4 12 8 2 22 40
Nghost:        3879.70 ave        5424 max         232 min
Histogram: 8 0 8 0 16 0 8 8 16 40
Neighs:        79213.5 ave      114221 max           0 min
Histogram: 8 4 4 0 8 8 8 8 18 38

Total # of neighbors = 8238201
Ave neighs/atom = 28.530467
Neighbor list builds = 0
Dangerous builds = 0
The dot product: -5.67753560607899e-08
Setting atom values ...
  1 settings made for x
  1 settings made for y
  1 settings made for z
Setting up cg style minimization ...
  Unit style    : metal
  Current step  : 29339
Per MPI rank memory allocation (min/avg/max) = 5.441 | 5.816 | 6.074 Mbytes
Step PotEng KinEng TotEng v_fx v_fy v_fz 
   29339   -1152449.4            0   -1152449.4 -0.001884602 -0.035746276    0.0390171 
   29531   -1152449.4            0   -1152449.4 -1.5658023e-05 9.7911456e-06 1.2909157e-07 
Loop time of 2.19537 on 104 procs for 192 steps with 288751 atoms

99.9% CPU use with 104 MPI tasks x 1 OpenMP threads

Minimization stats:
  Stopping criterion = energy tolerance
  Energy initial, next-to-last, final = 
     -1152449.39253425   -1152449.3939316   -1152449.3939316
  Force two-norm initial, final = 0.17286808 0.00010891007
  Force max component initial, final = 0.076525133 1.6856771e-05
  Final line search alpha, max atom move = 1.0000000 1.6856771e-05
  Iterations, force evaluations = 192 384

MPI task timing breakdown:
Section |  min time  |  avg time  |  max time  |%varavg| %total
---------------------------------------------------------------
Pair    | 0.58456    | 1.6097     | 2.077      |  34.3 | 73.32
Neigh   | 0          | 0          | 0          |   0.0 |  0.00
Comm    | 0.034553   | 0.3596     | 1.0996     |  50.8 | 16.38
Output  | 0          | 0          | 0          |   0.0 |  0.00
Modify  | 2.1822e-05 | 0.0031691  | 0.0068553  |   2.7 |  0.14
Other   |            | 0.2229     |            |       | 10.15

Nlocal:        2776.45 ave        3930 max           0 min
Histogram: 8 4 4 0 4 12 8 2 22 40
Nghost:        3879.68 ave        5424 max         232 min
Histogram: 8 0 8 0 16 0 8 8 16 40
Neighs:        79213.5 ave      114221 max           0 min
Histogram: 8 4 4 0 8 8 8 8 18 38

Total # of neighbors = 8238201
Ave neighs/atom = 28.530467
Neighbor list builds = 0
Dangerous builds = 0
The dot product: -2.27491821313719e-09
Setting atom values ...
  1 settings made for x
  1 settings made for y
  1 settings made for z
Setting up cg style minimization ...
  Unit style    : metal
  Current step  : 29531
Per MPI rank memory allocation (min/avg/max) = 5.441 | 5.816 | 6.074 Mbytes
Step PotEng KinEng TotEng v_fx v_fy v_fz 
   29531   -1152449.4            0   -1152449.4 0.0046394566 -0.037697131  0.036794848 
   29730   -1152449.4            0   -1152449.4 1.7286947e-05 1.1112771e-05 -2.334695e-05 
Loop time of 2.30094 on 104 procs for 199 steps with 288751 atoms

99.9% CPU use with 104 MPI tasks x 1 OpenMP threads

Minimization stats:
  Stopping criterion = energy tolerance
  Energy initial, next-to-last, final = 
     -1152449.38351694  -1152449.38485832  -1152449.38485832
  Force two-norm initial, final = 0.17079263 9.2509018e-05
  Force max component initial, final = 0.076982717 2.4306220e-05
  Final line search alpha, max atom move = 1.0000000 2.4306220e-05
  Iterations, force evaluations = 199 398

MPI task timing breakdown:
Section |  min time  |  avg time  |  max time  |%varavg| %total
---------------------------------------------------------------
Pair    | 0.60704    | 1.6686     | 2.1533     |  34.8 | 72.52
Neigh   | 0          | 0          | 0          |   0.0 |  0.00
Comm    | 0.037136   | 0.37511    | 1.1337     |  51.3 | 16.30
Output  | 0          | 0          | 0          |   0.0 |  0.00
Modify  | 2.2684e-05 | 0.0032792  | 0.0070488  |   2.7 |  0.14
Other   |            | 0.2539     |            |       | 11.04

Nlocal:        2776.45 ave        3930 max           0 min
Histogram: 8 4 4 0 4 12 8 2 22 40
Nghost:        3879.72 ave        5424 max         232 min
Histogram: 8 0 8 0 16 0 8 8 16 40
Neighs:        79213.5 ave      114221 max           0 min
Histogram: 8 4 4 0 8 8 8 8 18 38

Total # of neighbors = 8238199
Ave neighs/atom = 28.530461
Neighbor list builds = 0
Dangerous builds = 0
The dot product: -8.25972108094752e-08
Setting atom values ...
  1 settings made for x
  1 settings made for y
  1 settings made for z
Setting up cg style minimization ...
  Unit style    : metal
  Current step  : 29730
Per MPI rank memory allocation (min/avg/max) = 5.441 | 5.816 | 6.074 Mbytes
Step PotEng KinEng TotEng v_fx v_fy v_fz 
   29730   -1152449.4            0   -1152449.4   0.01449786  -0.04067214  0.033422373 
   29872   -1152449.4            0   -1152449.4 -6.7395662e-05 1.3614122e-06 4.3775399e-05 
Loop time of 1.6258 on 104 procs for 142 steps with 288751 atoms

99.9% CPU use with 104 MPI tasks x 1 OpenMP threads

Minimization stats:
  Stopping criterion = energy tolerance
  Energy initial, next-to-last, final = 
     -1152449.37315364  -1152449.37448003  -1152449.37448003
  Force two-norm initial, final = 0.17043682 0.0002659536
  Force max component initial, final = 0.077288456 6.7395662e-05
  Final line search alpha, max atom move = 1.0000000 6.7395662e-05
  Iterations, force evaluations = 142 284

MPI task timing breakdown:
Section |  min time  |  avg time  |  max time  |%varavg| %total
---------------------------------------------------------------
Pair    | 0.43366    | 1.1905     | 1.5408     |  29.4 | 73.22
Neigh   | 0          | 0          | 0          |   0.0 |  0.00
Comm    | 0.029814   | 0.26456    | 0.80451    |  43.7 | 16.27
Output  | 0          | 0          | 0          |   0.0 |  0.00
Modify  | 1.7177e-05 | 0.0023422  | 0.0050534  |   2.3 |  0.14
Other   |            | 0.1684     |            |       | 10.36

Nlocal:        2776.45 ave        3930 max           0 min
Histogram: 8 4 4 0 4 12 8 2 22 40
Nghost:        3879.70 ave        5424 max         232 min
Histogram: 8 0 8 0 16 0 8 8 16 40
Neighs:        79213.4 ave      114231 max           0 min
Histogram: 8 4 4 0 8 8 8 8 18 38

Total # of neighbors = 8238197
Ave neighs/atom = 28.530454
Neighbor list builds = 0
Dangerous builds = 0
The dot product: -6.29043217402676e-08
Setting atom values ...
  1 settings made for x
  1 settings made for y
  1 settings made for z
Setting up cg style minimization ...
  Unit style    : metal
  Current step  : 29872
Per MPI rank memory allocation (min/avg/max) = 5.441 | 5.816 | 6.074 Mbytes
Step PotEng KinEng TotEng v_fx v_fy v_fz 
   29872   -1152449.4            0   -1152449.4  0.025958449 -0.044209637  0.029622379 
   29947   -1152449.4            0   -1152449.4 1.9402749e-06 2.1848022e-05 -2.454227e-05 
Loop time of 0.863284 on 104 procs for 75 steps with 288751 atoms

99.9% CPU use with 104 MPI tasks x 1 OpenMP threads

Minimization stats:
  Stopping criterion = energy tolerance
  Energy initial, next-to-last, final = 
     -1152449.36195259  -1152449.36359793  -1152449.36359793
  Force two-norm initial, final = 0.1737333 0.00025759355
  Force max component initial, final = 0.077082843 2.4542270e-05
  Final line search alpha, max atom move = 1.0000000 2.4542270e-05
  Iterations, force evaluations = 75 150

MPI task timing breakdown:
Section |  min time  |  avg time  |  max time  |%varavg| %total
---------------------------------------------------------------
Pair    | 0.22947    | 0.63366    | 0.81203    |  21.3 | 73.40
Neigh   | 0          | 0          | 0          |   0.0 |  0.00
Comm    | 0.01364    | 0.1404     | 0.42636    |  32.0 | 16.26
Output  | 0          | 0          | 0          |   0.0 |  0.00
Modify  | 8.7072e-06 | 0.001242   | 0.0026642  |   1.7 |  0.14
Other   |            | 0.08798    |            |       | 10.19

Nlocal:        2776.45 ave        3930 max           0 min
Histogram: 8 4 4 0 4 12 8 2 22 40
Nghost:        3879.68 ave        5424 max         232 min
Histogram: 8 0 8 0 16 0 8 8 16 40
Neighs:        79213.4 ave      114231 max           0 min
Histogram: 8 4 4 0 8 8 8 8 18 38

Total # of neighbors = 8238198
Ave neighs/atom = 28.530457
Neighbor list builds = 0
Dangerous builds = 0
The dot product: -1.77565741051935e-07
