LAMMPS (29 Oct 2020)
OMP_NUM_THREADS environment is not set. Defaulting to 1 thread. (../comm.cpp:94)
  using 1 OpenMP thread(s) per MPI task
OMP_NUM_THREADS environment is not set. Defaulting to 1 thread. (../comm.cpp:94)
  using 1 OpenMP thread(s) per MPI task
Reading data file ...
  orthogonal box = (-122.39241 -121.13707 -37.090501) to (122.39241 121.13707 37.090501)
  13 by 4 by 2 MPI processor grid
  reading atoms ...
  288751 atoms
  read_data CPU = 0.406 seconds
199981 atoms in group inner
88770 atoms in group outer
1 atoms in group carbon
Neighbor list info ...
  update every 1 steps, delay 0 steps, check yes
  max neighbors/atom: 2000, page size: 100000
  master list distance cutoff = 5.6
  ghost atom cutoff = 5.6
  binsize = 2.8, bins = 88 87 27
  1 neighbor lists, perpetual/occasional/extra = 1 0 0
  (1) pair eam/alloy, perpetual
      attributes: half, newton on
      pair build: half/bin/atomonly/newton
      stencil: half/bin/3d/newton
      bin: standard
Setting up cg style minimization ...
  Unit style    : metal
  Current step  : 0
Per MPI rank memory allocation (min/avg/max) = 5.441 | 5.816 | 6.074 Mbytes
Step v_fx v_fy v_fz PotEng KinEng TotEng 
       0   0.12515559   -29.934295    50.219904   -1152433.4            0   -1152433.4 
     203 -6.1228952e-07 -9.4193685e-07 1.8683004e-06   -1152449.5            0   -1152449.5 
Loop time of 2.35571 on 104 procs for 203 steps with 288751 atoms

99.9% CPU use with 104 MPI tasks x 1 OpenMP threads

Minimization stats:
  Stopping criterion = energy tolerance
  Energy initial, next-to-last, final = 
     -1152433.36810732  -1152449.45035271  -1152449.45035271
  Force two-norm initial, final = 87.633700 2.7382569e-05
  Force max component initial, final = 57.371522 4.6883291e-06
  Final line search alpha, max atom move = 1.0000000 4.6883291e-06
  Iterations, force evaluations = 203 398

MPI task timing breakdown:
Section |  min time  |  avg time  |  max time  |%varavg| %total
---------------------------------------------------------------
Pair    | 0.63287    | 1.6768     | 2.1736     |  34.2 | 71.18
Neigh   | 5.2581e-05 | 0.014709   | 0.021382   |   5.0 |  0.62
Comm    | 0.038156   | 0.37985    | 1.1325     |  51.2 | 16.12
Output  | 0          | 0          | 0          |   0.0 |  0.00
Modify  | 2.2908e-05 | 0.0021444  | 0.0054825  |   2.9 |  0.09
Other   |            | 0.2822     |            |       | 11.98

Nlocal:        2776.45 ave        3961 max           0 min
Histogram: 8 4 4 0 6 10 8 2 28 34
Nghost:        3879.01 ave        5424 max         232 min
Histogram: 8 0 8 0 16 0 8 8 16 40
Neighs:        79213.5 ave      115455 max           0 min
Histogram: 8 4 4 0 10 6 8 8 24 32

Total # of neighbors = 8238207
Ave neighs/atom = 28.530488
Neighbor list builds = 5
Dangerous builds = 0
Setting atom values ...
  1 settings made for x
  1 settings made for y
  1 settings made for z
Setting up cg style minimization ...
  Unit style    : metal
  Current step  : 203
Per MPI rank memory allocation (min/avg/max) = 5.441 | 5.816 | 6.074 Mbytes
Step PotEng KinEng TotEng v_fx v_fy v_fz 
     203   -1152449.4            0   -1152449.4  0.010217045 -0.0083282548 -0.023202592 
     411   -1152449.5            0   -1152449.5 -5.8062804e-06 -3.1381696e-06 6.4525571e-06 
Loop time of 2.46028 on 104 procs for 208 steps with 288751 atoms

99.9% CPU use with 104 MPI tasks x 1 OpenMP threads

Minimization stats:
  Stopping criterion = energy tolerance
  Energy initial, next-to-last, final = 
     -1152449.44967151  -1152449.45009691  -1152449.45009691
  Force two-norm initial, final = 0.094762955 3.3078856e-05
  Force max component initial, final = 0.045880052 7.4830238e-06
  Final line search alpha, max atom move = 1.0000000 7.4830238e-06
  Iterations, force evaluations = 208 416

MPI task timing breakdown:
Section |  min time  |  avg time  |  max time  |%varavg| %total
---------------------------------------------------------------
Pair    | 0.63407    | 1.7562     | 2.288      |  35.8 | 71.38
Neigh   | 0          | 0          | 0          |   0.0 |  0.00
Comm    | 0.048962   | 0.40553    | 1.2134     |  52.4 | 16.48
Output  | 0          | 0          | 0          |   0.0 |  0.00
Modify  | 2.9669e-05 | 0.0034435  | 0.0072878  |   2.8 |  0.14
Other   |            | 0.2951     |            |       | 12.00

Nlocal:        2776.45 ave        3961 max           0 min
Histogram: 8 4 4 0 6 10 8 2 28 34
Nghost:        3879.01 ave        5425 max         232 min
Histogram: 8 0 8 0 16 0 8 8 16 40
Neighs:        79213.4 ave      115455 max           0 min
Histogram: 8 4 4 0 10 6 8 8 24 32

Total # of neighbors = 8238197
Ave neighs/atom = 28.530454
Neighbor list builds = 0
Dangerous builds = 0
Setting atom values ...
  1 settings made for x
  1 settings made for y
  1 settings made for z
Setting up cg style minimization ...
  Unit style    : metal
  Current step  : 411
Per MPI rank memory allocation (min/avg/max) = 5.441 | 5.816 | 6.074 Mbytes
Step PotEng KinEng TotEng v_fx v_fy v_fz 
     411   -1152449.4            0   -1152449.4  0.014054431  -0.01476556 -0.040898783 
     612   -1152449.4            0   -1152449.4 -4.4096889e-06 -1.7149674e-06 6.9018368e-06 
Loop time of 2.34018 on 104 procs for 201 steps with 288751 atoms

99.9% CPU use with 104 MPI tasks x 1 OpenMP threads

Minimization stats:
  Stopping criterion = energy tolerance
  Energy initial, next-to-last, final = 
     -1152449.44696647  -1152449.44832313  -1152449.44832313
  Force two-norm initial, final = 0.16780181 8.1402617e-05
  Force max component initial, final = 0.088585537 1.1374451e-05
  Final line search alpha, max atom move = 1.0000000 1.1374451e-05
  Iterations, force evaluations = 201 402

MPI task timing breakdown:
Section |  min time  |  avg time  |  max time  |%varavg| %total
---------------------------------------------------------------
Pair    | 0.61079    | 1.6858     | 2.2003     |  35.0 | 72.04
Neigh   | 0          | 0          | 0          |   0.0 |  0.00
Comm    | 0.038402   | 0.38067    | 1.1429     |  51.8 | 16.27
Output  | 0          | 0          | 0          |   0.0 |  0.00
Modify  | 2.4112e-05 | 0.0033255  | 0.0070542  |   2.7 |  0.14
Other   |            | 0.2704     |            |       | 11.55

Nlocal:        2776.45 ave        3961 max           0 min
Histogram: 8 4 4 0 6 10 8 2 28 34
Nghost:        3879.01 ave        5425 max         232 min
Histogram: 8 0 8 0 16 0 8 8 16 40
Neighs:        79213.4 ave      115455 max           0 min
Histogram: 8 4 4 0 10 6 8 8 24 32

Total # of neighbors = 8238196
Ave neighs/atom = 28.530450
Neighbor list builds = 0
Dangerous builds = 0
The dot product: -1.48265551386673e-08
Setting atom values ...
  1 settings made for x
  1 settings made for y
  1 settings made for z
Setting up cg style minimization ...
  Unit style    : metal
  Current step  : 612
Per MPI rank memory allocation (min/avg/max) = 5.441 | 5.816 | 6.074 Mbytes
Step PotEng KinEng TotEng v_fx v_fy v_fz 
     612   -1152449.4            0   -1152449.4  0.010979673 -0.015840435 -0.041178569 
     802   -1152449.4            0   -1152449.4 -5.7259578e-07 -3.8162724e-06 -2.6579975e-06 
Loop time of 2.20572 on 104 procs for 190 steps with 288751 atoms

99.9% CPU use with 104 MPI tasks x 1 OpenMP threads

Minimization stats:
  Stopping criterion = energy tolerance
  Energy initial, next-to-last, final = 
     -1152449.44350307  -1152449.44483988  -1152449.44483988
  Force two-norm initial, final = 0.16538581 8.8112060e-05
  Force max component initial, final = 0.092630339 1.6065737e-05
  Final line search alpha, max atom move = 1.0000000 1.6065737e-05
  Iterations, force evaluations = 190 380

MPI task timing breakdown:
Section |  min time  |  avg time  |  max time  |%varavg| %total
---------------------------------------------------------------
Pair    | 0.58042    | 1.6042     | 2.0799     |  34.1 | 72.73
Neigh   | 0          | 0          | 0          |   0.0 |  0.00
Comm    | 0.034936   | 0.35852    | 1.0921     |  50.8 | 16.25
Output  | 0          | 0          | 0          |   0.0 |  0.00
Modify  | 2.3385e-05 | 0.0031388  | 0.0067106  |   2.6 |  0.14
Other   |            | 0.2399     |            |       | 10.87

Nlocal:        2776.45 ave        3961 max           0 min
Histogram: 8 4 4 0 6 10 8 2 28 34
Nghost:        3879.01 ave        5424 max         232 min
Histogram: 8 0 8 0 16 0 8 8 16 40
Neighs:        79213.4 ave      115457 max           0 min
Histogram: 8 4 4 0 10 6 8 8 24 32

Total # of neighbors = 8238194
Ave neighs/atom = 28.530443
Neighbor list builds = 0
Dangerous builds = 0
The dot product: 5.86163515305686e-09
Setting atom values ...
  1 settings made for x
  1 settings made for y
  1 settings made for z
Setting up cg style minimization ...
  Unit style    : metal
  Current step  : 802
Per MPI rank memory allocation (min/avg/max) = 5.441 | 5.816 | 6.074 Mbytes
Step PotEng KinEng TotEng v_fx v_fy v_fz 
     802   -1152449.4            0   -1152449.4    0.0110661  -0.01372986 -0.044710291 
     950   -1152449.4            0   -1152449.4 -1.0418128e-05 -2.599074e-05 -3.6115596e-06 
Loop time of 1.71556 on 104 procs for 148 steps with 288751 atoms

99.9% CPU use with 104 MPI tasks x 1 OpenMP threads

Minimization stats:
  Stopping criterion = energy tolerance
  Energy initial, next-to-last, final = 
     -1152449.43837052  -1152449.43968942  -1152449.43968942
  Force two-norm initial, final = 0.16406427 0.00021571148
  Force max component initial, final = 0.096381982 4.1524502e-05
  Final line search alpha, max atom move = 1.0000000 4.1524502e-05
  Iterations, force evaluations = 148 296

MPI task timing breakdown:
Section |  min time  |  avg time  |  max time  |%varavg| %total
---------------------------------------------------------------
Pair    | 0.44934    | 1.2397     | 1.6175     |  30.0 | 72.26
Neigh   | 0          | 0          | 0          |   0.0 |  0.00
Comm    | 0.026594   | 0.27839    | 0.83613    |  44.5 | 16.23
Output  | 0          | 0          | 0          |   0.0 |  0.00
Modify  | 1.8668e-05 | 0.0024433  | 0.0051713  |   2.3 |  0.14
Other   |            | 0.195      |            |       | 11.37

Nlocal:        2776.45 ave        3961 max           0 min
Histogram: 8 4 4 0 6 10 8 2 28 34
Nghost:        3879.01 ave        5424 max         232 min
Histogram: 8 0 8 0 16 0 8 8 16 40
Neighs:        79213.4 ave      115457 max           0 min
Histogram: 8 4 4 0 10 6 8 8 24 32

Total # of neighbors = 8238195
Ave neighs/atom = 28.530447
Neighbor list builds = 0
Dangerous builds = 0
The dot product: 6.70072812496989e-09
Setting atom values ...
  1 settings made for x
  1 settings made for y
  1 settings made for z
Setting up cg style minimization ...
  Unit style    : metal
  Current step  : 950
Per MPI rank memory allocation (min/avg/max) = 5.441 | 5.816 | 6.074 Mbytes
Step PotEng KinEng TotEng v_fx v_fy v_fz 
     950   -1152449.4            0   -1152449.4  0.013300473 -0.0083316989 -0.052289935 
    1000   -1152449.4            0   -1152449.4 1.0153642e-05 -0.00017088493 -0.00026709583 
    1077   -1152449.4            0   -1152449.4 -1.100462e-05 -4.2109725e-05 -2.440037e-05 
Loop time of 1.50878 on 104 procs for 127 steps with 288751 atoms

99.9% CPU use with 104 MPI tasks x 1 OpenMP threads

Minimization stats:
  Stopping criterion = energy tolerance
  Energy initial, next-to-last, final = 
     -1152449.43169879  -1152449.43304152  -1152449.43304152
  Force two-norm initial, final = 0.16435034 0.00014057875
  Force max component initial, final = 0.10021685 4.2109725e-05
  Final line search alpha, max atom move = 1.0000000 4.2109725e-05
  Iterations, force evaluations = 127 254

MPI task timing breakdown:
Section |  min time  |  avg time  |  max time  |%varavg| %total
---------------------------------------------------------------
Pair    | 0.39175    | 1.0733     | 1.3909     |  27.6 | 71.14
Neigh   | 0          | 0          | 0          |   0.0 |  0.00
Comm    | 0.025024   | 0.24524    | 0.72595    |  40.8 | 16.25
Output  | 0.00021483 | 0.00022463 | 0.00038399 |   0.0 |  0.01
Modify  | 1.612e-05  | 0.0021032  | 0.0044671  |   2.2 |  0.14
Other   |            | 0.1879     |            |       | 12.45

Nlocal:        2776.45 ave        3961 max           0 min
Histogram: 8 4 4 0 6 10 8 2 28 34
Nghost:        3879.01 ave        5424 max         232 min
Histogram: 8 0 8 0 16 0 8 8 16 40
Neighs:        79213.4 ave      115465 max           0 min
Histogram: 8 4 4 0 10 6 8 8 24 32

Total # of neighbors = 8238195
Ave neighs/atom = 28.530447
Neighbor list builds = 0
Dangerous builds = 0
The dot product: 8.18514108287407e-08
Setting atom values ...
  1 settings made for x
  1 settings made for y
  1 settings made for z
Setting up cg style minimization ...
  Unit style    : metal
  Current step  : 1077
Per MPI rank memory allocation (min/avg/max) = 5.441 | 5.816 | 6.074 Mbytes
Step PotEng KinEng TotEng v_fx v_fy v_fz 
    1077   -1152449.4            0   -1152449.4  0.015155453 0.0010409233 -0.059556091 
    1189   -1152449.4            0   -1152449.4 7.2558688e-06 6.9682807e-06 -1.7297654e-05 
Loop time of 1.28915 on 104 procs for 112 steps with 288751 atoms

99.9% CPU use with 104 MPI tasks x 1 OpenMP threads

Minimization stats:
  Stopping criterion = energy tolerance
  Energy initial, next-to-last, final = 
     -1152449.42372911  -1152449.42513598  -1152449.42513598
  Force two-norm initial, final = 0.16513519 0.00018076799
  Force max component initial, final = 0.10385822 1.7297654e-05
  Final line search alpha, max atom move = 1.0000000 1.7297654e-05
  Iterations, force evaluations = 112 224

MPI task timing breakdown:
Section |  min time  |  avg time  |  max time  |%varavg| %total
---------------------------------------------------------------
Pair    | 0.34031    | 0.93862    | 1.2192     |  26.1 | 72.81
Neigh   | 0          | 0          | 0          |   0.0 |  0.00
Comm    | 0.020452   | 0.20861    | 0.6335     |  39.1 | 16.18
Output  | 0          | 0          | 0          |   0.0 |  0.00
Modify  | 1.4059e-05 | 0.0018501  | 0.0039212  |   2.0 |  0.14
Other   |            | 0.1401     |            |       | 10.87

Nlocal:        2776.45 ave        3961 max           0 min
Histogram: 8 4 4 0 6 10 8 2 28 34
Nghost:        3879.01 ave        5424 max         232 min
Histogram: 8 0 8 0 16 0 8 8 16 40
Neighs:        79213.4 ave      115465 max           0 min
Histogram: 8 4 4 0 10 6 8 8 24 32

Total # of neighbors = 8238194
Ave neighs/atom = 28.530443
Neighbor list builds = 0
Dangerous builds = 0
The dot product: 1.80271540596314e-07
Setting atom values ...
  1 settings made for x
  1 settings made for y
  1 settings made for z
Setting up cg style minimization ...
  Unit style    : metal
  Current step  : 1189
Per MPI rank memory allocation (min/avg/max) = 5.441 | 5.816 | 6.074 Mbytes
Step PotEng KinEng TotEng v_fx v_fy v_fz 
    1189   -1152449.4            0   -1152449.4  0.013587946 0.0090503717  -0.06203506 
    1337   -1152449.4            0   -1152449.4 1.9202735e-05 6.0925815e-05 2.6801119e-05 
Loop time of 1.70651 on 104 procs for 148 steps with 288751 atoms

99.9% CPU use with 104 MPI tasks x 1 OpenMP threads

Minimization stats:
  Stopping criterion = energy tolerance
  Energy initial, next-to-last, final = 
     -1152449.41460312  -1152449.41604726  -1152449.41604726
  Force two-norm initial, final = 0.16474216 0.00028087715
  Force max component initial, final = 0.10656034 6.8963737e-05
  Final line search alpha, max atom move = 1.0000000 6.8963737e-05
  Iterations, force evaluations = 148 296

MPI task timing breakdown:
Section |  min time  |  avg time  |  max time  |%varavg| %total
---------------------------------------------------------------
Pair    | 0.45065    | 1.2454     | 1.6165     |  30.0 | 72.98
Neigh   | 0          | 0          | 0          |   0.0 |  0.00
Comm    | 0.026066   | 0.27826    | 0.84053    |  44.8 | 16.31
Output  | 0          | 0          | 0          |   0.0 |  0.00
Modify  | 1.8708e-05 | 0.0024444  | 0.0051849  |   2.3 |  0.14
Other   |            | 0.1804     |            |       | 10.57

Nlocal:        2776.45 ave        3961 max           0 min
Histogram: 8 4 4 0 6 10 8 2 28 34
Nghost:        3879.01 ave        5424 max         232 min
Histogram: 8 0 8 0 16 0 8 8 16 40
Neighs:        79213.4 ave      115465 max           0 min
Histogram: 8 4 4 0 10 6 8 8 24 32

Total # of neighbors = 8238194
Ave neighs/atom = 28.530443
Neighbor list builds = 0
Dangerous builds = 0
The dot product: 9.71844660091826e-08
Setting atom values ...
  1 settings made for x
  1 settings made for y
  1 settings made for z
Setting up cg style minimization ...
  Unit style    : metal
  Current step  : 1337
Per MPI rank memory allocation (min/avg/max) = 5.441 | 5.816 | 6.074 Mbytes
Step PotEng KinEng TotEng v_fx v_fy v_fz 
    1337   -1152449.4            0   -1152449.4 0.0096780493  0.013164469 -0.059629332 
    1708   -1152449.4            0   -1152449.4 -3.8923596e-09 -4.6576914e-09 2.6473533e-08 
Loop time of 4.28164 on 104 procs for 371 steps with 288751 atoms

99.9% CPU use with 104 MPI tasks x 1 OpenMP threads

Minimization stats:
  Stopping criterion = energy tolerance
  Energy initial, next-to-last, final = 
     -1152449.40430322   -1152449.4057339   -1152449.4057339
  Force two-norm initial, final = 0.16312765 1.2000618e-07
  Force max component initial, final = 0.10801469 2.6473533e-08
  Final line search alpha, max atom move = 1.0000000 2.6473533e-08
  Iterations, force evaluations = 371 742

MPI task timing breakdown:
Section |  min time  |  avg time  |  max time  |%varavg| %total
---------------------------------------------------------------
Pair    | 1.1267     | 3.1057     | 4.0364     |  47.5 | 72.53
Neigh   | 0          | 0          | 0          |   0.0 |  0.00
Comm    | 0.066513   | 0.69519    | 2.0894     |  70.8 | 16.24
Output  | 0          | 0          | 0          |   0.0 |  0.00
Modify  | 4.4422e-05 | 0.0061066  | 0.013027   |   3.7 |  0.14
Other   |            | 0.4747     |            |       | 11.09

Nlocal:        2776.45 ave        3961 max           0 min
Histogram: 8 4 4 0 6 10 8 2 28 34
Nghost:        3879.01 ave        5424 max         232 min
Histogram: 8 0 8 0 16 0 8 8 16 40
Neighs:        79213.4 ave      115457 max           0 min
Histogram: 8 4 4 0 10 6 8 8 24 32

Total # of neighbors = 8238196
Ave neighs/atom = 28.530450
Neighbor list builds = 0
Dangerous builds = 0
The dot product: -2.69173643319379e-10
Setting atom values ...
  1 settings made for x
  1 settings made for y
  1 settings made for z
Setting up cg style minimization ...
  Unit style    : metal
  Current step  : 1708
Per MPI rank memory allocation (min/avg/max) = 5.441 | 5.816 | 6.074 Mbytes
Step PotEng KinEng TotEng v_fx v_fy v_fz 
    1708   -1152449.4            0   -1152449.4 0.0052998835     0.013235 -0.054051885 
    1877   -1152449.4            0   -1152449.4 2.2452777e-06 9.6341569e-06 2.5261345e-05 
Loop time of 1.97023 on 104 procs for 169 steps with 288751 atoms

99.9% CPU use with 104 MPI tasks x 1 OpenMP threads

Minimization stats:
  Stopping criterion = energy tolerance
  Energy initial, next-to-last, final = 
       -1152449.392747  -1152449.39412696  -1152449.39412696
  Force two-norm initial, final = 0.16091338 0.00020140433
  Force max component initial, final = 0.10855271 2.5604371e-05
  Final line search alpha, max atom move = 1.0000000 2.5604371e-05
  Iterations, force evaluations = 169 338

MPI task timing breakdown:
Section |  min time  |  avg time  |  max time  |%varavg| %total
---------------------------------------------------------------
Pair    | 0.51365    | 1.429      | 1.8629     |  32.3 | 72.53
Neigh   | 0          | 0          | 0          |   0.0 |  0.00
Comm    | 0.032833   | 0.32066    | 0.95964    |  47.6 | 16.28
Output  | 0          | 0          | 0          |   0.0 |  0.00
Modify  | 2.0305e-05 | 0.0027932  | 0.005941   |   2.5 |  0.14
Other   |            | 0.2178     |            |       | 11.06

Nlocal:        2776.45 ave        3961 max           0 min
Histogram: 8 4 4 0 6 10 8 2 28 34
Nghost:        3879.01 ave        5424 max         232 min
Histogram: 8 0 8 0 16 0 8 8 16 40
Neighs:        79213.4 ave      115457 max           0 min
Histogram: 8 4 4 0 10 6 8 8 24 32

Total # of neighbors = 8238197
Ave neighs/atom = 28.530454
Neighbor list builds = 0
Dangerous builds = 0
The dot product: -1.48518962330599e-07
Setting atom values ...
  1 settings made for x
  1 settings made for y
  1 settings made for z
Setting up cg style minimization ...
  Unit style    : metal
  Current step  : 1877
Per MPI rank memory allocation (min/avg/max) = 5.441 | 5.816 | 6.074 Mbytes
Step PotEng KinEng TotEng v_fx v_fy v_fz 
    1877   -1152449.4            0   -1152449.4 0.0016821266  0.010540438 -0.046778625 
    2000   -1152449.4            0   -1152449.4 8.9412253e-06 2.7486092e-05 7.2077888e-05 
    2045   -1152449.4            0   -1152449.4 5.0189534e-07 7.6908738e-06 -6.5041939e-05 
Loop time of 1.94974 on 104 procs for 168 steps with 288751 atoms

99.9% CPU use with 104 MPI tasks x 1 OpenMP threads

Minimization stats:
  Stopping criterion = energy tolerance
  Energy initial, next-to-last, final = 
     -1152449.37985276  -1152449.38116755  -1152449.38116755
  Force two-norm initial, final = 0.15871026 0.00021755863
  Force max component initial, final = 0.10857314 6.5041939e-05
  Final line search alpha, max atom move = 1.0000000 6.5041939e-05
  Iterations, force evaluations = 168 336

MPI task timing breakdown:
Section |  min time  |  avg time  |  max time  |%varavg| %total
---------------------------------------------------------------
Pair    | 0.5118     | 1.4127     | 1.843      |  32.1 | 72.46
Neigh   | 0          | 0          | 0          |   0.0 |  0.00
Comm    | 0.033069   | 0.31727    | 0.96153    |  47.9 | 16.27
Output  | 0.00019757 | 0.00020872 | 0.00035956 |   0.0 |  0.01
Modify  | 2.1129e-05 | 0.0027769  | 0.0058725  |   2.5 |  0.14
Other   |            | 0.2168     |            |       | 11.12

Nlocal:        2776.45 ave        3961 max           0 min
Histogram: 8 4 4 0 6 10 8 2 28 34
Nghost:        3879.01 ave        5424 max         232 min
Histogram: 8 0 8 0 16 0 8 8 16 40
Neighs:        79213.4 ave      115455 max           0 min
Histogram: 8 4 4 0 10 6 8 8 24 32

Total # of neighbors = 8238193
Ave neighs/atom = 28.530440
Neighbor list builds = 0
Dangerous builds = 0
The dot product: 4.90129463390974e-07
Setting atom values ...
  1 settings made for x
  1 settings made for y
  1 settings made for z
Setting up cg style minimization ...
  Unit style    : metal
  Current step  : 2045
Per MPI rank memory allocation (min/avg/max) = 5.441 | 5.816 | 6.074 Mbytes
Step PotEng KinEng TotEng v_fx v_fy v_fz 
    2045   -1152449.4            0   -1152449.4 -0.00088339837 0.0064128211  -0.03973392 
    2226   -1152449.4            0   -1152449.4 -1.425511e-06 -5.0914443e-06 -3.6065639e-06 
Loop time of 2.09728 on 104 procs for 181 steps with 288751 atoms

99.9% CPU use with 104 MPI tasks x 1 OpenMP threads

Minimization stats:
  Stopping criterion = energy tolerance
  Energy initial, next-to-last, final = 
      -1152449.3655592  -1152449.36681668  -1152449.36681668
  Force two-norm initial, final = 0.15719794 0.00010956164
  Force max component initial, final = 0.10846244 1.1743639e-05
  Final line search alpha, max atom move = 1.0000000 1.1743639e-05
  Iterations, force evaluations = 181 362

MPI task timing breakdown:
Section |  min time  |  avg time  |  max time  |%varavg| %total
---------------------------------------------------------------
Pair    | 0.54779    | 1.5246     | 1.9881     |  33.4 | 72.69
Neigh   | 0          | 0          | 0          |   0.0 |  0.00
Comm    | 0.031609   | 0.347      | 1.0371     |  49.2 | 16.55
Output  | 0          | 0          | 0          |   0.0 |  0.00
Modify  | 2.1773e-05 | 0.0029876  | 0.0063228  |   2.6 |  0.14
Other   |            | 0.2227     |            |       | 10.62

Nlocal:        2776.45 ave        3961 max           0 min
Histogram: 8 4 4 0 6 10 8 2 28 34
Nghost:        3879.01 ave        5428 max         232 min
Histogram: 8 0 8 0 16 0 8 8 16 40
Neighs:        79213.4 ave      115455 max           0 min
Histogram: 8 4 4 0 10 6 8 8 24 32

Total # of neighbors = 8238192
Ave neighs/atom = 28.530436
Neighbor list builds = 0
Dangerous builds = 0
The dot product: 9.89536375205786e-10
Setting atom values ...
  1 settings made for x
  1 settings made for y
  1 settings made for z
Setting up cg style minimization ...
  Unit style    : metal
  Current step  : 2226
Per MPI rank memory allocation (min/avg/max) = 5.441 | 5.816 | 6.074 Mbytes
Step PotEng KinEng TotEng v_fx v_fy v_fz 
    2226   -1152449.3            0   -1152449.3 -0.0025785526  0.001715706 -0.033321207 
    2467   -1152449.4            0   -1152449.4 7.468696e-08 1.0732135e-06 -1.799089e-06 
Loop time of 2.79838 on 104 procs for 241 steps with 288751 atoms

99.9% CPU use with 104 MPI tasks x 1 OpenMP threads

Minimization stats:
  Stopping criterion = energy tolerance
  Energy initial, next-to-last, final = 
     -1152449.34983626  -1152449.35104825  -1152449.35104825
  Force two-norm initial, final = 0.15642378 9.7708906e-06
  Force max component initial, final = 0.10847437 1.7990890e-06
  Final line search alpha, max atom move = 1.0000000 1.7990890e-06
  Iterations, force evaluations = 241 482

MPI task timing breakdown:
Section |  min time  |  avg time  |  max time  |%varavg| %total
---------------------------------------------------------------
Pair    | 0.73393    | 2.0188     | 2.6285     |  38.0 | 72.14
Neigh   | 0          | 0          | 0          |   0.0 |  0.00
Comm    | 0.04554    | 0.45209    | 1.3587     |  56.6 | 16.16
Output  | 0          | 0          | 0          |   0.0 |  0.00
Modify  | 2.937e-05  | 0.0039662  | 0.0084339  |   3.0 |  0.14
Other   |            | 0.3235     |            |       | 11.56

Nlocal:        2776.45 ave        3961 max           0 min
Histogram: 8 4 4 0 6 10 8 4 26 34
Nghost:        3879.01 ave        5429 max         232 min
Histogram: 8 0 8 0 16 0 8 8 16 40
Neighs:        79213.4 ave      115455 max           0 min
Histogram: 8 4 4 0 10 6 8 8 24 32

Total # of neighbors = 8238192
Ave neighs/atom = 28.530436
Neighbor list builds = 0
Dangerous builds = 0
The dot product: 1.17095119841009e-08
Setting atom values ...
  1 settings made for x
  1 settings made for y
  1 settings made for z
Setting up cg style minimization ...
  Unit style    : metal
  Current step  : 2467
Per MPI rank memory allocation (min/avg/max) = 5.441 | 5.816 | 6.074 Mbytes
Step PotEng KinEng TotEng v_fx v_fy v_fz 
    2467   -1152449.3            0   -1152449.3 -0.0036949143 -0.0030209089 -0.027947185 
    2658   -1152449.3            0   -1152449.3 -5.8250314e-07 5.1112706e-06 -1.4868103e-05 
Loop time of 2.2108 on 104 procs for 191 steps with 288751 atoms

99.9% CPU use with 104 MPI tasks x 1 OpenMP threads

Minimization stats:
  Stopping criterion = energy tolerance
  Energy initial, next-to-last, final = 
     -1152449.33266306  -1152449.33384471  -1152449.33384471
  Force two-norm initial, final = 0.1563708 7.8969531e-05
  Force max component initial, final = 0.10875237 2.1030723e-05
  Final line search alpha, max atom move = 1.0000000 2.1030723e-05
  Iterations, force evaluations = 191 382

MPI task timing breakdown:
Section |  min time  |  avg time  |  max time  |%varavg| %total
---------------------------------------------------------------
Pair    | 0.57999    | 1.607      | 2.0804     |  34.1 | 72.69
Neigh   | 0          | 0          | 0          |   0.0 |  0.00
Comm    | 0.034523   | 0.35784    | 1.0789     |  50.8 | 16.19
Output  | 0          | 0          | 0          |   0.0 |  0.00
Modify  | 2.3071e-05 | 0.0031499  | 0.0066787  |   2.6 |  0.14
Other   |            | 0.2429     |            |       | 10.98

Nlocal:        2776.45 ave        3961 max           0 min
Histogram: 8 4 4 0 6 10 8 4 26 34
Nghost:        3879.01 ave        5429 max         232 min
Histogram: 8 0 8 0 16 0 8 8 16 40
Neighs:        79213.4 ave      115445 max           0 min
Histogram: 8 4 4 0 10 6 8 8 24 32

Total # of neighbors = 8238193
Ave neighs/atom = 28.530440
Neighbor list builds = 0
Dangerous builds = 0
The dot product: 6.76193637838433e-08
Setting atom values ...
  1 settings made for x
  1 settings made for y
  1 settings made for z
Setting up cg style minimization ...
  Unit style    : metal
  Current step  : 2658
Per MPI rank memory allocation (min/avg/max) = 5.441 | 5.816 | 6.074 Mbytes
Step PotEng KinEng TotEng v_fx v_fy v_fz 
    2658   -1152449.3            0   -1152449.3 -0.0044867815 -0.0076444593 -0.023483342 
    2837   -1152449.3            0   -1152449.3 3.5176085e-06 5.5655457e-06 1.9086596e-05 
Loop time of 2.07688 on 104 procs for 179 steps with 288751 atoms

99.9% CPU use with 104 MPI tasks x 1 OpenMP threads

Minimization stats:
  Stopping criterion = energy tolerance
  Energy initial, next-to-last, final = 
     -1152449.31402925  -1152449.31519444  -1152449.31519444
  Force two-norm initial, final = 0.15693379 0.00010908204
  Force max component initial, final = 0.10934851 2.3769399e-05
  Final line search alpha, max atom move = 1.0000000 2.3769399e-05
  Iterations, force evaluations = 179 358

MPI task timing breakdown:
Section |  min time  |  avg time  |  max time  |%varavg| %total
---------------------------------------------------------------
Pair    | 0.54604    | 1.5004     | 1.9543     |  33.0 | 72.24
Neigh   | 0          | 0          | 0          |   0.0 |  0.00
Comm    | 0.03229    | 0.33888    | 1.0114     |  48.7 | 16.32
Output  | 0          | 0          | 0          |   0.0 |  0.00
Modify  | 2.1934e-05 | 0.002958   | 0.0062573  |   2.6 |  0.14
Other   |            | 0.2347     |            |       | 11.30

Nlocal:        2776.45 ave        3961 max           0 min
Histogram: 8 4 4 0 6 10 8 6 24 34
Nghost:        3879.01 ave        5427 max         232 min
Histogram: 8 0 8 0 16 0 8 8 16 40
Neighs:        79213.4 ave      115445 max           0 min
Histogram: 8 4 4 0 10 6 8 8 24 32

Total # of neighbors = 8238193
Ave neighs/atom = 28.530440
Neighbor list builds = 0
Dangerous builds = 0
The dot product: -6.0542746523385e-08
Setting atom values ...
  1 settings made for x
  1 settings made for y
  1 settings made for z
Setting up cg style minimization ...
  Unit style    : metal
  Current step  : 2837
Per MPI rank memory allocation (min/avg/max) = 5.441 | 5.816 | 6.074 Mbytes
Step PotEng KinEng TotEng v_fx v_fy v_fz 
    2837   -1152449.3            0   -1152449.3 -0.0051482008 -0.012155024 -0.019804889 
    3000   -1152449.3            0   -1152449.3 -1.5780692e-05 -3.4765461e-05 -6.4265798e-05 
    3079   -1152449.3            0   -1152449.3 -1.3702972e-07 -5.9401503e-07 -1.4110955e-07 
Loop time of 2.77666 on 104 procs for 242 steps with 288751 atoms

99.9% CPU use with 104 MPI tasks x 1 OpenMP threads

Minimization stats:
  Stopping criterion = energy tolerance
  Energy initial, next-to-last, final = 
      -1152449.2939277  -1152449.29509032  -1152449.29509032
  Force two-norm initial, final = 0.15806917 9.4744802e-06
  Force max component initial, final = 0.11028282 1.2456941e-06
  Final line search alpha, max atom move = 1.0000000 1.2456941e-06
  Iterations, force evaluations = 242 484

MPI task timing breakdown:
Section |  min time  |  avg time  |  max time  |%varavg| %total
---------------------------------------------------------------
Pair    | 0.73447    | 2.0319     | 2.6295     |  38.3 | 73.18
Neigh   | 0          | 0          | 0          |   0.0 |  0.00
Comm    | 0.045946   | 0.45045    | 1.3715     |  57.5 | 16.22
Output  | 0.00012676 | 0.00013423 | 0.00027684 |   0.0 |  0.00
Modify  | 2.9674e-05 | 0.0039818  | 0.0084577  |   3.0 |  0.14
Other   |            | 0.2902     |            |       | 10.45

Nlocal:        2776.45 ave        3961 max           0 min
Histogram: 8 4 4 0 6 10 8 6 24 34
Nghost:        3879.01 ave        5426 max         232 min
Histogram: 8 0 8 0 16 0 8 8 16 40
Neighs:        79213.4 ave      115445 max           0 min
Histogram: 8 4 4 0 10 6 8 8 24 32

Total # of neighbors = 8238193
Ave neighs/atom = 28.530440
Neighbor list builds = 0
Dangerous builds = 0
The dot product: 8.36022684205177e-10
Setting atom values ...
  1 settings made for x
  1 settings made for y
  1 settings made for z
Setting up cg style minimization ...
  Unit style    : metal
  Current step  : 3079
Per MPI rank memory allocation (min/avg/max) = 5.441 | 5.816 | 6.074 Mbytes
Step PotEng KinEng TotEng v_fx v_fy v_fz 
    3079   -1152449.3            0   -1152449.3 -0.0058225419 -0.016593089 -0.016850761 
    3253   -1152449.3            0   -1152449.3 3.5198928e-06 3.119977e-06 1.9535355e-05 
Loop time of 2.00151 on 104 procs for 174 steps with 288751 atoms

99.9% CPU use with 104 MPI tasks x 1 OpenMP threads

Minimization stats:
  Stopping criterion = energy tolerance
  Energy initial, next-to-last, final = 
     -1152449.27235689  -1152449.27352953  -1152449.27352953
  Force two-norm initial, final = 0.15978536 0.00012834896
  Force max component initial, final = 0.11158053 2.3065667e-05
  Final line search alpha, max atom move = 1.0000000 2.3065667e-05
  Iterations, force evaluations = 174 348

MPI task timing breakdown:
Section |  min time  |  avg time  |  max time  |%varavg| %total
---------------------------------------------------------------
Pair    | 0.52616    | 1.4557     | 1.8897     |  32.5 | 72.73
Neigh   | 0          | 0          | 0          |   0.0 |  0.00
Comm    | 0.033608   | 0.32423    | 0.9867     |  48.6 | 16.20
Output  | 0          | 0          | 0          |   0.0 |  0.00
Modify  | 2.1569e-05 | 0.002872   | 0.0061324  |   2.5 |  0.14
Other   |            | 0.2187     |            |       | 10.93

Nlocal:        2776.45 ave        3961 max           0 min
Histogram: 8 4 4 0 6 10 8 6 24 34
Nghost:        3879.01 ave        5425 max         232 min
Histogram: 8 0 8 0 16 0 8 8 16 40
Neighs:        79213.4 ave      115445 max           0 min
Histogram: 8 4 4 0 10 6 8 8 24 32

Total # of neighbors = 8238191
Ave neighs/atom = 28.530433
Neighbor list builds = 0
Dangerous builds = 0
The dot product: -5.00771622344666e-08
Setting atom values ...
  1 settings made for x
  1 settings made for y
  1 settings made for z
Setting up cg style minimization ...
  Unit style    : metal
  Current step  : 3253
Per MPI rank memory allocation (min/avg/max) = 5.441 | 5.816 | 6.074 Mbytes
Step PotEng KinEng TotEng v_fx v_fy v_fz 
    3253   -1152449.2            0   -1152449.2 -0.0065415033 -0.020906547 -0.014248992 
    3412   -1152449.3            0   -1152449.3 -1.4817765e-05 -1.8497278e-05 -7.064249e-05 
Loop time of 1.84075 on 104 procs for 159 steps with 288751 atoms

99.9% CPU use with 104 MPI tasks x 1 OpenMP threads

Minimization stats:
  Stopping criterion = energy tolerance
  Energy initial, next-to-last, final = 
     -1152449.24931865   -1152449.2505137   -1152449.2505137
  Force two-norm initial, final = 0.16203628 0.00021218316
  Force max component initial, final = 0.11320507 7.0642490e-05
  Final line search alpha, max atom move = 1.0000000 7.0642490e-05
  Iterations, force evaluations = 159 318

MPI task timing breakdown:
Section |  min time  |  avg time  |  max time  |%varavg| %total
---------------------------------------------------------------
Pair    | 0.48226    | 1.3413     | 1.7443     |  31.3 | 72.87
Neigh   | 0          | 0          | 0          |   0.0 |  0.00
Comm    | 0.029639   | 0.30061    | 0.90332    |  46.5 | 16.33
Output  | 0          | 0          | 0          |   0.0 |  0.00
Modify  | 1.9358e-05 | 0.0026185  | 0.0055761  |   2.4 |  0.14
Other   |            | 0.1962     |            |       | 10.66

Nlocal:        2776.45 ave        3961 max           0 min
Histogram: 8 4 4 0 6 10 8 6 24 34
Nghost:        3879.01 ave        5425 max         232 min
Histogram: 8 0 8 0 16 0 8 8 16 40
Neighs:        79213.3 ave      115445 max           0 min
Histogram: 8 4 4 0 10 6 8 8 24 32

Total # of neighbors = 8238188
Ave neighs/atom = 28.530422
Neighbor list builds = 0
Dangerous builds = 0
The dot product: 1.8710621271217e-07
Setting atom values ...
  1 settings made for x
  1 settings made for y
  1 settings made for z
Setting up cg style minimization ...
  Unit style    : metal
  Current step  : 3412
Per MPI rank memory allocation (min/avg/max) = 5.441 | 5.816 | 6.074 Mbytes
Step PotEng KinEng TotEng v_fx v_fy v_fz 
    3412   -1152449.2            0   -1152449.2 -0.0073549228 -0.025008267  -0.01202656 
    3539   -1152449.2            0   -1152449.2 -7.4590106e-06 -1.7153608e-05 -2.3217065e-05 
Loop time of 1.493 on 104 procs for 127 steps with 288751 atoms

99.9% CPU use with 104 MPI tasks x 1 OpenMP threads

Minimization stats:
  Stopping criterion = energy tolerance
  Energy initial, next-to-last, final = 
     -1152449.22481919  -1152449.22604849  -1152449.22604849
  Force two-norm initial, final = 0.16480656 0.00023410756
  Force max component initial, final = 0.11513189 2.3217065e-05
  Final line search alpha, max atom move = 1.0000000 2.3217065e-05
  Iterations, force evaluations = 127 254

MPI task timing breakdown:
Section |  min time  |  avg time  |  max time  |%varavg| %total
---------------------------------------------------------------
Pair    | 0.3874     | 1.0719     | 1.4049     |  28.0 | 71.79
Neigh   | 0          | 0          | 0          |   0.0 |  0.00
Comm    | 0.023232   | 0.24193    | 0.73614    |  41.1 | 16.20
Output  | 0          | 0          | 0          |   0.0 |  0.00
Modify  | 1.539e-05  | 0.0020982  | 0.0044646  |   2.2 |  0.14
Other   |            | 0.1771     |            |       | 11.86

Nlocal:        2776.45 ave        3961 max           0 min
Histogram: 8 4 4 0 6 10 8 6 24 34
Nghost:        3879.05 ave        5425 max         232 min
Histogram: 8 0 8 0 16 0 8 8 16 40
Neighs:        79213.3 ave      115445 max           0 min
Histogram: 8 4 4 0 10 6 8 8 24 32

Total # of neighbors = 8238186
Ave neighs/atom = 28.530415
Neighbor list builds = 0
Dangerous builds = 0
The dot product: 1.06818770133577e-07
Setting atom values ...
  1 settings made for x
  1 settings made for y
  1 settings made for z
Setting up cg style minimization ...
  Unit style    : metal
  Current step  : 3539
Per MPI rank memory allocation (min/avg/max) = 5.441 | 5.816 | 6.074 Mbytes
Step PotEng KinEng TotEng v_fx v_fy v_fz 
    3539   -1152449.2            0   -1152449.2 -0.0082585773 -0.028933173 -0.0098514353 
    3666   -1152449.2            0   -1152449.2 8.3723548e-06 1.9275784e-05 2.3900291e-05 
Loop time of 1.47548 on 104 procs for 127 steps with 288751 atoms

99.9% CPU use with 104 MPI tasks x 1 OpenMP threads

Minimization stats:
  Stopping criterion = energy tolerance
  Energy initial, next-to-last, final = 
     -1152449.19887126  -1152449.20014746  -1152449.20014746
  Force two-norm initial, final = 0.16806232 0.00026743385
  Force max component initial, final = 0.11734558 3.8987766e-05
  Final line search alpha, max atom move = 1.0000000 3.8987766e-05
  Iterations, force evaluations = 127 254

MPI task timing breakdown:
Section |  min time  |  avg time  |  max time  |%varavg| %total
---------------------------------------------------------------
Pair    | 0.38659    | 1.0736     | 1.3976     |  27.9 | 72.76
Neigh   | 0          | 0          | 0          |   0.0 |  0.00
Comm    | 0.023784   | 0.24033    | 0.72348    |  41.6 | 16.29
Output  | 0          | 0          | 0          |   0.0 |  0.00
Modify  | 1.5743e-05 | 0.0020968  | 0.0044453  |   2.2 |  0.14
Other   |            | 0.1595     |            |       | 10.81

Nlocal:        2776.45 ave        3960 max           0 min
Histogram: 8 4 4 0 4 12 8 6 24 34
Nghost:        3879.05 ave        5425 max         232 min
Histogram: 8 0 8 0 16 0 8 8 16 40
Neighs:        79213.3 ave      115425 max           0 min
Histogram: 8 4 4 0 10 6 8 8 24 32

Total # of neighbors = 8238183
Ave neighs/atom = 28.530405
Neighbor list builds = 0
Dangerous builds = 0
The dot product: -1.32228014029557e-07
Setting atom values ...
  1 settings made for x
  1 settings made for y
  1 settings made for z
Setting up cg style minimization ...
  Unit style    : metal
  Current step  : 3666
Per MPI rank memory allocation (min/avg/max) = 5.441 | 5.816 | 6.074 Mbytes
Step PotEng KinEng TotEng v_fx v_fy v_fz 
    3666   -1152449.2            0   -1152449.2 -0.0096618011 -0.034457116 -0.0073449722 
    3801   -1152449.2            0   -1152449.2 -1.7409631e-05 -1.3297958e-05 -8.3979662e-05 
Loop time of 1.57868 on 104 procs for 135 steps with 288751 atoms

99.9% CPU use with 104 MPI tasks x 1 OpenMP threads

Minimization stats:
  Stopping criterion = energy tolerance
  Energy initial, next-to-last, final = 
     -1152449.17150689  -1152449.17285641  -1152449.17285641
  Force two-norm initial, final = 0.17208136 0.0002517213
  Force max component initial, final = 0.11987523 8.3979662e-05
  Final line search alpha, max atom move = 1.0000000 8.3979662e-05
  Iterations, force evaluations = 135 270

MPI task timing breakdown:
Section |  min time  |  avg time  |  max time  |%varavg| %total
---------------------------------------------------------------
Pair    | 0.41085    | 1.1367     | 1.4817     |  28.8 | 72.00
Neigh   | 0          | 0          | 0          |   0.0 |  0.00
Comm    | 0.029514   | 0.25814    | 0.7821     |  42.6 | 16.35
Output  | 0          | 0          | 0          |   0.0 |  0.00
Modify  | 1.6782e-05 | 0.0022318  | 0.0047464  |   2.2 |  0.14
Other   |            | 0.1816     |            |       | 11.51

Nlocal:        2776.45 ave        3960 max           0 min
Histogram: 8 4 4 0 4 12 8 6 24 34
Nghost:        3879.05 ave        5425 max         232 min
Histogram: 8 0 8 0 16 0 8 8 16 40
Neighs:        79213.3 ave      115425 max           0 min
Histogram: 8 4 4 0 10 6 8 8 24 32

Total # of neighbors = 8238184
Ave neighs/atom = 28.530409
Neighbor list builds = 0
Dangerous builds = 0
The dot product: 1.47413406213069e-07
Setting atom values ...
  1 settings made for x
  1 settings made for y
  1 settings made for z
Setting up cg style minimization ...
  Unit style    : metal
  Current step  : 3801
Per MPI rank memory allocation (min/avg/max) = 5.441 | 5.816 | 6.074 Mbytes
Step PotEng KinEng TotEng v_fx v_fy v_fz 
    3801   -1152449.1            0   -1152449.1 -0.011328068 -0.042164085 -0.00099840092 
    3924   -1152449.1            0   -1152449.1 -2.6337677e-06 4.0438131e-06 -2.1777602e-05 
Loop time of 1.4128 on 104 procs for 123 steps with 288751 atoms

99.9% CPU use with 104 MPI tasks x 1 OpenMP threads

Minimization stats:
  Stopping criterion = energy tolerance
  Energy initial, next-to-last, final = 
     -1152449.14277347  -1152449.14425824  -1152449.14425824
  Force two-norm initial, final = 0.17679591 0.00023072843
  Force max component initial, final = 0.12300531 2.1777602e-05
  Final line search alpha, max atom move = 1.0000000 2.1777602e-05
  Iterations, force evaluations = 123 246

MPI task timing breakdown:
Section |  min time  |  avg time  |  max time  |%varavg| %total
---------------------------------------------------------------
Pair    | 0.37289    | 1.0338     | 1.3389     |  27.4 | 73.17
Neigh   | 0          | 0          | 0          |   0.0 |  0.00
Comm    | 0.021087   | 0.22955    | 0.69207    |  40.9 | 16.25
Output  | 0          | 0          | 0          |   0.0 |  0.00
Modify  | 1.4834e-05 | 0.0020305  | 0.0043186  |   2.1 |  0.14
Other   |            | 0.1475     |            |       | 10.44

Nlocal:        2776.45 ave        3959 max           0 min
Histogram: 8 4 4 0 4 12 8 6 24 34
Nghost:        3879.03 ave        5425 max         232 min
Histogram: 8 0 8 0 16 0 8 8 16 40
Neighs:        79213.3 ave      115399 max           0 min
Histogram: 8 4 4 0 10 6 8 8 24 32

Total # of neighbors = 8238185
Ave neighs/atom = 28.530412
Neighbor list builds = 0
Dangerous builds = 0
The dot product: -6.8004610463265e-08
Setting atom values ...
  1 settings made for x
  1 settings made for y
  1 settings made for z
Setting up cg style minimization ...
  Unit style    : metal
  Current step  : 3924
Per MPI rank memory allocation (min/avg/max) = 5.441 | 5.816 | 6.074 Mbytes
Step PotEng KinEng TotEng v_fx v_fy v_fz 
    3924   -1152449.1            0   -1152449.1 -0.013565271   -0.0541731  0.013982089 
    4000   -1152449.1            0   -1152449.1  3.51325e-05 0.00016652582 -8.2184986e-05 
    4077   -1152449.1            0   -1152449.1 -2.667841e-06 -1.0256405e-05 2.0526818e-06 
Loop time of 1.76337 on 104 procs for 153 steps with 288751 atoms

99.9% CPU use with 104 MPI tasks x 1 OpenMP threads

Minimization stats:
  Stopping criterion = energy tolerance
  Energy initial, next-to-last, final = 
     -1152449.11262625  -1152449.11439239  -1152449.11439239
  Force two-norm initial, final = 0.18418343 0.00015325533
  Force max component initial, final = 0.12706869 1.9369851e-05
  Final line search alpha, max atom move = 1.0000000 1.9369851e-05
  Iterations, force evaluations = 153 306

MPI task timing breakdown:
Section |  min time  |  avg time  |  max time  |%varavg| %total
---------------------------------------------------------------
Pair    | 0.46481    | 1.2815     | 1.67       |  30.5 | 72.67
Neigh   | 0          | 0          | 0          |   0.0 |  0.00
Comm    | 0.027734   | 0.28625    | 0.86385    |  45.4 | 16.23
Output  | 0.00013984 | 0.0001472  | 0.00027154 |   0.0 |  0.01
Modify  | 1.8276e-05 | 0.0025236  | 0.0053738  |   2.4 |  0.14
Other   |            | 0.193      |            |       | 10.94

Nlocal:        2776.45 ave        3959 max           0 min
Histogram: 8 4 4 0 4 12 8 6 24 34
Nghost:        3878.99 ave        5425 max         232 min
Histogram: 8 0 8 0 16 0 8 8 16 40
Neighs:        79213.3 ave      115399 max           0 min
Histogram: 8 4 4 0 10 6 8 8 24 32

Total # of neighbors = 8238184
Ave neighs/atom = 28.530409
Neighbor list builds = 0
Dangerous builds = 0
The dot product: 1.68729141055831e-07
Setting atom values ...
  1 settings made for x
  1 settings made for y
  1 settings made for z
Setting up cg style minimization ...
  Unit style    : metal
  Current step  : 4077
Per MPI rank memory allocation (min/avg/max) = 5.441 | 5.816 | 6.074 Mbytes
Step PotEng KinEng TotEng v_fx v_fy v_fz 
    4077   -1152449.1            0   -1152449.1 -0.017716886 -0.066011049  0.026575797 
    4205   -1152449.1            0   -1152449.1 5.7406644e-06 1.4210933e-05 6.4213155e-06 
Loop time of 1.47883 on 104 procs for 128 steps with 288751 atoms

99.9% CPU use with 104 MPI tasks x 1 OpenMP threads

Minimization stats:
  Stopping criterion = energy tolerance
  Energy initial, next-to-last, final = 
     -1152449.08116139   -1152449.0832362   -1152449.0832362
  Force two-norm initial, final = 0.19354939 0.00012071837
  Force max component initial, final = 0.13222275 1.8591007e-05
  Final line search alpha, max atom move = 1.0000000 1.8591007e-05
  Iterations, force evaluations = 128 256

MPI task timing breakdown:
Section |  min time  |  avg time  |  max time  |%varavg| %total
---------------------------------------------------------------
Pair    | 0.38951    | 1.0785     | 1.4018     |  28.0 | 72.93
Neigh   | 0          | 0          | 0          |   0.0 |  0.00
Comm    | 0.022245   | 0.24291    | 0.73319    |  41.6 | 16.43
Output  | 0          | 0          | 0          |   0.0 |  0.00
Modify  | 1.5579e-05 | 0.0021147  | 0.0044665  |   2.2 |  0.14
Other   |            | 0.1553     |            |       | 10.50

Nlocal:        2776.45 ave        3958 max           0 min
Histogram: 8 4 4 0 4 12 8 6 24 34
Nghost:        3878.96 ave        5425 max         232 min
Histogram: 8 0 8 0 16 0 8 8 16 40
Neighs:        79213.3 ave      115377 max           0 min
Histogram: 8 4 4 0 10 6 8 8 24 32

Total # of neighbors = 8238183
Ave neighs/atom = 28.530405
Neighbor list builds = 0
Dangerous builds = 0
The dot product: -2.31214854037439e-07
Setting atom values ...
  1 settings made for x
  1 settings made for y
  1 settings made for z
Setting up cg style minimization ...
  Unit style    : metal
  Current step  : 4205
Per MPI rank memory allocation (min/avg/max) = 5.441 | 5.816 | 6.074 Mbytes
Step PotEng KinEng TotEng v_fx v_fy v_fz 
    4205     -1152449            0     -1152449 -0.022657476 -0.074150826  0.036526028 
    4374   -1152449.1            0   -1152449.1 4.8244838e-06 -4.2332832e-09 3.3263791e-05 
Loop time of 1.95217 on 104 procs for 169 steps with 288751 atoms

99.9% CPU use with 104 MPI tasks x 1 OpenMP threads

Minimization stats:
  Stopping criterion = energy tolerance
  Energy initial, next-to-last, final = 
     -1152449.04846574  -1152449.05079647  -1152449.05079647
  Force two-norm initial, final = 0.20205607 0.00018033415
  Force max component initial, final = 0.13797417 3.3371284e-05
  Final line search alpha, max atom move = 1.0000000 3.3371284e-05
  Iterations, force evaluations = 169 338

MPI task timing breakdown:
Section |  min time  |  avg time  |  max time  |%varavg| %total
---------------------------------------------------------------
Pair    | 0.51208    | 1.4163     | 1.8398     |  32.1 | 72.55
Neigh   | 0          | 0          | 0          |   0.0 |  0.00
Comm    | 0.029196   | 0.31722    | 0.95636    |  47.7 | 16.25
Output  | 0          | 0          | 0          |   0.0 |  0.00
Modify  | 2.0308e-05 | 0.0027908  | 0.0059132  |   2.5 |  0.14
Other   |            | 0.2158     |            |       | 11.06

Nlocal:        2776.45 ave        3952 max           0 min
Histogram: 8 4 4 0 4 12 8 0 30 34
Nghost:        3878.96 ave        5425 max         232 min
Histogram: 8 0 8 0 16 0 8 8 16 40
Neighs:        79213.3 ave      115166 max           0 min
Histogram: 8 4 4 0 10 6 8 8 24 32

Total # of neighbors = 8238181
Ave neighs/atom = 28.530398
Neighbor list builds = 0
Dangerous builds = 0
The dot product: 2.66107153280698e-07
Setting atom values ...
  1 settings made for x
  1 settings made for y
  1 settings made for z
Setting up cg style minimization ...
  Unit style    : metal
  Current step  : 4374
Per MPI rank memory allocation (min/avg/max) = 5.441 | 5.816 | 6.074 Mbytes
Step PotEng KinEng TotEng v_fx v_fy v_fz 
    4374     -1152449            0     -1152449 -0.026881277  -0.07833479  0.050580961 
    4564     -1152449            0     -1152449 -3.9051301e-06 -8.4368513e-06 -2.5259888e-06 
Loop time of 2.20392 on 104 procs for 190 steps with 288751 atoms

99.9% CPU use with 104 MPI tasks x 1 OpenMP threads

Minimization stats:
  Stopping criterion = energy tolerance
  Energy initial, next-to-last, final = 
     -1152449.01462476  -1152449.01720539  -1152449.01720539
  Force two-norm initial, final = 0.21024669 9.5522089e-05
  Force max component initial, final = 0.14388925 8.4368513e-06
  Final line search alpha, max atom move = 1.0000000 8.4368513e-06
  Iterations, force evaluations = 190 380

MPI task timing breakdown:
Section |  min time  |  avg time  |  max time  |%varavg| %total
---------------------------------------------------------------
Pair    | 0.57712    | 1.6057     | 2.0881     |  34.1 | 72.86
Neigh   | 0          | 0          | 0          |   0.0 |  0.00
Comm    | 0.03647    | 0.35984    | 1.0905     |  50.5 | 16.33
Output  | 0          | 0          | 0          |   0.0 |  0.00
Modify  | 2.3778e-05 | 0.0031359  | 0.0067241  |   2.7 |  0.14
Other   |            | 0.2352     |            |       | 10.67

Nlocal:        2776.45 ave        3944 max           0 min
Histogram: 8 4 4 0 4 12 8 0 26 38
Nghost:        3878.93 ave        5425 max         232 min
Histogram: 8 0 8 0 16 0 8 8 16 40
Neighs:        79213.2 ave      114907 max           0 min
Histogram: 8 4 4 0 10 6 8 8 22 34

Total # of neighbors = 8238178
Ave neighs/atom = 28.530388
Neighbor list builds = 0
Dangerous builds = 0
The dot product: 1.51515647009258e-07
Setting atom values ...
  1 settings made for x
  1 settings made for y
  1 settings made for z
Setting up cg style minimization ...
  Unit style    : metal
  Current step  : 4564
Per MPI rank memory allocation (min/avg/max) = 5.441 | 5.816 | 6.074 Mbytes
Step PotEng KinEng TotEng v_fx v_fy v_fz 
    4564     -1152449            0     -1152449 -0.029910825 -0.077690241  0.068671409 
    4760     -1152449            0     -1152449 -1.995002e-06 -3.0905055e-06 -5.333141e-06 
Loop time of 2.25144 on 104 procs for 196 steps with 288751 atoms

99.9% CPU use with 104 MPI tasks x 1 OpenMP threads

Minimization stats:
  Stopping criterion = energy tolerance
  Energy initial, next-to-last, final = 
     -1152448.97990258  -1152448.98264298  -1152448.98264298
  Force two-norm initial, final = 0.21829379 0.00011073418
  Force max component initial, final = 0.1498786 5.5411918e-06
  Final line search alpha, max atom move = 1.0000000 5.5411918e-06
  Iterations, force evaluations = 196 392

MPI task timing breakdown:
Section |  min time  |  avg time  |  max time  |%varavg| %total
---------------------------------------------------------------
Pair    | 0.59385    | 1.6402     | 2.1296     |  34.6 | 72.85
Neigh   | 0          | 0          | 0          |   0.0 |  0.00
Comm    | 0.035116   | 0.36728    | 1.1122     |  51.6 | 16.31
Output  | 0          | 0          | 0          |   0.0 |  0.00
Modify  | 2.3587e-05 | 0.0032358  | 0.0068671  |   2.7 |  0.14
Other   |            | 0.2408     |            |       | 10.69

Nlocal:        2776.45 ave        3934 max           0 min
Histogram: 8 4 4 0 4 12 8 0 26 38
Nghost:        3878.89 ave        5425 max         232 min
Histogram: 8 0 8 0 16 0 8 8 16 40
Neighs:        79213.2 ave      114617 max           0 min
Histogram: 8 4 4 0 8 8 8 8 20 36

Total # of neighbors = 8238178
Ave neighs/atom = 28.530388
Neighbor list builds = 0
Dangerous builds = 0
The dot product: -1.61391301105566e-08
Setting atom values ...
  1 settings made for x
  1 settings made for y
  1 settings made for z
Setting up cg style minimization ...
  Unit style    : metal
  Current step  : 4760
Per MPI rank memory allocation (min/avg/max) = 5.441 | 5.816 | 6.074 Mbytes
Step PotEng KinEng TotEng v_fx v_fy v_fz 
    4760   -1152448.9            0   -1152448.9 -0.031289524 -0.070880284   0.08106031 
    5000     -1152449            0     -1152449 1.0322379e-05 1.9138307e-05 6.0207403e-06 
    5002     -1152449            0     -1152449 -3.4742134e-06 -7.6565094e-06 7.3516391e-06 
Loop time of 2.79901 on 104 procs for 242 steps with 288751 atoms

99.9% CPU use with 104 MPI tasks x 1 OpenMP threads

Minimization stats:
  Stopping criterion = energy tolerance
  Energy initial, next-to-last, final = 
     -1152448.94449079  -1152448.98009632  -1152448.98009632
  Force two-norm initial, final = 0.22386975 0.00020673115
  Force max component initial, final = 0.15556617 6.8787958e-05
  Final line search alpha, max atom move = 1.0000000 6.8787958e-05
  Iterations, force evaluations = 242 483

MPI task timing breakdown:
Section |  min time  |  avg time  |  max time  |%varavg| %total
---------------------------------------------------------------
Pair    | 0.74125    | 2.0355     | 2.6433     |  38.2 | 72.72
Neigh   | 2.0268e-05 | 0.0058911  | 0.0085335  |   3.2 |  0.21
Comm    | 0.0461     | 0.45506    | 1.3683     |  57.3 | 16.26
Output  | 0.00018796 | 0.0001942  | 0.00036216 |   0.0 |  0.01
Modify  | 2.927e-05  | 0.0039825  | 0.008462   |   3.0 |  0.14
Other   |            | 0.2983     |            |       | 10.66

Nlocal:        2776.45 ave        3933 max           0 min
Histogram: 8 4 4 0 4 12 8 0 26 38
Nghost:        3878.89 ave        5428 max         232 min
Histogram: 8 0 8 0 16 0 8 8 16 40
Neighs:        79213.3 ave      114564 max           0 min
Histogram: 8 4 4 0 8 8 8 8 20 36

Total # of neighbors = 8238184
Ave neighs/atom = 28.530409
Neighbor list builds = 2
Dangerous builds = 0
The dot product: 6.48867775565647e-07
Setting atom values ...
  1 settings made for x
  1 settings made for y
  1 settings made for z
Setting up cg style minimization ...
  Unit style    : metal
  Current step  : 5002
Per MPI rank memory allocation (min/avg/max) = 5.441 | 5.816 | 6.074 Mbytes
Step PotEng KinEng TotEng v_fx v_fy v_fz 
    5002     -1152449            0     -1152449 -0.032778644 -0.041787838   0.13704512 
    5172     -1152449            0     -1152449 2.2309363e-05 4.7332605e-05 7.4683159e-05 
Loop time of 1.97507 on 104 procs for 170 steps with 288751 atoms

99.9% CPU use with 104 MPI tasks x 1 OpenMP threads

Minimization stats:
  Stopping criterion = energy tolerance
  Energy initial, next-to-last, final = 
      -1152448.9577311  -1152448.96150577  -1152448.96150577
  Force two-norm initial, final = 0.25368435 0.00026723166
  Force max component initial, final = 0.1659161 7.4683159e-05
  Final line search alpha, max atom move = 1.0000000 7.4683159e-05
  Iterations, force evaluations = 170 340

MPI task timing breakdown:
Section |  min time  |  avg time  |  max time  |%varavg| %total
---------------------------------------------------------------
Pair    | 0.51616    | 1.4281     | 1.8631     |  32.3 | 72.31
Neigh   | 0          | 0          | 0          |   0.0 |  0.00
Comm    | 0.030889   | 0.32032    | 0.96826    |  48.0 | 16.22
Output  | 0          | 0          | 0          |   0.0 |  0.00
Modify  | 2.0736e-05 | 0.0028066  | 0.0059997  |   2.5 |  0.14
Other   |            | 0.2238     |            |       | 11.33

Nlocal:        2776.45 ave        3955 max           0 min
Histogram: 8 4 4 0 4 12 8 0 30 34
Nghost:        3879.03 ave        5429 max         232 min
Histogram: 8 0 8 0 16 0 8 8 16 40
Neighs:        79213.3 ave      115273 max           0 min
Histogram: 8 4 4 0 10 6 8 8 24 32

Total # of neighbors = 8238183
Ave neighs/atom = 28.530405
Neighbor list builds = 0
Dangerous builds = 0
The dot product: 1.53957281754176e-06
Setting atom values ...
  1 settings made for x
  1 settings made for y
  1 settings made for z
Setting up cg style minimization ...
  Unit style    : metal
  Current step  : 5172
Per MPI rank memory allocation (min/avg/max) = 5.441 | 5.816 | 6.074 Mbytes
Step PotEng KinEng TotEng v_fx v_fy v_fz 
    5172   -1152448.9            0   -1152448.9  -0.01801083 -0.016451742  0.067440193 
    5315   -1152448.9            0   -1152448.9 2.945624e-05 4.5728861e-05 -1.8236568e-05 
Loop time of 1.66393 on 104 procs for 143 steps with 288751 atoms

99.9% CPU use with 104 MPI tasks x 1 OpenMP threads

Minimization stats:
  Stopping criterion = energy tolerance
  Energy initial, next-to-last, final = 
     -1152448.93905046  -1152448.94140635  -1152448.94140635
  Force two-norm initial, final = 0.22339135 0.00024006156
  Force max component initial, final = 0.16888185 4.5728861e-05
  Final line search alpha, max atom move = 1.0000000 4.5728861e-05
  Iterations, force evaluations = 143 286

MPI task timing breakdown:
Section |  min time  |  avg time  |  max time  |%varavg| %total
---------------------------------------------------------------
Pair    | 0.4347     | 1.2053     | 1.57       |  29.6 | 72.43
Neigh   | 0          | 0          | 0          |   0.0 |  0.00
Comm    | 0.025319   | 0.27493    | 0.82037    |  43.3 | 16.52
Output  | 0          | 0          | 0          |   0.0 |  0.00
Modify  | 1.7855e-05 | 0.0023578  | 0.0050008  |   2.3 |  0.14
Other   |            | 0.1814     |            |       | 10.90

Nlocal:        2776.45 ave        3950 max           0 min
Histogram: 8 4 4 0 4 12 8 0 28 36
Nghost:        3879.01 ave        5424 max         232 min
Histogram: 8 0 8 0 16 0 8 8 16 40
Neighs:        79213.3 ave      115130 max           0 min
Histogram: 8 4 4 0 10 6 8 8 24 32

Total # of neighbors = 8238185
Ave neighs/atom = 28.530412
Neighbor list builds = 0
Dangerous builds = 0
The dot product: -4.49448978674546e-07
Setting atom values ...
  1 settings made for x
  1 settings made for y
  1 settings made for z
Setting up cg style minimization ...
  Unit style    : metal
  Current step  : 5315
Per MPI rank memory allocation (min/avg/max) = 5.441 | 5.816 | 6.074 Mbytes
Step PotEng KinEng TotEng v_fx v_fy v_fz 
    5315   -1152448.9            0   -1152448.9 -0.010222267 -0.0067825412  0.041042543 
    5464   -1152448.9            0   -1152448.9 1.2673771e-06 1.1259091e-05 3.7142676e-05 
Loop time of 1.72419 on 104 procs for 149 steps with 288751 atoms

99.9% CPU use with 104 MPI tasks x 1 OpenMP threads

Minimization stats:
  Stopping criterion = energy tolerance
  Energy initial, next-to-last, final = 
     -1152448.91896782  -1152448.92126012  -1152448.92126012
  Force two-norm initial, final = 0.22101743 0.00015001218
  Force max component initial, final = 0.17132497 3.7142676e-05
  Final line search alpha, max atom move = 1.0000000 3.7142676e-05
  Iterations, force evaluations = 149 298

MPI task timing breakdown:
Section |  min time  |  avg time  |  max time  |%varavg| %total
---------------------------------------------------------------
Pair    | 0.45566    | 1.2525     | 1.6304     |  30.1 | 72.64
Neigh   | 0          | 0          | 0          |   0.0 |  0.00
Comm    | 0.028397   | 0.28097    | 0.84514    |  44.9 | 16.30
Output  | 0          | 0          | 0          |   0.0 |  0.00
Modify  | 1.8105e-05 | 0.0024627  | 0.0052436  |   2.3 |  0.14
Other   |            | 0.1883     |            |       | 10.92

Nlocal:        2776.45 ave        3950 max           0 min
Histogram: 8 4 4 0 4 12 8 0 28 36
Nghost:        3879.05 ave        5424 max         232 min
Histogram: 8 0 8 0 16 0 8 8 16 40
Neighs:        79213.3 ave      115130 max           0 min
Histogram: 8 4 4 0 10 6 8 8 24 32

Total # of neighbors = 8238184
Ave neighs/atom = 28.530409
Neighbor list builds = 0
Dangerous builds = 0
The dot product: 2.8845614047229e-07
Setting atom values ...
  1 settings made for x
  1 settings made for y
  1 settings made for z
Setting up cg style minimization ...
  Unit style    : metal
  Current step  : 5464
Per MPI rank memory allocation (min/avg/max) = 5.441 | 5.816 | 6.074 Mbytes
Step PotEng KinEng TotEng v_fx v_fy v_fz 
    5464   -1152448.9            0   -1152448.9 -0.0069758616 -0.0033119109  0.029923408 
    5629   -1152448.9            0   -1152448.9 -2.7555028e-06 -3.2432629e-06 4.7106783e-06 
Loop time of 1.92539 on 104 procs for 165 steps with 288751 atoms

99.9% CPU use with 104 MPI tasks x 1 OpenMP threads

Minimization stats:
  Stopping criterion = energy tolerance
  Energy initial, next-to-last, final = 
     -1152448.89898903  -1152448.90095359  -1152448.90095359
  Force two-norm initial, final = 0.2206348 0.00015140218
  Force max component initial, final = 0.17367917 2.7693113e-05
  Final line search alpha, max atom move = 1.0000000 2.7693113e-05
  Iterations, force evaluations = 165 330

MPI task timing breakdown:
Section |  min time  |  avg time  |  max time  |%varavg| %total
---------------------------------------------------------------
Pair    | 0.50872    | 1.3909     | 1.8032     |  31.5 | 72.24
Neigh   | 0          | 0          | 0          |   0.0 |  0.00
Comm    | 0.029315   | 0.31178    | 0.93647    |  47.1 | 16.19
Output  | 0          | 0          | 0          |   0.0 |  0.00
Modify  | 2.0251e-05 | 0.0027248  | 0.0057665  |   2.5 |  0.14
Other   |            | 0.22       |            |       | 11.42

Nlocal:        2776.45 ave        3950 max           0 min
Histogram: 8 4 4 0 4 12 8 0 28 36
Nghost:        3879.05 ave        5424 max         232 min
Histogram: 8 0 8 0 16 0 8 8 16 40
Neighs:        79213.3 ave      115130 max           0 min
Histogram: 8 4 4 0 10 6 8 8 24 32

Total # of neighbors = 8238182
Ave neighs/atom = 28.530402
Neighbor list builds = 0
Dangerous builds = 0
The dot product: 2.54722574972461e-08
Setting atom values ...
  1 settings made for x
  1 settings made for y
  1 settings made for z
Setting up cg style minimization ...
  Unit style    : metal
  Current step  : 5629
Per MPI rank memory allocation (min/avg/max) = 5.441 | 5.816 | 6.074 Mbytes
Step PotEng KinEng TotEng v_fx v_fy v_fz 
    5629   -1152448.9            0   -1152448.9 -0.0048841592 -0.0023064743  0.019875087 
    5793   -1152448.9            0   -1152448.9 -6.3267349e-06 -8.8120667e-06 5.4108717e-06 
Loop time of 1.88233 on 104 procs for 164 steps with 288751 atoms

99.9% CPU use with 104 MPI tasks x 1 OpenMP threads

Minimization stats:
  Stopping criterion = energy tolerance
  Energy initial, next-to-last, final = 
     -1152448.87753858  -1152448.87934977  -1152448.87934977
  Force two-norm initial, final = 0.21941499 0.00024692619
  Force max component initial, final = 0.17597502 8.9153895e-05
  Final line search alpha, max atom move = 1.0000000 8.9153895e-05
  Iterations, force evaluations = 164 328

MPI task timing breakdown:
Section |  min time  |  avg time  |  max time  |%varavg| %total
---------------------------------------------------------------
Pair    | 0.49665    | 1.3715     | 1.7827     |  31.5 | 72.86
Neigh   | 0          | 0          | 0          |   0.0 |  0.00
Comm    | 0.028999   | 0.3054     | 0.92195    |  47.2 | 16.22
Output  | 0          | 0          | 0          |   0.0 |  0.00
Modify  | 1.9808e-05 | 0.0027147  | 0.0057516  |   2.5 |  0.14
Other   |            | 0.2027     |            |       | 10.77

Nlocal:        2776.45 ave        3949 max           0 min
Histogram: 8 4 4 0 4 12 8 0 28 36
Nghost:        3879.03 ave        5424 max         232 min
Histogram: 8 0 8 0 16 0 8 8 16 40
Neighs:        79213.3 ave      115097 max           0 min
Histogram: 8 4 4 0 10 6 8 8 24 32

Total # of neighbors = 8238180
Ave neighs/atom = 28.530395
Neighbor list builds = 0
Dangerous builds = 0
The dot product: 1.00133537296363e-08
Setting atom values ...
  1 settings made for x
  1 settings made for y
  1 settings made for z
Setting up cg style minimization ...
  Unit style    : metal
  Current step  : 5793
Per MPI rank memory allocation (min/avg/max) = 5.441 | 5.816 | 6.074 Mbytes
Step PotEng KinEng TotEng v_fx v_fy v_fz 
    5793   -1152448.9            0   -1152448.9 -0.0033927879 -0.0016960181  0.013192724 
    5987   -1152448.9            0   -1152448.9 -9.1509042e-06 -1.1362149e-05 1.2401362e-05 
Loop time of 2.24179 on 104 procs for 194 steps with 288751 atoms

99.9% CPU use with 104 MPI tasks x 1 OpenMP threads

Minimization stats:
  Stopping criterion = energy tolerance
  Energy initial, next-to-last, final = 
     -1152448.85391208  -1152448.85583845  -1152448.85583845
  Force two-norm initial, final = 0.22349047 8.5511862e-05
  Force max component initial, final = 0.1783498 1.7195758e-05
  Final line search alpha, max atom move = 1.0000000 1.7195758e-05
  Iterations, force evaluations = 194 388

MPI task timing breakdown:
Section |  min time  |  avg time  |  max time  |%varavg| %total
---------------------------------------------------------------
Pair    | 0.58812    | 1.6366     | 2.1244     |  34.5 | 73.00
Neigh   | 0          | 0          | 0          |   0.0 |  0.00
Comm    | 0.034876   | 0.36758    | 1.1103     |  51.4 | 16.40
Output  | 0          | 0          | 0          |   0.0 |  0.00
Modify  | 2.3398e-05 | 0.0032022  | 0.0067822  |   2.7 |  0.14
Other   |            | 0.2344     |            |       | 10.46

Nlocal:        2776.45 ave        3945 max           0 min
Histogram: 8 4 4 0 4 12 8 0 28 36
Nghost:        3878.99 ave        5424 max         232 min
Histogram: 8 0 8 0 16 0 8 8 16 40
Neighs:        79213.3 ave      114962 max           0 min
Histogram: 8 4 4 0 10 6 8 8 24 32

Total # of neighbors = 8238179
Ave neighs/atom = 28.530391
Neighbor list builds = 0
Dangerous builds = 0
The dot product: 4.8173739560416e-10
Setting atom values ...
  1 settings made for x
  1 settings made for y
  1 settings made for z
Setting up cg style minimization ...
  Unit style    : metal
  Current step  : 5987
Per MPI rank memory allocation (min/avg/max) = 5.441 | 5.816 | 6.074 Mbytes
Step PotEng KinEng TotEng v_fx v_fy v_fz 
    5987   -1152448.8            0   -1152448.8 -0.0025870896 -0.0013743553 0.0097269737 
    6000   -1152448.8            0   -1152448.8 0.00048838148  0.001090437 0.00097715743 
    6173   -1152448.8            0   -1152448.8 -1.6981965e-06 1.6559025e-06 1.504535e-05 
Loop time of 2.18045 on 104 procs for 186 steps with 288751 atoms

99.9% CPU use with 104 MPI tasks x 1 OpenMP threads

Minimization stats:
  Stopping criterion = energy tolerance
  Energy initial, next-to-last, final = 
     -1152448.82816167  -1152448.83019914  -1152448.83019914
  Force two-norm initial, final = 0.22809063 0.00013536922
  Force max component initial, final = 0.18053322 5.3145533e-05
  Final line search alpha, max atom move = 1.0000000 5.3145533e-05
  Iterations, force evaluations = 186 372

MPI task timing breakdown:
Section |  min time  |  avg time  |  max time  |%varavg| %total
---------------------------------------------------------------
Pair    | 0.56825    | 1.5649     | 2.0259     |  33.6 | 71.77
Neigh   | 0          | 0          | 0          |   0.0 |  0.00
Comm    | 0.038356   | 0.35268    | 1.0623     |  49.9 | 16.17
Output  | 0.00010414 | 0.00010631 | 0.0001768  |   0.0 |  0.00
Modify  | 2.3705e-05 | 0.003073   | 0.006501   |   2.6 |  0.14
Other   |            | 0.2597     |            |       | 11.91

Nlocal:        2776.45 ave        3941 max           0 min
Histogram: 8 4 4 0 4 12 8 0 28 36
Nghost:        3878.99 ave        5424 max         232 min
Histogram: 8 0 8 0 16 0 8 8 16 40
Neighs:        79213.2 ave      114830 max           0 min
Histogram: 8 4 4 0 10 6 8 8 22 34

Total # of neighbors = 8238176
Ave neighs/atom = 28.530381
Neighbor list builds = 0
Dangerous builds = 0
The dot product: 1.22902742825693e-09
Setting atom values ...
  1 settings made for x
  1 settings made for y
  1 settings made for z
Setting up cg style minimization ...
  Unit style    : metal
  Current step  : 6173
Per MPI rank memory allocation (min/avg/max) = 5.441 | 5.816 | 6.074 Mbytes
Step PotEng KinEng TotEng v_fx v_fy v_fz 
    6173   -1152448.8            0   -1152448.8 -0.002160012 -0.0012935416 0.0076405679 
    6312   -1152448.8            0   -1152448.8 -2.0901832e-05 -3.3871358e-05 1.8215633e-06 
Loop time of 1.60676 on 104 procs for 139 steps with 288751 atoms

99.9% CPU use with 104 MPI tasks x 1 OpenMP threads

Minimization stats:
  Stopping criterion = energy tolerance
  Energy initial, next-to-last, final = 
     -1152448.80017293  -1152448.80230923  -1152448.80230923
  Force two-norm initial, final = 0.2326755 0.00021199781
  Force max component initial, final = 0.18284753 6.5825415e-05
  Final line search alpha, max atom move = 1.0000000 6.5825415e-05
  Iterations, force evaluations = 139 278

MPI task timing breakdown:
Section |  min time  |  avg time  |  max time  |%varavg| %total
---------------------------------------------------------------
Pair    | 0.42413    | 1.1747     | 1.5224     |  29.2 | 73.11
Neigh   | 0          | 0          | 0          |   0.0 |  0.00
Comm    | 0.025892   | 0.26171    | 0.79427    |  43.8 | 16.29
Output  | 0          | 0          | 0          |   0.0 |  0.00
Modify  | 1.7012e-05 | 0.0022959  | 0.0048747  |   2.3 |  0.14
Other   |            | 0.168      |            |       | 10.46

Nlocal:        2776.45 ave        3932 max           0 min
Histogram: 8 4 4 0 4 12 8 0 26 38
Nghost:        3879.01 ave        5425 max         232 min
Histogram: 8 0 8 0 16 0 8 8 16 40
Neighs:        79213.2 ave      114560 max           0 min
Histogram: 8 4 4 0 8 8 8 8 20 36

Total # of neighbors = 8238176
Ave neighs/atom = 28.530381
Neighbor list builds = 0
Dangerous builds = 0
The dot product: -3.6499969427182e-08
Setting atom values ...
  1 settings made for x
  1 settings made for y
  1 settings made for z
Setting up cg style minimization ...
  Unit style    : metal
  Current step  : 6312
Per MPI rank memory allocation (min/avg/max) = 5.441 | 5.816 | 6.074 Mbytes
Step PotEng KinEng TotEng v_fx v_fy v_fz 
    6312   -1152448.8            0   -1152448.8 -0.0020855277 -0.0015653694 0.0063494327 
    6456   -1152448.8            0   -1152448.8 7.9620073e-07 1.4467631e-06 4.4667533e-07 
Loop time of 1.66728 on 104 procs for 144 steps with 288751 atoms

99.9% CPU use with 104 MPI tasks x 1 OpenMP threads

Minimization stats:
  Stopping criterion = energy tolerance
  Energy initial, next-to-last, final = 
     -1152448.76987346  -1152448.77208428  -1152448.77208428
  Force two-norm initial, final = 0.23652956 0.00024849423
  Force max component initial, final = 0.18502387 6.2852971e-05
  Final line search alpha, max atom move = 1.0000000 6.2852971e-05
  Iterations, force evaluations = 144 288

MPI task timing breakdown:
Section |  min time  |  avg time  |  max time  |%varavg| %total
---------------------------------------------------------------
Pair    | 0.43807    | 1.2078     | 1.5676     |  29.6 | 72.44
Neigh   | 0          | 0          | 0          |   0.0 |  0.00
Comm    | 0.028403   | 0.27163    | 0.82692    |  44.1 | 16.29
Output  | 0          | 0          | 0          |   0.0 |  0.00
Modify  | 1.8295e-05 | 0.0023785  | 0.0050554  |   2.3 |  0.14
Other   |            | 0.1855     |            |       | 11.12

Nlocal:        2776.45 ave        3931 max           0 min
Histogram: 8 4 4 0 4 12 8 0 26 38
Nghost:        3878.99 ave        5425 max         232 min
Histogram: 8 0 8 0 16 0 8 8 16 40
Neighs:        79213.2 ave      114530 max           0 min
Histogram: 8 4 4 0 8 8 8 8 20 36

Total # of neighbors = 8238169
Ave neighs/atom = 28.530357
Neighbor list builds = 0
Dangerous builds = 0
The dot product: 1.2235352830364e-09
Setting atom values ...
  1 settings made for x
  1 settings made for y
  1 settings made for z
Setting up cg style minimization ...
  Unit style    : metal
  Current step  : 6456
Per MPI rank memory allocation (min/avg/max) = 5.441 | 5.816 | 6.074 Mbytes
Step PotEng KinEng TotEng v_fx v_fy v_fz 
    6456   -1152448.7            0   -1152448.7 -0.0021993381 -0.0019424294 0.0057617185 
    6649   -1152448.7            0   -1152448.7 3.0356296e-07 -4.2910096e-07 -3.1593144e-06 
Loop time of 2.2174 on 104 procs for 193 steps with 288751 atoms

99.9% CPU use with 104 MPI tasks x 1 OpenMP threads

Minimization stats:
  Stopping criterion = energy tolerance
  Energy initial, next-to-last, final = 
     -1152448.73720661  -1152448.73946983  -1152448.73946983
  Force two-norm initial, final = 0.23980659 0.00011369887
  Force max component initial, final = 0.18748451 3.6711720e-05
  Final line search alpha, max atom move = 1.0000000 3.6711720e-05
  Iterations, force evaluations = 193 386

MPI task timing breakdown:
Section |  min time  |  avg time  |  max time  |%varavg| %total
---------------------------------------------------------------
Pair    | 0.58549    | 1.6228     | 2.1027     |  34.3 | 73.19
Neigh   | 0          | 0          | 0          |   0.0 |  0.00
Comm    | 0.034731   | 0.35925    | 1.0908     |  51.4 | 16.20
Output  | 0          | 0          | 0          |   0.0 |  0.00
Modify  | 2.3318e-05 | 0.0031836  | 0.0067465  |   2.7 |  0.14
Other   |            | 0.2321     |            |       | 10.47

Nlocal:        2776.45 ave        3930 max           0 min
Histogram: 8 4 4 0 4 12 8 0 26 38
Nghost:        3879.05 ave        5425 max         232 min
Histogram: 8 0 8 0 16 0 8 8 16 40
Neighs:        79213.1 ave      114494 max           0 min
Histogram: 8 4 4 0 8 8 8 8 20 36

Total # of neighbors = 8238166
Ave neighs/atom = 28.530346
Neighbor list builds = 0
Dangerous builds = 0
The dot product: 1.79752635836837e-09
Setting atom values ...
  1 settings made for x
  1 settings made for y
  1 settings made for z
Setting up cg style minimization ...
  Unit style    : metal
  Current step  : 6649
Per MPI rank memory allocation (min/avg/max) = 5.441 | 5.816 | 6.074 Mbytes
Step PotEng KinEng TotEng v_fx v_fy v_fz 
    6649   -1152448.7            0   -1152448.7 -0.0024900926 -0.0024399163 0.0057647156 
    6793   -1152448.7            0   -1152448.7 8.6815386e-06 1.2283972e-05 -7.2423852e-06 
Loop time of 1.65792 on 104 procs for 144 steps with 288751 atoms

99.9% CPU use with 104 MPI tasks x 1 OpenMP threads

Minimization stats:
  Stopping criterion = energy tolerance
  Energy initial, next-to-last, final = 
     -1152448.70214527  -1152448.70443772  -1152448.70443772
  Force two-norm initial, final = 0.24220913 0.0001869628
  Force max component initial, final = 0.18974241 6.1852937e-05
  Final line search alpha, max atom move = 1.0000000 6.1852937e-05
  Iterations, force evaluations = 144 288

MPI task timing breakdown:
Section |  min time  |  avg time  |  max time  |%varavg| %total
---------------------------------------------------------------
Pair    | 0.43703    | 1.2085     | 1.567      |  29.7 | 72.89
Neigh   | 0          | 0          | 0          |   0.0 |  0.00
Comm    | 0.026342   | 0.27071    | 0.81651    |  44.3 | 16.33
Output  | 0          | 0          | 0          |   0.0 |  0.00
Modify  | 1.7885e-05 | 0.0023794  | 0.0050802  |   2.3 |  0.14
Other   |            | 0.1763     |            |       | 10.64

Nlocal:        2776.45 ave        3930 max           0 min
Histogram: 8 4 4 0 4 12 8 0 26 38
Nghost:        3879.10 ave        5425 max         232 min
Histogram: 8 0 8 0 16 0 8 8 16 40
Neighs:        79213.1 ave      114494 max           0 min
Histogram: 8 4 4 0 8 8 8 8 20 36

Total # of neighbors = 8238166
Ave neighs/atom = 28.530346
Neighbor list builds = 0
Dangerous builds = 0
The dot product: 1.67410872563783e-08
Setting atom values ...
  1 settings made for x
  1 settings made for y
  1 settings made for z
Setting up cg style minimization ...
  Unit style    : metal
  Current step  : 6793
Per MPI rank memory allocation (min/avg/max) = 5.441 | 5.816 | 6.074 Mbytes
Step PotEng KinEng TotEng v_fx v_fy v_fz 
    6793   -1152448.7            0   -1152448.7 -0.0028726376 -0.0030405374 0.0059482345 
    6994   -1152448.7            0   -1152448.7 7.7931577e-07 1.6417593e-06 1.1804544e-06 
Loop time of 2.32993 on 104 procs for 201 steps with 288751 atoms

99.9% CPU use with 104 MPI tasks x 1 OpenMP threads

Minimization stats:
  Stopping criterion = energy tolerance
  Energy initial, next-to-last, final = 
     -1152448.66467795  -1152448.66698466  -1152448.66698466
  Force two-norm initial, final = 0.24422543 8.7672209e-05
  Force max component initial, final = 0.1922428 2.8489051e-05
  Final line search alpha, max atom move = 1.0000000 2.8489051e-05
  Iterations, force evaluations = 201 402

MPI task timing breakdown:
Section |  min time  |  avg time  |  max time  |%varavg| %total
---------------------------------------------------------------
Pair    | 0.61127    | 1.694      | 2.2012     |  35.1 | 72.71
Neigh   | 0          | 0          | 0          |   0.0 |  0.00
Comm    | 0.033954   | 0.38624    | 1.1542     |  51.5 | 16.58
Output  | 0          | 0          | 0          |   0.0 |  0.00
Modify  | 2.4056e-05 | 0.0033127  | 0.0070208  |   2.7 |  0.14
Other   |            | 0.2464     |            |       | 10.58

Nlocal:        2776.45 ave        3930 max           0 min
Histogram: 8 4 4 0 4 12 8 0 26 38
Nghost:        3879.04 ave        5425 max         232 min
Histogram: 8 0 8 0 16 0 8 8 16 40
Neighs:        79213.1 ave      114493 max           0 min
Histogram: 8 4 4 0 8 8 8 8 20 36

Total # of neighbors = 8238163
Ave neighs/atom = 28.530336
Neighbor list builds = 0
Dangerous builds = 0
The dot product: 2.55190279668494e-10
Setting atom values ...
  1 settings made for x
  1 settings made for y
  1 settings made for z
Setting up cg style minimization ...
  Unit style    : metal
  Current step  : 6994
Per MPI rank memory allocation (min/avg/max) = 5.441 | 5.816 | 6.074 Mbytes
Step PotEng KinEng TotEng v_fx v_fy v_fz 
    6994   -1152448.6            0   -1152448.6 -0.0034266411 -0.0037629199 0.0067026627 
    7000   -1152448.6            0   -1152448.6 -0.00037268822 -0.00058975893 0.00010833864 
    7134   -1152448.6            0   -1152448.6 -7.1031011e-06 -1.3207317e-05 -4.6990549e-06 
[...]
Histogram: 8 0 8 0 16 0 8 8 16 40
Neighs:        79213.2 ave      115109 max           0 min
Histogram: 8 4 4 0 10 6 8 8 24 32

Total # of neighbors = 8238173
Ave neighs/atom = 28.530370
Neighbor list builds = 0
Dangerous builds = 0
The dot product: 1.63250000570936e-08
Setting atom values ...
  1 settings made for x
  1 settings made for y
  1 settings made for z
Setting up cg style minimization ...
  Unit style    : metal
  Current step  : 26878
Per MPI rank memory allocation (min/avg/max) = 5.441 | 5.816 | 6.074 Mbytes
Step PotEng KinEng TotEng v_fx v_fy v_fz 
   26878   -1152449.1            0   -1152449.1 0.0065101913 -0.0046448115 -0.010415835 
   27000   -1152449.1            0   -1152449.1 -3.7250412e-05 -3.5077567e-06 2.2246494e-05 
   27035   -1152449.1            0   -1152449.1 1.0306407e-05 5.2133558e-06 -8.8747935e-07 
Loop time of 1.82401 on 104 procs for 157 steps with 288751 atoms

99.9% CPU use with 104 MPI tasks x 1 OpenMP threads

Minimization stats:
  Stopping criterion = energy tolerance
  Energy initial, next-to-last, final = 
     -1152449.11891308  -1152449.12026292  -1152449.12026292
  Force two-norm initial, final = 0.16226905 0.00019253225
  Force max component initial, final = 0.086258756 1.3186204e-05
  Final line search alpha, max atom move = 1.0000000 1.3186204e-05
  Iterations, force evaluations = 157 314

MPI task timing breakdown:
Section |  min time  |  avg time  |  max time  |%varavg| %total
---------------------------------------------------------------
Pair    | 0.47655    | 1.3177     | 1.7199     |  31.0 | 72.24
Neigh   | 0          | 0          | 0          |   0.0 |  0.00
Comm    | 0.028122   | 0.29883    | 0.89434    |  45.1 | 16.38
Output  | 0.00017752 | 0.00018008 | 0.00031185 |   0.0 |  0.01
Modify  | 2.0045e-05 | 0.0025902  | 0.0054979  |   2.4 |  0.14
Other   |            | 0.2047     |            |       | 11.22

Nlocal:        2776.45 ave        3945 max           0 min
Histogram: 8 4 4 0 4 12 8 2 26 36
Nghost:        3879.14 ave        5425 max         232 min
Histogram: 8 0 8 0 16 0 8 8 16 40
Neighs:        79213.2 ave      114967 max           0 min
Histogram: 8 4 4 0 10 6 8 8 24 32

Total # of neighbors = 8238173
Ave neighs/atom = 28.530370
Neighbor list builds = 0
Dangerous builds = 0
The dot product: 2.1409194655123e-08
Setting atom values ...
  1 settings made for x
  1 settings made for y
  1 settings made for z
Setting up cg style minimization ...
  Unit style    : metal
  Current step  : 27035
Per MPI rank memory allocation (min/avg/max) = 5.441 | 5.816 | 6.074 Mbytes
Step PotEng KinEng TotEng v_fx v_fy v_fz 
   27035   -1152449.1            0   -1152449.1 0.0054797715 -0.0042758676 -0.0092328496 
   27208   -1152449.1            0   -1152449.1 2.7129141e-06 1.1114186e-05 1.1864595e-05 
Loop time of 1.99636 on 104 procs for 173 steps with 288751 atoms

99.9% CPU use with 104 MPI tasks x 1 OpenMP threads

Minimization stats:
  Stopping criterion = energy tolerance
  Energy initial, next-to-last, final = 
     -1152449.09979294  -1152449.10116138  -1152449.10116138
  Force two-norm initial, final = 0.16191939 0.00012935667
  Force max component initial, final = 0.087316041 3.3982948e-05
  Final line search alpha, max atom move = 1.0000000 3.3982948e-05
  Iterations, force evaluations = 173 346

MPI task timing breakdown:
Section |  min time  |  avg time  |  max time  |%varavg| %total
---------------------------------------------------------------
Pair    | 0.52393    | 1.4542     | 1.891      |  32.7 | 72.84
Neigh   | 0          | 0          | 0          |   0.0 |  0.00
Comm    | 0.040727   | 0.32827    | 0.9781     |  48.0 | 16.44
Output  | 0          | 0          | 0          |   0.0 |  0.00
Modify  | 2.1735e-05 | 0.0028512  | 0.0060632  |   2.5 |  0.14
Other   |            | 0.211      |            |       | 10.57

Nlocal:        2776.45 ave        3941 max           0 min
Histogram: 8 4 4 0 4 12 8 2 26 36
Nghost:        3879.14 ave        5425 max         232 min
Histogram: 8 0 8 0 16 0 8 8 16 40
Neighs:        79213.2 ave      114835 max           0 min
Histogram: 8 4 4 0 10 6 8 8 22 34

Total # of neighbors = 8238173
Ave neighs/atom = 28.530370
Neighbor list builds = 0
Dangerous builds = 0
The dot product: -3.02072299733662e-09
Setting atom values ...
  1 settings made for x
  1 settings made for y
  1 settings made for z
Setting up cg style minimization ...
  Unit style    : metal
  Current step  : 27208
Per MPI rank memory allocation (min/avg/max) = 5.441 | 5.816 | 6.074 Mbytes
Step PotEng KinEng TotEng v_fx v_fy v_fz 
   27208   -1152449.1            0   -1152449.1 0.0044469639 -0.0038401292 -0.0079607165 
   27361   -1152449.1            0   -1152449.1 5.0115805e-06 3.4089733e-05 3.8769576e-05 
Loop time of 1.76359 on 104 procs for 153 steps with 288751 atoms

99.9% CPU use with 104 MPI tasks x 1 OpenMP threads

Minimization stats:
  Stopping criterion = energy tolerance
  Energy initial, next-to-last, final = 
     -1152449.07963046  -1152449.08103839  -1152449.08103839
  Force two-norm initial, final = 0.16175526 0.00023757993
  Force max component initial, final = 0.088308676 3.8769576e-05
  Final line search alpha, max atom move = 1.0000000 3.8769576e-05
  Iterations, force evaluations = 153 306

MPI task timing breakdown:
Section |  min time  |  avg time  |  max time  |%varavg| %total
---------------------------------------------------------------
Pair    | 0.46384    | 1.2844     | 1.6698     |  30.6 | 72.83
Neigh   | 0          | 0          | 0          |   0.0 |  0.00
Comm    | 0.028401   | 0.28687    | 0.86989    |  45.5 | 16.27
Output  | 0          | 0          | 0          |   0.0 |  0.00
Modify  | 1.9695e-05 | 0.0025299  | 0.0053725  |   2.4 |  0.14
Other   |            | 0.1898     |            |       | 10.76

Nlocal:        2776.45 ave        3934 max           0 min
Histogram: 8 4 4 0 4 12 8 0 28 36
Nghost:        3879.14 ave        5425 max         232 min
Histogram: 8 0 8 0 16 0 8 8 16 40
Neighs:        79213.2 ave      114613 max           0 min
Histogram: 8 4 4 0 8 8 8 8 20 36

Total # of neighbors = 8238173
Ave neighs/atom = 28.530370
Neighbor list builds = 0
Dangerous builds = 0
The dot product: -1.60987335566032e-08
Setting atom values ...
  1 settings made for x
  1 settings made for y
  1 settings made for z
Setting up cg style minimization ...
  Unit style    : metal
  Current step  : 27361
Per MPI rank memory allocation (min/avg/max) = 5.441 | 5.816 | 6.074 Mbytes
Step PotEng KinEng TotEng v_fx v_fy v_fz 
   27361   -1152449.1            0   -1152449.1 0.0036249569 -0.0034399064 -0.0068810005 
   27539   -1152449.1            0   -1152449.1 3.1490092e-06 1.1269496e-06 -8.6164107e-07 
Loop time of 2.05241 on 104 procs for 178 steps with 288751 atoms

99.9% CPU use with 104 MPI tasks x 1 OpenMP threads

Minimization stats:
  Stopping criterion = energy tolerance
  Energy initial, next-to-last, final = 
     -1152449.05844418  -1152449.05981634  -1152449.05981634
  Force two-norm initial, final = 0.16183715 0.0001262569
  Force max component initial, final = 0.089291717 2.8696135e-05
  Final line search alpha, max atom move = 1.0000000 2.8696135e-05
  Iterations, force evaluations = 178 356

MPI task timing breakdown:
Section |  min time  |  avg time  |  max time  |%varavg| %total
---------------------------------------------------------------
Pair    | 0.53735    | 1.4964     | 1.9422     |  33.2 | 72.91
Neigh   | 0          | 0          | 0          |   0.0 |  0.00
Comm    | 0.034184   | 0.34092    | 1.0252     |  48.7 | 16.61
Output  | 0          | 0          | 0          |   0.0 |  0.00
Modify  | 2.2419e-05 | 0.002934   | 0.0062655  |   2.6 |  0.14
Other   |            | 0.2121     |            |       | 10.34

Nlocal:        2776.45 ave        3932 max           0 min
Histogram: 8 4 4 0 4 12 8 0 26 38
Nghost:        3879.15 ave        5425 max         232 min
Histogram: 8 0 8 0 16 0 8 8 16 40
Neighs:        79213.2 ave      114549 max           0 min
Histogram: 8 4 4 0 8 8 8 8 20 36

Total # of neighbors = 8238171
Ave neighs/atom = 28.530364
Neighbor list builds = 0
Dangerous builds = 0
The dot product: 6.32457430558242e-09
Setting atom values ...
  1 settings made for x
  1 settings made for y
  1 settings made for z
Setting up cg style minimization ...
  Unit style    : metal
  Current step  : 27539
Per MPI rank memory allocation (min/avg/max) = 5.441 | 5.816 | 6.074 Mbytes
Step PotEng KinEng TotEng v_fx v_fy v_fz 
   27539     -1152449            0     -1152449 0.0029287128 -0.0029394068   -0.0057632 
   27715     -1152449            0     -1152449 -2.4795702e-07 1.8279197e-06 2.4515518e-06 
Loop time of 2.03835 on 104 procs for 176 steps with 288751 atoms

99.9% CPU use with 104 MPI tasks x 1 OpenMP threads

Minimization stats:
  Stopping criterion = energy tolerance
  Energy initial, next-to-last, final = 
     -1152449.03602522  -1152449.03736984  -1152449.03736984
  Force two-norm initial, final = 0.16199072 0.00014534429
  Force max component initial, final = 0.090168735 2.1569778e-05
  Final line search alpha, max atom move = 1.0000000 2.1569778e-05
  Iterations, force evaluations = 176 352

MPI task timing breakdown:
Section |  min time  |  avg time  |  max time  |%varavg| %total
---------------------------------------------------------------
Pair    | 0.53312    | 1.4752     | 1.9307     |  32.8 | 72.37
Neigh   | 0          | 0          | 0          |   0.0 |  0.00
Comm    | 0.03282    | 0.32969    | 0.99716    |  48.5 | 16.17
Output  | 0          | 0          | 0          |   0.0 |  0.00
Modify  | 2.2477e-05 | 0.0029     | 0.0061719  |   2.5 |  0.14
Other   |            | 0.2306     |            |       | 11.31

Nlocal:        2776.45 ave        3932 max           0 min
Histogram: 8 4 4 0 4 12 8 0 26 38
Nghost:        3879.16 ave        5425 max         232 min
Histogram: 8 0 8 0 16 0 8 8 16 40
Neighs:        79213.2 ave      114547 max           0 min
Histogram: 8 4 4 0 8 8 8 8 20 36

Total # of neighbors = 8238170
Ave neighs/atom = 28.530360
Neighbor list builds = 0
Dangerous builds = 0
The dot product: -1.38240475134937e-09
Setting atom values ...
  1 settings made for x
  1 settings made for y
  1 settings made for z
Setting up cg style minimization ...
  Unit style    : metal
  Current step  : 27715
Per MPI rank memory allocation (min/avg/max) = 5.441 | 5.816 | 6.074 Mbytes
Step PotEng KinEng TotEng v_fx v_fy v_fz 
   27715     -1152449            0     -1152449 0.0025022505 -0.0022034765 -0.0045442826 
   27892     -1152449            0     -1152449 4.0912836e-06 3.8597637e-06 1.8518662e-06 
Loop time of 2.05102 on 104 procs for 177 steps with 288751 atoms

99.9% CPU use with 104 MPI tasks x 1 OpenMP threads

Minimization stats:
  Stopping criterion = energy tolerance
  Energy initial, next-to-last, final = 
     -1152449.01227098   -1152449.0135973   -1152449.0135973
  Force two-norm initial, final = 0.16230414 0.00014850604
  Force max component initial, final = 0.09105612 1.8296920e-05
  Final line search alpha, max atom move = 1.0000000 1.8296920e-05
  Iterations, force evaluations = 177 354

MPI task timing breakdown:
Section |  min time  |  avg time  |  max time  |%varavg| %total
---------------------------------------------------------------
Pair    | 0.53554    | 1.4891     | 1.9439     |  33.1 | 72.60
Neigh   | 0          | 0          | 0          |   0.0 |  0.00
Comm    | 0.033161   | 0.34043    | 1.0207     |  48.4 | 16.60
Output  | 0          | 0          | 0          |   0.0 |  0.00
Modify  | 2.2194e-05 | 0.0029128  | 0.00622    |   2.6 |  0.14
Other   |            | 0.2186     |            |       | 10.66

Nlocal:        2776.45 ave        3932 max           0 min
Histogram: 8 4 4 0 4 12 8 0 26 38
Nghost:        3879.18 ave        5426 max         232 min
Histogram: 8 0 8 0 16 0 8 8 16 40
Neighs:        79213.2 ave      114548 max           0 min
Histogram: 8 4 4 0 8 8 8 8 20 36

Total # of neighbors = 8238174
Ave neighs/atom = 28.530374
Neighbor list builds = 0
Dangerous builds = 0
The dot product: 5.92435184478804e-09
Setting atom values ...
  1 settings made for x
  1 settings made for y
  1 settings made for z
Setting up cg style minimization ...
  Unit style    : metal
  Current step  : 27892
Per MPI rank memory allocation (min/avg/max) = 5.441 | 5.816 | 6.074 Mbytes
Step PotEng KinEng TotEng v_fx v_fy v_fz 
   27892     -1152449            0     -1152449  0.002295462 -0.0012762084 -0.0032440933 
   28000     -1152449            0     -1152449 -7.089367e-05 -3.1272323e-05 1.2261983e-05 
   28067     -1152449            0     -1152449 2.1083979e-06 9.4310038e-06 1.0209881e-05 
Loop time of 2.02238 on 104 procs for 175 steps with 288751 atoms

99.9% CPU use with 104 MPI tasks x 1 OpenMP threads

Minimization stats:
  Stopping criterion = energy tolerance
  Energy initial, next-to-last, final = 
      -1152448.9870905  -1152448.98839853  -1152448.98839853
  Force two-norm initial, final = 0.16284762 0.00016942589
  Force max component initial, final = 0.091948652 2.9589548e-05
  Final line search alpha, max atom move = 1.0000000 2.9589548e-05
  Iterations, force evaluations = 175 350

MPI task timing breakdown:
Section |  min time  |  avg time  |  max time  |%varavg| %total
---------------------------------------------------------------
Pair    | 0.5286     | 1.4661     | 1.9143     |  32.7 | 72.50
Neigh   | 0          | 0          | 0          |   0.0 |  0.00
Comm    | 0.031486   | 0.32763    | 0.99404    |  48.4 | 16.20
Output  | 0.00010922 | 0.00011764 | 0.00024587 |   0.0 |  0.01
Modify  | 2.2311e-05 | 0.0028983  | 0.0061378  |   2.5 |  0.14
Other   |            | 0.2256     |            |       | 11.16

Nlocal:        2776.45 ave        3931 max           0 min
Histogram: 8 4 4 0 4 12 8 0 26 38
Nghost:        3879.20 ave        5426 max         232 min
Histogram: 8 0 8 0 16 0 8 8 16 40
Neighs:        79213.2 ave      114514 max           0 min
Histogram: 8 4 4 0 8 8 8 8 20 36

Total # of neighbors = 8238172
Ave neighs/atom = 28.530367
Neighbor list builds = 0
Dangerous builds = 0
The dot product: 5.14073234863719e-09
Setting atom values ...
  1 settings made for x
  1 settings made for y
  1 settings made for z
Setting up cg style minimization ...
  Unit style    : metal
  Current step  : 28067
Per MPI rank memory allocation (min/avg/max) = 5.441 | 5.816 | 6.074 Mbytes
Step PotEng KinEng TotEng v_fx v_fy v_fz 
   28067     -1152449            0     -1152449 0.0022262635 -0.0002528654 -0.0019227821 
   28264     -1152449            0     -1152449 8.351697e-08 -4.0799914e-07 -5.6780096e-07 
Loop time of 2.28286 on 104 procs for 197 steps with 288751 atoms

99.9% CPU use with 104 MPI tasks x 1 OpenMP threads

Minimization stats:
  Stopping criterion = energy tolerance
  Energy initial, next-to-last, final = 
      -1152448.9603812  -1152448.96167809  -1152448.96167809
  Force two-norm initial, final = 0.16354792 8.9872260e-05
  Force max component initial, final = 0.092722789 7.7525249e-06
  Final line search alpha, max atom move = 1.0000000 7.7525249e-06
  Iterations, force evaluations = 197 394

MPI task timing breakdown:
Section |  min time  |  avg time  |  max time  |%varavg| %total
---------------------------------------------------------------
Pair    | 0.59916    | 1.6563     | 2.1619     |  34.8 | 72.55
Neigh   | 0          | 0          | 0          |   0.0 |  0.00
Comm    | 0.04228    | 0.37305    | 1.1239     |  51.2 | 16.34
Output  | 0          | 0          | 0          |   0.0 |  0.00
Modify  | 2.4442e-05 | 0.0032482  | 0.0068933  |   2.7 |  0.14
Other   |            | 0.2503     |            |       | 10.96

Nlocal:        2776.45 ave        3931 max           0 min
Histogram: 8 4 4 0 4 12 8 0 26 38
Nghost:        3879.22 ave        5426 max         232 min
Histogram: 8 0 8 0 16 0 8 8 16 40
Neighs:        79213.2 ave      114513 max           0 min
Histogram: 8 4 4 0 8 8 8 8 20 36

Total # of neighbors = 8238171
Ave neighs/atom = 28.530364
Neighbor list builds = 0
Dangerous builds = 0
The dot product: -1.87180369062729e-10
Setting atom values ...
  1 settings made for x
  1 settings made for y
  1 settings made for z
Setting up cg style minimization ...
  Unit style    : metal
  Current step  : 28264
Per MPI rank memory allocation (min/avg/max) = 5.441 | 5.816 | 6.074 Mbytes
Step PotEng KinEng TotEng v_fx v_fy v_fz 
   28264   -1152448.9            0   -1152448.9 0.0022060014 0.00068251434 -0.00074627863 
   28455   -1152448.9            0   -1152448.9 -8.7368613e-06 -1.7662569e-05 -1.5645426e-05 
Loop time of 2.19886 on 104 procs for 191 steps with 288751 atoms

99.9% CPU use with 104 MPI tasks x 1 OpenMP threads

Minimization stats:
  Stopping criterion = energy tolerance
  Energy initial, next-to-last, final = 
     -1152448.93206159  -1152448.93335497  -1152448.93335497
  Force two-norm initial, final = 0.16450954 0.00010686887
  Force max component initial, final = 0.093525615 1.7662569e-05
  Final line search alpha, max atom move = 1.0000000 1.7662569e-05
  Iterations, force evaluations = 191 382

MPI task timing breakdown:
Section |  min time  |  avg time  |  max time  |%varavg| %total
---------------------------------------------------------------
Pair    | 0.57762    | 1.5998     | 2.0832     |  34.1 | 72.76
Neigh   | 0          | 0          | 0          |   0.0 |  0.00
Comm    | 0.03508    | 0.35925    | 1.0887     |  50.4 | 16.34
Output  | 0          | 0          | 0          |   0.0 |  0.00
Modify  | 2.419e-05  | 0.0031481  | 0.0066789  |   2.6 |  0.14
Other   |            | 0.2367     |            |       | 10.76

Nlocal:        2776.45 ave        3931 max           0 min
Histogram: 8 4 4 0 4 12 8 0 26 38
Nghost:        3879.22 ave        5426 max         232 min
Histogram: 8 0 8 0 16 0 8 8 16 40
Neighs:        79213.2 ave      114508 max           0 min
Histogram: 8 4 4 0 8 8 8 8 20 36

Total # of neighbors = 8238171
Ave neighs/atom = 28.530364
Neighbor list builds = 0
Dangerous builds = 0
The dot product: -2.59757223292511e-08
Setting atom values ...
  1 settings made for x
  1 settings made for y
  1 settings made for z
Setting up cg style minimization ...
  Unit style    : metal
  Current step  : 28455
Per MPI rank memory allocation (min/avg/max) = 5.441 | 5.816 | 6.074 Mbytes
Step PotEng KinEng TotEng v_fx v_fy v_fz 
   28455   -1152448.9            0   -1152448.9 0.0020989365 0.0013429991 0.00015063071 
   28630   -1152448.9            0   -1152448.9 -7.0043053e-06 4.1516628e-06 1.0227709e-05 
Loop time of 2.04735 on 104 procs for 175 steps with 288751 atoms

99.9% CPU use with 104 MPI tasks x 1 OpenMP threads

Minimization stats:
  Stopping criterion = energy tolerance
  Energy initial, next-to-last, final = 
     -1152448.90206597  -1152448.90336036  -1152448.90336036
  Force two-norm initial, final = 0.16561801 0.00020267566
  Force max component initial, final = 0.094286662 4.8426924e-05
  Final line search alpha, max atom move = 1.0000000 4.8426924e-05
  Iterations, force evaluations = 175 350

MPI task timing breakdown:
Section |  min time  |  avg time  |  max time  |%varavg| %total
---------------------------------------------------------------
Pair    | 0.52939    | 1.4745     | 1.913      |  32.8 | 72.02
Neigh   | 0          | 0          | 0          |   0.0 |  0.00
Comm    | 0.033294   | 0.33407    | 0.9984     |  48.3 | 16.32
Output  | 0          | 0          | 0          |   0.0 |  0.00
Modify  | 2.2117e-05 | 0.0028805  | 0.0061196  |   2.5 |  0.14
Other   |            | 0.2359     |            |       | 11.52

Nlocal:        2776.45 ave        3931 max           0 min
Histogram: 8 4 4 0 4 12 8 0 26 38
Nghost:        3879.15 ave        5425 max         232 min
Histogram: 8 0 8 0 16 0 8 8 16 40
Neighs:        79213.2 ave      114508 max           0 min
Histogram: 8 4 4 0 8 8 8 8 20 36

Total # of neighbors = 8238170
Ave neighs/atom = 28.530360
Neighbor list builds = 0
Dangerous builds = 0
The dot product: -7.8912138383794e-10
