LAMMPS (29 Oct 2020)
OMP_NUM_THREADS environment is not set. Defaulting to 1 thread. (../comm.cpp:94)
  using 1 OpenMP thread(s) per MPI task
OMP_NUM_THREADS environment is not set. Defaulting to 1 thread. (../comm.cpp:94)
  using 1 OpenMP thread(s) per MPI task
Reading data file ...
  orthogonal box = (-122.39241 -121.13707 -37.090501) to (122.39241 121.13707 37.090501)
  13 by 4 by 2 MPI processor grid
  reading atoms ...
  288751 atoms
  read_data CPU = 0.370 seconds
199981 atoms in group inner
88770 atoms in group outer
1 atoms in group carbon
Neighbor list info ...
  update every 1 steps, delay 0 steps, check yes
  max neighbors/atom: 2000, page size: 100000
  master list distance cutoff = 5.6
  ghost atom cutoff = 5.6
  binsize = 2.8, bins = 88 87 27
  1 neighbor lists, perpetual/occasional/extra = 1 0 0
  (1) pair eam/alloy, perpetual
      attributes: half, newton on
      pair build: half/bin/atomonly/newton
      stencil: half/bin/3d/newton
      bin: standard
Setting up cg style minimization ...
  Unit style    : metal
  Current step  : 0
Per MPI rank memory allocation (min/avg/max) = 5.441 | 5.816 | 6.074 Mbytes
Step v_fx v_fy v_fz PotEng KinEng TotEng 
       0    25.946583  -0.40747977   -13.180332   -1152441.8            0   -1152441.8 
     228 -5.5884455e-07 -1.6305235e-06 6.2258189e-06     -1152449            0     -1152449 
Loop time of 2.66651 on 104 procs for 228 steps with 288751 atoms

99.8% CPU use with 104 MPI tasks x 1 OpenMP threads

Minimization stats:
  Stopping criterion = energy tolerance
  Energy initial, next-to-last, final = 
     -1152441.79203692  -1152448.97218897  -1152448.97218897
  Force two-norm initial, final = 47.417487 0.00014825903
  Force max component initial, final = 32.957607 3.7442566e-05
  Final line search alpha, max atom move = 1.0000000 3.7442566e-05
  Iterations, force evaluations = 228 452

MPI task timing breakdown:
Section |  min time  |  avg time  |  max time  |%varavg| %total
---------------------------------------------------------------
Pair    | 0.71721    | 1.9039     | 2.4595     |  36.5 | 71.40
Neigh   | 8.1829e-05 | 0.023484   | 0.034385   |   6.3 |  0.88
Comm    | 0.057392   | 0.43317    | 1.2921     |  54.7 | 16.24
Output  | 0          | 0          | 0          |   0.0 |  0.00
Modify  | 2.6022e-05 | 0.00244    | 0.0062949  |   3.1 |  0.09
Other   |            | 0.3036     |            |       | 11.38

Nlocal:        2776.45 ave        3956 max           0 min
Histogram: 8 4 4 0 4 12 8 0 30 34
Nghost:        3879.12 ave        5425 max         232 min
Histogram: 8 0 8 0 16 0 8 8 16 40
Neighs:        79213.5 ave      115304 max           0 min
Histogram: 8 4 4 0 10 6 8 8 24 32

Total # of neighbors = 8238207
Ave neighs/atom = 28.530488
Neighbor list builds = 8
Dangerous builds = 0
Setting atom values ...
  1 settings made for x
  1 settings made for y
  1 settings made for z
Setting up cg style minimization ...
  Unit style    : metal
  Current step  : 228
Per MPI rank memory allocation (min/avg/max) = 5.441 | 5.816 | 6.074 Mbytes
Step PotEng KinEng TotEng v_fx v_fy v_fz 
     228     -1152449            0     -1152449  0.019353591  -0.01943959 -0.013811164 
     340     -1152449            0     -1152449 2.6912285e-05 -3.5146904e-05 -4.5114544e-05 
Loop time of 1.28945 on 104 procs for 112 steps with 288751 atoms

99.9% CPU use with 104 MPI tasks x 1 OpenMP threads

Minimization stats:
  Stopping criterion = energy tolerance
  Energy initial, next-to-last, final = 
      -1152448.9713821  -1152448.97192987  -1152448.97192987
  Force two-norm initial, final = 0.10753334 0.00020859106
  Force max component initial, final = 0.047327856 4.5114544e-05
  Final line search alpha, max atom move = 1.0000000 4.5114544e-05
  Iterations, force evaluations = 112 224

MPI task timing breakdown:
Section |  min time  |  avg time  |  max time  |%varavg| %total
---------------------------------------------------------------
Pair    | 0.34061    | 0.9431     | 1.2188     |  26.2 | 73.14
Neigh   | 0          | 0          | 0          |   0.0 |  0.00
Comm    | 0.01882    | 0.2109     | 0.64179    |  39.4 | 16.36
Output  | 0          | 0          | 0          |   0.0 |  0.00
Modify  | 1.4245e-05 | 0.0018514  | 0.0039624  |   2.0 |  0.14
Other   |            | 0.1336     |            |       | 10.36

Nlocal:        2776.45 ave        3956 max           0 min
Histogram: 8 4 4 0 4 12 8 1 29 34
Nghost:        3879.13 ave        5425 max         232 min
Histogram: 8 0 8 0 16 0 8 8 16 40
Neighs:        79213.5 ave      115291 max           0 min
Histogram: 8 4 4 0 10 6 8 8 24 32

Total # of neighbors = 8238206
Ave neighs/atom = 28.530485
Neighbor list builds = 0
Dangerous builds = 0
Setting atom values ...
  1 settings made for x
  1 settings made for y
  1 settings made for z
Setting up cg style minimization ...
  Unit style    : metal
  Current step  : 340
Per MPI rank memory allocation (min/avg/max) = 5.441 | 5.816 | 6.074 Mbytes
Step PotEng KinEng TotEng v_fx v_fy v_fz 
     340     -1152449            0     -1152449  0.029874244 -0.033249504 -0.027381144 
     574     -1152449            0     -1152449 1.316062e-06 -2.0517318e-06 -2.7383853e-06 
Loop time of 2.73847 on 104 procs for 234 steps with 288751 atoms

99.9% CPU use with 104 MPI tasks x 1 OpenMP threads

Minimization stats:
  Stopping criterion = energy tolerance
  Energy initial, next-to-last, final = 
     -1152448.96876532   -1152448.9702865   -1152448.9702865
  Force two-norm initial, final = 0.17962268 1.8612779e-05
  Force max component initial, final = 0.078522955 6.5849156e-06
  Final line search alpha, max atom move = 1.0000000 6.5849156e-06
  Iterations, force evaluations = 234 468

MPI task timing breakdown:
Section |  min time  |  avg time  |  max time  |%varavg| %total
---------------------------------------------------------------
Pair    | 0.7087     | 1.962      | 2.5479     |  37.8 | 71.64
Neigh   | 0          | 0          | 0          |   0.0 |  0.00
Comm    | 0.057839   | 0.44982    | 1.344      |  55.3 | 16.43
Output  | 0          | 0          | 0          |   0.0 |  0.00
Modify  | 2.7036e-05 | 0.0038553  | 0.0082369  |   2.9 |  0.14
Other   |            | 0.3228     |            |       | 11.79

Nlocal:        2776.45 ave        3956 max           0 min
Histogram: 8 4 4 0 4 12 8 1 29 34
Nghost:        3879.14 ave        5425 max         232 min
Histogram: 8 0 8 0 16 0 8 8 16 40
Neighs:        79213.5 ave      115290 max           0 min
Histogram: 8 4 4 0 10 6 8 8 24 32

Total # of neighbors = 8238202
Ave neighs/atom = 28.530471
Neighbor list builds = 0
Dangerous builds = 0
The dot product: -2.81722846175452e-09
Setting atom values ...
  1 settings made for x
  1 settings made for y
  1 settings made for z
Setting up cg style minimization ...
  Unit style    : metal
  Current step  : 574
Per MPI rank memory allocation (min/avg/max) = 5.441 | 5.816 | 6.074 Mbytes
Step PotEng KinEng TotEng v_fx v_fy v_fz 
     574     -1152449            0     -1152449  0.023788296 -0.032527329 -0.033675489 
     888     -1152449            0     -1152449 1.8639254e-07 -2.6837755e-07 -2.9591024e-07 
Loop time of 3.61131 on 104 procs for 314 steps with 288751 atoms

99.9% CPU use with 104 MPI tasks x 1 OpenMP threads

Minimization stats:
  Stopping criterion = energy tolerance
  Energy initial, next-to-last, final = 
     -1152448.96542632  -1152448.96698604  -1152448.96698604
  Force two-norm initial, final = 0.1810246 1.3492747e-06
  Force max component initial, final = 0.080079341 3.5144183e-07
  Final line search alpha, max atom move = 1.0000000 3.5144183e-07
  Iterations, force evaluations = 314 628

MPI task timing breakdown:
Section |  min time  |  avg time  |  max time  |%varavg| %total
---------------------------------------------------------------
Pair    | 0.95024    | 2.6372     | 3.4085     |  43.9 | 73.03
Neigh   | 0          | 0          | 0          |   0.0 |  0.00
Comm    | 0.059579   | 0.58733    | 1.7894     |  65.9 | 16.26
Output  | 0          | 0          | 0          |   0.0 |  0.00
Modify  | 3.8668e-05 | 0.0051634  | 0.011062   |   3.4 |  0.14
Other   |            | 0.3816     |            |       | 10.57

Nlocal:        2776.45 ave        3956 max           0 min
Histogram: 8 4 4 0 4 12 8 2 28 34
Nghost:        3879.14 ave        5425 max         232 min
Histogram: 8 0 8 0 16 0 8 8 16 40
Neighs:        79213.5 ave      115291 max           0 min
Histogram: 8 4 4 0 10 6 8 8 24 32

Total # of neighbors = 8238203
Ave neighs/atom = 28.530474
Neighbor list builds = 0
Dangerous builds = 0
The dot product: -2.84583879951804e-10
Setting atom values ...
  1 settings made for x
  1 settings made for y
  1 settings made for z
Setting up cg style minimization ...
  Unit style    : metal
  Current step  : 888
Per MPI rank memory allocation (min/avg/max) = 5.441 | 5.816 | 6.074 Mbytes
Step PotEng KinEng TotEng v_fx v_fy v_fz 
     888     -1152449            0     -1152449  0.016130029 -0.030613806 -0.041546026 
    1000     -1152449            0     -1152449 4.4105402e-05 -6.6891916e-05 -7.3888217e-05 
    1062     -1152449            0     -1152449 1.2881162e-05 -1.9387201e-05 -2.1227838e-05 
Loop time of 2.00314 on 104 procs for 174 steps with 288751 atoms

99.9% CPU use with 104 MPI tasks x 1 OpenMP threads

Minimization stats:
  Stopping criterion = energy tolerance
  Energy initial, next-to-last, final = 
     -1152448.96034314  -1152448.96194526  -1152448.96194526
  Force two-norm initial, final = 0.18257926 0.00017861297
  Force max component initial, final = 0.081068611 2.1309037e-05
  Final line search alpha, max atom move = 1.0000000 2.1309037e-05
  Iterations, force evaluations = 174 348

MPI task timing breakdown:
Section |  min time  |  avg time  |  max time  |%varavg| %total
---------------------------------------------------------------
Pair    | 0.52748    | 1.4553     | 1.8909     |  32.6 | 72.65
Neigh   | 0          | 0          | 0          |   0.0 |  0.00
Comm    | 0.040029   | 0.32735    | 0.99236    |  48.3 | 16.34
Output  | 0.00014991 | 0.00016004 | 0.00029324 |   0.0 |  0.01
Modify  | 2.0716e-05 | 0.0028656  | 0.0061119  |   2.5 |  0.14
Other   |            | 0.2174     |            |       | 10.85

Nlocal:        2776.45 ave        3956 max           0 min
Histogram: 8 4 4 0 4 12 8 2 28 34
Nghost:        3879.14 ave        5425 max         232 min
Histogram: 8 0 8 0 16 0 8 8 16 40
Neighs:        79213.5 ave      115291 max           0 min
Histogram: 8 4 4 0 10 6 8 8 24 32

Total # of neighbors = 8238205
Ave neighs/atom = 28.530481
Neighbor list builds = 0
Dangerous builds = 0
The dot product: 3.75949614993256e-09
Setting atom values ...
  1 settings made for x
  1 settings made for y
  1 settings made for z
Setting up cg style minimization ...
  Unit style    : metal
  Current step  : 1062
Per MPI rank memory allocation (min/avg/max) = 5.441 | 5.816 | 6.074 Mbytes
Step PotEng KinEng TotEng v_fx v_fy v_fz 
    1062     -1152449            0     -1152449   0.00606656 -0.026225055 -0.054997952 
    1185     -1152449            0     -1152449 9.3265734e-06 -1.1898499e-05 -9.8876063e-06 
Loop time of 1.41125 on 104 procs for 123 steps with 288751 atoms

99.9% CPU use with 104 MPI tasks x 1 OpenMP threads

Minimization stats:
  Stopping criterion = energy tolerance
  Energy initial, next-to-last, final = 
     -1152448.95356616  -1152448.95524404  -1152448.95524404
  Force two-norm initial, final = 0.18473949 0.00020095932
  Force max component initial, final = 0.081215021 4.6856601e-05
  Final line search alpha, max atom move = 1.0000000 4.6856601e-05
  Iterations, force evaluations = 123 246

MPI task timing breakdown:
Section |  min time  |  avg time  |  max time  |%varavg| %total
---------------------------------------------------------------
Pair    | 0.37143    | 1.0333     | 1.3383     |  27.4 | 73.22
Neigh   | 0          | 0          | 0          |   0.0 |  0.00
Comm    | 0.023633   | 0.22855    | 0.70256    |  41.2 | 16.20
Output  | 0          | 0          | 0          |   0.0 |  0.00
Modify  | 1.4199e-05 | 0.0020236  | 0.0043432  |   2.1 |  0.14
Other   |            | 0.1473     |            |       | 10.44

Nlocal:        2776.45 ave        3955 max           0 min
Histogram: 8 4 4 0 4 12 8 2 28 34
Nghost:        3879.18 ave        5426 max         232 min
Histogram: 8 0 8 0 16 0 8 8 16 40
Neighs:        79213.5 ave      115248 max           0 min
Histogram: 8 4 4 0 10 6 8 8 24 32

Total # of neighbors = 8238207
Ave neighs/atom = 28.530488
Neighbor list builds = 0
Dangerous builds = 0
The dot product: 7.46176624760463e-09
Setting atom values ...
  1 settings made for x
  1 settings made for y
  1 settings made for z
Setting up cg style minimization ...
  Unit style    : metal
  Current step  : 1185
Per MPI rank memory allocation (min/avg/max) = 5.441 | 5.816 | 6.074 Mbytes
Step PotEng KinEng TotEng v_fx v_fy v_fz 
    1185   -1152448.9            0   -1152448.9 -0.0049127989 -0.016575753 -0.076603518 
    1314   -1152448.9            0   -1152448.9 -1.3671588e-06 3.565975e-06 8.051506e-06 
Loop time of 1.49955 on 104 procs for 129 steps with 288751 atoms

99.9% CPU use with 104 MPI tasks x 1 OpenMP threads

Minimization stats:
  Stopping criterion = energy tolerance
  Energy initial, next-to-last, final = 
     -1152448.94536313  -1152448.94723125  -1152448.94723125
  Force two-norm initial, final = 0.18939706 0.00017146325
  Force max component initial, final = 0.079852641 3.4851750e-05
  Final line search alpha, max atom move = 1.0000000 3.4851750e-05
  Iterations, force evaluations = 129 258

MPI task timing breakdown:
Section |  min time  |  avg time  |  max time  |%varavg| %total
---------------------------------------------------------------
Pair    | 0.39172    | 1.0799     | 1.4032     |  28.0 | 72.01
Neigh   | 0          | 0          | 0          |   0.0 |  0.00
Comm    | 0.022863   | 0.24156    | 0.73432    |  41.7 | 16.11
Output  | 0          | 0          | 0          |   0.0 |  0.00
Modify  | 1.5505e-05 | 0.0021275  | 0.0045451  |   2.2 |  0.14
Other   |            | 0.176      |            |       | 11.73

Nlocal:        2776.45 ave        3953 max           0 min
Histogram: 8 4 4 0 4 12 8 2 28 34
Nghost:        3879.14 ave        5425 max         232 min
Histogram: 8 0 8 0 16 0 8 8 16 40
Neighs:        79213.5 ave      115196 max           0 min
Histogram: 8 4 4 0 10 6 8 8 24 32

Total # of neighbors = 8238208
Ave neighs/atom = 28.530492
Neighbor list builds = 0
Dangerous builds = 0
The dot product: -9.11459616792637e-08
Setting atom values ...
  1 settings made for x
  1 settings made for y
  1 settings made for z
Setting up cg style minimization ...
  Unit style    : metal
  Current step  : 1314
Per MPI rank memory allocation (min/avg/max) = 5.441 | 5.816 | 6.074 Mbytes
Step PotEng KinEng TotEng v_fx v_fy v_fz 
    1314   -1152448.9            0   -1152448.9 -0.0093773148 -0.00036041559 -0.098287474 
    1510   -1152448.9            0   -1152448.9 8.727478e-06 -1.2144369e-05 -2.3679732e-05 
Loop time of 2.26905 on 104 procs for 196 steps with 288751 atoms

99.9% CPU use with 104 MPI tasks x 1 OpenMP threads

Minimization stats:
  Stopping criterion = energy tolerance
  Energy initial, next-to-last, final = 
      -1152448.9362266  -1152448.93844796  -1152448.93844796
  Force two-norm initial, final = 0.1954566 0.00015271458
  Force max component initial, final = 0.098287474 2.8081745e-05
  Final line search alpha, max atom move = 1.0000000 2.8081745e-05
  Iterations, force evaluations = 196 392

MPI task timing breakdown:
Section |  min time  |  avg time  |  max time  |%varavg| %total
---------------------------------------------------------------
Pair    | 0.59302    | 1.6447     | 2.1293     |  34.6 | 72.48
Neigh   | 0          | 0          | 0          |   0.0 |  0.00
Comm    | 0.041002   | 0.36717    | 1.1185     |  51.7 | 16.18
Output  | 0          | 0          | 0          |   0.0 |  0.00
Modify  | 2.4743e-05 | 0.0032286  | 0.0069018  |   2.7 |  0.14
Other   |            | 0.254      |            |       | 11.19

Nlocal:        2776.45 ave        3952 max           0 min
Histogram: 8 4 4 0 4 12 8 2 28 34
Nghost:        3879.14 ave        5425 max         232 min
Histogram: 8 0 8 0 16 0 8 8 16 40
Neighs:        79213.5 ave      115166 max           0 min
Histogram: 8 4 4 0 10 6 8 8 24 32

Total # of neighbors = 8238204
Ave neighs/atom = 28.530478
Neighbor list builds = 0
Dangerous builds = 0
The dot product: 3.66287730867776e-07
Setting atom values ...
  1 settings made for x
  1 settings made for y
  1 settings made for z
Setting up cg style minimization ...
  Unit style    : metal
  Current step  : 1510
Per MPI rank memory allocation (min/avg/max) = 5.441 | 5.816 | 6.074 Mbytes
Step PotEng KinEng TotEng v_fx v_fy v_fz 
    1510   -1152448.9            0   -1152448.9 -0.0035727167   0.01922318  -0.10993185 
    1843   -1152448.9            0   -1152448.9 -1.1381518e-05 1.0697494e-05 2.6900788e-05 
Loop time of 3.81101 on 104 procs for 333 steps with 288751 atoms

99.9% CPU use with 104 MPI tasks x 1 OpenMP threads

Minimization stats:
  Stopping criterion = energy tolerance
  Energy initial, next-to-last, final = 
     -1152448.92660491  -1152448.92932916  -1152448.92932916
  Force two-norm initial, final = 0.19728785 0.00015521811
  Force max component initial, final = 0.10993185 3.9692158e-05
  Final line search alpha, max atom move = 1.0000000 3.9692158e-05
  Iterations, force evaluations = 333 666

MPI task timing breakdown:
Section |  min time  |  avg time  |  max time  |%varavg| %total
---------------------------------------------------------------
Pair    | 1.006      | 2.7829     | 3.6018     |  45.1 | 73.02
Neigh   | 0          | 0          | 0          |   0.0 |  0.00
Comm    | 0.057974   | 0.62048    | 1.8935     |  67.5 | 16.28
Output  | 0          | 0          | 0          |   0.0 |  0.00
Modify  | 3.8322e-05 | 0.0054737  | 0.011681   |   3.5 |  0.14
Other   |            | 0.4021     |            |       | 10.55

Nlocal:        2776.45 ave        3952 max           0 min
Histogram: 8 4 4 0 4 12 8 2 28 34
Nghost:        3879.13 ave        5425 max         232 min
Histogram: 8 0 8 0 16 0 8 8 16 40
Neighs:        79213.5 ave      115168 max           0 min
Histogram: 8 4 4 0 10 6 8 8 24 32

Total # of neighbors = 8238209
Ave neighs/atom = 28.530495
Neighbor list builds = 0
Dangerous builds = 0
The dot product: -7.2606038652797e-07
Setting atom values ...
  1 settings made for x
  1 settings made for y
  1 settings made for z
Setting up cg style minimization ...
  Unit style    : metal
  Current step  : 1843
Per MPI rank memory allocation (min/avg/max) = 5.441 | 5.816 | 6.074 Mbytes
Step PotEng KinEng TotEng v_fx v_fy v_fz 
    1843   -1152448.9            0   -1152448.9  0.014552561  0.041561283  -0.12038532 
    2000   -1152448.9            0   -1152448.9 -4.2687698e-05 3.8427314e-05 4.4044099e-05 
    2108   -1152448.9            0   -1152448.9 -3.7231575e-06 2.4367393e-06 5.6049773e-06 
Loop time of 3.04147 on 104 procs for 265 steps with 288751 atoms

99.9% CPU use with 104 MPI tasks x 1 OpenMP threads

Minimization stats:
  Stopping criterion = energy tolerance
  Energy initial, next-to-last, final = 
     -1152448.91677487  -1152448.92047117  -1152448.92047117
  Force two-norm initial, final = 0.20071621 2.1729376e-05
  Force max component initial, final = 0.12038532 6.7308933e-06
  Final line search alpha, max atom move = 1.0000000 6.7308933e-06
  Iterations, force evaluations = 265 530

MPI task timing breakdown:
Section |  min time  |  avg time  |  max time  |%varavg| %total
---------------------------------------------------------------
Pair    | 0.80142    | 2.2254     | 2.8743     |  40.2 | 73.17
Neigh   | 0          | 0          | 0          |   0.0 |  0.00
Comm    | 0.054202   | 0.49321    | 1.5132     |  60.5 | 16.22
Output  | 0.00010449 | 0.00010783 | 0.00024285 |   0.0 |  0.00
Modify  | 3.1146e-05 | 0.0043623  | 0.0093114  |   3.1 |  0.14
Other   |            | 0.3184     |            |       | 10.47

Nlocal:        2776.45 ave        3952 max           0 min
Histogram: 8 4 4 0 4 12 8 2 28 34
Nghost:        3879.10 ave        5425 max         232 min
Histogram: 8 0 8 0 16 0 8 8 16 40
Neighs:        79213.4 ave      115165 max           0 min
Histogram: 8 4 4 0 10 6 8 8 24 32

Total # of neighbors = 8238198
Ave neighs/atom = 28.530457
Neighbor list builds = 0
Dangerous builds = 0
The dot product: -1.92964598749086e-07
Setting atom values ...
  1 settings made for x
  1 settings made for y
  1 settings made for z
Setting up cg style minimization ...
  Unit style    : metal
  Current step  : 2108
Per MPI rank memory allocation (min/avg/max) = 5.441 | 5.816 | 6.074 Mbytes
Step PotEng KinEng TotEng v_fx v_fy v_fz 
    2108   -1152448.9            0   -1152448.9  0.032882846  0.064527508  -0.11010248 
    2419   -1152448.9            0   -1152448.9 -6.0198427e-06   1.7143e-06 7.6457068e-06 
Loop time of 3.58307 on 104 procs for 311 steps with 288751 atoms

99.9% CPU use with 104 MPI tasks x 1 OpenMP threads

Minimization stats:
  Stopping criterion = energy tolerance
  Energy initial, next-to-last, final = 
     -1152448.90725435  -1152448.92046354  -1152448.92046354
  Force two-norm initial, final = 0.1983431 3.5193150e-05
  Force max component initial, final = 0.11010248 9.1190469e-06
  Final line search alpha, max atom move = 1.0000000 9.1190469e-06
  Iterations, force evaluations = 311 622

MPI task timing breakdown:
Section |  min time  |  avg time  |  max time  |%varavg| %total
---------------------------------------------------------------
Pair    | 0.94542    | 2.6061     | 3.385      |  43.6 | 72.73
Neigh   | 1.0481e-05 | 0.0029552  | 0.0042595  |   2.2 |  0.08
Comm    | 0.065361   | 0.58515    | 1.7846     |  65.0 | 16.33
Output  | 0          | 0          | 0          |   0.0 |  0.00
Modify  | 3.558e-05  | 0.0051187  | 0.010963   |   3.4 |  0.14
Other   |            | 0.3837     |            |       | 10.71

Nlocal:        2776.45 ave        3955 max           0 min
Histogram: 8 4 4 0 4 12 8 2 28 34
Nghost:        3879.10 ave        5425 max         232 min
Histogram: 8 0 8 0 16 0 8 8 16 40
Neighs:        79213.4 ave      115273 max           0 min
Histogram: 8 4 4 0 10 6 8 8 24 32

Total # of neighbors = 8238194
Ave neighs/atom = 28.530443
Neighbor list builds = 1
Dangerous builds = 0
The dot product: -1.39097103258726e-06
Setting atom values ...
  1 settings made for x
  1 settings made for y
  1 settings made for z
Setting up cg style minimization ...
  Unit style    : metal
  Current step  : 2419
Per MPI rank memory allocation (min/avg/max) = 5.441 | 5.816 | 6.074 Mbytes
Step PotEng KinEng TotEng v_fx v_fy v_fz 
    2419   -1152448.9            0   -1152448.9   0.18329455   0.18104162 -0.099958728 
    2630   -1152448.9            0   -1152448.9 5.7981241e-06 -1.5862519e-06 -1.8412241e-06 
Loop time of 2.43255 on 104 procs for 211 steps with 288751 atoms

99.9% CPU use with 104 MPI tasks x 1 OpenMP threads

Minimization stats:
  Stopping criterion = energy tolerance
  Energy initial, next-to-last, final = 
     -1152448.91079112  -1152448.92618012  -1152448.92618012
  Force two-norm initial, final = 0.31945172 0.00029334916
  Force max component initial, final = 0.18329455 6.7737337e-05
  Final line search alpha, max atom move = 1.0000000 6.7737337e-05
  Iterations, force evaluations = 211 422

MPI task timing breakdown:
Section |  min time  |  avg time  |  max time  |%varavg| %total
---------------------------------------------------------------
Pair    | 0.64169    | 1.7717     | 2.2928     |  35.9 | 72.83
Neigh   | 1.2092e-05 | 0.0029517  | 0.0042697  |   2.2 |  0.12
Comm    | 0.035549   | 0.39786    | 1.1997     |  53.7 | 16.36
Output  | 0          | 0          | 0          |   0.0 |  0.00
Modify  | 2.4796e-05 | 0.0034761  | 0.0075136  |   2.8 |  0.14
Other   |            | 0.2566     |            |       | 10.55

Nlocal:        2776.45 ave        3956 max           0 min
Histogram: 8 4 4 0 4 12 8 1 29 34
Nghost:        3879.09 ave        5425 max         232 min
Histogram: 8 0 8 0 16 0 8 8 16 40
Neighs:        79213.5 ave      115289 max           0 min
Histogram: 8 4 4 0 10 6 8 8 24 32

Total # of neighbors = 8238205
Ave neighs/atom = 28.530481
Neighbor list builds = 1
Dangerous builds = 1
The dot product: 3.27204548532243e-07
Setting atom values ...
  1 settings made for x
  1 settings made for y
  1 settings made for z
Setting up cg style minimization ...
  Unit style    : metal
  Current step  : 2630
Per MPI rank memory allocation (min/avg/max) = 5.441 | 5.816 | 6.074 Mbytes
Step PotEng KinEng TotEng v_fx v_fy v_fz 
    2630   -1152448.9            0   -1152448.9  0.021061994   0.10657667 0.00046513098 
    2815   -1152448.9            0   -1152448.9 3.5921585e-05 -2.7764015e-06 -4.2941166e-06 
Loop time of 2.14576 on 104 procs for 185 steps with 288751 atoms

99.9% CPU use with 104 MPI tasks x 1 OpenMP threads

Minimization stats:
  Stopping criterion = energy tolerance
  Energy initial, next-to-last, final = 
     -1152448.91635875  -1152448.91996056  -1152448.91996056
  Force two-norm initial, final = 0.20514703 0.0002471313
  Force max component initial, final = 0.10657667 9.0912245e-05
  Final line search alpha, max atom move = 1.0000000 9.0912245e-05
  Iterations, force evaluations = 185 370

MPI task timing breakdown:
Section |  min time  |  avg time  |  max time  |%varavg| %total
---------------------------------------------------------------
Pair    | 0.56036    | 1.5477     | 2.0113     |  33.5 | 72.13
Neigh   | 0          | 0          | 0          |   0.0 |  0.00
Comm    | 0.04033    | 0.34805    | 1.0701     |  49.9 | 16.22
Output  | 0          | 0          | 0          |   0.0 |  0.00
Modify  | 2.3129e-05 | 0.0030477  | 0.0065351  |   2.6 |  0.14
Other   |            | 0.247      |            |       | 11.51

Nlocal:        2776.45 ave        3960 max           0 min
Histogram: 8 4 4 0 4 12 8 2 28 34
Nghost:        3879.11 ave        5425 max         232 min
Histogram: 8 0 8 0 16 0 8 8 16 40
Neighs:        79213.4 ave      115414 max           0 min
Histogram: 8 4 4 0 10 6 8 8 24 32

Total # of neighbors = 8238196
Ave neighs/atom = 28.530450
Neighbor list builds = 0
Dangerous builds = 0
The dot product: 7.22994492287335e-07
Setting atom values ...
  1 settings made for x
  1 settings made for y
  1 settings made for z
Setting up cg style minimization ...
  Unit style    : metal
  Current step  : 2815
Per MPI rank memory allocation (min/avg/max) = 5.441 | 5.816 | 6.074 Mbytes
Step PotEng KinEng TotEng v_fx v_fy v_fz 
    2815   -1152448.9            0   -1152448.9  -0.04372709  0.050738742  0.007247677 
    3000   -1152448.9            0   -1152448.9 -1.3514769e-05 1.6742921e-06 8.1543481e-07 
    3021   -1152448.9            0   -1152448.9 5.5138962e-06 -1.0770718e-07 -2.7417097e-07 
Loop time of 2.37152 on 104 procs for 206 steps with 288751 atoms

99.9% CPU use with 104 MPI tasks x 1 OpenMP threads

Minimization stats:
  Stopping criterion = energy tolerance
  Energy initial, next-to-last, final = 
     -1152448.90874846  -1152448.91069815  -1152448.91069815
  Force two-norm initial, final = 0.19062555 9.3749397e-05
  Force max component initial, final = 0.086854832 1.1997195e-05
  Final line search alpha, max atom move = 1.0000000 1.1997195e-05
  Iterations, force evaluations = 206 412

MPI task timing breakdown:
Section |  min time  |  avg time  |  max time  |%varavg| %total
---------------------------------------------------------------
Pair    | 0.62299    | 1.7274     | 2.2403     |  35.4 | 72.84
Neigh   | 0          | 0          | 0          |   0.0 |  0.00
Comm    | 0.041148   | 0.38445    | 1.1779     |  53.2 | 16.21
Output  | 0.00013048 | 0.00013376 | 0.00028038 |   0.0 |  0.01
Modify  | 2.3725e-05 | 0.0033859  | 0.0072859  |   2.8 |  0.14
Other   |            | 0.2562     |            |       | 10.80

Nlocal:        2776.45 ave        3961 max           0 min
Histogram: 8 4 4 0 6 10 8 2 28 34
Nghost:        3879.12 ave        5426 max         232 min
Histogram: 8 0 8 0 16 0 8 8 16 40
Neighs:        79213.4 ave      115454 max           0 min
Histogram: 8 4 4 0 10 6 8 8 24 32

Total # of neighbors = 8238197
Ave neighs/atom = 28.530454
Neighbor list builds = 0
Dangerous builds = 0
The dot product: 3.13598092623841e-08
Setting atom values ...
  1 settings made for x
  1 settings made for y
  1 settings made for z
Setting up cg style minimization ...
  Unit style    : metal
  Current step  : 3021
Per MPI rank memory allocation (min/avg/max) = 5.441 | 5.816 | 6.074 Mbytes
Step PotEng KinEng TotEng v_fx v_fy v_fz 
    3021   -1152448.9            0   -1152448.9  -0.06601449  0.029324607  0.005702572 
    3199   -1152448.9            0   -1152448.9 -1.7016485e-05 2.1554913e-06 7.8689137e-07 
Loop time of 2.04489 on 104 procs for 178 steps with 288751 atoms

99.9% CPU use with 104 MPI tasks x 1 OpenMP threads

Minimization stats:
  Stopping criterion = energy tolerance
  Energy initial, next-to-last, final = 
      -1152448.8979979  -1152448.89981498  -1152448.89981498
  Force two-norm initial, final = 0.19377693 0.00014815177
  Force max component initial, final = 0.085724234 4.3038506e-05
  Final line search alpha, max atom move = 1.0000000 4.3038506e-05
  Iterations, force evaluations = 178 356

MPI task timing breakdown:
Section |  min time  |  avg time  |  max time  |%varavg| %total
---------------------------------------------------------------
Pair    | 0.53968    | 1.4898     | 1.9337     |  33.0 | 72.86
Neigh   | 0          | 0          | 0          |   0.0 |  0.00
Comm    | 0.031467   | 0.33386    | 1.0124     |  49.1 | 16.33
Output  | 0          | 0          | 0          |   0.0 |  0.00
Modify  | 2.106e-05  | 0.0029285  | 0.0062666  |   2.6 |  0.14
Other   |            | 0.2183     |            |       | 10.67

Nlocal:        2776.45 ave        3961 max           0 min
Histogram: 8 4 4 0 6 10 8 3 27 34
Nghost:        3879.12 ave        5426 max         232 min
Histogram: 8 0 8 0 16 0 8 8 16 40
Neighs:        79213.4 ave      115447 max           0 min
Histogram: 8 4 4 0 10 6 8 8 24 32

Total # of neighbors = 8238198
Ave neighs/atom = 28.530457
Neighbor list builds = 0
Dangerous builds = 0
The dot product: -4.7062012174841e-09
Setting atom values ...
  1 settings made for x
  1 settings made for y
  1 settings made for z
Setting up cg style minimization ...
  Unit style    : metal
  Current step  : 3199
Per MPI rank memory allocation (min/avg/max) = 5.441 | 5.816 | 6.074 Mbytes
Step PotEng KinEng TotEng v_fx v_fy v_fz 
    3199   -1152448.9            0   -1152448.9 -0.074062148  0.020064872 0.0048049547 
    3398   -1152448.9            0   -1152448.9 -2.7286784e-05 4.826876e-06 1.4249443e-06 
Loop time of 2.28722 on 104 procs for 199 steps with 288751 atoms

99.9% CPU use with 104 MPI tasks x 1 OpenMP threads

Minimization stats:
  Stopping criterion = energy tolerance
  Energy initial, next-to-last, final = 
     -1152448.88571031  -1152448.88757229  -1152448.88757229
  Force two-norm initial, final = 0.19595054 8.9211478e-05
  Force max component initial, final = 0.086113522 3.0926862e-05
  Final line search alpha, max atom move = 1.0000000 3.0926862e-05
  Iterations, force evaluations = 199 398

MPI task timing breakdown:
Section |  min time  |  avg time  |  max time  |%varavg| %total
---------------------------------------------------------------
Pair    | 0.60224    | 1.6692     | 2.1615     |  34.8 | 72.98
Neigh   | 0          | 0          | 0          |   0.0 |  0.00
Comm    | 0.042523   | 0.37039    | 1.1348     |  52.6 | 16.19
Output  | 0          | 0          | 0          |   0.0 |  0.00
Modify  | 2.2982e-05 | 0.003269   | 0.006989   |   2.7 |  0.14
Other   |            | 0.2444     |            |       | 10.68

Nlocal:        2776.45 ave        3960 max           0 min
Histogram: 8 4 4 0 4 12 8 3 27 34
Nghost:        3879.12 ave        5426 max         232 min
Histogram: 8 0 8 0 16 0 8 8 16 40
Neighs:        79213.4 ave      115415 max           0 min
Histogram: 8 4 4 0 10 6 8 8 24 32

Total # of neighbors = 8238198
Ave neighs/atom = 28.530457
Neighbor list builds = 0
Dangerous builds = 0
The dot product: -2.07347582273059e-09
Setting atom values ...
  1 settings made for x
  1 settings made for y
  1 settings made for z
Setting up cg style minimization ...
  Unit style    : metal
  Current step  : 3398
Per MPI rank memory allocation (min/avg/max) = 5.441 | 5.816 | 6.074 Mbytes
Step PotEng KinEng TotEng v_fx v_fy v_fz 
    3398   -1152448.9            0   -1152448.9  -0.07499471  0.015449742 0.0041998611 
    3559   -1152448.9            0   -1152448.9  1.26714e-05 -1.9685792e-06 -6.2178538e-07 
Loop time of 1.8477 on 104 procs for 161 steps with 288751 atoms

99.9% CPU use with 104 MPI tasks x 1 OpenMP threads

Minimization stats:
  Stopping criterion = energy tolerance
  Energy initial, next-to-last, final = 
     -1152448.87219213  -1152448.87453984  -1152448.87453984
  Force two-norm initial, final = 0.19641651 7.9547752e-05
  Force max component initial, final = 0.086683482 1.9660239e-05
  Final line search alpha, max atom move = 1.0000000 1.9660239e-05
  Iterations, force evaluations = 161 322

MPI task timing breakdown:
Section |  min time  |  avg time  |  max time  |%varavg| %total
---------------------------------------------------------------
Pair    | 0.48632    | 1.345      | 1.7523     |  31.4 | 72.79
Neigh   | 0          | 0          | 0          |   0.0 |  0.00
Comm    | 0.028229   | 0.30097    | 0.91183    |  46.5 | 16.29
Output  | 0          | 0          | 0          |   0.0 |  0.00
Modify  | 1.8927e-05 | 0.0026492  | 0.0056757  |   2.4 |  0.14
Other   |            | 0.1991     |            |       | 10.77

Nlocal:        2776.45 ave        3960 max           0 min
Histogram: 8 4 4 0 4 12 8 4 26 34
Nghost:        3879.16 ave        5427 max         232 min
Histogram: 8 0 8 0 16 0 8 8 16 40
Neighs:        79213.4 ave      115430 max           0 min
Histogram: 8 4 4 0 10 6 8 8 24 32

Total # of neighbors = 8238193
Ave neighs/atom = 28.530440
Neighbor list builds = 0
Dangerous builds = 0
The dot product: 1.98929550981007e-07
Setting atom values ...
  1 settings made for x
  1 settings made for y
  1 settings made for z
Setting up cg style minimization ...
  Unit style    : metal
  Current step  : 3559
Per MPI rank memory allocation (min/avg/max) = 5.441 | 5.816 | 6.074 Mbytes
Step PotEng KinEng TotEng v_fx v_fy v_fz 
    3559   -1152448.9            0   -1152448.9  -0.05215439    0.0146231 0.0013689158 
    3752   -1152448.9            0   -1152448.9 -2.7055921e-05 3.4562028e-06 1.4630724e-07 
Loop time of 2.21487 on 104 procs for 193 steps with 288751 atoms

99.9% CPU use with 104 MPI tasks x 1 OpenMP threads

Minimization stats:
  Stopping criterion = energy tolerance
  Energy initial, next-to-last, final = 
     -1152448.85888061  -1152448.86132704  -1152448.86132704
  Force two-norm initial, final = 0.1924459 0.00013308484
  Force max component initial, final = 0.084468868 3.4134621e-05
  Final line search alpha, max atom move = 1.0000000 3.4134621e-05
  Iterations, force evaluations = 193 386

MPI task timing breakdown:
Section |  min time  |  avg time  |  max time  |%varavg| %total
---------------------------------------------------------------
Pair    | 0.5847     | 1.6205     | 2.1005     |  34.4 | 73.16
Neigh   | 0          | 0          | 0          |   0.0 |  0.00
Comm    | 0.04099    | 0.3603     | 1.1042     |  51.6 | 16.27
Output  | 0          | 0          | 0          |   0.0 |  0.00
Modify  | 2.3245e-05 | 0.0031768  | 0.0068046  |   2.7 |  0.14
Other   |            | 0.2309     |            |       | 10.42

Nlocal:        2776.45 ave        3960 max           0 min
Histogram: 8 4 4 0 4 12 8 4 26 34
Nghost:        3879.12 ave        5427 max         232 min
Histogram: 8 0 8 0 16 0 8 8 16 40
Neighs:        79213.4 ave      115423 max           0 min
Histogram: 8 4 4 0 10 6 8 8 24 32

Total # of neighbors = 8238192
Ave neighs/atom = 28.530436
Neighbor list builds = 0
Dangerous builds = 0
The dot product: -4.30531124974471e-07
Setting atom values ...
  1 settings made for x
  1 settings made for y
  1 settings made for z
Setting up cg style minimization ...
  Unit style    : metal
  Current step  : 3752
Per MPI rank memory allocation (min/avg/max) = 5.441 | 5.816 | 6.074 Mbytes
Step PotEng KinEng TotEng v_fx v_fy v_fz 
    3752   -1152448.8            0   -1152448.8 -0.052756402  0.012693995 -0.0009494586 
    3956   -1152448.8            0   -1152448.8 -3.3439149e-05 5.6128766e-06 -9.2719443e-07 
Loop time of 2.36177 on 104 procs for 204 steps with 288751 atoms

99.9% CPU use with 104 MPI tasks x 1 OpenMP threads

Minimization stats:
  Stopping criterion = energy tolerance
  Energy initial, next-to-last, final = 
     -1152448.84467682  -1152448.84675857  -1152448.84675857
  Force two-norm initial, final = 0.19577736 0.00010135461
  Force max component initial, final = 0.088555659 3.3439149e-05
  Final line search alpha, max atom move = 1.0000000 3.3439149e-05
  Iterations, force evaluations = 204 408

MPI task timing breakdown:
Section |  min time  |  avg time  |  max time  |%varavg| %total
---------------------------------------------------------------
Pair    | 0.62239    | 1.7099     | 2.2257     |  35.2 | 72.40
Neigh   | 0          | 0          | 0          |   0.0 |  0.00
Comm    | 0.037438   | 0.38518    | 1.1643     |  52.3 | 16.31
Output  | 0          | 0          | 0          |   0.0 |  0.00
Modify  | 2.3434e-05 | 0.0033584  | 0.0071998  |   2.7 |  0.14
Other   |            | 0.2633     |            |       | 11.15

Nlocal:        2776.45 ave        3960 max           0 min
Histogram: 8 4 4 0 4 12 8 4 26 34
Nghost:        3879.09 ave        5426 max         232 min
Histogram: 8 0 8 0 16 0 8 8 16 40
Neighs:        79213.4 ave      115423 max           0 min
Histogram: 8 4 4 0 10 6 8 8 24 32

Total # of neighbors = 8238192
Ave neighs/atom = 28.530436
Neighbor list builds = 0
Dangerous builds = 0
The dot product: -3.75482313657017e-07
Setting atom values ...
  1 settings made for x
  1 settings made for y
  1 settings made for z
Setting up cg style minimization ...
  Unit style    : metal
  Current step  : 3956
Per MPI rank memory allocation (min/avg/max) = 5.441 | 5.816 | 6.074 Mbytes
Step PotEng KinEng TotEng v_fx v_fy v_fz 
    3956   -1152448.8            0   -1152448.8 -0.060401716  0.010231575 -0.0032297404 
    4000   -1152448.8            0   -1152448.8 -0.00056860677 0.00011285118 -2.8269399e-05 
    4148   -1152448.8            0   -1152448.8 -3.563598e-05 6.1277284e-06 -1.8937077e-06 
Loop time of 2.22209 on 104 procs for 192 steps with 288751 atoms

99.9% CPU use with 104 MPI tasks x 1 OpenMP threads

Minimization stats:
  Stopping criterion = energy tolerance
  Energy initial, next-to-last, final = 
     -1152448.82873233  -1152448.83088866  -1152448.83088866
  Force two-norm initial, final = 0.19994262 0.00013080177
  Force max component initial, final = 0.093075285 5.3107400e-05
  Final line search alpha, max atom move = 1.0000000 5.3107400e-05
  Iterations, force evaluations = 192 384

MPI task timing breakdown:
Section |  min time  |  avg time  |  max time  |%varavg| %total
---------------------------------------------------------------
Pair    | 0.58086    | 1.6134     | 2.0933     |  34.3 | 72.61
Neigh   | 0          | 0          | 0          |   0.0 |  0.00
Comm    | 0.033071   | 0.36218    | 1.0975     |  51.2 | 16.30
Output  | 9.7487e-05 | 0.00010198 | 0.00020366 |   0.0 |  0.00
Modify  | 2.2048e-05 | 0.0031629  | 0.0067637  |   2.7 |  0.14
Other   |            | 0.2432     |            |       | 10.95

Nlocal:        2776.45 ave        3960 max           0 min
Histogram: 8 4 4 0 4 12 8 4 26 34
Nghost:        3879.05 ave        5426 max         232 min
Histogram: 8 0 8 0 16 0 8 8 16 40
Neighs:        79213.4 ave      115423 max           0 min
Histogram: 8 4 4 0 10 6 8 8 24 32

Total # of neighbors = 8238191
Ave neighs/atom = 28.530433
Neighbor list builds = 0
Dangerous builds = 0
The dot product: -3.86413939523046e-07
Setting atom values ...
  1 settings made for x
  1 settings made for y
  1 settings made for z
Setting up cg style minimization ...
  Unit style    : metal
  Current step  : 4148
Per MPI rank memory allocation (min/avg/max) = 5.441 | 5.816 | 6.074 Mbytes
Step PotEng KinEng TotEng v_fx v_fy v_fz 
    4148   -1152448.8            0   -1152448.8 -0.061564338 0.0078466146 -0.0050843263 
    4320   -1152448.8            0   -1152448.8 -1.1274973e-05 -3.1352379e-06 -1.4928945e-06 
Loop time of 1.98413 on 104 procs for 172 steps with 288751 atoms

99.9% CPU use with 104 MPI tasks x 1 OpenMP threads

Minimization stats:
  Stopping criterion = energy tolerance
  Energy initial, next-to-last, final = 
     -1152448.81160935  -1152448.81364156  -1152448.81364156
  Force two-norm initial, final = 0.20211029 0.00017176687
  Force max component initial, final = 0.097360319 3.2101856e-05
  Final line search alpha, max atom move = 1.0000000 3.2101856e-05
  Iterations, force evaluations = 172 344

MPI task timing breakdown:
Section |  min time  |  avg time  |  max time  |%varavg| %total
---------------------------------------------------------------
Pair    | 0.51959    | 1.4444     | 1.8827     |  32.6 | 72.80
Neigh   | 0          | 0          | 0          |   0.0 |  0.00
Comm    | 0.032328   | 0.32448    | 0.98462    |  48.4 | 16.35
Output  | 0          | 0          | 0          |   0.0 |  0.00
Modify  | 1.9702e-05 | 0.0028295  | 0.0060515  |   2.5 |  0.14
Other   |            | 0.2124     |            |       | 10.70

Nlocal:        2776.45 ave        3960 max           0 min
Histogram: 8 4 4 0 4 12 8 4 26 34
Nghost:        3879.09 ave        5426 max         232 min
Histogram: 8 0 8 0 16 0 8 8 16 40
Neighs:        79213.4 ave      115414 max           0 min
Histogram: 8 4 4 0 10 6 8 8 24 32

Total # of neighbors = 8238192
Ave neighs/atom = 28.530436
Neighbor list builds = 0
Dangerous builds = 0
The dot product: -5.74406444799645e-08
Setting atom values ...
  1 settings made for x
  1 settings made for y
  1 settings made for z
Setting up cg style minimization ...
  Unit style    : metal
  Current step  : 4320
Per MPI rank memory allocation (min/avg/max) = 5.441 | 5.816 | 6.074 Mbytes
Step PotEng KinEng TotEng v_fx v_fy v_fz 
    4320   -1152448.8            0   -1152448.8 -0.070376083 0.0083362242 -0.0067784259 
    4535   -1152448.8            0   -1152448.8 9.9864999e-06 -2.0536757e-06 8.5890021e-07 
Loop time of 2.47457 on 104 procs for 215 steps with 288751 atoms

99.9% CPU use with 104 MPI tasks x 1 OpenMP threads

Minimization stats:
  Stopping criterion = energy tolerance
  Energy initial, next-to-last, final = 
     -1152448.79297328  -1152448.79496027  -1152448.79496027
  Force two-norm initial, final = 0.20590983 4.7969115e-05
  Force max component initial, final = 0.099624223 9.9864999e-06
  Final line search alpha, max atom move = 1.0000000 9.9864999e-06
  Iterations, force evaluations = 215 430

MPI task timing breakdown:
Section |  min time  |  avg time  |  max time  |%varavg| %total
---------------------------------------------------------------
Pair    | 0.65135    | 1.8011     | 2.3402     |  36.2 | 72.79
Neigh   | 0          | 0          | 0          |   0.0 |  0.00
Comm    | 0.040158   | 0.40159    | 1.2259     |  54.1 | 16.23
Output  | 0          | 0          | 0          |   0.0 |  0.00
Modify  | 2.6791e-05 | 0.0035407  | 0.007583   |   2.8 |  0.14
Other   |            | 0.2683     |            |       | 10.84

Nlocal:        2776.45 ave        3960 max           0 min
Histogram: 8 4 4 0 4 12 8 4 26 34
Nghost:        3879.09 ave        5426 max         232 min
Histogram: 8 0 8 0 16 0 8 8 16 40
Neighs:        79213.4 ave      115407 max           0 min
Histogram: 8 4 4 0 10 6 8 8 24 32

Total # of neighbors = 8238190
Ave neighs/atom = 28.530429
Neighbor list builds = 0
Dangerous builds = 0
The dot product: 2.6499430606317e-08
Setting atom values ...
  1 settings made for x
  1 settings made for y
  1 settings made for z
Setting up cg style minimization ...
  Unit style    : metal
  Current step  : 4535
Per MPI rank memory allocation (min/avg/max) = 5.441 | 5.816 | 6.074 Mbytes
Step PotEng KinEng TotEng v_fx v_fy v_fz 
    4535   -1152448.8            0   -1152448.8 -0.077140127 0.0086015919 -0.0078833933 
    4699   -1152448.8            0   -1152448.8 -5.7342064e-05 1.2593606e-05 -5.1495543e-06 
Loop time of 1.88262 on 104 procs for 164 steps with 288751 atoms

99.9% CPU use with 104 MPI tasks x 1 OpenMP threads

Minimization stats:
  Stopping criterion = energy tolerance
  Energy initial, next-to-last, final = 
     -1152448.77288858  -1152448.77478271  -1152448.77478271
  Force two-norm initial, final = 0.2084943 0.00014738632
  Force max component initial, final = 0.10048619 5.7342064e-05
  Final line search alpha, max atom move = 1.0000000 5.7342064e-05
  Iterations, force evaluations = 164 328

MPI task timing breakdown:
Section |  min time  |  avg time  |  max time  |%varavg| %total
---------------------------------------------------------------
Pair    | 0.49572    | 1.3718     | 1.7838     |  31.7 | 72.87
Neigh   | 0          | 0          | 0          |   0.0 |  0.00
Comm    | 0.029417   | 0.30697    | 0.93043    |  47.1 | 16.31
Output  | 0          | 0          | 0          |   0.0 |  0.00
Modify  | 1.8747e-05 | 0.0027047  | 0.005805   |   2.5 |  0.14
Other   |            | 0.2012     |            |       | 10.69

Nlocal:        2776.45 ave        3960 max           0 min
Histogram: 8 4 4 0 4 12 8 4 26 34
Nghost:        3879.05 ave        5426 max         232 min
Histogram: 8 0 8 0 16 0 8 8 16 40
Neighs:        79213.4 ave      115407 max           0 min
Histogram: 8 4 4 0 10 6 8 8 24 32

Total # of neighbors = 8238189
Ave neighs/atom = 28.530426
Neighbor list builds = 0
Dangerous builds = 0
The dot product: 5.8706391583407e-08
Setting atom values ...
  1 settings made for x
  1 settings made for y
  1 settings made for z
Setting up cg style minimization ...
  Unit style    : metal
  Current step  : 4699
Per MPI rank memory allocation (min/avg/max) = 5.441 | 5.816 | 6.074 Mbytes
Step PotEng KinEng TotEng v_fx v_fy v_fz 
    4699   -1152448.8            0   -1152448.8 -0.084237158  0.008361195 -0.008522093 
    4864   -1152448.8            0   -1152448.8 1.7500169e-05 -3.6026628e-06 1.5632948e-06 
Loop time of 1.90181 on 104 procs for 165 steps with 288751 atoms

99.9% CPU use with 104 MPI tasks x 1 OpenMP threads

Minimization stats:
  Stopping criterion = energy tolerance
  Energy initial, next-to-last, final = 
     -1152448.75121174  -1152448.75307598  -1152448.75307598
  Force two-norm initial, final = 0.21065364 0.00010506085
  Force max component initial, final = 0.10003852 2.6769844e-05
  Final line search alpha, max atom move = 1.0000000 2.6769844e-05
  Iterations, force evaluations = 165 330

MPI task timing breakdown:
Section |  min time  |  avg time  |  max time  |%varavg| %total
---------------------------------------------------------------
Pair    | 0.49847    | 1.3844     | 1.7974     |  31.8 | 72.79
Neigh   | 0          | 0          | 0          |   0.0 |  0.00
Comm    | 0.029674   | 0.30761    | 0.93822    |  47.6 | 16.17
Output  | 0          | 0          | 0          |   0.0 |  0.00
Modify  | 1.9186e-05 | 0.002716   | 0.0058203  |   2.5 |  0.14
Other   |            | 0.2071     |            |       | 10.89

Nlocal:        2776.45 ave        3960 max           0 min
Histogram: 8 4 4 0 4 12 8 4 26 34
Nghost:        3879.09 ave        5426 max         232 min
Histogram: 8 0 8 0 16 0 8 8 16 40
Neighs:        79213.3 ave      115408 max           0 min
Histogram: 8 4 4 0 10 6 8 8 24 32

Total # of neighbors = 8238188
Ave neighs/atom = 28.530422
Neighbor list builds = 0
Dangerous builds = 0
The dot product: -6.08187412015242e-08
Setting atom values ...
  1 settings made for x
  1 settings made for y
  1 settings made for z
Setting up cg style minimization ...
  Unit style    : metal
  Current step  : 4864
Per MPI rank memory allocation (min/avg/max) = 5.441 | 5.816 | 6.074 Mbytes
Step PotEng KinEng TotEng v_fx v_fy v_fz 
    4864   -1152448.7            0   -1152448.7 -0.088635925 0.0082400475 -0.008412886 
    5000   -1152448.7            0   -1152448.7 7.1382488e-06 1.5472263e-06 9.1483969e-07 
    5036   -1152448.7            0   -1152448.7 1.957018e-05 -4.9765293e-06 1.5186111e-06 
Loop time of 1.98235 on 104 procs for 172 steps with 288751 atoms

99.9% CPU use with 104 MPI tasks x 1 OpenMP threads

Minimization stats:
  Stopping criterion = energy tolerance
  Energy initial, next-to-last, final = 
     -1152448.72800619  -1152448.72984768  -1152448.72984768
  Force two-norm initial, final = 0.21129577 8.0061128e-05
  Force max component initial, final = 0.098501172 1.9570180e-05
  Final line search alpha, max atom move = 1.0000000 1.9570180e-05
  Iterations, force evaluations = 172 344

MPI task timing breakdown:
Section |  min time  |  avg time  |  max time  |%varavg| %total
---------------------------------------------------------------
Pair    | 0.52072    | 1.4389     | 1.8755     |  32.4 | 72.58
Neigh   | 0          | 0          | 0          |   0.0 |  0.00
Comm    | 0.029933   | 0.3237     | 0.98165    |  48.1 | 16.33
Output  | 0.0001261  | 0.00012856 | 0.00025927 |   0.0 |  0.01
Modify  | 2.0802e-05 | 0.0028319  | 0.0060705  |   2.5 |  0.14
Other   |            | 0.2168     |            |       | 10.94

Nlocal:        2776.45 ave        3960 max           0 min
Histogram: 8 4 4 0 4 12 8 4 26 34
Nghost:        3879.09 ave        5426 max         232 min
Histogram: 8 0 8 0 16 0 8 8 16 40
Neighs:        79213.3 ave      115409 max           0 min
Histogram: 8 4 4 0 10 6 8 8 24 32

Total # of neighbors = 8238186
Ave neighs/atom = 28.530415
Neighbor list builds = 0
Dangerous builds = 0
The dot product: -9.53626530138008e-08
Setting atom values ...
  1 settings made for x
  1 settings made for y
  1 settings made for z
Setting up cg style minimization ...
  Unit style    : metal
  Current step  : 5036
Per MPI rank memory allocation (min/avg/max) = 5.441 | 5.816 | 6.074 Mbytes
Step PotEng KinEng TotEng v_fx v_fy v_fz 
    5036   -1152448.7            0   -1152448.7 -0.091022068 0.0087804519 -0.0077490503 
    5234   -1152448.7            0   -1152448.7 3.5330771e-06 -1.2912716e-06 2.022851e-07 
Loop time of 2.29675 on 104 procs for 198 steps with 288751 atoms

99.9% CPU use with 104 MPI tasks x 1 OpenMP threads

Minimization stats:
  Stopping criterion = energy tolerance
  Energy initial, next-to-last, final = 
     -1152448.70329876  -1152448.70511287  -1152448.70511287
  Force two-norm initial, final = 0.21094957 4.1230773e-05
  Force max component initial, final = 0.096456828 6.5266407e-06
  Final line search alpha, max atom move = 1.0000000 6.5266407e-06
  Iterations, force evaluations = 198 396

MPI task timing breakdown:
Section |  min time  |  avg time  |  max time  |%varavg| %total
---------------------------------------------------------------
Pair    | 0.60152    | 1.6688     | 2.161      |  34.8 | 72.66
Neigh   | 0          | 0          | 0          |   0.0 |  0.00
Comm    | 0.041801   | 0.371      | 1.1382     |  52.2 | 16.15
Output  | 0          | 0          | 0          |   0.0 |  0.00
Modify  | 2.3546e-05 | 0.0032547  | 0.0069665  |   2.7 |  0.14
Other   |            | 0.2537     |            |       | 11.05

Nlocal:        2776.45 ave        3960 max           0 min
Histogram: 8 4 4 0 4 12 8 4 26 34
Nghost:        3879.09 ave        5426 max         232 min
Histogram: 8 0 8 0 16 0 8 8 16 40
Neighs:        79213.4 ave      115402 max           0 min
Histogram: 8 4 4 0 10 6 8 8 24 32

Total # of neighbors = 8238189
Ave neighs/atom = 28.530426
Neighbor list builds = 0
Dangerous builds = 0
The dot product: -1.9854915369143e-08
Setting atom values ...
  1 settings made for x
  1 settings made for y
  1 settings made for z
Setting up cg style minimization ...
  Unit style    : metal
  Current step  : 5234
Per MPI rank memory allocation (min/avg/max) = 5.441 | 5.816 | 6.074 Mbytes
Step PotEng KinEng TotEng v_fx v_fy v_fz 
    5234   -1152448.7            0   -1152448.7  -0.09194265  0.010190328 -0.0067062622 
    5395   -1152448.7            0   -1152448.7 -3.4091592e-05 5.8015785e-06 -2.2841043e-06 
Loop time of 1.86719 on 104 procs for 161 steps with 288751 atoms

99.9% CPU use with 104 MPI tasks x 1 OpenMP threads

Minimization stats:
  Stopping criterion = energy tolerance
  Energy initial, next-to-last, final = 
     -1152448.67711325  -1152448.67889266  -1152448.67889266
  Force two-norm initial, final = 0.20990374 0.00013404315
  Force max component initial, final = 0.093985407 5.5331343e-05
  Final line search alpha, max atom move = 1.0000000 5.5331343e-05
  Iterations, force evaluations = 161 322

MPI task timing breakdown:
Section |  min time  |  avg time  |  max time  |%varavg| %total
---------------------------------------------------------------
Pair    | 0.48785    | 1.3482     | 1.7567     |  31.4 | 72.21
Neigh   | 0          | 0          | 0          |   0.0 |  0.00
Comm    | 0.031973   | 0.30563    | 0.91724    |  46.0 | 16.37
Output  | 0          | 0          | 0          |   0.0 |  0.00
Modify  | 1.9147e-05 | 0.0026493  | 0.0056737  |   2.4 |  0.14
Other   |            | 0.2107     |            |       | 11.28

Nlocal:        2776.45 ave        3960 max           0 min
Histogram: 8 4 4 0 4 12 8 4 26 34
Nghost:        3879.10 ave        5426 max         232 min
Histogram: 8 0 8 0 16 0 8 8 16 40
Neighs:        79213.3 ave      115407 max           0 min
Histogram: 8 4 4 0 10 6 8 8 24 32

Total # of neighbors = 8238186
Ave neighs/atom = 28.530415
Neighbor list builds = 0
Dangerous builds = 0
The dot product: 2.28175148457256e-07
Setting atom values ...
  1 settings made for x
  1 settings made for y
  1 settings made for z
Setting up cg style minimization ...
  Unit style    : metal
  Current step  : 5395
Per MPI rank memory allocation (min/avg/max) = 5.441 | 5.816 | 6.074 Mbytes
Step PotEng KinEng TotEng v_fx v_fy v_fz 
    5395   -1152448.6            0   -1152448.6   -0.0916626  0.012640355 -0.0053948081 
    5599   -1152448.7            0   -1152448.7 1.1770191e-05 -1.5362226e-06 7.0116413e-07 
Loop time of 2.35758 on 104 procs for 204 steps with 288751 atoms

99.9% CPU use with 104 MPI tasks x 1 OpenMP threads

Minimization stats:
  Stopping criterion = energy tolerance
  Energy initial, next-to-last, final = 
     -1152448.64947559  -1152448.65121441  -1152448.65121441
  Force two-norm initial, final = 0.208411 4.4593445e-05
  Force max component initial, final = 0.0916626 1.5187883e-05
  Final line search alpha, max atom move = 1.0000000 1.5187883e-05
  Iterations, force evaluations = 204 408

MPI task timing breakdown:
Section |  min time  |  avg time  |  max time  |%varavg| %total
---------------------------------------------------------------
Pair    | 0.61761    | 1.7128     | 2.2277     |  35.4 | 72.65
Neigh   | 0          | 0          | 0          |   0.0 |  0.00
Comm    | 0.036041   | 0.38532    | 1.1586     |  52.4 | 16.34
Output  | 0          | 0          | 0          |   0.0 |  0.00
Modify  | 2.3698e-05 | 0.0033591  | 0.0071892  |   2.7 |  0.14
Other   |            | 0.2561     |            |       | 10.86

Nlocal:        2776.45 ave        3960 max           0 min
Histogram: 8 4 4 0 4 12 8 4 26 34
Nghost:        3879.07 ave        5426 max         232 min
Histogram: 8 0 8 0 16 0 8 8 16 40
Neighs:        79213.3 ave      115416 max           0 min
Histogram: 8 4 4 0 10 6 8 8 24 32

Total # of neighbors = 8238188
Ave neighs/atom = 28.530422
Neighbor list builds = 0
Dangerous builds = 0
The dot product: -8.53760638694244e-08
Setting atom values ...
  1 settings made for x
  1 settings made for y
  1 settings made for z
Setting up cg style minimization ...
  Unit style    : metal
  Current step  : 5599
Per MPI rank memory allocation (min/avg/max) = 5.441 | 5.816 | 6.074 Mbytes
Step PotEng KinEng TotEng v_fx v_fy v_fz 
    5599   -1152448.6            0   -1152448.6 -0.090130965  0.016364588 -0.0038693312 
    5749   -1152448.6            0   -1152448.6 -5.2318417e-05 3.5566551e-06 -2.8083715e-06 
Loop time of 1.73291 on 104 procs for 150 steps with 288751 atoms

99.9% CPU use with 104 MPI tasks x 1 OpenMP threads

Minimization stats:
  Stopping criterion = energy tolerance
  Energy initial, next-to-last, final = 
     -1152448.62041854  -1152448.62211282  -1152448.62211282
  Force two-norm initial, final = 0.20653504 0.00020229989
  Force max component initial, final = 0.090130965 6.2253569e-05
  Final line search alpha, max atom move = 1.0000000 6.2253569e-05
  Iterations, force evaluations = 150 300

MPI task timing breakdown:
Section |  min time  |  avg time  |  max time  |%varavg| %total
---------------------------------------------------------------
Pair    | 0.45337    | 1.259      | 1.6416     |  30.5 | 72.65
Neigh   | 0          | 0          | 0          |   0.0 |  0.00
Comm    | 0.026399   | 0.28316    | 0.85637    |  44.9 | 16.34
Output  | 0          | 0          | 0          |   0.0 |  0.00
Modify  | 1.7978e-05 | 0.0024749  | 0.0058305  |   2.4 |  0.14
Other   |            | 0.1882     |            |       | 10.86

Nlocal:        2776.45 ave        3960 max           0 min
Histogram: 8 4 4 0 4 12 8 4 26 34
Nghost:        3879.03 ave        5426 max         232 min
Histogram: 8 0 8 0 16 0 8 8 16 40
Neighs:        79213.3 ave      115416 max           0 min
Histogram: 8 4 4 0 10 6 8 8 24 32

Total # of neighbors = 8238188
Ave neighs/atom = 28.530422
Neighbor list builds = 0
Dangerous builds = 0
The dot product: 4.03693878384659e-07
Setting atom values ...
  1 settings made for x
  1 settings made for y
  1 settings made for z
Setting up cg style minimization ...
  Unit style    : metal
  Current step  : 5749
Per MPI rank memory allocation (min/avg/max) = 5.441 | 5.816 | 6.074 Mbytes
Step PotEng KinEng TotEng v_fx v_fy v_fz 
    5749   -1152448.6            0   -1152448.6 -0.087629108  0.021479712 -0.0021866946 
    5956   -1152448.6            0   -1152448.6 -1.5549518e-05 1.8150413e-06 -5.7471679e-07 
Loop time of 2.4135 on 104 procs for 207 steps with 288751 atoms

99.9% CPU use with 104 MPI tasks x 1 OpenMP threads

Minimization stats:
  Stopping criterion = energy tolerance
  Energy initial, next-to-last, final = 
     -1152448.58998362  -1152448.59163593  -1152448.59163593
  Force two-norm initial, final = 0.20468816 4.9298295e-05
  Force max component initial, final = 0.087629108 2.1507798e-05
  Final line search alpha, max atom move = 1.0000000 2.1507798e-05
  Iterations, force evaluations = 207 414

MPI task timing breakdown:
Section |  min time  |  avg time  |  max time  |%varavg| %total
---------------------------------------------------------------
Pair    | 0.62519    | 1.7395     | 2.2681     |  35.7 | 72.08
Neigh   | 0          | 0          | 0          |   0.0 |  0.00
Comm    | 0.035674   | 0.39321    | 1.1866     |  52.6 | 16.29
Output  | 0          | 0          | 0          |   0.0 |  0.00
Modify  | 2.4164e-05 | 0.0034058  | 0.0072809  |   2.8 |  0.14
Other   |            | 0.2773     |            |       | 11.49

Nlocal:        2776.45 ave        3960 max           0 min
Histogram: 8 4 4 0 4 12 8 4 26 34
Nghost:        3879.05 ave        5426 max         232 min
Histogram: 8 0 8 0 16 0 8 8 16 40
Neighs:        79213.3 ave      115416 max           0 min
Histogram: 8 4 4 0 10 6 8 8 24 32

Total # of neighbors = 8238186
Ave neighs/atom = 28.530415
Neighbor list builds = 0
Dangerous builds = 0
The dot product: 1.25868629703986e-07
Setting atom values ...
  1 settings made for x
  1 settings made for y
  1 settings made for z
Setting up cg style minimization ...
  Unit style    : metal
  Current step  : 5956
Per MPI rank memory allocation (min/avg/max) = 5.441 | 5.816 | 6.074 Mbytes
Step PotEng KinEng TotEng v_fx v_fy v_fz 
    5956   -1152448.6            0   -1152448.6 -0.083946562  0.027456987 -0.0003955717 
    6000   -1152448.6            0   -1152448.6 -0.00054253094 7.8395616e-05 -1.1920609e-05 
    6127   -1152448.6            0   -1152448.6 2.3955018e-05 -1.6796653e-07 8.3770056e-07 
Loop time of 1.96691 on 104 procs for 171 steps with 288751 atoms

99.9% CPU use with 104 MPI tasks x 1 OpenMP threads

Minimization stats:
  Stopping criterion = energy tolerance
  Energy initial, next-to-last, final = 
     -1152448.55827098  -1152448.55988514  -1152448.55988514
  Force two-norm initial, final = 0.20254047 0.00010769378
  Force max component initial, final = 0.08758883 2.3955018e-05
  Final line search alpha, max atom move = 1.0000000 2.3955018e-05
  Iterations, force evaluations = 171 342

MPI task timing breakdown:
Section |  min time  |  avg time  |  max time  |%varavg| %total
---------------------------------------------------------------
Pair    | 0.51759    | 1.4334     | 1.8652     |  32.4 | 72.87
Neigh   | 0          | 0          | 0          |   0.0 |  0.00
Comm    | 0.030526   | 0.3211     | 0.97347    |  48.2 | 16.33
Output  | 9.3222e-05 | 0.00010594 | 0.00020077 |   0.0 |  0.01
Modify  | 2.0058e-05 | 0.0028123  | 0.0060465  |   2.5 |  0.14
Other   |            | 0.2095     |            |       | 10.65

Nlocal:        2776.45 ave        3960 max           0 min
Histogram: 8 4 4 0 4 12 8 4 26 34
Nghost:        3879.05 ave        5426 max         232 min
Histogram: 8 0 8 0 16 0 8 8 16 40
Neighs:        79213.4 ave      115418 max           0 min
Histogram: 8 4 4 0 10 6 8 8 24 32

Total # of neighbors = 8238192
Ave neighs/atom = 28.530436
Neighbor list builds = 0
Dangerous builds = 0
The dot product: -2.04521126014835e-07
Setting atom values ...
  1 settings made for x
  1 settings made for y
  1 settings made for z
Setting up cg style minimization ...
  Unit style    : metal
  Current step  : 6127
Per MPI rank memory allocation (min/avg/max) = 5.441 | 5.816 | 6.074 Mbytes
Step PotEng KinEng TotEng v_fx v_fy v_fz 
    6127   -1152448.5            0   -1152448.5 -0.079529782  0.043665136 0.0025451999 
    6405   -1152448.6            0   -1152448.6 2.4362435e-05 -5.2411164e-06 3.5525959e-08 
Loop time of 3.19482 on 104 procs for 278 steps with 288751 atoms

99.9% CPU use with 104 MPI tasks x 1 OpenMP threads

Minimization stats:
  Stopping criterion = energy tolerance
  Energy initial, next-to-last, final = 
     -1152448.52554466  -1152448.61421583  -1152448.61421583
  Force two-norm initial, final = 0.20303542 9.8981345e-05
  Force max component initial, final = 0.089352661 3.3032016e-05
  Final line search alpha, max atom move = 1.0000000 3.3032016e-05
  Iterations, force evaluations = 278 556

MPI task timing breakdown:
Section |  min time  |  avg time  |  max time  |%varavg| %total
---------------------------------------------------------------
Pair    | 0.84712    | 2.3306     | 3.0217     |  41.0 | 72.95
Neigh   | 2.0212e-05 | 0.0059185  | 0.0085738  |   3.2 |  0.19
Comm    | 0.048844   | 0.51854    | 1.582      |  61.8 | 16.23
Output  | 0          | 0          | 0          |   0.0 |  0.00
Modify  | 3.341e-05  | 0.0045754  | 0.009809   |   3.2 |  0.14
Other   |            | 0.3352     |            |       | 10.49

Nlocal:        2776.45 ave        3960 max           0 min
Histogram: 8 4 4 0 4 12 8 4 26 34
Nghost:        3879.07 ave        5426 max         232 min
Histogram: 8 0 8 0 16 0 8 8 16 40
Neighs:        79213.5 ave      115420 max           0 min
Histogram: 8 4 4 0 10 6 8 8 24 32

Total # of neighbors = 8238207
Ave neighs/atom = 28.530488
Neighbor list builds = 2
Dangerous builds = 0
The dot product: -2.6319083521152e-06
Setting atom values ...
  1 settings made for x
  1 settings made for y
  1 settings made for z
Setting up cg style minimization ...
  Unit style    : metal
  Current step  : 6405
Per MPI rank memory allocation (min/avg/max) = 5.441 | 5.816 | 6.074 Mbytes
Step PotEng KinEng TotEng v_fx v_fy v_fz 
    6405   -1152448.6            0   -1152448.6 -0.082512701   0.14149804  0.085757883 
    6691     -1152449            0     -1152449 2.2357827e-06 -5.9690507e-06 -3.5735594e-06 
Loop time of 3.29009 on 104 procs for 286 steps with 288751 atoms

99.9% CPU use with 104 MPI tasks x 1 OpenMP threads

Minimization stats:
  Stopping criterion = energy tolerance
  Energy initial, next-to-last, final = 
     -1152448.60752429  -1152448.99827418  -1152448.99827418
  Force two-norm initial, final = 0.23191977 0.00013534224
  Force max component initial, final = 0.14149804 1.3302078e-05
  Final line search alpha, max atom move = 1.0000000 1.3302078e-05
  Iterations, force evaluations = 286 570

MPI task timing breakdown:
Section |  min time  |  avg time  |  max time  |%varavg| %total
---------------------------------------------------------------
Pair    | 0.88492    | 2.3839     | 3.087      |  41.2 | 72.46
Neigh   | 6.0309e-05 | 0.017784   | 0.025809   |   5.5 |  0.54
Comm    | 0.05746    | 0.53468    | 1.6127     |  61.9 | 16.25
Output  | 0          | 0          | 0          |   0.0 |  0.00
Modify  | 3.4238e-05 | 0.0046898  | 0.010024   |   3.2 |  0.14
Other   |            | 0.3491     |            |       | 10.61

Nlocal:        2776.45 ave        3959 max           0 min
Histogram: 8 4 4 0 4 12 8 2 28 34
Nghost:        3879.08 ave        5426 max         232 min
Histogram: 8 0 8 0 16 0 8 8 16 40
Neighs:        79213.7 ave      115391 max           0 min
Histogram: 8 4 4 0 10 6 8 8 24 32

Total # of neighbors = 8238221
Ave neighs/atom = 28.530537
Neighbor list builds = 6
Dangerous builds = 0
The dot product: -3.81973343851984e-06
Setting atom values ...
  1 settings made for x
  1 settings made for y
  1 settings made for z
Setting up cg style minimization ...
  Unit style    : metal
  Current step  : 6691
Per MPI rank memory allocation (min/avg/max) = 5.441 | 5.816 | 6.074 Mbytes
Step PotEng KinEng TotEng v_fx v_fy v_fz 
    6691     -1152449            0     -1152449   0.58824016  -0.10761821  -0.81160869 
    6987   -1152449.2            0   -1152449.2 -7.4688588e-06 -6.4995728e-06 -1.8789754e-06 
Loop time of 3.39681 on 104 procs for 296 steps with 288751 atoms

99.9% CPU use with 104 MPI tasks x 1 OpenMP threads

Minimization stats:
  Stopping criterion = energy tolerance
  Energy initial, next-to-last, final = 
     -1152449.02183711  -1152449.18283769  -1152449.18283769
  Force two-norm initial, final = 1.0197533 6.8853293e-05
  Force max component initial, final = 0.81160869 1.6884909e-05
  Final line search alpha, max atom move = 1.0000000 1.6884909e-05
  Iterations, force evaluations = 296 592

MPI task timing breakdown:
Section |  min time  |  avg time  |  max time  |%varavg| %total
---------------------------------------------------------------
Pair    | 0.90127    | 2.4868     | 3.2049     |  42.5 | 73.21
Neigh   | 2.0168e-05 | 0.0059031  | 0.0084471  |   3.2 |  0.17
Comm    | 0.055315   | 0.55437    | 1.6904     |  64.0 | 16.32
Output  | 0          | 0          | 0          |   0.0 |  0.00
Modify  | 3.4197e-05 | 0.0048671  | 0.010372   |   3.3 |  0.14
Other   |            | 0.3448     |            |       | 10.15

Nlocal:        2776.45 ave        3936 max           0 min
Histogram: 8 4 4 0 4 12 8 0 28 36
Nghost:        3879.13 ave        5424 max         232 min
Histogram: 8 0 8 0 16 0 8 8 16 40
Neighs:        79213.5 ave      114653 max           0 min
Histogram: 8 4 4 0 8 8 8 8 22 34

Total # of neighbors = 8238206
Ave neighs/atom = 28.530485
Neighbor list builds = 2
Dangerous builds = 0
The dot product: -1.26939497590719e-06
Setting atom values ...
  1 settings made for x
  1 settings made for y
  1 settings made for z
Setting up cg style minimization ...
  Unit style    : metal
  Current step  : 6987
Per MPI rank memory allocation (min/avg/max) = 5.441 | 5.816 | 6.074 Mbytes
Step PotEng KinEng TotEng v_fx v_fy v_fz 
    6987   -1152449.2            0   -1152449.2  -0.36251813  0.088663322   0.24610046 
    7000   -1152449.2            0   -1152449.2 -0.0027070031 -0.012093096 -0.011528195 
    7267   -1152449.2            0   -1152449.2 -4.5526867e-07 5.1381008e-06 5.5764988e-06 
Loop time of 3.21081 on 104 procs for 280 steps with 288751 atoms

99.9% CPU use with 104 MPI tasks x 1 OpenMP threads

Minimization stats:
  Stopping criterion = energy tolerance
  Energy initial, next-to-last, final = 
     -1152449.20674083  -1152449.23270928  -1152449.23270928
  Force two-norm initial, final = 0.4777192 2.2441247e-05
  Force max component initial, final = 0.36251813 5.5764988e-06
  Final line search alpha, max atom move = 1.0000000 5.5764988e-06
  Iterations, force evaluations = 280 560

MPI task timing breakdown:
Section |  min time  |  avg time  |  max time  |%varavg| %total
---------------------------------------------------------------
Pair    | 0.84964    | 2.34       | 3.0314     |  41.2 | 72.88
Neigh   | 1.0109e-05 | 0.0029578  | 0.0042732  |   2.2 |  0.09
Comm    | 0.051975   | 0.52369    | 1.5938     |  61.4 | 16.31
Output  | 0.0001138  | 0.00011654 | 0.00018985 |   0.0 |  0.00
Modify  | 3.4445e-05 | 0.0046112  | 0.0098359  |   3.2 |  0.14
Other   |            | 0.3395     |            |       | 10.57

Nlocal:        2776.45 ave        3934 max           0 min
Histogram: 8 4 4 0 4 12 8 0 28 36
Nghost:        3879.16 ave        5425 max         232 min
Histogram: 8 0 8 0 16 0 8 8 16 40
Neighs:        79213.4 ave      114632 max           0 min
Histogram: 8 4 4 0 8 8 8 8 20 36

Total # of neighbors = 8238196
Ave neighs/atom = 28.530450
Neighbor list builds = 1
Dangerous builds = 0
The dot product: 4.51999467789155e-07
Setting atom values ...
  1 settings made for x
  1 settings made for y
  1 settings made for z
Setting up cg style minimization ...
  Unit style    : metal
  Current step  : 7267
Per MPI rank memory allocation (min/avg/max) = 5.441 | 5.816 | 6.074 Mbytes
Step PotEng KinEng TotEng v_fx v_fy v_fz 
    7267   -1152449.3            0   -1152449.3  0.082096384 -0.0018821151 -0.052637707 
    7476   -1152449.3            0   -1152449.3 -8.7437291e-06 -3.209823e-05 -3.1936315e-05 
Loop time of 2.40581 on 104 procs for 209 steps with 288751 atoms

99.9% CPU use with 104 MPI tasks x 1 OpenMP threads

Minimization stats:
  Stopping criterion = energy tolerance
  Energy initial, next-to-last, final = 
     -1152449.25410618  -1152449.25853248  -1152449.25853248
  Force two-norm initial, final = 0.18620657 0.0001491624
  Force max component initial, final = 0.088040144 3.8700454e-05
  Final line search alpha, max atom move = 1.0000000 3.8700454e-05
  Iterations, force evaluations = 209 418

MPI task timing breakdown:
Section |  min time  |  avg time  |  max time  |%varavg| %total
---------------------------------------------------------------
Pair    | 0.63349    | 1.757      | 2.269      |  35.8 | 73.03
Neigh   | 0          | 0          | 0          |   0.0 |  0.00
Comm    | 0.042668   | 0.39125    | 1.1923     |  53.8 | 16.26
Output  | 0          | 0          | 0          |   0.0 |  0.00
Modify  | 2.6398e-05 | 0.0034411  | 0.0073685  |   2.8 |  0.14
Other   |            | 0.2541     |            |       | 10.56

Nlocal:        2776.45 ave        3936 max           0 min
Histogram: 8 4 4 0 4 12 8 0 28 36
Nghost:        3879.12 ave        5425 max         232 min
Histogram: 8 0 8 0 16 0 8 8 16 40
Neighs:        79213.5 ave      114688 max           0 min
Histogram: 8 4 4 0 8 8 8 8 22 34

Total # of neighbors = 8238204
Ave neighs/atom = 28.530478
Neighbor list builds = 0
Dangerous builds = 0
The dot product: 3.82936205366104e-07
Setting atom values ...
  1 settings made for x
  1 settings made for y
  1 settings made for z
Setting up cg style minimization ...
  Unit style    : metal
  Current step  : 7476
Per MPI rank memory allocation (min/avg/max) = 5.441 | 5.816 | 6.074 Mbytes
Step PotEng KinEng TotEng v_fx v_fy v_fz 
    7476   -1152449.3            0   -1152449.3 -0.063929113 0.0071513518  0.042811381 
    7669   -1152449.3            0   -1152449.3 1.0899979e-05 -4.6381869e-06 -1.1149372e-05 
Loop time of 2.21481 on 104 procs for 193 steps with 288751 atoms

99.9% CPU use with 104 MPI tasks x 1 OpenMP threads

Minimization stats:
  Stopping criterion = energy tolerance
  Energy initial, next-to-last, final = 
     -1152449.27899606  -1152449.28059374  -1152449.28059374
  Force two-norm initial, final = 0.1786511 7.6228869e-05
  Force max component initial, final = 0.089173465 1.5038898e-05
  Final line search alpha, max atom move = 1.0000000 1.5038898e-05
  Iterations, force evaluations = 193 386

MPI task timing breakdown:
Section |  min time  |  avg time  |  max time  |%varavg| %total
---------------------------------------------------------------
Pair    | 0.58325    | 1.6163     | 2.0933     |  34.3 | 72.98
Neigh   | 0          | 0          | 0          |   0.0 |  0.00
Comm    | 0.040276   | 0.36213    | 1.0967     |  51.4 | 16.35
Output  | 0          | 0          | 0          |   0.0 |  0.00
Modify  | 2.2836e-05 | 0.0031748  | 0.0067936  |   2.7 |  0.14
Other   |            | 0.2332     |            |       | 10.53

Nlocal:        2776.45 ave        3935 max           0 min
Histogram: 8 4 4 0 4 12 8 0 28 36
Nghost:        3879.12 ave        5425 max         232 min
Histogram: 8 0 8 0 16 0 8 8 16 40
Neighs:        79213.5 ave      114657 max           0 min
Histogram: 8 4 4 0 8 8 8 8 22 34

Total # of neighbors = 8238201
Ave neighs/atom = 28.530467
Neighbor list builds = 0
Dangerous builds = 0
The dot product: -1.48127800389711e-07
Setting atom values ...
  1 settings made for x
  1 settings made for y
  1 settings made for z
Setting up cg style minimization ...
  Unit style    : metal
  Current step  : 7669
Per MPI rank memory allocation (min/avg/max) = 5.441 | 5.816 | 6.074 Mbytes
Step PotEng KinEng TotEng v_fx v_fy v_fz 
    7669   -1152449.3            0   -1152449.3 -0.018597983 0.0073882875  0.018783484 
    7848   -1152449.3            0   -1152449.3 -1.1946953e-07  1.97362e-05 2.2425518e-05 
Loop time of 2.06231 on 104 procs for 179 steps with 288751 atoms

99.9% CPU use with 104 MPI tasks x 1 OpenMP threads

Minimization stats:
  Stopping criterion = energy tolerance
  Energy initial, next-to-last, final = 
     -1152449.29960835  -1152449.30105028  -1152449.30105028
  Force two-norm initial, final = 0.16257758 0.00014240848
  Force max component initial, final = 0.089111232 3.5472850e-05
  Final line search alpha, max atom move = 1.0000000 3.5472850e-05
  Iterations, force evaluations = 179 358

MPI task timing breakdown:
Section |  min time  |  avg time  |  max time  |%varavg| %total
---------------------------------------------------------------
Pair    | 0.54266    | 1.5017     | 1.9413     |  33.1 | 72.82
Neigh   | 0          | 0          | 0          |   0.0 |  0.00
Comm    | 0.034102   | 0.33598    | 1.0376     |  49.4 | 16.29
Output  | 0          | 0          | 0          |   0.0 |  0.00
Modify  | 2.2091e-05 | 0.0029456  | 0.0063095  |   2.6 |  0.14
Other   |            | 0.2217     |            |       | 10.75

Nlocal:        2776.45 ave        3935 max           0 min
Histogram: 8 4 4 0 4 12 8 0 28 36
Nghost:        3879.14 ave        5425 max         232 min
Histogram: 8 0 8 0 16 0 8 8 16 40
Neighs:        79213.5 ave      114656 max           0 min
Histogram: 8 4 4 0 8 8 8 8 22 34

Total # of neighbors = 8238202
Ave neighs/atom = 28.530471
Neighbor list builds = 0
Dangerous builds = 0
The dot product: -4.4098531498229e-08
Setting atom values ...
  1 settings made for x
  1 settings made for y
  1 settings made for z
Setting up cg style minimization ...
  Unit style    : metal
  Current step  : 7848
Per MPI rank memory allocation (min/avg/max) = 5.441 | 5.816 | 6.074 Mbytes
Step PotEng KinEng TotEng v_fx v_fy v_fz 
    7848   -1152449.3            0   -1152449.3 -0.031111632 0.0080282852  0.026258211 
    8000   -1152449.3            0   -1152449.3 4.1145073e-05 5.929603e-05 4.4264558e-05 
    8050   -1152449.3            0   -1152449.3 9.1286886e-06 5.2805987e-06 9.2311471e-07 
Loop time of 2.34746 on 104 procs for 202 steps with 288751 atoms

99.9% CPU use with 104 MPI tasks x 1 OpenMP threads

Minimization stats:
  Stopping criterion = energy tolerance
  Energy initial, next-to-last, final = 
     -1152449.31872541  -1152449.32013538  -1152449.32013538
  Force two-norm initial, final = 0.1658116 6.2544227e-05
  Force max component initial, final = 0.089143271 9.1286886e-06
  Final line search alpha, max atom move = 1.0000000 9.1286886e-06
  Iterations, force evaluations = 202 404

MPI task timing breakdown:
Section |  min time  |  avg time  |  max time  |%varavg| %total
---------------------------------------------------------------
Pair    | 0.61763    | 1.6985     | 2.19       |  35.0 | 72.36
Neigh   | 0          | 0          | 0          |   0.0 |  0.00
Comm    | 0.040304   | 0.38312    | 1.1496     |  52.2 | 16.32
Output  | 9.8647e-05 | 0.00010605 | 0.00024521 |   0.0 |  0.00
Modify  | 2.3925e-05 | 0.0033278  | 0.0071313  |   2.7 |  0.14
Other   |            | 0.2624     |            |       | 11.18

Nlocal:        2776.45 ave        3936 max           0 min
Histogram: 8 4 4 0 4 12 8 0 28 36
Nghost:        3879.16 ave        5425 max         232 min
Histogram: 8 0 8 0 16 0 8 8 16 40
Neighs:        79213.5 ave      114697 max           0 min
Histogram: 8 4 4 0 8 8 8 8 22 34

Total # of neighbors = 8238199
Ave neighs/atom = 28.530461
Neighbor list builds = 0
Dangerous builds = 0
The dot product: 7.72939783398553e-09
Setting atom values ...
  1 settings made for x
  1 settings made for y
  1 settings made for z
Setting up cg style minimization ...
  Unit style    : metal
  Current step  : 8050
Per MPI rank memory allocation (min/avg/max) = 5.441 | 5.816 | 6.074 Mbytes
Step PotEng KinEng TotEng v_fx v_fy v_fz 
    8050   -1152449.3            0   -1152449.3 -0.028548136  0.009139793  0.026052112 
    8210   -1152449.3            0   -1152449.3 -2.8515468e-05 5.7507704e-06 2.2206776e-05 
Loop time of 1.83577 on 104 procs for 160 steps with 288751 atoms

99.9% CPU use with 104 MPI tasks x 1 OpenMP threads

Minimization stats:
  Stopping criterion = energy tolerance
  Energy initial, next-to-last, final = 
     -1152449.33647336  -1152449.33789855  -1152449.33789855
  Force two-norm initial, final = 0.16568897 0.00023852969
  Force max component initial, final = 0.089160973 5.4936856e-05
  Final line search alpha, max atom move = 1.0000000 5.4936856e-05
  Iterations, force evaluations = 160 320

MPI task timing breakdown:
Section |  min time  |  avg time  |  max time  |%varavg| %total
---------------------------------------------------------------
Pair    | 0.48444    | 1.3437     | 1.7359     |  31.3 | 73.20
Neigh   | 0          | 0          | 0          |   0.0 |  0.00
Comm    | 0.030695   | 0.29967    | 0.91423    |  47.2 | 16.32
Output  | 0          | 0          | 0          |   0.0 |  0.00
Modify  | 1.9037e-05 | 0.0026325  | 0.0056367  |   2.4 |  0.14
Other   |            | 0.1897     |            |       | 10.34

Nlocal:        2776.45 ave        3939 max           0 min
Histogram: 8 4 4 0 4 12 8 2 26 36
Nghost:        3879.16 ave        5425 max         232 min
Histogram: 8 0 8 0 16 0 8 8 16 40
Neighs:        79213.5 ave      114777 max           0 min
Histogram: 8 4 4 0 10 6 8 8 22 34

Total # of neighbors = 8238200
Ave neighs/atom = 28.530464
Neighbor list builds = 0
Dangerous builds = 0
The dot product: -7.01933035956147e-08
Setting atom values ...
  1 settings made for x
  1 settings made for y
  1 settings made for z
Setting up cg style minimization ...
  Unit style    : metal
  Current step  : 8210
Per MPI rank memory allocation (min/avg/max) = 5.441 | 5.816 | 6.074 Mbytes
Step PotEng KinEng TotEng v_fx v_fy v_fz 
    8210   -1152449.4            0   -1152449.4 -0.029763912 0.0099293425  0.027513402 
[...]
Histogram: 8 0 8 0 16 0 8 8 16 40
Neighs:        79213.4 ave      114196 max           0 min
Histogram: 8 4 4 0 8 8 8 8 18 38

Total # of neighbors = 8238196
Ave neighs/atom = 28.530450
Neighbor list builds = 0
Dangerous builds = 0
The dot product: -1.08862762805418e-07
Setting atom values ...
  1 settings made for x
  1 settings made for y
  1 settings made for z
Setting up cg style minimization ...
  Unit style    : metal
  Current step  : 28561
Per MPI rank memory allocation (min/avg/max) = 5.441 | 5.816 | 6.074 Mbytes
Step PotEng KinEng TotEng v_fx v_fy v_fz 
   28561   -1152449.4            0   -1152449.4  0.001718991  -0.03143698 -0.033907045 
   28731   -1152449.4            0   -1152449.4 -1.8450823e-05 -2.8926576e-05 -1.8006746e-05 
Loop time of 1.95033 on 104 procs for 170 steps with 288751 atoms

99.9% CPU use with 104 MPI tasks x 1 OpenMP threads

Minimization stats:
  Stopping criterion = energy tolerance
  Energy initial, next-to-last, final = 
     -1152449.40853011  -1152449.41000436  -1152449.41000436
  Force two-norm initial, final = 0.17739921 0.00019404408
  Force max component initial, final = 0.082334561 3.3443400e-05
  Final line search alpha, max atom move = 1.0000000 3.3443400e-05
  Iterations, force evaluations = 170 340

MPI task timing breakdown:
Section |  min time  |  avg time  |  max time  |%varavg| %total
---------------------------------------------------------------
Pair    | 0.51829    | 1.4227     | 1.8448     |  32.1 | 72.95
Neigh   | 0          | 0          | 0          |   0.0 |  0.00
Comm    | 0.035607   | 0.3206     | 0.96691    |  47.2 | 16.44
Output  | 0          | 0          | 0          |   0.0 |  0.00
Modify  | 2.2117e-05 | 0.002803   | 0.005971   |   2.5 |  0.14
Other   |            | 0.2042     |            |       | 10.47

Nlocal:        2776.45 ave        3931 max           0 min
Histogram: 8 4 4 0 4 12 8 4 22 38
Nghost:        3879.70 ave        5430 max         232 min
Histogram: 8 0 8 0 16 0 8 8 16 40
Neighs:        79213.4 ave      114199 max           0 min
Histogram: 8 4 4 0 8 8 8 8 18 38

Total # of neighbors = 8238194
Ave neighs/atom = 28.530443
Neighbor list builds = 0
Dangerous builds = 0
The dot product: 5.28451381163152e-08
Setting atom values ...
  1 settings made for x
  1 settings made for y
  1 settings made for z
Setting up cg style minimization ...
  Unit style    : metal
  Current step  : 28731
Per MPI rank memory allocation (min/avg/max) = 5.441 | 5.816 | 6.074 Mbytes
Step PotEng KinEng TotEng v_fx v_fy v_fz 
   28731   -1152449.4            0   -1152449.4 -0.0016765454  -0.03047618 -0.030711393 
   28941   -1152449.4            0   -1152449.4 1.2882136e-05 2.768129e-06 -5.6031225e-06 
Loop time of 2.39169 on 104 procs for 210 steps with 288751 atoms

99.9% CPU use with 104 MPI tasks x 1 OpenMP threads

Minimization stats:
  Stopping criterion = energy tolerance
  Energy initial, next-to-last, final = 
     -1152449.41180973  -1152449.41331246  -1152449.41331246
  Force two-norm initial, final = 0.1776219 5.3889684e-05
  Force max component initial, final = 0.081771911 1.2882136e-05
  Final line search alpha, max atom move = 1.0000000 1.2882136e-05
  Iterations, force evaluations = 210 420

MPI task timing breakdown:
Section |  min time  |  avg time  |  max time  |%varavg| %total
---------------------------------------------------------------
Pair    | 0.64692    | 1.7557     | 2.2603     |  35.5 | 73.41
Neigh   | 0          | 0          | 0          |   0.0 |  0.00
Comm    | 0.044222   | 0.39542    | 1.2077     |  52.6 | 16.53
Output  | 0          | 0          | 0          |   0.0 |  0.00
Modify  | 2.6681e-05 | 0.0034612  | 0.0073696  |   2.8 |  0.14
Other   |            | 0.2371     |            |       |  9.91

Nlocal:        2776.45 ave        3930 max           0 min
Histogram: 8 4 4 0 4 12 8 4 22 38
Nghost:        3879.70 ave        5430 max         232 min
Histogram: 8 0 8 0 16 0 8 8 16 40
Neighs:        79213.4 ave      114169 max           0 min
Histogram: 8 4 4 0 8 8 8 6 20 38

Total # of neighbors = 8238197
Ave neighs/atom = 28.530454
Neighbor list builds = 0
Dangerous builds = 0
The dot product: -4.70616522097941e-09
Setting atom values ...
  1 settings made for x
  1 settings made for y
  1 settings made for z
Setting up cg style minimization ...
  Unit style    : metal
  Current step  : 28941
Per MPI rank memory allocation (min/avg/max) = 5.441 | 5.816 | 6.074 Mbytes
Step PotEng KinEng TotEng v_fx v_fy v_fz 
   28941   -1152449.4            0   -1152449.4 0.0056768651 -0.030297291 -0.035404675 
   29000   -1152449.4            0   -1152449.4 -1.0218314e-05 0.00020405796 0.00021998534 
   29210   -1152449.4            0   -1152449.4 3.4605279e-07 3.5476377e-07 1.425817e-07 
Loop time of 3.06165 on 104 procs for 269 steps with 288751 atoms

99.9% CPU use with 104 MPI tasks x 1 OpenMP threads

Minimization stats:
  Stopping criterion = energy tolerance
  Energy initial, next-to-last, final = 
     -1152449.41334056  -1152449.41486731  -1152449.41486731
  Force two-norm initial, final = 0.17863233 3.6138412e-06
  Force max component initial, final = 0.081148187 6.3127375e-07
  Final line search alpha, max atom move = 1.0000000 6.3127375e-07
  Iterations, force evaluations = 269 538

MPI task timing breakdown:
Section |  min time  |  avg time  |  max time  |%varavg| %total
---------------------------------------------------------------
Pair    | 0.81792    | 2.2479     | 2.8966     |  40.4 | 73.42
Neigh   | 0          | 0          | 0          |   0.0 |  0.00
Comm    | 0.050397   | 0.50452    | 1.543      |  59.7 | 16.48
Output  | 0.00010096 | 0.00010398 | 0.00021528 |   0.0 |  0.00
Modify  | 3.4518e-05 | 0.0044339  | 0.0094661  |   3.1 |  0.14
Other   |            | 0.3046     |            |       |  9.95

Nlocal:        2776.45 ave        3931 max           0 min
Histogram: 8 4 4 0 4 12 8 4 22 38
Nghost:        3879.64 ave        5430 max         232 min
Histogram: 8 0 8 0 16 0 8 8 16 40
Neighs:        79213.4 ave      114180 max           0 min
Histogram: 8 4 4 0 8 8 8 8 18 38

Total # of neighbors = 8238197
Ave neighs/atom = 28.530454
Neighbor list builds = 0
Dangerous builds = 0
The dot product: -3.68954437907894e-10
Setting atom values ...
  1 settings made for x
  1 settings made for y
  1 settings made for z
Setting up cg style minimization ...
  Unit style    : metal
  Current step  : 29210
Per MPI rank memory allocation (min/avg/max) = 5.441 | 5.816 | 6.074 Mbytes
Step PotEng KinEng TotEng v_fx v_fy v_fz 
   29210   -1152449.4            0   -1152449.4  0.013608331 -0.031425625 -0.041864799 
   29398   -1152449.4            0   -1152449.4 2.8574743e-05 -1.5864281e-05 -3.5461685e-05 
Loop time of 2.14382 on 104 procs for 188 steps with 288751 atoms

99.9% CPU use with 104 MPI tasks x 1 OpenMP threads

Minimization stats:
  Stopping criterion = energy tolerance
  Energy initial, next-to-last, final = 
     -1152449.41306881  -1152449.41462551  -1152449.41462551
  Force two-norm initial, final = 0.18085196 0.00013221257
  Force max component initial, final = 0.08038985 3.7646493e-05
  Final line search alpha, max atom move = 1.0000000 3.7646493e-05
  Iterations, force evaluations = 188 376

MPI task timing breakdown:
Section |  min time  |  avg time  |  max time  |%varavg| %total
---------------------------------------------------------------
Pair    | 0.57175    | 1.5723     | 2.0262     |  33.7 | 73.34
Neigh   | 0          | 0          | 0          |   0.0 |  0.00
Comm    | 0.049209   | 0.35435    | 1.0696     |  49.5 | 16.53
Output  | 0          | 0          | 0          |   0.0 |  0.00
Modify  | 2.4597e-05 | 0.0030979  | 0.0065994  |   2.6 |  0.14
Other   |            | 0.2141     |            |       |  9.98

Nlocal:        2776.45 ave        3931 max           0 min
Histogram: 8 4 4 0 4 12 8 4 22 38
Nghost:        3879.66 ave        5430 max         232 min
Histogram: 8 0 8 0 16 0 8 8 16 40
Neighs:        79213.5 ave      114180 max           0 min
Histogram: 8 4 4 0 8 8 8 8 18 38

Total # of neighbors = 8238199
Ave neighs/atom = 28.530461
Neighbor list builds = 0
Dangerous builds = 0
The dot product: 1.71241833167921e-07
Setting atom values ...
  1 settings made for x
  1 settings made for y
  1 settings made for z
Setting up cg style minimization ...
  Unit style    : metal
  Current step  : 29398
Per MPI rank memory allocation (min/avg/max) = 5.441 | 5.816 | 6.074 Mbytes
Step PotEng KinEng TotEng v_fx v_fy v_fz 
   29398   -1152449.4            0   -1152449.4  0.014680508 -0.032417398 -0.043706264 
   29581   -1152449.4            0   -1152449.4 -1.0660109e-05 7.7681385e-06 1.5201802e-05 
Loop time of 2.10078 on 104 procs for 183 steps with 288751 atoms

99.9% CPU use with 104 MPI tasks x 1 OpenMP threads

Minimization stats:
  Stopping criterion = energy tolerance
  Energy initial, next-to-last, final = 
      -1152449.4111468  -1152449.41269939  -1152449.41269939
  Force two-norm initial, final = 0.18081166 0.00014535015
  Force max component initial, final = 0.079489407 3.6251180e-05
  Final line search alpha, max atom move = 1.0000000 3.6251180e-05
  Iterations, force evaluations = 183 366

MPI task timing breakdown:
Section |  min time  |  avg time  |  max time  |%varavg| %total
---------------------------------------------------------------
Pair    | 0.55625    | 1.5334     | 1.977      |  33.4 | 72.99
Neigh   | 0          | 0          | 0          |   0.0 |  0.00
Comm    | 0.034935   | 0.34818    | 1.0677     |  48.8 | 16.57
Output  | 0          | 0          | 0          |   0.0 |  0.00
Modify  | 2.2882e-05 | 0.0030192  | 0.0064431  |   2.6 |  0.14
Other   |            | 0.2162     |            |       | 10.29

Nlocal:        2776.45 ave        3932 max           0 min
Histogram: 8 4 4 0 4 12 8 4 22 38
Nghost:        3879.68 ave        5430 max         232 min
Histogram: 8 0 8 0 16 0 8 8 16 40
Neighs:        79213.5 ave      114209 max           0 min
Histogram: 8 4 4 0 8 8 8 8 18 38

Total # of neighbors = 8238203
Ave neighs/atom = 28.530474
Neighbor list builds = 0
Dangerous builds = 0
The dot product: -8.29739114606434e-08
Setting atom values ...
  1 settings made for x
  1 settings made for y
  1 settings made for z
Setting up cg style minimization ...
  Unit style    : metal
  Current step  : 29581
Per MPI rank memory allocation (min/avg/max) = 5.441 | 5.816 | 6.074 Mbytes
Step PotEng KinEng TotEng v_fx v_fy v_fz 
   29581   -1152449.4            0   -1152449.4  0.011918085  -0.03301238 -0.042607222 
   29790   -1152449.4            0   -1152449.4 -5.9445883e-06 -1.8036992e-06 2.0537447e-06 
Loop time of 2.38034 on 104 procs for 209 steps with 288751 atoms

99.9% CPU use with 104 MPI tasks x 1 OpenMP threads

Minimization stats:
  Stopping criterion = energy tolerance
  Energy initial, next-to-last, final = 
      -1152449.4075799  -1152449.40909649  -1152449.40909649
  Force two-norm initial, final = 0.17871362 5.8562946e-05
  Force max component initial, final = 0.078471992 5.9445883e-06
  Final line search alpha, max atom move = 1.0000000 5.9445883e-06
  Iterations, force evaluations = 209 418

MPI task timing breakdown:
Section |  min time  |  avg time  |  max time  |%varavg| %total
---------------------------------------------------------------
Pair    | 0.63583    | 1.7444     | 2.2502     |  35.6 | 73.28
Neigh   | 0          | 0          | 0          |   0.0 |  0.00
Comm    | 0.038733   | 0.39089    | 1.1845     |  52.5 | 16.42
Output  | 0          | 0          | 0          |   0.0 |  0.00
Modify  | 2.6632e-05 | 0.0034445  | 0.0073462  |   2.8 |  0.14
Other   |            | 0.2416     |            |       | 10.15

Nlocal:        2776.45 ave        3932 max           0 min
Histogram: 8 4 4 0 4 12 8 4 22 38
Nghost:        3879.59 ave        5429 max         232 min
Histogram: 8 0 8 0 16 0 8 8 16 40
Neighs:        79213.5 ave      114209 max           0 min
Histogram: 8 4 4 0 8 8 8 8 18 38

Total # of neighbors = 8238200
Ave neighs/atom = 28.530464
Neighbor list builds = 0
Dangerous builds = 0
The dot product: -1.54393622616046e-08
Setting atom values ...
  1 settings made for x
  1 settings made for y
  1 settings made for z
Setting up cg style minimization ...
  Unit style    : metal
  Current step  : 29790
Per MPI rank memory allocation (min/avg/max) = 5.441 | 5.816 | 6.074 Mbytes
Step PotEng KinEng TotEng v_fx v_fy v_fz 
   29790   -1152449.4            0   -1152449.4 0.0082928022 -0.033958547 -0.041288629 
   29978   -1152449.4            0   -1152449.4 3.2100449e-05 -7.8388466e-06 -2.9645504e-05 
Loop time of 2.1407 on 104 procs for 188 steps with 288751 atoms

99.9% CPU use with 104 MPI tasks x 1 OpenMP threads

Minimization stats:
  Stopping criterion = energy tolerance
  Energy initial, next-to-last, final = 
     -1152449.40234448  -1152449.40381491  -1152449.40381491
  Force two-norm initial, final = 0.17626627 0.00012816806
  Force max component initial, final = 0.077501212 3.2100449e-05
  Final line search alpha, max atom move = 1.0000000 3.2100449e-05
  Iterations, force evaluations = 188 376

MPI task timing breakdown:
Section |  min time  |  avg time  |  max time  |%varavg| %total
---------------------------------------------------------------
Pair    | 0.57084    | 1.5708     | 2.0289     |  33.8 | 73.38
Neigh   | 0          | 0          | 0          |   0.0 |  0.00
Comm    | 0.034625   | 0.35211    | 1.0794     |  50.0 | 16.45
Output  | 0          | 0          | 0          |   0.0 |  0.00
Modify  | 2.3652e-05 | 0.003102   | 0.0066247  |   2.6 |  0.14
Other   |            | 0.2147     |            |       | 10.03

Nlocal:        2776.45 ave        3933 max           0 min
Histogram: 8 4 4 0 4 12 8 4 22 38
Nghost:        3879.62 ave        5430 max         232 min
Histogram: 8 0 8 0 16 0 8 8 16 40
Neighs:        79213.5 ave      114234 max           0 min
Histogram: 8 4 4 0 8 8 8 8 18 38

Total # of neighbors = 8238203
Ave neighs/atom = 28.530474
Neighbor list builds = 0
Dangerous builds = 0
The dot product: 1.47619391108109e-07
Setting atom values ...
  1 settings made for x
  1 settings made for y
  1 settings made for z
Setting up cg style minimization ...
  Unit style    : metal
  Current step  : 29978
Per MPI rank memory allocation (min/avg/max) = 5.441 | 5.816 | 6.074 Mbytes
Step PotEng KinEng TotEng v_fx v_fy v_fz 
   29978   -1152449.4            0   -1152449.4 0.0037977704  -0.03522355 -0.039712783 
   30000   -1152449.4            0   -1152449.4 0.00052819751 0.00014391801 -0.00020101742 
   30150   -1152449.4            0   -1152449.4 -2.9574649e-05 -2.1446466e-05 -2.8748267e-06 
Loop time of 1.95993 on 104 procs for 172 steps with 288751 atoms

99.9% CPU use with 104 MPI tasks x 1 OpenMP threads

Minimization stats:
  Stopping criterion = energy tolerance
  Energy initial, next-to-last, final = 
     -1152449.39546557  -1152449.39688323  -1152449.39688323
  Force two-norm initial, final = 0.17375622 0.00022026328
  Force max component initial, final = 0.076491655 4.0984635e-05
  Final line search alpha, max atom move = 1.0000000 4.0984635e-05
  Iterations, force evaluations = 172 344

MPI task timing breakdown:
Section |  min time  |  avg time  |  max time  |%varavg| %total
---------------------------------------------------------------
Pair    | 0.52547    | 1.4372     | 1.8519     |  32.3 | 73.33
Neigh   | 0          | 0          | 0          |   0.0 |  0.00
Comm    | 0.031473   | 0.32264    | 0.99261    |  47.7 | 16.46
Output  | 9.9088e-05 | 0.0001077  | 0.00018986 |   0.0 |  0.01
Modify  | 2.2135e-05 | 0.002832   | 0.0060356  |   2.5 |  0.14
Other   |            | 0.1972     |            |       | 10.06

Nlocal:        2776.45 ave        3930 max           0 min
Histogram: 8 4 4 0 4 12 8 3 23 38
Nghost:        3879.63 ave        5430 max         232 min
Histogram: 8 0 8 0 16 0 8 8 16 40
Neighs:        79213.5 ave      114149 max           0 min
Histogram: 8 4 4 0 8 8 8 6 20 38

Total # of neighbors = 8238201
Ave neighs/atom = 28.530467
Neighbor list builds = 0
Dangerous builds = 0
The dot product: 9.47415312910923e-09
Setting atom values ...
  1 settings made for x
  1 settings made for y
  1 settings made for z
Setting up cg style minimization ...
  Unit style    : metal
  Current step  : 30150
Per MPI rank memory allocation (min/avg/max) = 5.441 | 5.816 | 6.074 Mbytes
Step PotEng KinEng TotEng v_fx v_fy v_fz 
   30150   -1152449.4            0   -1152449.4 -0.0018924562 -0.036885721 -0.037746567 
   30364   -1152449.4            0   -1152449.4 5.7329946e-06 2.4064298e-06 -1.2937369e-06 
Loop time of 2.45132 on 104 procs for 214 steps with 288751 atoms

99.9% CPU use with 104 MPI tasks x 1 OpenMP threads

Minimization stats:
  Stopping criterion = energy tolerance
  Energy initial, next-to-last, final = 
     -1152449.38700218  -1152449.38836533  -1152449.38836533
  Force two-norm initial, final = 0.17152811 4.5503974e-05
  Force max component initial, final = 0.076844613 5.7329946e-06
  Final line search alpha, max atom move = 1.0000000 5.7329946e-06
  Iterations, force evaluations = 214 428

MPI task timing breakdown:
Section |  min time  |  avg time  |  max time  |%varavg| %total
---------------------------------------------------------------
Pair    | 0.65103    | 1.7878     | 2.3147     |  36.0 | 72.93
Neigh   | 0          | 0          | 0          |   0.0 |  0.00
Comm    | 0.038659   | 0.40452    | 1.2297     |  52.8 | 16.50
Output  | 0          | 0          | 0          |   0.0 |  0.00
Modify  | 2.7903e-05 | 0.0035274  | 0.0075483  |   2.8 |  0.14
Other   |            | 0.2555     |            |       | 10.42

Nlocal:        2776.45 ave        3930 max           0 min
Histogram: 8 4 4 0 4 12 8 2 24 38
Nghost:        3879.63 ave        5430 max         232 min
Histogram: 8 0 8 0 16 0 8 8 16 40
Neighs:        79213.5 ave      114140 max           0 min
Histogram: 8 4 4 0 8 8 8 6 20 38

Total # of neighbors = 8238201
Ave neighs/atom = 28.530467
Neighbor list builds = 0
Dangerous builds = 0
The dot product: 1.30107331768296e-09
Setting atom values ...
  1 settings made for x
  1 settings made for y
  1 settings made for z
Setting up cg style minimization ...
  Unit style    : metal
  Current step  : 30364
Per MPI rank memory allocation (min/avg/max) = 5.441 | 5.816 | 6.074 Mbytes
Step PotEng KinEng TotEng v_fx v_fy v_fz 
   30364   -1152449.4            0   -1152449.4 -0.010573602 -0.039496332 -0.034774786 
   30581   -1152449.4            0   -1152449.4 4.7236574e-06 4.0893851e-06 1.1665502e-06 
Loop time of 2.46655 on 104 procs for 217 steps with 288751 atoms

99.9% CPU use with 104 MPI tasks x 1 OpenMP threads

Minimization stats:
  Stopping criterion = energy tolerance
  Energy initial, next-to-last, final = 
     -1152449.37709965  -1152449.37841567  -1152449.37841567
  Force two-norm initial, final = 0.17019963 3.3814240e-05
  Force max component initial, final = 0.07720967 7.0346182e-06
  Final line search alpha, max atom move = 1.0000000 7.0346182e-06
  Iterations, force evaluations = 217 434

MPI task timing breakdown:
Section |  min time  |  avg time  |  max time  |%varavg| %total
---------------------------------------------------------------
Pair    | 0.65923    | 1.8111     | 2.3371     |  36.3 | 73.43
Neigh   | 0          | 0          | 0          |   0.0 |  0.00
Comm    | 0.040261   | 0.4073     | 1.2517     |  53.4 | 16.51
Output  | 0          | 0          | 0          |   0.0 |  0.00
Modify  | 2.7662e-05 | 0.0035814  | 0.0076238  |   2.8 |  0.15
Other   |            | 0.2445     |            |       |  9.91

Nlocal:        2776.45 ave        3930 max           0 min
Histogram: 8 4 4 0 4 12 8 2 24 38
Nghost:        3879.62 ave        5430 max         232 min
Histogram: 8 0 8 0 16 0 8 8 16 40
Neighs:        79213.5 ave      114140 max           0 min
Histogram: 8 4 4 0 8 8 8 6 20 38

Total # of neighbors = 8238199
Ave neighs/atom = 28.530461
Neighbor list builds = 0
Dangerous builds = 0
The dot product: -1.91113491734037e-08
