LAMMPS (29 Oct 2020)
OMP_NUM_THREADS environment is not set. Defaulting to 1 thread. (../comm.cpp:94)
  using 1 OpenMP thread(s) per MPI task
OMP_NUM_THREADS environment is not set. Defaulting to 1 thread. (../comm.cpp:94)
  using 1 OpenMP thread(s) per MPI task
Reading data file ...
  orthogonal box = (-122.39241 -121.13707 -37.090501) to (122.39241 121.13707 37.090501)
  13 by 4 by 2 MPI processor grid
  reading atoms ...
  288751 atoms
  read_data CPU = 0.378 seconds
199981 atoms in group inner
88770 atoms in group outer
1 atoms in group carbon
Neighbor list info ...
  update every 1 steps, delay 0 steps, check yes
  max neighbors/atom: 2000, page size: 100000
  master list distance cutoff = 5.6
  ghost atom cutoff = 5.6
  binsize = 2.8, bins = 88 87 27
  1 neighbor lists, perpetual/occasional/extra = 1 0 0
  (1) pair eam/alloy, perpetual
      attributes: half, newton on
      pair build: half/bin/atomonly/newton
      stencil: half/bin/3d/newton
      bin: standard
Setting up cg style minimization ...
  Unit style    : metal
  Current step  : 0
Per MPI rank memory allocation (min/avg/max) = 5.441 | 5.816 | 6.074 Mbytes
Step v_fx v_fy v_fz PotEng KinEng TotEng 
       0   0.30871083   -0.4853005  -0.47003349   -1152447.8            0   -1152447.8 
     157 1.7960916e-05 5.2887153e-07 8.7652428e-06   -1152449.5            0   -1152449.5 
Loop time of 1.83751 on 104 procs for 157 steps with 288751 atoms

99.8% CPU use with 104 MPI tasks x 1 OpenMP threads

Minimization stats:
  Stopping criterion = energy tolerance
  Energy initial, next-to-last, final = 
      -1152447.8473686  -1152449.45035285  -1152449.45035285
  Force two-norm initial, final = 9.7826820 0.00013582275
  Force max component initial, final = 5.2327294 1.9039595e-05
  Final line search alpha, max atom move = 1.0000000 1.9039595e-05
  Iterations, force evaluations = 157 313

MPI task timing breakdown:
Section |  min time  |  avg time  |  max time  |%varavg| %total
---------------------------------------------------------------
Pair    | 0.48748    | 1.3183     | 1.7109     |  30.6 | 71.74
Neigh   | 2.1032e-05 | 0.0058783  | 0.0084504  |   3.2 |  0.32
Comm    | 0.034037   | 0.2959     | 0.89346    |  45.7 | 16.10
Output  | 0          | 0          | 0          |   0.0 |  0.00
Modify  | 1.7811e-05 | 0.0016884  | 0.0043335  |   2.6 |  0.09
Other   |            | 0.2157     |            |       | 11.74

Nlocal:        2776.45 ave        3959 max           0 min
Histogram: 8 4 4 0 4 12 8 2 28 34
Nghost:        3879.01 ave        5424 max         232 min
Histogram: 8 0 8 0 16 0 8 8 16 40
Neighs:        79213.7 ave      115394 max           0 min
Histogram: 8 4 4 0 10 6 8 8 24 32

Total # of neighbors = 8238223
Ave neighs/atom = 28.530544
Neighbor list builds = 2
Dangerous builds = 0
Setting atom values ...
  1 settings made for x
  1 settings made for y
  1 settings made for z
Setting up cg style minimization ...
  Unit style    : metal
  Current step  : 157
Per MPI rank memory allocation (min/avg/max) = 5.441 | 5.816 | 6.074 Mbytes
Step PotEng KinEng TotEng v_fx v_fy v_fz 
     157   -1152449.4            0   -1152449.4 0.00026569092 -0.009701649 -0.0087174137 
     338   -1152449.5            0   -1152449.5 -1.3323703e-05 2.3154487e-06 2.2947743e-05 
Loop time of 2.09682 on 104 procs for 181 steps with 288751 atoms

99.9% CPU use with 104 MPI tasks x 1 OpenMP threads

Minimization stats:
  Stopping criterion = energy tolerance
  Energy initial, next-to-last, final = 
     -1152449.44959034  -1152449.45008255  -1152449.45008255
  Force two-norm initial, final = 0.10178854 8.4753021e-05
  Force max component initial, final = 0.051602861 2.2947743e-05
  Final line search alpha, max atom move = 1.0000000 2.2947743e-05
  Iterations, force evaluations = 181 362

MPI task timing breakdown:
Section |  min time  |  avg time  |  max time  |%varavg| %total
---------------------------------------------------------------
Pair    | 0.5541     | 1.5272     | 1.9735     |  33.2 | 72.83
Neigh   | 0          | 0          | 0          |   0.0 |  0.00
Comm    | 0.033678   | 0.33726    | 1.0277     |  49.5 | 16.08
Output  | 0          | 0          | 0          |   0.0 |  0.00
Modify  | 2.3625e-05 | 0.0029851  | 0.0063563  |   2.6 |  0.14
Other   |            | 0.2294     |            |       | 10.94

Nlocal:        2776.45 ave        3960 max           0 min
Histogram: 8 4 4 0 4 12 8 2 28 34
Nghost:        3879.01 ave        5424 max         232 min
Histogram: 8 0 8 0 16 0 8 8 16 40
Neighs:        79213.4 ave      115432 max           0 min
Histogram: 8 4 4 0 10 6 8 8 24 32

Total # of neighbors = 8238197
Ave neighs/atom = 28.530454
Neighbor list builds = 0
Dangerous builds = 0
Setting atom values ...
  1 settings made for x
  1 settings made for y
  1 settings made for z
Setting up cg style minimization ...
  Unit style    : metal
  Current step  : 338
Per MPI rank memory allocation (min/avg/max) = 5.441 | 5.816 | 6.074 Mbytes
Step PotEng KinEng TotEng v_fx v_fy v_fz 
     338   -1152449.4            0   -1152449.4 -0.00048809359  -0.02042198 -0.018552193 
     506   -1152449.4            0   -1152449.4 2.0341365e-05 -2.9339352e-07 -3.7398667e-05 
Loop time of 1.94281 on 104 procs for 168 steps with 288751 atoms

99.9% CPU use with 104 MPI tasks x 1 OpenMP threads

Minimization stats:
  Stopping criterion = energy tolerance
  Energy initial, next-to-last, final = 
     -1152449.44665105  -1152449.44825739  -1152449.44825739
  Force two-norm initial, final = 0.18518096 0.00026023505
  Force max component initial, final = 0.093911768 4.0486162e-05
  Final line search alpha, max atom move = 1.0000000 4.0486162e-05
  Iterations, force evaluations = 168 336

MPI task timing breakdown:
Section |  min time  |  avg time  |  max time  |%varavg| %total
---------------------------------------------------------------
Pair    | 0.51369    | 1.4093     | 1.8304     |  32.0 | 72.54
Neigh   | 0          | 0          | 0          |   0.0 |  0.00
Comm    | 0.037129   | 0.31369    | 0.9482     |  47.5 | 16.15
Output  | 0          | 0          | 0          |   0.0 |  0.00
Modify  | 2.3081e-05 | 0.0027658  | 0.0058884  |   2.5 |  0.14
Other   |            | 0.2171     |            |       | 11.17

Nlocal:        2776.45 ave        3961 max           0 min
Histogram: 8 4 4 0 6 10 8 2 28 34
Nghost:        3879.01 ave        5424 max         232 min
Histogram: 8 0 8 0 16 0 8 8 16 40
Neighs:        79213.4 ave      115455 max           0 min
Histogram: 8 4 4 0 10 6 8 8 24 32

Total # of neighbors = 8238198
Ave neighs/atom = 28.530457
Neighbor list builds = 0
Dangerous builds = 0
The dot product: 7.90970218181089e-08
Setting atom values ...
  1 settings made for x
  1 settings made for y
  1 settings made for z
Setting up cg style minimization ...
  Unit style    : metal
  Current step  : 506
Per MPI rank memory allocation (min/avg/max) = 5.441 | 5.816 | 6.074 Mbytes
Step PotEng KinEng TotEng v_fx v_fy v_fz 
     506   -1152449.4            0   -1152449.4 -0.0022078158 -0.026620367 -0.024986052 
     755   -1152449.4            0   -1152449.4 -6.6839747e-07 5.3338931e-09 1.4431539e-06 
Loop time of 2.86882 on 104 procs for 249 steps with 288751 atoms

99.9% CPU use with 104 MPI tasks x 1 OpenMP threads

Minimization stats:
  Stopping criterion = energy tolerance
  Energy initial, next-to-last, final = 
     -1152449.44328075  -1152449.44489455  -1152449.44489455
  Force two-norm initial, final = 0.18668285 9.8711437e-06
  Force max component initial, final = 0.092458138 2.1939834e-06
  Final line search alpha, max atom move = 1.0000000 2.1939834e-06
  Iterations, force evaluations = 249 498

MPI task timing breakdown:
Section |  min time  |  avg time  |  max time  |%varavg| %total
---------------------------------------------------------------
Pair    | 0.75735    | 2.0975     | 2.7061     |  39.0 | 73.12
Neigh   | 0          | 0          | 0          |   0.0 |  0.00
Comm    | 0.048375   | 0.46646    | 1.4176     |  58.0 | 16.26
Output  | 0          | 0          | 0          |   0.0 |  0.00
Modify  | 3.1132e-05 | 0.0040944  | 0.008753   |   3.0 |  0.14
Other   |            | 0.3007     |            |       | 10.48

Nlocal:        2776.45 ave        3961 max           0 min
Histogram: 8 4 4 0 6 10 8 2 28 34
Nghost:        3879.01 ave        5424 max         232 min
Histogram: 8 0 8 0 16 0 8 8 16 40
Neighs:        79213.4 ave      115456 max           0 min
Histogram: 8 4 4 0 10 6 8 8 24 32

Total # of neighbors = 8238196
Ave neighs/atom = 28.530450
Neighbor list builds = 0
Dangerous builds = 0
The dot product: -5.05234504668707e-09
Setting atom values ...
  1 settings made for x
  1 settings made for y
  1 settings made for z
Setting up cg style minimization ...
  Unit style    : metal
  Current step  : 755
Per MPI rank memory allocation (min/avg/max) = 5.441 | 5.816 | 6.074 Mbytes
Step PotEng KinEng TotEng v_fx v_fy v_fz 
     755   -1152449.4            0   -1152449.4 -0.0068627216 -0.031571739 -0.026859422 
     880   -1152449.4            0   -1152449.4 -1.8117977e-05 -3.5614921e-06 4.2244508e-05 
Loop time of 1.44621 on 104 procs for 125 steps with 288751 atoms

99.9% CPU use with 104 MPI tasks x 1 OpenMP threads

Minimization stats:
  Stopping criterion = energy tolerance
  Energy initial, next-to-last, final = 
     -1152449.43858254  -1152449.44020504  -1152449.44020504
  Force two-norm initial, final = 0.18712196 0.00014260796
  Force max component initial, final = 0.089031582 4.2244508e-05
  Final line search alpha, max atom move = 1.0000000 4.2244508e-05
  Iterations, force evaluations = 125 250

MPI task timing breakdown:
Section |  min time  |  avg time  |  max time  |%varavg| %total
---------------------------------------------------------------
Pair    | 0.38091    | 1.0478     | 1.3616     |  27.6 | 72.45
Neigh   | 0          | 0          | 0          |   0.0 |  0.00
Comm    | 0.027362   | 0.2324     | 0.70288    |  41.0 | 16.07
Output  | 0          | 0          | 0          |   0.0 |  0.00
Modify  | 1.6822e-05 | 0.0020618  | 0.0043923  |   2.1 |  0.14
Other   |            | 0.1639     |            |       | 11.33

Nlocal:        2776.45 ave        3961 max           0 min
Histogram: 8 4 4 0 6 10 8 2 28 34
Nghost:        3879.01 ave        5428 max         232 min
Histogram: 8 0 8 0 16 0 8 8 16 40
Neighs:        79213.4 ave      115456 max           0 min
Histogram: 8 4 4 0 10 6 8 8 24 32

Total # of neighbors = 8238195
Ave neighs/atom = 28.530447
Neighbor list builds = 0
Dangerous builds = 0
The dot product: -1.62462430880986e-07
Setting atom values ...
  1 settings made for x
  1 settings made for y
  1 settings made for z
Setting up cg style minimization ...
  Unit style    : metal
  Current step  : 880
Per MPI rank memory allocation (min/avg/max) = 5.441 | 5.816 | 6.074 Mbytes
Step PotEng KinEng TotEng v_fx v_fy v_fz 
     880   -1152449.4            0   -1152449.4 -0.011229494 -0.032428549 -0.023813125 
    1000   -1152449.4            0   -1152449.4 1.5935476e-05 5.5773232e-06 -4.027459e-05 
    1047   -1152449.4            0   -1152449.4 -1.9394284e-06 2.397611e-06 1.0535984e-05 
Loop time of 1.93963 on 104 procs for 167 steps with 288751 atoms

99.9% CPU use with 104 MPI tasks x 1 OpenMP threads

Minimization stats:
  Stopping criterion = energy tolerance
  Energy initial, next-to-last, final = 
     -1152449.43257896  -1152449.43418059  -1152449.43418059
  Force two-norm initial, final = 0.18573719 7.4140306e-05
  Force max component initial, final = 0.084942558 1.0535984e-05
  Final line search alpha, max atom move = 1.0000000 1.0535984e-05
  Iterations, force evaluations = 167 334

MPI task timing breakdown:
Section |  min time  |  avg time  |  max time  |%varavg| %total
---------------------------------------------------------------
Pair    | 0.50882    | 1.407      | 1.8293     |  31.9 | 72.54
Neigh   | 0          | 0          | 0          |   0.0 |  0.00
Comm    | 0.036842   | 0.31318    | 0.95641    |  47.3 | 16.15
Output  | 0.00013955 | 0.00014791 | 0.00029463 |   0.0 |  0.01
Modify  | 2.1388e-05 | 0.0027584  | 0.0058525  |   2.5 |  0.14
Other   |            | 0.2166     |            |       | 11.17

Nlocal:        2776.45 ave        3960 max           0 min
Histogram: 8 4 4 0 4 12 8 2 28 34
Nghost:        3879.01 ave        5429 max         232 min
Histogram: 8 0 8 0 16 0 8 8 16 40
Neighs:        79213.4 ave      115433 max           0 min
Histogram: 8 4 4 0 10 6 8 8 24 32

Total # of neighbors = 8238197
Ave neighs/atom = 28.530454
Neighbor list builds = 0
Dangerous builds = 0
The dot product: -4.38721254095447e-08
Setting atom values ...
  1 settings made for x
  1 settings made for y
  1 settings made for z
Setting up cg style minimization ...
  Unit style    : metal
  Current step  : 1047
Per MPI rank memory allocation (min/avg/max) = 5.441 | 5.816 | 6.074 Mbytes
Step PotEng KinEng TotEng v_fx v_fy v_fz 
    1047   -1152449.4            0   -1152449.4 -0.013765976 -0.030701308 -0.018499663 
    1190   -1152449.4            0   -1152449.4 -3.2175033e-06 7.6589771e-08 1.2171788e-05 
Loop time of 1.64046 on 104 procs for 143 steps with 288751 atoms

99.9% CPU use with 104 MPI tasks x 1 OpenMP threads

Minimization stats:
  Stopping criterion = energy tolerance
  Energy initial, next-to-last, final = 
     -1152449.42520708  -1152449.42677573  -1152449.42677573
  Force two-norm initial, final = 0.18367902 4.9143290e-05
  Force max component initial, final = 0.081484273 1.2171788e-05
  Final line search alpha, max atom move = 1.0000000 1.2171788e-05
  Iterations, force evaluations = 143 286

MPI task timing breakdown:
Section |  min time  |  avg time  |  max time  |%varavg| %total
---------------------------------------------------------------
Pair    | 0.43619    | 1.197      | 1.5557     |  29.5 | 72.97
Neigh   | 0          | 0          | 0          |   0.0 |  0.00
Comm    | 0.025115   | 0.26422    | 0.80617    |  44.3 | 16.11
Output  | 0          | 0          | 0          |   0.0 |  0.00
Modify  | 1.789e-05  | 0.0023519  | 0.0050204  |   2.3 |  0.14
Other   |            | 0.1769     |            |       | 10.78

Nlocal:        2776.45 ave        3960 max           0 min
Histogram: 8 4 4 0 4 12 8 2 28 34
Nghost:        3879.01 ave        5429 max         232 min
Histogram: 8 0 8 0 16 0 8 8 16 40
Neighs:        79213.4 ave      115433 max           0 min
Histogram: 8 4 4 0 10 6 8 8 24 32

Total # of neighbors = 8238198
Ave neighs/atom = 28.530457
Neighbor list builds = 0
Dangerous builds = 0
The dot product: -3.45297536390838e-08
Setting atom values ...
  1 settings made for x
  1 settings made for y
  1 settings made for z
Setting up cg style minimization ...
  Unit style    : metal
  Current step  : 1190
Per MPI rank memory allocation (min/avg/max) = 5.441 | 5.816 | 6.074 Mbytes
Step PotEng KinEng TotEng v_fx v_fy v_fz 
    1190   -1152449.4            0   -1152449.4 -0.014457086 -0.027671772 -0.012896038 
    1301   -1152449.4            0   -1152449.4 9.7478185e-07 2.6377566e-06 2.9266134e-06 
Loop time of 1.30179 on 104 procs for 111 steps with 288751 atoms

99.9% CPU use with 104 MPI tasks x 1 OpenMP threads

Minimization stats:
  Stopping criterion = energy tolerance
  Energy initial, next-to-last, final = 
      -1152449.4164146   -1152449.4179519   -1152449.4179519
  Force two-norm initial, final = 0.18160297 0.00019921301
  Force max component initial, final = 0.079072609 1.5892688e-05
  Final line search alpha, max atom move = 1.0000000 1.5892688e-05
  Iterations, force evaluations = 111 222

MPI task timing breakdown:
Section |  min time  |  avg time  |  max time  |%varavg| %total
---------------------------------------------------------------
Pair    | 0.3503     | 0.93863    | 1.2097     |  25.6 | 72.10
Neigh   | 0          | 0          | 0          |   0.0 |  0.00
Comm    | 0.022365   | 0.20763    | 0.63637    |  38.7 | 15.95
Output  | 0          | 0          | 0          |   0.0 |  0.00
Modify  | 1.4596e-05 | 0.0018321  | 0.0039007  |   2.0 |  0.14
Other   |            | 0.1537     |            |       | 11.81

Nlocal:        2776.45 ave        3959 max           0 min
Histogram: 8 4 4 0 4 12 8 2 28 34
Nghost:        3879.01 ave        5429 max         232 min
Histogram: 8 0 8 0 16 0 8 8 16 40
Neighs:        79213.5 ave      115393 max           0 min
Histogram: 8 4 4 0 10 6 8 8 24 32

Total # of neighbors = 8238199
Ave neighs/atom = 28.530461
Neighbor list builds = 0
Dangerous builds = 0
The dot product: -9.17183100305664e-09
Setting atom values ...
  1 settings made for x
  1 settings made for y
  1 settings made for z
Setting up cg style minimization ...
  Unit style    : metal
  Current step  : 1301
Per MPI rank memory allocation (min/avg/max) = 5.441 | 5.816 | 6.074 Mbytes
Step PotEng KinEng TotEng v_fx v_fy v_fz 
    1301   -1152449.4            0   -1152449.4 -0.013527937  -0.02360529 -0.0077801615 
    1425   -1152449.4            0   -1152449.4 9.5601792e-06 5.2307661e-06 -2.8112068e-05 
Loop time of 1.43951 on 104 procs for 124 steps with 288751 atoms

99.9% CPU use with 104 MPI tasks x 1 OpenMP threads

Minimization stats:
  Stopping criterion = energy tolerance
  Energy initial, next-to-last, final = 
     -1152449.40616809  -1152449.40768778  -1152449.40768778
  Force two-norm initial, final = 0.1797055 0.00013541492
  Force max component initial, final = 0.077759199 2.8112068e-05
  Final line search alpha, max atom move = 1.0000000 2.8112068e-05
  Iterations, force evaluations = 124 248

MPI task timing breakdown:
Section |  min time  |  avg time  |  max time  |%varavg| %total
---------------------------------------------------------------
Pair    | 0.37804    | 1.04       | 1.3507     |  27.5 | 72.25
Neigh   | 0          | 0          | 0          |   0.0 |  0.00
Comm    | 0.022801   | 0.23103    | 0.70255    |  41.1 | 16.05
Output  | 0          | 0          | 0          |   0.0 |  0.00
Modify  | 1.5561e-05 | 0.0020429  | 0.0043535  |   2.1 |  0.14
Other   |            | 0.1665     |            |       | 11.56

Nlocal:        2776.45 ave        3959 max           0 min
Histogram: 8 4 4 0 4 12 8 2 28 34
Nghost:        3879.01 ave        5429 max         232 min
Histogram: 8 0 8 0 16 0 8 8 16 40
Neighs:        79213.5 ave      115393 max           0 min
Histogram: 8 4 4 0 10 6 8 8 24 32

Total # of neighbors = 8238202
Ave neighs/atom = 28.530471
Neighbor list builds = 0
Dangerous builds = 0
The dot product: 2.89835608179236e-08
Setting atom values ...
  1 settings made for x
  1 settings made for y
  1 settings made for z
Setting up cg style minimization ...
  Unit style    : metal
  Current step  : 1425
Per MPI rank memory allocation (min/avg/max) = 5.441 | 5.816 | 6.074 Mbytes
Step PotEng KinEng TotEng v_fx v_fy v_fz 
    1425   -1152449.4            0   -1152449.4 -0.010677846 -0.017578236  -0.00306917 
    1573   -1152449.4            0   -1152449.4 4.672356e-06 2.3717257e-06 -1.4833839e-05 
Loop time of 1.73546 on 104 procs for 148 steps with 288751 atoms

99.9% CPU use with 104 MPI tasks x 1 OpenMP threads

Minimization stats:
  Stopping criterion = energy tolerance
  Energy initial, next-to-last, final = 
     -1152449.39446822   -1152449.3959991   -1152449.3959991
  Force two-norm initial, final = 0.17803321 0.00012873634
  Force max component initial, final = 0.077642131 1.4833839e-05
  Final line search alpha, max atom move = 1.0000000 1.4833839e-05
  Iterations, force evaluations = 148 296

MPI task timing breakdown:
Section |  min time  |  avg time  |  max time  |%varavg| %total
---------------------------------------------------------------
Pair    | 0.45187    | 1.2496     | 1.6154     |  30.1 | 72.01
Neigh   | 0          | 0          | 0          |   0.0 |  0.00
Comm    | 0.027726   | 0.27935    | 0.8443     |  44.3 | 16.10
Output  | 0          | 0          | 0          |   0.0 |  0.00
Modify  | 1.8325e-05 | 0.0024423  | 0.0051973  |   2.3 |  0.14
Other   |            | 0.204      |            |       | 11.76

Nlocal:        2776.45 ave        3957 max           0 min
Histogram: 8 4 4 0 4 12 8 2 28 34
Nghost:        3879.01 ave        5429 max         232 min
Histogram: 8 0 8 0 16 0 8 8 16 40
Neighs:        79213.5 ave      115332 max           0 min
Histogram: 8 4 4 0 10 6 8 8 24 32

Total # of neighbors = 8238203
Ave neighs/atom = 28.530474
Neighbor list builds = 0
Dangerous builds = 0
The dot product: 6.62304076918713e-09
Setting atom values ...
  1 settings made for x
  1 settings made for y
  1 settings made for z
Setting up cg style minimization ...
  Unit style    : metal
  Current step  : 1573
Per MPI rank memory allocation (min/avg/max) = 5.441 | 5.816 | 6.074 Mbytes
Step PotEng KinEng TotEng v_fx v_fy v_fz 
    1573   -1152449.4            0   -1152449.4 -0.0061322683 -0.0091464381 0.0020007687 
    1731   -1152449.4            0   -1152449.4 1.5273038e-05 9.1796173e-07 -6.9313014e-05 
Loop time of 1.82052 on 104 procs for 158 steps with 288751 atoms

99.9% CPU use with 104 MPI tasks x 1 OpenMP threads

Minimization stats:
  Stopping criterion = energy tolerance
  Energy initial, next-to-last, final = 
      -1152449.3813627  -1152449.38295871  -1152449.38295871
  Force two-norm initial, final = 0.17689121 0.00020481951
  Force max component initial, final = 0.078896399 6.9313014e-05
  Final line search alpha, max atom move = 1.0000000 6.9313014e-05
  Iterations, force evaluations = 158 316

MPI task timing breakdown:
Section |  min time  |  avg time  |  max time  |%varavg| %total
---------------------------------------------------------------
Pair    | 0.48379    | 1.329      | 1.7228     |  31.0 | 73.00
Neigh   | 0          | 0          | 0          |   0.0 |  0.00
Comm    | 0.03206    | 0.29354    | 0.89447    |  46.6 | 16.12
Output  | 0          | 0          | 0          |   0.0 |  0.00
Modify  | 2.0734e-05 | 0.0026046  | 0.0055373  |   2.4 |  0.14
Other   |            | 0.1954     |            |       | 10.73

Nlocal:        2776.45 ave        3954 max           0 min
Histogram: 8 4 4 0 4 12 8 0 30 34
Nghost:        3878.99 ave        5429 max         232 min
Histogram: 8 0 8 0 16 0 8 8 16 40
Neighs:        79213.5 ave      115243 max           0 min
Histogram: 8 4 4 0 10 6 8 8 24 32

Total # of neighbors = 8238203
Ave neighs/atom = 28.530474
Neighbor list builds = 0
Dangerous builds = 0
The dot product: -1.15940318880226e-07
Setting atom values ...
  1 settings made for x
  1 settings made for y
  1 settings made for z
Setting up cg style minimization ...
  Unit style    : metal
  Current step  : 1731
Per MPI rank memory allocation (min/avg/max) = 5.441 | 5.816 | 6.074 Mbytes
Step PotEng KinEng TotEng v_fx v_fy v_fz 
    1731   -1152449.4            0   -1152449.4 -0.00031136277 0.0030475691  0.009362309 
    1925   -1152449.4            0   -1152449.4 3.2053702e-06 -6.3468208e-07 -1.6037993e-05 
Loop time of 2.23523 on 104 procs for 194 steps with 288751 atoms

99.9% CPU use with 104 MPI tasks x 1 OpenMP threads

Minimization stats:
  Stopping criterion = energy tolerance
  Energy initial, next-to-last, final = 
     -1152449.36698044  -1152449.36886191  -1152449.36886191
  Force two-norm initial, final = 0.1767905 8.4399690e-05
  Force max component initial, final = 0.081829871 1.6088768e-05
  Final line search alpha, max atom move = 1.0000000 1.6088768e-05
  Iterations, force evaluations = 194 388

MPI task timing breakdown:
Section |  min time  |  avg time  |  max time  |%varavg| %total
---------------------------------------------------------------
Pair    | 0.59034    | 1.6321     | 2.1092     |  34.4 | 73.02
Neigh   | 0          | 0          | 0          |   0.0 |  0.00
Comm    | 0.035275   | 0.36147    | 1.105      |  51.3 | 16.17
Output  | 0          | 0          | 0          |   0.0 |  0.00
Modify  | 2.3918e-05 | 0.0031989  | 0.0068146  |   2.7 |  0.14
Other   |            | 0.2384     |            |       | 10.67

Nlocal:        2776.45 ave        3952 max           0 min
Histogram: 8 4 4 0 4 12 8 0 30 34
Nghost:        3878.97 ave        5429 max         232 min
Histogram: 8 0 8 0 16 0 8 8 16 40
Neighs:        79213.5 ave      115171 max           0 min
Histogram: 8 4 4 0 10 6 8 8 24 32

Total # of neighbors = 8238205
Ave neighs/atom = 28.530481
Neighbor list builds = 0
Dangerous builds = 0
The dot product: -1.00898820724144e-07
Setting atom values ...
  1 settings made for x
  1 settings made for y
  1 settings made for z
Setting up cg style minimization ...
  Unit style    : metal
  Current step  : 1925
Per MPI rank memory allocation (min/avg/max) = 5.441 | 5.816 | 6.074 Mbytes
Step PotEng KinEng TotEng v_fx v_fy v_fz 
    1925   -1152449.4            0   -1152449.4  0.005639701  0.022554429  0.023568513 
    2000   -1152449.4            0   -1152449.4 -5.8342446e-05 -1.2482651e-05 0.00020392483 
    2127   -1152449.4            0   -1152449.4 4.6899156e-06 3.4267372e-07 -1.7732333e-05 
Loop time of 2.31362 on 104 procs for 202 steps with 288751 atoms

99.9% CPU use with 104 MPI tasks x 1 OpenMP threads

Minimization stats:
  Stopping criterion = energy tolerance
  Energy initial, next-to-last, final = 
     -1152449.35179016  -1152449.35391496  -1152449.35391496
  Force two-norm initial, final = 0.17934596 9.5705370e-05
  Force max component initial, final = 0.086954908 2.1068080e-05
  Final line search alpha, max atom move = 1.0000000 2.1068080e-05
  Iterations, force evaluations = 202 404

MPI task timing breakdown:
Section |  min time  |  avg time  |  max time  |%varavg| %total
---------------------------------------------------------------
Pair    | 0.61412    | 1.6887     | 2.1943     |  35.0 | 72.99
Neigh   | 0          | 0          | 0          |   0.0 |  0.00
Comm    | 0.039117   | 0.37245    | 1.1344     |  52.4 | 16.10
Output  | 9.1268e-05 | 9.8957e-05 | 0.00021055 |   0.0 |  0.00
Modify  | 2.5153e-05 | 0.0033213  | 0.0070962  |   2.7 |  0.14
Other   |            | 0.2491     |            |       | 10.77

Nlocal:        2776.45 ave        3951 max           0 min
Histogram: 8 4 4 0 4 12 8 0 30 34
Nghost:        3878.99 ave        5428 max         232 min
Histogram: 8 0 8 0 16 0 8 8 16 40
Neighs:        79213.5 ave      115143 max           0 min
Histogram: 8 4 4 0 10 6 8 8 24 32

Total # of neighbors = 8238204
Ave neighs/atom = 28.530478
Neighbor list builds = 0
Dangerous builds = 0
The dot product: -1.49116946269239e-07
Setting atom values ...
  1 settings made for x
  1 settings made for y
  1 settings made for z
Setting up cg style minimization ...
  Unit style    : metal
  Current step  : 2127
Per MPI rank memory allocation (min/avg/max) = 5.441 | 5.816 | 6.074 Mbytes
Step PotEng KinEng TotEng v_fx v_fy v_fz 
    2127   -1152449.3            0   -1152449.3 0.0072860755  0.037681908  0.031095861 
    2303   -1152449.3            0   -1152449.3 -2.5344001e-05 -9.352849e-07 8.3979802e-05 
Loop time of 2.02499 on 104 procs for 176 steps with 288751 atoms

99.9% CPU use with 104 MPI tasks x 1 OpenMP threads

Minimization stats:
  Stopping criterion = energy tolerance
  Energy initial, next-to-last, final = 
     -1152449.33585423  -1152449.33815412  -1152449.33815412
  Force two-norm initial, final = 0.18284108 0.00028090571
  Force max component initial, final = 0.093542951 8.3979802e-05
  Final line search alpha, max atom move = 1.0000000 8.3979802e-05
  Iterations, force evaluations = 176 352

MPI task timing breakdown:
Section |  min time  |  avg time  |  max time  |%varavg| %total
---------------------------------------------------------------
Pair    | 0.53729    | 1.4797     | 1.9208     |  32.7 | 73.07
Neigh   | 0          | 0          | 0          |   0.0 |  0.00
Comm    | 0.035955   | 0.32701    | 0.99865    |  48.9 | 16.15
Output  | 0          | 0          | 0          |   0.0 |  0.00
Modify  | 2.2451e-05 | 0.0029023  | 0.0061692  |   2.5 |  0.14
Other   |            | 0.2154     |            |       | 10.64

Nlocal:        2776.45 ave        3952 max           0 min
Histogram: 8 4 4 0 4 12 8 0 30 34
Nghost:        3879.07 ave        5424 max         232 min
Histogram: 8 0 8 0 16 0 8 8 16 40
Neighs:        79213.5 ave      115187 max           0 min
Histogram: 8 4 4 0 10 6 8 8 24 32

Total # of neighbors = 8238205
Ave neighs/atom = 28.530481
Neighbor list builds = 0
Dangerous builds = 0
The dot product: 7.44500035904372e-07
Setting atom values ...
  1 settings made for x
  1 settings made for y
  1 settings made for z
Setting up cg style minimization ...
  Unit style    : metal
  Current step  : 2303
Per MPI rank memory allocation (min/avg/max) = 5.441 | 5.816 | 6.074 Mbytes
Step PotEng KinEng TotEng v_fx v_fy v_fz 
    2303   -1152449.3            0   -1152449.3 0.0058105033  0.042150098  0.028565612 
    2498   -1152449.3            0   -1152449.3 9.3373566e-06 -2.7775038e-06 -3.0743635e-05 
Loop time of 2.25629 on 104 procs for 195 steps with 288751 atoms

99.9% CPU use with 104 MPI tasks x 1 OpenMP threads

Minimization stats:
  Stopping criterion = energy tolerance
  Energy initial, next-to-last, final = 
     -1152449.31902334  -1152449.32121034  -1152449.32121034
  Force two-norm initial, final = 0.18308157 0.00013150611
  Force max component initial, final = 0.099823607 3.0743635e-05
  Final line search alpha, max atom move = 1.0000000 3.0743635e-05
  Iterations, force evaluations = 195 390

MPI task timing breakdown:
Section |  min time  |  avg time  |  max time  |%varavg| %total
---------------------------------------------------------------
Pair    | 0.59364    | 1.6321     | 2.1248     |  34.5 | 72.33
Neigh   | 0          | 0          | 0          |   0.0 |  0.00
Comm    | 0.035417   | 0.36311    | 1.0996     |  51.3 | 16.09
Output  | 0          | 0          | 0          |   0.0 |  0.00
Modify  | 2.4435e-05 | 0.0032097  | 0.0068402  |   2.7 |  0.14
Other   |            | 0.2579     |            |       | 11.43

Nlocal:        2776.45 ave        3954 max           0 min
Histogram: 8 4 4 0 4 12 8 0 30 34
Nghost:        3879.11 ave        5424 max         232 min
Histogram: 8 0 8 0 16 0 8 8 16 40
Neighs:        79213.5 ave      115266 max           0 min
Histogram: 8 4 4 0 10 6 8 8 24 32

Total # of neighbors = 8238204
Ave neighs/atom = 28.530478
Neighbor list builds = 0
Dangerous builds = 0
The dot product: -2.90356658408675e-07
Setting atom values ...
  1 settings made for x
  1 settings made for y
  1 settings made for z
Setting up cg style minimization ...
  Unit style    : metal
  Current step  : 2498
Per MPI rank memory allocation (min/avg/max) = 5.441 | 5.816 | 6.074 Mbytes
Step PotEng KinEng TotEng v_fx v_fy v_fz 
    2498   -1152449.3            0   -1152449.3 0.0038913998  0.039022111  0.021831408 
    2688   -1152449.3            0   -1152449.3 -5.8678283e-06 3.1158082e-06 1.8456951e-05 
Loop time of 2.18947 on 104 procs for 190 steps with 288751 atoms

99.9% CPU use with 104 MPI tasks x 1 OpenMP threads

Minimization stats:
  Stopping criterion = energy tolerance
  Energy initial, next-to-last, final = 
     -1152449.30089129  -1152449.30295188  -1152449.30295188
  Force two-norm initial, final = 0.18108718 0.00014205933
  Force max component initial, final = 0.10521929 2.1427787e-05
  Final line search alpha, max atom move = 1.0000000 2.1427787e-05
  Iterations, force evaluations = 190 380

MPI task timing breakdown:
Section |  min time  |  avg time  |  max time  |%varavg| %total
---------------------------------------------------------------
Pair    | 0.5781     | 1.5965     | 2.0681     |  34.0 | 72.92
Neigh   | 0          | 0          | 0          |   0.0 |  0.00
Comm    | 0.042347   | 0.35367    | 1.0825     |  50.7 | 16.15
Output  | 0          | 0          | 0          |   0.0 |  0.00
Modify  | 2.3948e-05 | 0.0031315  | 0.0067067  |   2.6 |  0.14
Other   |            | 0.2361     |            |       | 10.78

Nlocal:        2776.45 ave        3955 max           0 min
Histogram: 8 4 4 0 4 12 8 0 30 34
Nghost:        3879.12 ave        5424 max         232 min
Histogram: 8 0 8 0 16 0 8 8 16 40
Neighs:        79213.5 ave      115290 max           0 min
Histogram: 8 4 4 0 10 6 8 8 24 32

Total # of neighbors = 8238209
Ave neighs/atom = 28.530495
Neighbor list builds = 0
Dangerous builds = 0
The dot product: 1.77413268110613e-07
Setting atom values ...
  1 settings made for x
  1 settings made for y
  1 settings made for z
Setting up cg style minimization ...
  Unit style    : metal
  Current step  : 2688
Per MPI rank memory allocation (min/avg/max) = 5.441 | 5.816 | 6.074 Mbytes
Step PotEng KinEng TotEng v_fx v_fy v_fz 
    2688   -1152449.3            0   -1152449.3 0.0019725748  0.033482889  0.016887385 
    2875   -1152449.3            0   -1152449.3 6.6491205e-06 3.4048619e-06 -1.44885e-05 
Loop time of 2.14192 on 104 procs for 187 steps with 288751 atoms

99.9% CPU use with 104 MPI tasks x 1 OpenMP threads

Minimization stats:
  Stopping criterion = energy tolerance
  Energy initial, next-to-last, final = 
     -1152449.28142697   -1152449.2834269   -1152449.2834269
  Force two-norm initial, final = 0.17884557 0.00015079331
  Force max component initial, final = 0.10943183 2.0879603e-05
  Final line search alpha, max atom move = 1.0000000 2.0879603e-05
  Iterations, force evaluations = 187 374

MPI task timing breakdown:
Section |  min time  |  avg time  |  max time  |%varavg| %total
---------------------------------------------------------------
Pair    | 0.56683    | 1.5628     | 2.0309     |  33.7 | 72.96
Neigh   | 0          | 0          | 0          |   0.0 |  0.00
Comm    | 0.035873   | 0.34538    | 1.0515     |  50.5 | 16.12
Output  | 0          | 0          | 0          |   0.0 |  0.00
Modify  | 2.4012e-05 | 0.0030779  | 0.006555   |   2.6 |  0.14
Other   |            | 0.2306     |            |       | 10.77

Nlocal:        2776.45 ave        3955 max           0 min
Histogram: 8 4 4 0 4 12 8 0 30 34
Nghost:        3879.13 ave        5424 max         232 min
Histogram: 8 0 8 0 16 0 8 8 16 40
Neighs:        79213.6 ave      115292 max           0 min
Histogram: 8 4 4 0 10 6 8 8 24 32

Total # of neighbors = 8238212
Ave neighs/atom = 28.530506
Neighbor list builds = 0
Dangerous builds = 0
The dot product: -7.79490098677159e-08
Setting atom values ...
  1 settings made for x
  1 settings made for y
  1 settings made for z
Setting up cg style minimization ...
  Unit style    : metal
  Current step  : 2875
Per MPI rank memory allocation (min/avg/max) = 5.441 | 5.816 | 6.074 Mbytes
Step PotEng KinEng TotEng v_fx v_fy v_fz 
    2875   -1152449.3            0   -1152449.3 -0.00020968559  0.027823395  0.015088468 
    3000   -1152449.3            0   -1152449.3 -0.00010491609 -1.5123863e-06 0.00024580449 
    3072   -1152449.3            0   -1152449.3 -1.119969e-05 8.4867191e-07 2.6769276e-05 
Loop time of 2.30098 on 104 procs for 197 steps with 288751 atoms

99.9% CPU use with 104 MPI tasks x 1 OpenMP threads

Minimization stats:
  Stopping criterion = energy tolerance
  Energy initial, next-to-last, final = 
     -1152449.26076674  -1152449.26268408  -1152449.26268408
  Force two-norm initial, final = 0.17684145 0.00011814052
  Force max component initial, final = 0.11284436 2.6769276e-05
  Final line search alpha, max atom move = 1.0000000 2.6769276e-05
  Iterations, force evaluations = 197 394

MPI task timing breakdown:
Section |  min time  |  avg time  |  max time  |%varavg| %total
---------------------------------------------------------------
Pair    | 0.59826    | 1.665      | 2.1617     |  34.9 | 72.36
Neigh   | 0          | 0          | 0          |   0.0 |  0.00
Comm    | 0.035365   | 0.37183    | 1.1215     |  51.0 | 16.16
Output  | 0.00014944 | 0.00015866 | 0.00028707 |   0.0 |  0.01
Modify  | 2.5285e-05 | 0.0032494  | 0.0069281  |   2.7 |  0.14
Other   |            | 0.2607     |            |       | 11.33

Nlocal:        2776.45 ave        3955 max           0 min
Histogram: 8 4 4 0 4 12 8 0 30 34
Nghost:        3879.13 ave        5424 max         232 min
Histogram: 8 0 8 0 16 0 8 8 16 40
Neighs:        79213.6 ave      115292 max           0 min
Histogram: 8 4 4 0 10 6 8 8 24 32

Total # of neighbors = 8238217
Ave neighs/atom = 28.530523
Neighbor list builds = 0
Dangerous builds = 0
The dot product: 2.21782077418268e-07
Setting atom values ...
  1 settings made for x
  1 settings made for y
  1 settings made for z
Setting up cg style minimization ...
  Unit style    : metal
  Current step  : 3072
Per MPI rank memory allocation (min/avg/max) = 5.441 | 5.816 | 6.074 Mbytes
Step PotEng KinEng TotEng v_fx v_fy v_fz 
    3072   -1152449.2            0   -1152449.2 -0.0019575523  0.022697621  0.014141532 
    3304   -1152449.2            0   -1152449.2 -6.2532814e-07 3.7621009e-07 1.545583e-06 
Loop time of 2.69428 on 104 procs for 232 steps with 288751 atoms

99.9% CPU use with 104 MPI tasks x 1 OpenMP threads

Minimization stats:
  Stopping criterion = energy tolerance
  Energy initial, next-to-last, final = 
      -1152449.2388591  -1152449.24073899  -1152449.24073899
  Force two-norm initial, final = 0.17521321 2.9221060e-05
  Force max component initial, final = 0.11584094 6.3011660e-06
  Final line search alpha, max atom move = 1.0000000 6.3011660e-06
  Iterations, force evaluations = 232 464

MPI task timing breakdown:
Section |  min time  |  avg time  |  max time  |%varavg| %total
---------------------------------------------------------------
Pair    | 0.70604    | 1.9504     | 2.5456     |  37.8 | 72.39
Neigh   | 0          | 0          | 0          |   0.0 |  0.00
Comm    | 0.050257   | 0.43371    | 1.3138     |  56.0 | 16.10
Output  | 0          | 0          | 0          |   0.0 |  0.00
Modify  | 2.8521e-05 | 0.0038186  | 0.0081414  |   2.9 |  0.14
Other   |            | 0.3063     |            |       | 11.37

Nlocal:        2776.45 ave        3955 max           0 min
Histogram: 8 4 4 0 4 12 8 0 30 34
Nghost:        3879.13 ave        5424 max         232 min
Histogram: 8 0 8 0 16 0 8 8 16 40
Neighs:        79213.6 ave      115296 max           0 min
Histogram: 8 4 4 0 10 6 8 8 24 32

Total # of neighbors = 8238212
Ave neighs/atom = 28.530506
Neighbor list builds = 0
Dangerous builds = 0
The dot product: 1.63973287215445e-08
Setting atom values ...
  1 settings made for x
  1 settings made for y
  1 settings made for z
Setting up cg style minimization ...
  Unit style    : metal
  Current step  : 3304
Per MPI rank memory allocation (min/avg/max) = 5.441 | 5.816 | 6.074 Mbytes
Step PotEng KinEng TotEng v_fx v_fy v_fz 
    3304   -1152449.2            0   -1152449.2 -0.0040802531  0.019863459  0.015664204 
    3482   -1152449.2            0   -1152449.2 -2.3902613e-05 -7.4541863e-07 4.9489813e-05 
Loop time of 2.04491 on 104 procs for 178 steps with 288751 atoms

99.9% CPU use with 104 MPI tasks x 1 OpenMP threads

Minimization stats:
  Stopping criterion = energy tolerance
  Energy initial, next-to-last, final = 
      -1152449.2157989  -1152449.21781906  -1152449.21781906
  Force two-norm initial, final = 0.1742382 0.00021235674
  Force max component initial, final = 0.11864183 5.1709903e-05
  Final line search alpha, max atom move = 1.0000000 5.1709903e-05
  Iterations, force evaluations = 178 356

MPI task timing breakdown:
Section |  min time  |  avg time  |  max time  |%varavg| %total
---------------------------------------------------------------
Pair    | 0.54247    | 1.4997     | 1.9392     |  32.9 | 73.34
Neigh   | 0          | 0          | 0          |   0.0 |  0.00
Comm    | 0.031534   | 0.33221    | 1.0114     |  49.1 | 16.25
Output  | 0          | 0          | 0          |   0.0 |  0.00
Modify  | 2.3197e-05 | 0.0029285  | 0.0062647  |   2.6 |  0.14
Other   |            | 0.2101     |            |       | 10.27

Nlocal:        2776.45 ave        3955 max           0 min
Histogram: 8 4 4 0 4 12 8 0 30 34
Nghost:        3879.12 ave        5424 max         232 min
Histogram: 8 0 8 0 16 0 8 8 16 40
Neighs:        79213.6 ave      115292 max           0 min
Histogram: 8 4 4 0 10 6 8 8 24 32

Total # of neighbors = 8238211
Ave neighs/atom = 28.530502
Neighbor list builds = 0
Dangerous builds = 0
The dot product: 5.85255242991609e-07
Setting atom values ...
  1 settings made for x
  1 settings made for y
  1 settings made for z
Setting up cg style minimization ...
  Unit style    : metal
  Current step  : 3482
Per MPI rank memory allocation (min/avg/max) = 5.441 | 5.816 | 6.074 Mbytes
Step PotEng KinEng TotEng v_fx v_fy v_fz 
    3482   -1152449.2            0   -1152449.2 -0.0086007772  0.021700633  0.023059995 
    3664   -1152449.2            0   -1152449.2 -1.633431e-05 -3.1097448e-06 3.0707177e-05 
Loop time of 2.11948 on 104 procs for 182 steps with 288751 atoms

99.9% CPU use with 104 MPI tasks x 1 OpenMP threads

Minimization stats:
  Stopping criterion = energy tolerance
  Energy initial, next-to-last, final = 
     -1152449.19206292   -1152449.1942826   -1152449.1942826
  Force two-norm initial, final = 0.17437216 0.00015486179
  Force max component initial, final = 0.12118224 3.0707177e-05
  Final line search alpha, max atom move = 1.0000000 3.0707177e-05
  Iterations, force evaluations = 182 364

MPI task timing breakdown:
Section |  min time  |  avg time  |  max time  |%varavg| %total
---------------------------------------------------------------
Pair    | 0.55433    | 1.5311     | 1.9927     |  33.4 | 72.24
Neigh   | 0          | 0          | 0          |   0.0 |  0.00
Comm    | 0.031503   | 0.34163    | 1.0412     |  49.8 | 16.12
Output  | 0          | 0          | 0          |   0.0 |  0.00
Modify  | 2.2595e-05 | 0.0030025  | 0.0063961  |   2.6 |  0.14
Other   |            | 0.2437     |            |       | 11.50

Nlocal:        2776.45 ave        3955 max           0 min
Histogram: 8 4 4 0 4 12 8 0 30 34
Nghost:        3879.10 ave        5424 max         232 min
Histogram: 8 0 8 0 16 0 8 8 16 40
Neighs:        79213.6 ave      115295 max           0 min
Histogram: 8 4 4 0 10 6 8 8 24 32

Total # of neighbors = 8238212
Ave neighs/atom = 28.530506
Neighbor list builds = 0
Dangerous builds = 0
The dot product: 4.53083107113548e-07
Setting atom values ...
  1 settings made for x
  1 settings made for y
  1 settings made for z
Setting up cg style minimization ...
  Unit style    : metal
  Current step  : 3664
Per MPI rank memory allocation (min/avg/max) = 5.441 | 5.816 | 6.074 Mbytes
Step PotEng KinEng TotEng v_fx v_fy v_fz 
    3664   -1152449.2            0   -1152449.2 -0.013466387  0.024940139  0.029738513 
    3887   -1152449.2            0   -1152449.2 1.2454993e-06 1.0287778e-06 -1.9787577e-06 
Loop time of 2.56991 on 104 procs for 223 steps with 288751 atoms

99.9% CPU use with 104 MPI tasks x 1 OpenMP threads

Minimization stats:
  Stopping criterion = energy tolerance
  Energy initial, next-to-last, final = 
     -1152449.16788538  -1152449.17007078  -1152449.17007078
  Force two-norm initial, final = 0.17517503 4.1649738e-05
  Force max component initial, final = 0.12386792 5.0472673e-06
  Final line search alpha, max atom move = 1.0000000 5.0472673e-06
  Iterations, force evaluations = 223 446

MPI task timing breakdown:
Section |  min time  |  avg time  |  max time  |%varavg| %total
---------------------------------------------------------------
Pair    | 0.67732    | 1.8724     | 2.4328     |  36.8 | 72.86
Neigh   | 0          | 0          | 0          |   0.0 |  0.00
Comm    | 0.040624   | 0.4148     | 1.2541     |  54.7 | 16.14
Output  | 0          | 0          | 0          |   0.0 |  0.00
Modify  | 2.9278e-05 | 0.0036681  | 0.0078572  |   2.9 |  0.14
Other   |            | 0.2791     |            |       | 10.86

Nlocal:        2776.45 ave        3955 max           0 min
Histogram: 8 4 4 0 4 12 8 0 30 34
Nghost:        3879.06 ave        5424 max         232 min
Histogram: 8 0 8 0 16 0 8 8 16 40
Neighs:        79213.6 ave      115289 max           0 min
Histogram: 8 4 4 0 10 6 8 8 24 32

Total # of neighbors = 8238215
Ave neighs/atom = 28.530516
Neighbor list builds = 0
Dangerous builds = 0
The dot product: -2.40825888811104e-08
Setting atom values ...
  1 settings made for x
  1 settings made for y
  1 settings made for z
Setting up cg style minimization ...
  Unit style    : metal
  Current step  : 3887
Per MPI rank memory allocation (min/avg/max) = 5.441 | 5.816 | 6.074 Mbytes
Step PotEng KinEng TotEng v_fx v_fy v_fz 
    3887   -1152449.1            0   -1152449.1 -0.014509403  0.023750152   0.02816969 
    4000   -1152449.1            0   -1152449.1 9.4107637e-05 -3.4979652e-06 -0.00015564362 
    4061   -1152449.1            0   -1152449.1 -4.0026357e-05 -9.1320642e-06 6.4289981e-05 
Loop time of 1.99928 on 104 procs for 174 steps with 288751 atoms

99.9% CPU use with 104 MPI tasks x 1 OpenMP threads

Minimization stats:
  Stopping criterion = energy tolerance
  Energy initial, next-to-last, final = 
     -1152449.14281784    -1152449.144875    -1152449.144875
  Force two-norm initial, final = 0.17468545 0.00021610881
  Force max component initial, final = 0.12696147 6.4289981e-05
  Final line search alpha, max atom move = 1.0000000 6.4289981e-05
  Iterations, force evaluations = 174 348

MPI task timing breakdown:
Section |  min time  |  avg time  |  max time  |%varavg| %total
---------------------------------------------------------------
Pair    | 0.52854    | 1.4574     | 1.8929     |  32.6 | 72.89
Neigh   | 0          | 0          | 0          |   0.0 |  0.00
Comm    | 0.031254   | 0.32266    | 0.98232    |  48.8 | 16.14
Output  | 0.0001016  | 0.00011044 | 0.00024911 |   0.0 |  0.01
Modify  | 2.2002e-05 | 0.0028614  | 0.0061342  |   2.5 |  0.14
Other   |            | 0.2163     |            |       | 10.82

Nlocal:        2776.45 ave        3954 max           0 min
Histogram: 8 4 4 0 4 12 8 0 30 34
Nghost:        3879.03 ave        5424 max         232 min
Histogram: 8 0 8 0 16 0 8 8 16 40
Neighs:        79213.6 ave      115257 max           0 min
Histogram: 8 4 4 0 10 6 8 8 24 32

Total # of neighbors = 8238215
Ave neighs/atom = 28.530516
Neighbor list builds = 0
Dangerous builds = 0
The dot product: 9.1012235351439e-07
Setting atom values ...
  1 settings made for x
  1 settings made for y
  1 settings made for z
Setting up cg style minimization ...
  Unit style    : metal
  Current step  : 4061
Per MPI rank memory allocation (min/avg/max) = 5.441 | 5.816 | 6.074 Mbytes
Step PotEng KinEng TotEng v_fx v_fy v_fz 
    4061   -1152449.1            0   -1152449.1  -0.01355506  0.020298372  0.023774624 
    4259   -1152449.1            0   -1152449.1 1.4936491e-07 2.0042968e-07 -2.020367e-07 
Loop time of 2.29516 on 104 procs for 198 steps with 288751 atoms

99.9% CPU use with 104 MPI tasks x 1 OpenMP threads

Minimization stats:
  Stopping criterion = energy tolerance
  Energy initial, next-to-last, final = 
     -1152449.11663696  -1152449.11850342  -1152449.11850342
  Force two-norm initial, final = 0.17382267 9.4924957e-05
  Force max component initial, final = 0.12988403 8.0456225e-06
  Final line search alpha, max atom move = 1.0000000 8.0456225e-06
  Iterations, force evaluations = 198 396

MPI task timing breakdown:
Section |  min time  |  avg time  |  max time  |%varavg| %total
---------------------------------------------------------------
Pair    | 0.6022     | 1.6668     | 2.1664     |  34.8 | 72.62
Neigh   | 0          | 0          | 0          |   0.0 |  0.00
Comm    | 0.038282   | 0.36893    | 1.1151     |  51.7 | 16.07
Output  | 0          | 0          | 0          |   0.0 |  0.00
Modify  | 2.527e-05  | 0.0032638  | 0.0069427  |   2.7 |  0.14
Other   |            | 0.2562     |            |       | 11.16

Nlocal:        2776.45 ave        3955 max           0 min
Histogram: 8 4 4 0 4 12 8 0 30 34
Nghost:        3879.03 ave        5424 max         232 min
Histogram: 8 0 8 0 16 0 8 8 16 40
Neighs:        79213.6 ave      115288 max           0 min
Histogram: 8 4 4 0 10 6 8 8 24 32

Total # of neighbors = 8238213
Ave neighs/atom = 28.530509
Neighbor list builds = 0
Dangerous builds = 0
The dot product: -1.63988149862853e-09
Setting atom values ...
  1 settings made for x
  1 settings made for y
  1 settings made for z
Setting up cg style minimization ...
  Unit style    : metal
  Current step  : 4259
Per MPI rank memory allocation (min/avg/max) = 5.441 | 5.816 | 6.074 Mbytes
Step PotEng KinEng TotEng v_fx v_fy v_fz 
    4259   -1152449.1            0   -1152449.1 -0.010940513  0.015850488  0.017824101 
    4430   -1152449.1            0   -1152449.1 -2.1201149e-06 -3.051958e-06 2.7534275e-06 
Loop time of 1.97412 on 104 procs for 171 steps with 288751 atoms

99.9% CPU use with 104 MPI tasks x 1 OpenMP threads

Minimization stats:
  Stopping criterion = energy tolerance
  Energy initial, next-to-last, final = 
       -1152449.089115  -1152449.09085034  -1152449.09085034
  Force two-norm initial, final = 0.17328331 0.00018930598
  Force max component initial, final = 0.13281686 3.2480217e-05
  Final line search alpha, max atom move = 1.0000000 3.2480217e-05
  Iterations, force evaluations = 171 342

MPI task timing breakdown:
Section |  min time  |  avg time  |  max time  |%varavg| %total
---------------------------------------------------------------
Pair    | 0.52274    | 1.4318     | 1.8632     |  32.2 | 72.53
Neigh   | 0          | 0          | 0          |   0.0 |  0.00
Comm    | 0.035155   | 0.31804    | 0.96881    |  48.1 | 16.11
Output  | 0          | 0          | 0          |   0.0 |  0.00
Modify  | 2.2328e-05 | 0.0028113  | 0.0060247  |   2.5 |  0.14
Other   |            | 0.2215     |            |       | 11.22

Nlocal:        2776.45 ave        3955 max           0 min
Histogram: 8 4 4 0 4 12 8 0 30 34
Nghost:        3879.06 ave        5425 max         232 min
Histogram: 8 0 8 0 16 0 8 8 16 40
Neighs:        79213.6 ave      115291 max           0 min
Histogram: 8 4 4 0 10 6 8 8 24 32

Total # of neighbors = 8238213
Ave neighs/atom = 28.530509
Neighbor list builds = 0
Dangerous builds = 0
The dot product: 1.94018122675116e-08
Setting atom values ...
  1 settings made for x
  1 settings made for y
  1 settings made for z
Setting up cg style minimization ...
  Unit style    : metal
  Current step  : 4430
Per MPI rank memory allocation (min/avg/max) = 5.441 | 5.816 | 6.074 Mbytes
Step PotEng KinEng TotEng v_fx v_fy v_fz 
    4430   -1152449.1            0   -1152449.1 -0.0080789862  0.011368612   0.01244102 
    4643   -1152449.1            0   -1152449.1 -5.9736707e-06 -9.7264948e-07 8.2950128e-06 
Loop time of 2.45594 on 104 procs for 213 steps with 288751 atoms

99.9% CPU use with 104 MPI tasks x 1 OpenMP threads

Minimization stats:
  Stopping criterion = energy tolerance
  Energy initial, next-to-last, final = 
     -1152449.06025168  -1152449.06190968  -1152449.06190968
  Force two-norm initial, final = 0.17330099 5.7380786e-05
  Force max component initial, final = 0.13544409 8.2950128e-06
  Final line search alpha, max atom move = 1.0000000 8.2950128e-06
  Iterations, force evaluations = 213 426

MPI task timing breakdown:
Section |  min time  |  avg time  |  max time  |%varavg| %total
---------------------------------------------------------------
Pair    | 0.64927    | 1.799      | 2.3287     |  36.1 | 73.25
Neigh   | 0          | 0          | 0          |   0.0 |  0.00
Comm    | 0.041076   | 0.39784    | 1.2087     |  53.7 | 16.20
Output  | 0          | 0          | 0          |   0.0 |  0.00
Modify  | 2.6702e-05 | 0.0035031  | 0.0074768  |   2.8 |  0.14
Other   |            | 0.2556     |            |       | 10.41

Nlocal:        2776.45 ave        3956 max           0 min
Histogram: 8 4 4 0 4 12 8 0 30 34
Nghost:        3879.02 ave        5425 max         232 min
Histogram: 8 0 8 0 16 0 8 8 16 40
Neighs:        79213.6 ave      115330 max           0 min
Histogram: 8 4 4 0 10 6 8 8 24 32

Total # of neighbors = 8238214
Ave neighs/atom = 28.530512
Neighbor list builds = 0
Dangerous builds = 0
The dot product: 7.64106627065476e-08
Setting atom values ...
  1 settings made for x
  1 settings made for y
  1 settings made for z
Setting up cg style minimization ...
  Unit style    : metal
  Current step  : 4643
Per MPI rank memory allocation (min/avg/max) = 5.441 | 5.816 | 6.074 Mbytes
Step PotEng KinEng TotEng v_fx v_fy v_fz 
    4643     -1152449            0     -1152449 -0.0055537276 0.0074675616 0.0081796927 
    4827     -1152449            0     -1152449 -6.5143211e-06 -2.1635931e-06 8.668665e-06 
Loop time of 2.12238 on 104 procs for 184 steps with 288751 atoms

99.9% CPU use with 104 MPI tasks x 1 OpenMP threads

Minimization stats:
  Stopping criterion = linesearch alpha is zero
  Energy initial, next-to-last, final = 
     -1152449.03009597  -1152449.03173723  -1152449.03173723
  Force two-norm initial, final = 0.17385958 0.00014701644
  Force max component initial, final = 0.13790228 9.6798746e-06
  Final line search alpha, max atom move = 0.5 4.8399373e-06
  Iterations, force evaluations = 184 369

MPI task timing breakdown:
Section |  min time  |  avg time  |  max time  |%varavg| %total
---------------------------------------------------------------
Pair    | 0.562      | 1.5447     | 2.0116     |  33.5 | 72.78
Neigh   | 0          | 0          | 0          |   0.0 |  0.00
Comm    | 0.036494   | 0.34205    | 1.0361     |  49.8 | 16.12
Output  | 0          | 0          | 0          |   0.0 |  0.00
Modify  | 2.3567e-05 | 0.0030356  | 0.0064905  |   2.6 |  0.14
Other   |            | 0.2326     |            |       | 10.96

Nlocal:        2776.45 ave        3957 max           0 min
Histogram: 8 4 4 0 4 12 8 2 28 34
Nghost:        3878.98 ave        5425 max         232 min
Histogram: 8 0 8 0 16 0 8 8 16 40
Neighs:        79213.6 ave      115374 max           0 min
Histogram: 8 4 4 0 10 6 8 8 24 32

Total # of neighbors = 8238218
Ave neighs/atom = 28.530526
Neighbor list builds = 0
Dangerous builds = 0
The dot product: 6.9620395254492e-08
Setting atom values ...
  1 settings made for x
  1 settings made for y
  1 settings made for z
Setting up cg style minimization ...
  Unit style    : metal
  Current step  : 4827
Per MPI rank memory allocation (min/avg/max) = 5.441 | 5.816 | 6.074 Mbytes
Step PotEng KinEng TotEng v_fx v_fy v_fz 
    4827     -1152449            0     -1152449 -0.0036393157 0.0045691289 0.0051648568 
    5000     -1152449            0     -1152449 -2.9367443e-05 -4.3924819e-06 3.8485627e-05 
    5002     -1152449            0     -1152449 -1.1870872e-05 -3.8429602e-06 1.5396673e-05 
Loop time of 2.02148 on 104 procs for 175 steps with 288751 atoms

99.9% CPU use with 104 MPI tasks x 1 OpenMP threads

Minimization stats:
  Stopping criterion = energy tolerance
  Energy initial, next-to-last, final = 
     -1152448.99879914  -1152449.00044789  -1152449.00044789
  Force two-norm initial, final = 0.17459638 0.00018620968
  Force max component initial, final = 0.14001749 2.0560019e-05
  Final line search alpha, max atom move = 1.0000000 2.0560019e-05
  Iterations, force evaluations = 175 350

MPI task timing breakdown:
Section |  min time  |  avg time  |  max time  |%varavg| %total
---------------------------------------------------------------
Pair    | 0.53163    | 1.4736     | 1.9063     |  32.7 | 72.90
Neigh   | 0          | 0          | 0          |   0.0 |  0.00
Comm    | 0.031259   | 0.33019    | 0.99587    |  48.2 | 16.33
Output  | 0.00014893 | 0.00015182 | 0.00030046 |   0.0 |  0.01
Modify  | 2.3373e-05 | 0.0028846  | 0.0061579  |   2.5 |  0.14
Other   |            | 0.2146     |            |       | 10.62

Nlocal:        2776.45 ave        3957 max           0 min
Histogram: 8 4 4 0 4 12 8 2 28 34
Nghost:        3878.94 ave        5425 max         232 min
Histogram: 8 0 8 0 16 0 8 8 16 40
Neighs:        79213.6 ave      115373 max           0 min
Histogram: 8 4 4 0 10 6 8 8 24 32

Total # of neighbors = 8238216
Ave neighs/atom = 28.530519
Neighbor list builds = 0
Dangerous builds = 0
The dot product: 1.13332324559289e-07
Setting atom values ...
  1 settings made for x
  1 settings made for y
  1 settings made for z
Setting up cg style minimization ...
  Unit style    : metal
  Current step  : 5002
Per MPI rank memory allocation (min/avg/max) = 5.441 | 5.816 | 6.074 Mbytes
Step PotEng KinEng TotEng v_fx v_fy v_fz 
    5002     -1152449            0     -1152449 -0.0018703094 0.0025527967 0.0026013502 
    5183     -1152449            0     -1152449 -1.1440363e-05 -2.1450282e-06 1.4618863e-05 
Loop time of 2.09219 on 104 procs for 181 steps with 288751 atoms

99.9% CPU use with 104 MPI tasks x 1 OpenMP threads

Minimization stats:
  Stopping criterion = energy tolerance
  Energy initial, next-to-last, final = 
       -1152448.966442  -1152448.96810043  -1152448.96810043
  Force two-norm initial, final = 0.17545196 0.0001668723
  Force max component initial, final = 0.14193382 2.2273861e-05
  Final line search alpha, max atom move = 1.0000000 2.2273861e-05
  Iterations, force evaluations = 181 362

MPI task timing breakdown:
Section |  min time  |  avg time  |  max time  |%varavg| %total
---------------------------------------------------------------
Pair    | 0.55138    | 1.521      | 1.9814     |  33.3 | 72.70
Neigh   | 0          | 0          | 0          |   0.0 |  0.00
Comm    | 0.032489   | 0.3383     | 1.0258     |  49.7 | 16.17
Output  | 0          | 0          | 0          |   0.0 |  0.00
Modify  | 2.2799e-05 | 0.0029863  | 0.0063413  |   2.6 |  0.14
Other   |            | 0.2299     |            |       | 10.99

Nlocal:        2776.45 ave        3957 max           0 min
Histogram: 8 4 4 0 4 12 8 2 28 34
Nghost:        3878.92 ave        5425 max         232 min
Histogram: 8 0 8 0 16 0 8 8 16 40
Neighs:        79213.6 ave      115375 max           0 min
Histogram: 8 4 4 0 10 6 8 8 24 32

Total # of neighbors = 8238218
Ave neighs/atom = 28.530526
Neighbor list builds = 0
Dangerous builds = 0
The dot product: 1.01872019695015e-07
Setting atom values ...
  1 settings made for x
  1 settings made for y
  1 settings made for z
Setting up cg style minimization ...
  Unit style    : metal
  Current step  : 5183
Per MPI rank memory allocation (min/avg/max) = 5.441 | 5.816 | 6.074 Mbytes
Step PotEng KinEng TotEng v_fx v_fy v_fz 
    5183   -1152448.9            0   -1152448.9 -0.00035619967 0.0013263987 0.00054361069 
    5350   -1152448.9            0   -1152448.9 -2.6443236e-06 -4.3856224e-06 3.0380575e-06 
Loop time of 1.94861 on 104 procs for 167 steps with 288751 atoms

99.9% CPU use with 104 MPI tasks x 1 OpenMP threads

Minimization stats:
  Stopping criterion = energy tolerance
  Energy initial, next-to-last, final = 
     -1152448.93312064  -1152448.93483537  -1152448.93483537
  Force two-norm initial, final = 0.17629721 0.00027947838
  Force max component initial, final = 0.14362618 3.0705905e-05
  Final line search alpha, max atom move = 1.0000000 3.0705905e-05
  Iterations, force evaluations = 167 334

MPI task timing breakdown:
Section |  min time  |  avg time  |  max time  |%varavg| %total
---------------------------------------------------------------
Pair    | 0.51035    | 1.409      | 1.8276     |  31.7 | 72.31
Neigh   | 0          | 0          | 0          |   0.0 |  0.00
Comm    | 0.03094    | 0.31305    | 0.94441    |  47.3 | 16.07
Output  | 0          | 0          | 0          |   0.0 |  0.00
Modify  | 2.1126e-05 | 0.0027499  | 0.0058599  |   2.5 |  0.14
Other   |            | 0.2238     |            |       | 11.49

Nlocal:        2776.45 ave        3956 max           0 min
Histogram: 8 4 4 0 4 12 8 0 30 34
Nghost:        3878.91 ave        5425 max         232 min
Histogram: 8 0 8 0 16 0 8 8 16 40
Neighs:        79213.6 ave      115348 max           0 min
Histogram: 8 4 4 0 10 6 8 8 24 32

Total # of neighbors = 8238215
Ave neighs/atom = 28.530516
Neighbor list builds = 0
Dangerous builds = 0
The dot product: 1.98223059822937e-08
Setting atom values ...
  1 settings made for x
  1 settings made for y
  1 settings made for z
Setting up cg style minimization ...
  Unit style    : metal
  Current step  : 5350
Per MPI rank memory allocation (min/avg/max) = 5.441 | 5.816 | 6.074 Mbytes
Step PotEng KinEng TotEng v_fx v_fy v_fz 
    5350   -1152448.9            0   -1152448.9 0.0010551411 0.00066372012 -0.0012647937 
    5524   -1152448.9            0   -1152448.9 3.5098314e-05 2.7228502e-06 -4.3398651e-05 
Loop time of 2.02088 on 104 procs for 174 steps with 288751 atoms

99.9% CPU use with 104 MPI tasks x 1 OpenMP threads

Minimization stats:
  Stopping criterion = energy tolerance
  Energy initial, next-to-last, final = 
     -1152448.89898373  -1152448.90062179  -1152448.90062179
  Force two-norm initial, final = 0.17701691 0.00020482506
  Force max component initial, final = 0.14504232 4.6607259e-05
  Final line search alpha, max atom move = 1.0000000 4.6607259e-05
  Iterations, force evaluations = 174 348

MPI task timing breakdown:
Section |  min time  |  avg time  |  max time  |%varavg| %total
---------------------------------------------------------------
Pair    | 0.53111    | 1.4626     | 1.9009     |  32.6 | 72.38
Neigh   | 0          | 0          | 0          |   0.0 |  0.00
Comm    | 0.031014   | 0.32633    | 0.98375    |  48.4 | 16.15
Output  | 0          | 0          | 0          |   0.0 |  0.00
Modify  | 2.1279e-05 | 0.0028744  | 0.0061103  |   2.5 |  0.14
Other   |            | 0.229      |            |       | 11.33

Nlocal:        2776.45 ave        3956 max           0 min
Histogram: 8 4 4 0 4 12 8 0 30 34
Nghost:        3878.88 ave        5425 max         232 min
Histogram: 8 0 8 0 16 0 8 8 16 40
Neighs:        79213.6 ave      115348 max           0 min
Histogram: 8 4 4 0 10 6 8 8 24 32

Total # of neighbors = 8238214
Ave neighs/atom = 28.530512
Neighbor list builds = 0
Dangerous builds = 0
The dot product: -2.44417620474033e-07
Setting atom values ...
  1 settings made for x
  1 settings made for y
  1 settings made for z
Setting up cg style minimization ...
  Unit style    : metal
  Current step  : 5524
Per MPI rank memory allocation (min/avg/max) = 5.441 | 5.816 | 6.074 Mbytes
Step PotEng KinEng TotEng v_fx v_fy v_fz 
    5524   -1152448.9            0   -1152448.9 0.0035379943 0.00028255744 -0.0043088149 
    5711   -1152448.9            0   -1152448.9 -1.0987443e-05 5.4460472e-07 1.3477837e-05 
Loop time of 2.15293 on 104 procs for 187 steps with 288751 atoms

99.9% CPU use with 104 MPI tasks x 1 OpenMP threads

Minimization stats:
  Stopping criterion = energy tolerance
  Energy initial, next-to-last, final = 
     -1152448.86374413  -1152448.86535405  -1152448.86535405
  Force two-norm initial, final = 0.17827701 0.00013439398
  Force max component initial, final = 0.14676656 3.1655384e-05
  Final line search alpha, max atom move = 1.0000000 3.1655384e-05
  Iterations, force evaluations = 187 374

MPI task timing breakdown:
Section |  min time  |  avg time  |  max time  |%varavg| %total
---------------------------------------------------------------
Pair    | 0.5688     | 1.5716     | 2.042      |  33.7 | 73.00
Neigh   | 0          | 0          | 0          |   0.0 |  0.00
Comm    | 0.032792   | 0.34631    | 1.0505     |  50.3 | 16.09
Output  | 0          | 0          | 0          |   0.0 |  0.00
Modify  | 2.3507e-05 | 0.0030775  | 0.0065797  |   2.6 |  0.14
Other   |            | 0.2319     |            |       | 10.77

Nlocal:        2776.45 ave        3956 max           0 min
Histogram: 8 4 4 0 4 12 8 0 30 34
Nghost:        3878.88 ave        5425 max         232 min
Histogram: 8 0 8 0 16 0 8 8 16 40
Neighs:        79213.6 ave      115313 max           0 min
Histogram: 8 4 4 0 10 6 8 8 24 32

Total # of neighbors = 8238214
Ave neighs/atom = 28.530512
Neighbor list builds = 0
Dangerous builds = 0
The dot product: 6.16089305102175e-08
Setting atom values ...
  1 settings made for x
  1 settings made for y
  1 settings made for z
Setting up cg style minimization ...
  Unit style    : metal
  Current step  : 5711
Per MPI rank memory allocation (min/avg/max) = 5.441 | 5.816 | 6.074 Mbytes
Step PotEng KinEng TotEng v_fx v_fy v_fz 
    5711   -1152448.8            0   -1152448.8 0.0060300836 0.00022623044 -0.007275046 
    5941   -1152448.8            0   -1152448.8 4.5102433e-06 9.4516696e-07 -5.3887092e-06 
Loop time of 2.64706 on 104 procs for 230 steps with 288751 atoms

99.9% CPU use with 104 MPI tasks x 1 OpenMP threads

Minimization stats:
  Stopping criterion = energy tolerance
  Energy initial, next-to-last, final = 
     -1152448.82743125  -1152448.82914416  -1152448.82914416
  Force two-norm initial, final = 0.1795863 4.5815969e-05
  Force max component initial, final = 0.14839421 5.9227651e-06
  Final line search alpha, max atom move = 1.0000000 5.9227651e-06
  Iterations, force evaluations = 230 460

MPI task timing breakdown:
Section |  min time  |  avg time  |  max time  |%varavg| %total
---------------------------------------------------------------
Pair    | 0.69831    | 1.9245     | 2.5116     |  37.5 | 72.70
Neigh   | 0          | 0          | 0          |   0.0 |  0.00
Comm    | 0.040747   | 0.42673    | 1.2914     |  55.7 | 16.12
Output  | 0          | 0          | 0          |   0.0 |  0.00
Modify  | 2.9242e-05 | 0.0037784  | 0.0080922  |   2.9 |  0.14
Other   |            | 0.2921     |            |       | 11.03

Nlocal:        2776.45 ave        3955 max           0 min
Histogram: 8 4 4 0 4 12 8 0 30 34
Nghost:        3878.84 ave        5425 max         232 min
Histogram: 8 0 8 0 16 0 8 8 16 40
Neighs:        79213.6 ave      115316 max           0 min
Histogram: 8 4 4 0 10 6 8 8 24 32

Total # of neighbors = 8238216
Ave neighs/atom = 28.530519
Neighbor list builds = 0
Dangerous builds = 0
The dot product: -2.31333654062049e-08
Setting atom values ...
  1 settings made for x
  1 settings made for y
  1 settings made for z
Setting up cg style minimization ...
  Unit style    : metal
  Current step  : 5941
Per MPI rank memory allocation (min/avg/max) = 5.441 | 5.816 | 6.074 Mbytes
Step PotEng KinEng TotEng v_fx v_fy v_fz 
    5941   -1152448.8            0   -1152448.8 0.0077942029 0.00047745674 -0.0092933102 
    6000   -1152448.8            0   -1152448.8 -0.00028979608 -4.3344787e-05 0.00034378397 
    6206   -1152448.8            0   -1152448.8 -1.3153914e-06 -2.5682179e-07 1.5563347e-06 
Loop time of 3.05753 on 104 procs for 265 steps with 288751 atoms

99.9% CPU use with 104 MPI tasks x 1 OpenMP threads

Minimization stats:
  Stopping criterion = energy tolerance
  Energy initial, next-to-last, final = 
     -1152448.79040528  -1152448.79202919  -1152448.79202919
  Force two-norm initial, final = 0.18014972 8.4782332e-06
  Force max component initial, final = 0.14942125 1.8031863e-06
  Final line search alpha, max atom move = 1.0000000 1.8031863e-06
  Iterations, force evaluations = 265 530

MPI task timing breakdown:
Section |  min time  |  avg time  |  max time  |%varavg| %total
---------------------------------------------------------------
Pair    | 0.8082     | 2.2345     | 2.8938     |  40.2 | 73.08
Neigh   | 0          | 0          | 0          |   0.0 |  0.00
Comm    | 0.05187    | 0.49228    | 1.5016     |  60.1 | 16.10
Output  | 9.077e-05  | 9.8841e-05 | 0.0002156  |   0.0 |  0.00
Modify  | 3.3567e-05 | 0.0043623  | 0.0093     |   3.1 |  0.14
Other   |            | 0.3263     |            |       | 10.67

Nlocal:        2776.45 ave        3955 max           0 min
Histogram: 8 4 4 0 4 12 8 0 30 34
Nghost:        3878.85 ave        5425 max         232 min
Histogram: 8 0 8 0 16 0 8 8 16 40
Neighs:        79213.6 ave      115293 max           0 min
Histogram: 8 4 4 0 10 6 8 8 24 32

Total # of neighbors = 8238213
Ave neighs/atom = 28.530509
Neighbor list builds = 0
Dangerous builds = 0
The dot product: 4.65511645851202e-09
Setting atom values ...
  1 settings made for x
  1 settings made for y
  1 settings made for z
Setting up cg style minimization ...
  Unit style    : metal
  Current step  : 6206
Per MPI rank memory allocation (min/avg/max) = 5.441 | 5.816 | 6.074 Mbytes
Step PotEng KinEng TotEng v_fx v_fy v_fz 
    6206   -1152448.8            0   -1152448.8  0.010817557 0.0010317595 -0.012783147 
    6418   -1152448.8            0   -1152448.8 1.1824464e-05 2.8479221e-06 -1.385396e-05 
Loop time of 2.44124 on 104 procs for 212 steps with 288751 atoms

99.9% CPU use with 104 MPI tasks x 1 OpenMP threads

Minimization stats:
  Stopping criterion = energy tolerance
  Energy initial, next-to-last, final = 
     -1152448.75227347  -1152448.75390248  -1152448.75390248
  Force two-norm initial, final = 0.18117848 7.2966805e-05
  Force max component initial, final = 0.15078087 1.6471852e-05
  Final line search alpha, max atom move = 1.0000000 1.6471852e-05
  Iterations, force evaluations = 212 424

MPI task timing breakdown:
Section |  min time  |  avg time  |  max time  |%varavg| %total
---------------------------------------------------------------
Pair    | 0.64672    | 1.7761     | 2.3145     |  35.9 | 72.76
Neigh   | 0          | 0          | 0          |   0.0 |  0.00
Comm    | 0.043027   | 0.39306    | 1.1893     |  53.5 | 16.10
Output  | 0          | 0          | 0          |   0.0 |  0.00
Modify  | 2.6926e-05 | 0.0034852  | 0.0074471  |   2.8 |  0.14
Other   |            | 0.2685     |            |       | 11.00

Nlocal:        2776.45 ave        3955 max           0 min
Histogram: 8 4 4 0 4 12 8 0 30 34
Nghost:        3878.85 ave        5425 max         232 min
Histogram: 8 0 8 0 16 0 8 8 16 40
Neighs:        79213.6 ave      115295 max           0 min
Histogram: 8 4 4 0 10 6 8 8 24 32

Total # of neighbors = 8238212
Ave neighs/atom = 28.530506
Neighbor list builds = 0
Dangerous builds = 0
The dot product: -2.53400231786634e-08
Setting atom values ...
  1 settings made for x
  1 settings made for y
  1 settings made for z
Setting up cg style minimization ...
  Unit style    : metal
  Current step  : 6418
Per MPI rank memory allocation (min/avg/max) = 5.441 | 5.816 | 6.074 Mbytes
Step PotEng KinEng TotEng v_fx v_fy v_fz 
    6418   -1152448.7            0   -1152448.7  0.013641029 0.0018897936 -0.016013438 
    6587   -1152448.7            0   -1152448.7 -1.9912906e-05 -4.944882e-07 2.353534e-05 
Loop time of 1.96421 on 104 procs for 169 steps with 288751 atoms

99.9% CPU use with 104 MPI tasks x 1 OpenMP threads

Minimization stats:
  Stopping criterion = energy tolerance
  Energy initial, next-to-last, final = 
       -1152448.713209  -1152448.71499858  -1152448.71499858
  Force two-norm initial, final = 0.18170136 0.00013521839
  Force max component initial, final = 0.15190027 2.9758484e-05
  Final line search alpha, max atom move = 1.0000000 2.9758484e-05
  Iterations, force evaluations = 169 338

MPI task timing breakdown:
Section |  min time  |  avg time  |  max time  |%varavg| %total
---------------------------------------------------------------
Pair    | 0.51474    | 1.4263     | 1.8458     |  32.1 | 72.61
Neigh   | 0          | 0          | 0          |   0.0 |  0.00
Comm    | 0.038145   | 0.31651    | 0.95774    |  48.0 | 16.11
Output  | 0          | 0          | 0          |   0.0 |  0.00
Modify  | 2.1598e-05 | 0.0027806  | 0.005951   |   2.5 |  0.14
Other   |            | 0.2186     |            |       | 11.13

Nlocal:        2776.45 ave        3954 max           0 min
Histogram: 8 4 4 0 4 12 8 0 30 34
Nghost:        3878.83 ave        5425 max         232 min
Histogram: 8 0 8 0 16 0 8 8 16 40
Neighs:        79213.6 ave      115271 max           0 min
Histogram: 8 4 4 0 10 6 8 8 24 32

Total # of neighbors = 8238212
Ave neighs/atom = 28.530506
Neighbor list builds = 0
Dangerous builds = 0
The dot product: 2.53209218922666e-08
Setting atom values ...
  1 settings made for x
  1 settings made for y
  1 settings made for z
Setting up cg style minimization ...
  Unit style    : metal
  Current step  : 6587
Per MPI rank memory allocation (min/avg/max) = 5.441 | 5.816 | 6.074 Mbytes
Step PotEng KinEng TotEng v_fx v_fy v_fz 
    6587   -1152448.7            0   -1152448.7  0.015575991 0.0025533795 -0.018209197 
    6766   -1152448.7            0   -1152448.7 1.5235484e-05 -1.049064e-06 -1.8066871e-05 
Loop time of 2.07688 on 104 procs for 179 steps with 288751 atoms

99.9% CPU use with 104 MPI tasks x 1 OpenMP threads

Minimization stats:
  Stopping criterion = energy tolerance
  Energy initial, next-to-last, final = 
     -1152448.67383424  -1152448.67557843  -1152448.67557843
  Force two-norm initial, final = 0.18057965 0.0001696004
  Force max component initial, final = 0.15190515 2.9817852e-05
  Final line search alpha, max atom move = 1.0000000 2.9817852e-05
  Iterations, force evaluations = 179 358

MPI task timing breakdown:
Section |  min time  |  avg time  |  max time  |%varavg| %total
---------------------------------------------------------------
Pair    | 0.544      | 1.5012     | 1.9561     |  33.1 | 72.28
Neigh   | 0          | 0          | 0          |   0.0 |  0.00
Comm    | 0.033184   | 0.33458    | 1.0089     |  49.0 | 16.11
Output  | 0          | 0          | 0          |   0.0 |  0.00
Modify  | 2.2416e-05 | 0.0029485  | 0.0062754  |   2.6 |  0.14
Other   |            | 0.2382     |            |       | 11.47

Nlocal:        2776.45 ave        3955 max           0 min
Histogram: 8 4 4 0 4 12 8 0 30 34
Nghost:        3878.77 ave        5425 max         232 min
Histogram: 8 0 8 0 16 0 8 8 16 40
Neighs:        79213.5 ave      115316 max           0 min
Histogram: 8 4 4 0 10 6 8 8 24 32

Total # of neighbors = 8238205
Ave neighs/atom = 28.530481
Neighbor list builds = 0
Dangerous builds = 0
The dot product: 8.14325697750077e-09
Setting atom values ...
  1 settings made for x
  1 settings made for y
  1 settings made for z
Setting up cg style minimization ...
  Unit style    : metal
  Current step  : 6766
Per MPI rank memory allocation (min/avg/max) = 5.441 | 5.816 | 6.074 Mbytes
Step PotEng KinEng TotEng v_fx v_fy v_fz 
    6766   -1152448.6            0   -1152448.6  0.018301383 0.0037691738 -0.021349147 
    6960   -1152448.6            0   -1152448.6 -3.9276584e-05 -8.5816627e-06  4.57807e-05 
Loop time of 2.24389 on 104 procs for 194 steps with 288751 atoms

99.9% CPU use with 104 MPI tasks x 1 OpenMP threads

Minimization stats:
  Stopping criterion = energy tolerance
  Energy initial, next-to-last, final = 
     -1152448.63408272  -1152448.63606966  -1152448.63606966
  Force two-norm initial, final = 0.17966619 0.00021385064
  Force max component initial, final = 0.15170361 5.5361759e-05
  Final line search alpha, max atom move = 1.0000000 5.5361759e-05
  Iterations, force evaluations = 194 388

MPI task timing breakdown:
Section |  min time  |  avg time  |  max time  |%varavg| %total
---------------------------------------------------------------
Pair    | 0.58872    | 1.6314     | 2.1234     |  34.3 | 72.70
Neigh   | 0          | 0          | 0          |   0.0 |  0.00
Comm    | 0.036051   | 0.36284    | 1.0989     |  50.8 | 16.17
Output  | 0          | 0          | 0          |   0.0 |  0.00
Modify  | 2.529e-05  | 0.0031989  | 0.0068148  |   2.7 |  0.14
Other   |            | 0.2464     |            |       | 10.98

Nlocal:        2776.45 ave        3954 max           0 min
Histogram: 8 4 4 0 4 12 8 0 30 34
Nghost:        3878.73 ave        5425 max         232 min
Histogram: 8 0 8 0 16 0 8 8 16 40
Neighs:        79213.5 ave      115273 max           0 min
Histogram: 8 4 4 0 10 6 8 8 24 32

Total # of neighbors = 8238200
Ave neighs/atom = 28.530464
Neighbor list builds = 0
Dangerous builds = 0
The dot product: -2.98656583394401e-08
Setting atom values ...
  1 settings made for x
  1 settings made for y
  1 settings made for z
Setting up cg style minimization ...
  Unit style    : metal
  Current step  : 6960
Per MPI rank memory allocation (min/avg/max) = 5.441 | 5.816 | 6.074 Mbytes
Step PotEng KinEng TotEng v_fx v_fy v_fz 
    6960   -1152448.6            0   -1152448.6  0.020913089 0.0014043115 -0.024656025 
    7000   -1152448.6            0   -1152448.6 0.00072778708 0.00015519683 -0.00084977031 
    7158   -1152448.6            0   -1152448.6 4.4406868e-06 1.1203722e-06 -5.1714898e-06 
Loop time of 2.29651 on 104 procs for 198 steps with 288751 atoms

99.9% CPU use with 104 MPI tasks x 1 OpenMP threads

Minimization stats:
  Stopping criterion = energy tolerance
  Energy initial, next-to-last, final = 
     -1152448.59530953  -1152448.59744992  -1152448.59744992
  Force two-norm initial, final = 0.17773816 0.00015071983
  Force max component initial, final = 0.14916089 6.6680113e-06
  Final line search alpha, max atom move = 1.0000000 6.6680113e-06
  Iterations, force evaluations = 198 396

MPI task timing breakdown:
Section |  min time  |  avg time  |  max time  |%varavg| %total
---------------------------------------------------------------
Pair    | 0.60321    | 1.6617     | 2.1664     |  34.8 | 72.36
Neigh   | 0          | 0          | 0          |   0.0 |  0.00
Comm    | 0.036288   | 0.37068    | 1.119      |  51.7 | 16.14
Output  | 9.392e-05  | 0.00010108 | 0.00020187 |   0.0 |  0.00
Modify  | 2.4443e-05 | 0.0032656  | 0.0069539  |   2.7 |  0.14
Other   |            | 0.2608     |            |       | 11.35

Nlocal:        2776.45 ave        3953 max           0 min
Histogram: 8 4 4 0 4 12 8 0 30 34
Nghost:        3878.71 ave        5425 max         232 min
Histogram: 8 0 8 0 16 0 8 8 16 40
Neighs:        79213.5 ave      115257 max           0 min
Histogram: 8 4 4 0 10 6 8 8 24 32

Total # of neighbors = 8238205
Ave neighs/atom = 28.530481
Neighbor list builds = 0
Dangerous builds = 0
The dot product: 2.10938944958817e-09
Setting atom values ...
  1 settings made for x
  1 settings made for y
  1 settings made for z
Setting up cg style minimization ...
  Unit style    : metal
  Current step  : 7158
Per MPI rank memory allocation (min/avg/max) = 5.441 | 5.816 | 6.074 Mbytes
Step PotEng KinEng TotEng v_fx v_fy v_fz 
    7158   -1152448.6            0   -1152448.6  0.022028955 -0.00050258109 -0.026171197 
    7400   -1152448.6            0   -1152448.6 1.4533351e-05 2.5712851e-06 -1.7028834e-05 
Loop time of 2.79306 on 104 procs for 242 steps with 288751 atoms

99.9% CPU use with 104 MPI tasks x 1 OpenMP threads

Minimization stats:
  Stopping criterion = energy tolerance
  Energy initial, next-to-last, final = 
     -1152448.55834436  -1152448.57009557  -1152448.57009557
  Force two-norm initial, final = 0.18455699 9.5336420e-05
  Force max component initial, final = 0.14666083 2.1891379e-05
  Final line search alpha, max atom move = 1.0000000 2.1891379e-05
  Iterations, force evaluations = 242 484

MPI task timing breakdown:
Section |  min time  |  avg time  |  max time  |%varavg| %total
---------------------------------------------------------------
Pair    | 0.73893    | 2.0379     | 2.6455     |  38.3 | 72.96
Neigh   | 1.0249e-05 | 0.0029561  | 0.004288   |   2.2 |  0.11
Comm    | 0.043765   | 0.44895    | 1.3595     |  57.3 | 16.07
Output  | 0          | 0          | 0          |   0.0 |  0.00
Modify  | 2.9531e-05 | 0.0039811  | 0.0085121  |   3.0 |  0.14
Other   |            | 0.2993     |            |       | 10.72

Nlocal:        2776.45 ave        3952 max           0 min
Histogram: 8 4 4 0 4 12 8 0 30 34
Nghost:        3878.77 ave        5425 max         232 min
Histogram: 8 0 8 0 16 0 8 8 16 40
Neighs:        79213.4 ave      115226 max           0 min
Histogram: 8 4 4 0 10 6 8 8 24 32

Total # of neighbors = 8238195
Ave neighs/atom = 28.530447
Neighbor list builds = 1
Dangerous builds = 0
The dot product: -3.20126443958364e-07
Setting atom values ...
  1 settings made for x
  1 settings made for y
  1 settings made for z
Setting up cg style minimization ...
  Unit style    : metal
  Current step  : 7400
Per MPI rank memory allocation (min/avg/max) = 5.441 | 5.816 | 6.074 Mbytes
Step PotEng KinEng TotEng v_fx v_fy v_fz 
    7400   -1152448.5            0   -1152448.5  0.014538831 0.0020524604  -0.01645202 
    7728   -1152448.5            0   -1152448.5 3.7807177e-05 3.5616731e-06 -4.2933156e-05 
[...]
Histogram: 8 0 8 0 16 0 8 8 16 40
Neighs:        79213.2 ave      115454 max           0 min
Histogram: 8 4 4 0 10 6 8 8 24 32

Total # of neighbors = 8238174
Ave neighs/atom = 28.530374
Neighbor list builds = 0
Dangerous builds = 0
The dot product: -3.53032018345523e-08
Setting atom values ...
  1 settings made for x
  1 settings made for y
  1 settings made for z
Setting up cg style minimization ...
  Unit style    : metal
  Current step  : 27437
Per MPI rank memory allocation (min/avg/max) = 5.441 | 5.816 | 6.074 Mbytes
Step PotEng KinEng TotEng v_fx v_fy v_fz 
   27437   -1152449.1            0   -1152449.1 -0.00094578483 0.0072706253 0.0096967378 
   27587   -1152449.1            0   -1152449.1 1.5576834e-05 1.3182312e-05 5.1648927e-06 
Loop time of 1.73759 on 104 procs for 150 steps with 288751 atoms

99.9% CPU use with 104 MPI tasks x 1 OpenMP threads

Minimization stats:
  Stopping criterion = energy tolerance
  Energy initial, next-to-last, final = 
     -1152449.10685654  -1152449.10821579  -1152449.10821579
  Force two-norm initial, final = 0.16201867 0.00023193389
  Force max component initial, final = 0.094519936 4.3339959e-05
  Final line search alpha, max atom move = 1.0000000 4.3339959e-05
  Iterations, force evaluations = 150 300

MPI task timing breakdown:
Section |  min time  |  avg time  |  max time  |%varavg| %total
---------------------------------------------------------------
Pair    | 0.46108    | 1.2644     | 1.6422     |  30.1 | 72.77
Neigh   | 0          | 0          | 0          |   0.0 |  0.00
Comm    | 0.025997   | 0.28333    | 0.8604     |  45.0 | 16.31
Output  | 0          | 0          | 0          |   0.0 |  0.00
Modify  | 1.9568e-05 | 0.0024859  | 0.0053176  |   2.4 |  0.14
Other   |            | 0.1874     |            |       | 10.78

Nlocal:        2776.45 ave        3961 max           0 min
Histogram: 8 4 4 0 6 10 8 4 26 34
Nghost:        3879.11 ave        5425 max         232 min
Histogram: 8 0 8 0 16 0 8 8 16 40
Neighs:        79213.2 ave      115454 max           0 min
Histogram: 8 4 4 0 10 6 8 8 24 32

Total # of neighbors = 8238172
Ave neighs/atom = 28.530367
Neighbor list builds = 0
Dangerous builds = 0
The dot product: 4.25583049382192e-08
Setting atom values ...
  1 settings made for x
  1 settings made for y
  1 settings made for z
Setting up cg style minimization ...
  Unit style    : metal
  Current step  : 27587
Per MPI rank memory allocation (min/avg/max) = 5.441 | 5.816 | 6.074 Mbytes
Step PotEng KinEng TotEng v_fx v_fy v_fz 
   27587   -1152449.1            0   -1152449.1 -0.0010492355 0.0061499809 0.0083901157 
   27714   -1152449.1            0   -1152449.1 -4.089216e-05 -9.7316223e-06 1.7268084e-05 
Loop time of 1.46777 on 104 procs for 127 steps with 288751 atoms

99.9% CPU use with 104 MPI tasks x 1 OpenMP threads

Minimization stats:
  Stopping criterion = energy tolerance
  Energy initial, next-to-last, final = 
     -1152449.08706734  -1152449.08846343  -1152449.08846343
  Force two-norm initial, final = 0.16178366 0.00033348382
  Force max component initial, final = 0.095308184 4.4175678e-05
  Final line search alpha, max atom move = 1.0000000 4.4175678e-05
  Iterations, force evaluations = 127 254

MPI task timing breakdown:
Section |  min time  |  avg time  |  max time  |%varavg| %total
---------------------------------------------------------------
Pair    | 0.38739    | 1.0673     | 1.3917     |  27.8 | 72.72
Neigh   | 0          | 0          | 0          |   0.0 |  0.00
Comm    | 0.022628   | 0.23891    | 0.72649    |  41.4 | 16.28
Output  | 0          | 0          | 0          |   0.0 |  0.00
Modify  | 1.6291e-05 | 0.0021013  | 0.0044638  |   2.2 |  0.14
Other   |            | 0.1594     |            |       | 10.86

Nlocal:        2776.45 ave        3961 max           0 min
Histogram: 8 4 4 0 6 10 8 4 26 34
Nghost:        3879.11 ave        5425 max         232 min
Histogram: 8 0 8 0 16 0 8 8 16 40
Neighs:        79213.2 ave      115469 max           0 min
Histogram: 8 4 4 0 10 6 8 8 24 32

Total # of neighbors = 8238172
Ave neighs/atom = 28.530367
Neighbor list builds = 0
Dangerous builds = 0
The dot product: -5.17594721781975e-08
Setting atom values ...
  1 settings made for x
  1 settings made for y
  1 settings made for z
Setting up cg style minimization ...
  Unit style    : metal
  Current step  : 27714
Per MPI rank memory allocation (min/avg/max) = 5.441 | 5.816 | 6.074 Mbytes
Step PotEng KinEng TotEng v_fx v_fy v_fz 
   27714   -1152449.1            0   -1152449.1 -0.001226009 0.0051885443 0.0073307323 
   27920   -1152449.1            0   -1152449.1 -1.2115155e-05 9.8323577e-07 9.9148553e-06 
Loop time of 2.39325 on 104 procs for 206 steps with 288751 atoms

99.9% CPU use with 104 MPI tasks x 1 OpenMP threads

Minimization stats:
  Stopping criterion = energy tolerance
  Energy initial, next-to-last, final = 
     -1152449.06627008  -1152449.06765688  -1152449.06765688
  Force two-norm initial, final = 0.16182896 5.2851468e-05
  Force max component initial, final = 0.096141697 1.4862893e-05
  Final line search alpha, max atom move = 1.0000000 1.4862893e-05
  Iterations, force evaluations = 206 412

MPI task timing breakdown:
Section |  min time  |  avg time  |  max time  |%varavg| %total
---------------------------------------------------------------
Pair    | 0.63067    | 1.7311     | 2.2698     |  35.4 | 72.33
Neigh   | 0          | 0          | 0          |   0.0 |  0.00
Comm    | 0.03418    | 0.39584    | 1.2046     |  51.6 | 16.54
Output  | 0          | 0          | 0          |   0.0 |  0.00
Modify  | 2.5825e-05 | 0.003393   | 0.0072016  |   2.7 |  0.14
Other   |            | 0.2629     |            |       | 10.99

Nlocal:        2776.45 ave        3961 max           0 min
Histogram: 8 4 4 0 6 10 8 4 26 34
Nghost:        3879.14 ave        5425 max         232 min
Histogram: 8 0 8 0 16 0 8 8 16 40
Neighs:        79213.2 ave      115467 max           0 min
Histogram: 8 4 4 0 10 6 8 8 24 32

Total # of neighbors = 8238171
Ave neighs/atom = 28.530364
Neighbor list builds = 0
Dangerous builds = 0
The dot product: -4.70325492905145e-09
Setting atom values ...
  1 settings made for x
  1 settings made for y
  1 settings made for z
Setting up cg style minimization ...
  Unit style    : metal
  Current step  : 27920
Per MPI rank memory allocation (min/avg/max) = 5.441 | 5.816 | 6.074 Mbytes
Step PotEng KinEng TotEng v_fx v_fy v_fz 
   27920     -1152449            0     -1152449 -0.0011709854 0.0042997541 0.0061915085 
   28000     -1152449            0     -1152449 -0.00011140353 6.9966539e-05 0.00016697846 
   28097     -1152449            0     -1152449 8.8276081e-06 7.8104718e-07 -5.3586579e-06 
Loop time of 2.04486 on 104 procs for 177 steps with 288751 atoms

99.9% CPU use with 104 MPI tasks x 1 OpenMP threads

Minimization stats:
  Stopping criterion = energy tolerance
  Energy initial, next-to-last, final = 
      -1152449.0443143   -1152449.0456674   -1152449.0456674
  Force two-norm initial, final = 0.1619401 0.00013404428
  Force max component initial, final = 0.096812677 1.6615966e-05
  Final line search alpha, max atom move = 1.0000000 1.6615966e-05
  Iterations, force evaluations = 177 354

MPI task timing breakdown:
Section |  min time  |  avg time  |  max time  |%varavg| %total
---------------------------------------------------------------
Pair    | 0.5407     | 1.4849     | 1.938      |  32.8 | 72.61
Neigh   | 0          | 0          | 0          |   0.0 |  0.00
Comm    | 0.030722   | 0.33328    | 1.0062     |  48.6 | 16.30
Output  | 0.00010006 | 0.0001134  | 0.00028417 |   0.0 |  0.01
Modify  | 2.3088e-05 | 0.0029212  | 0.0061868  |   2.5 |  0.14
Other   |            | 0.2237     |            |       | 10.94

Nlocal:        2776.45 ave        3960 max           0 min
Histogram: 8 4 4 0 4 12 8 4 26 34
Nghost:        3879.14 ave        5425 max         232 min
Histogram: 8 0 8 0 16 0 8 8 16 40
Neighs:        79213.2 ave      115431 max           0 min
Histogram: 8 4 4 0 10 6 8 8 24 32

Total # of neighbors = 8238170
Ave neighs/atom = 28.530360
Neighbor list builds = 0
Dangerous builds = 0
The dot product: 6.07828068554931e-09
Setting atom values ...
  1 settings made for x
  1 settings made for y
  1 settings made for z
Setting up cg style minimization ...
  Unit style    : metal
  Current step  : 28097
Per MPI rank memory allocation (min/avg/max) = 5.441 | 5.816 | 6.074 Mbytes
Step PotEng KinEng TotEng v_fx v_fy v_fz 
   28097     -1152449            0     -1152449 -0.00084012104 0.0035262907 0.0049952167 
   28363     -1152449            0     -1152449 -7.8366794e-07 5.5000305e-08 6.3031539e-07 
Loop time of 3.11568 on 104 procs for 266 steps with 288751 atoms

99.9% CPU use with 104 MPI tasks x 1 OpenMP threads

Minimization stats:
  Stopping criterion = energy tolerance
  Energy initial, next-to-last, final = 
     -1152449.02105498  -1152449.02238753  -1152449.02238753
  Force two-norm initial, final = 0.16217529 3.8620384e-06
  Force max component initial, final = 0.097450526 7.8366794e-07
  Final line search alpha, max atom move = 1.0000000 7.8366794e-07
  Iterations, force evaluations = 266 532

MPI task timing breakdown:
Section |  min time  |  avg time  |  max time  |%varavg| %total
---------------------------------------------------------------
Pair    | 0.81141    | 2.2346     | 2.9518     |  40.4 | 71.72
Neigh   | 0          | 0          | 0          |   0.0 |  0.00
Comm    | 0.045157   | 0.51195    | 1.5364     |  58.9 | 16.43
Output  | 0          | 0          | 0          |   0.0 |  0.00
Modify  | 3.3178e-05 | 0.004386   | 0.0092924  |   3.1 |  0.14
Other   |            | 0.3648     |            |       | 11.71

Nlocal:        2776.45 ave        3960 max           0 min
Histogram: 8 4 4 0 4 12 8 4 26 34
Nghost:        3879.16 ave        5425 max         232 min
Histogram: 8 0 8 0 16 0 8 8 16 40
Neighs:        79213.2 ave      115433 max           0 min
Histogram: 8 4 4 0 10 6 8 8 24 32

Total # of neighbors = 8238171
Ave neighs/atom = 28.530364
Neighbor list builds = 0
Dangerous builds = 0
The dot product: -3.67229354857733e-10
Setting atom values ...
  1 settings made for x
  1 settings made for y
  1 settings made for z
Setting up cg style minimization ...
  Unit style    : metal
  Current step  : 28363
Per MPI rank memory allocation (min/avg/max) = 5.441 | 5.816 | 6.074 Mbytes
Step PotEng KinEng TotEng v_fx v_fy v_fz 
   28363     -1152449            0     -1152449 -0.00024064398 0.0028475096 0.0037223499 
   28538     -1152449            0     -1152449 3.3860282e-06 -1.6367325e-05 -2.283101e-05 
Loop time of 2.02626 on 104 procs for 175 steps with 288751 atoms

99.9% CPU use with 104 MPI tasks x 1 OpenMP threads

Minimization stats:
  Stopping criterion = energy tolerance
  Energy initial, next-to-last, final = 
     -1152448.99640389  -1152448.99771834  -1152448.99771834
  Force two-norm initial, final = 0.16262269 0.00016903591
  Force max component initial, final = 0.098090016 3.3136433e-05
  Final line search alpha, max atom move = 1.0000000 3.3136433e-05
  Iterations, force evaluations = 175 350

MPI task timing breakdown:
Section |  min time  |  avg time  |  max time  |%varavg| %total
---------------------------------------------------------------
Pair    | 0.53722    | 1.4681     | 1.9148     |  32.5 | 72.45
Neigh   | 0          | 0          | 0          |   0.0 |  0.00
Comm    | 0.040273   | 0.33012    | 0.9967     |  48.2 | 16.29
Output  | 0          | 0          | 0          |   0.0 |  0.00
Modify  | 2.2164e-05 | 0.0028932  | 0.0061252  |   2.5 |  0.14
Other   |            | 0.2251     |            |       | 11.11

Nlocal:        2776.45 ave        3960 max           0 min
Histogram: 8 4 4 0 4 12 8 4 26 34
Nghost:        3879.18 ave        5425 max         232 min
Histogram: 8 0 8 0 16 0 8 8 16 40
Neighs:        79213.2 ave      115434 max           0 min
Histogram: 8 4 4 0 10 6 8 8 24 32

Total # of neighbors = 8238173
Ave neighs/atom = 28.530370
Neighbor list builds = 0
Dangerous builds = 0
The dot product: -1.78685080990537e-08
Setting atom values ...
  1 settings made for x
  1 settings made for y
  1 settings made for z
Setting up cg style minimization ...
  Unit style    : metal
  Current step  : 28538
Per MPI rank memory allocation (min/avg/max) = 5.441 | 5.816 | 6.074 Mbytes
Step PotEng KinEng TotEng v_fx v_fy v_fz 
   28538     -1152449            0     -1152449 0.00057261964 0.0022394694 0.0023833162 
   28738     -1152449            0     -1152449 2.3229595e-06 8.042273e-06 8.367927e-06 
Loop time of 2.33823 on 104 procs for 200 steps with 288751 atoms

99.9% CPU use with 104 MPI tasks x 1 OpenMP threads

Minimization stats:
  Stopping criterion = energy tolerance
  Energy initial, next-to-last, final = 
     -1152448.97026049  -1152448.97156044  -1152448.97156044
  Force two-norm initial, final = 0.16325995 8.3003836e-05
  Force max component initial, final = 0.098678627 2.4801475e-05
  Final line search alpha, max atom move = 1.0000000 2.4801475e-05
  Iterations, force evaluations = 200 400

MPI task timing breakdown:
Section |  min time  |  avg time  |  max time  |%varavg| %total
---------------------------------------------------------------
Pair    | 0.61049    | 1.682      | 2.2189     |  35.0 | 71.93
Neigh   | 0          | 0          | 0          |   0.0 |  0.00
Comm    | 0.035276   | 0.38384    | 1.1538     |  51.2 | 16.42
Output  | 0          | 0          | 0          |   0.0 |  0.00
Modify  | 2.547e-05  | 0.0033005  | 0.0070559  |   2.7 |  0.14
Other   |            | 0.2691     |            |       | 11.51

Nlocal:        2776.45 ave        3960 max           0 min
Histogram: 8 4 4 0 4 12 8 4 26 34
Nghost:        3879.16 ave        5425 max         232 min
Histogram: 8 0 8 0 16 0 8 8 16 40
Neighs:        79213.2 ave      115431 max           0 min
Histogram: 8 4 4 0 10 6 8 8 24 32

Total # of neighbors = 8238171
Ave neighs/atom = 28.530364
Neighbor list builds = 0
Dangerous builds = 0
The dot product: 8.56827971917082e-09
Setting atom values ...
  1 settings made for x
  1 settings made for y
  1 settings made for z
Setting up cg style minimization ...
  Unit style    : metal
  Current step  : 28738
Per MPI rank memory allocation (min/avg/max) = 5.441 | 5.816 | 6.074 Mbytes
Step PotEng KinEng TotEng v_fx v_fy v_fz 
   28738   -1152448.9            0   -1152448.9 0.0014221723  0.001745938 0.0011608234 
   28922   -1152448.9            0   -1152448.9 2.0864784e-05 -1.4818755e-05 -3.3420512e-05 
Loop time of 2.13347 on 104 procs for 184 steps with 288751 atoms

99.9% CPU use with 104 MPI tasks x 1 OpenMP threads

Minimization stats:
  Stopping criterion = energy tolerance
  Energy initial, next-to-last, final = 
     -1152448.94253374   -1152448.9438277   -1152448.9438277
  Force two-norm initial, final = 0.16413913 0.00012550431
  Force max component initial, final = 0.099215574 3.3420512e-05
  Final line search alpha, max atom move = 1.0000000 3.3420512e-05
  Iterations, force evaluations = 184 368

MPI task timing breakdown:
Section |  min time  |  avg time  |  max time  |%varavg| %total
---------------------------------------------------------------
Pair    | 0.56331    | 1.5435     | 2.0232     |  33.4 | 72.35
Neigh   | 0          | 0          | 0          |   0.0 |  0.00
Comm    | 0.034361   | 0.34768    | 1.0517     |  49.3 | 16.30
Output  | 0          | 0          | 0          |   0.0 |  0.00
Modify  | 2.332e-05  | 0.0030385  | 0.0064767  |   2.6 |  0.14
Other   |            | 0.2393     |            |       | 11.22

Nlocal:        2776.45 ave        3960 max           0 min
Histogram: 8 4 4 0 4 12 8 4 26 34
Nghost:        3879.15 ave        5426 max         232 min
Histogram: 8 0 8 0 16 0 8 8 16 40
Neighs:        79213.2 ave      115435 max           0 min
Histogram: 8 4 4 0 10 6 8 8 24 32

Total # of neighbors = 8238172
Ave neighs/atom = 28.530367
Neighbor list builds = 0
Dangerous builds = 0
The dot product: 2.01749579733645e-08
Setting atom values ...
  1 settings made for x
  1 settings made for y
  1 settings made for z
Setting up cg style minimization ...
  Unit style    : metal
  Current step  : 28922
Per MPI rank memory allocation (min/avg/max) = 5.441 | 5.816 | 6.074 Mbytes
Step PotEng KinEng TotEng v_fx v_fy v_fz 
   28922   -1152448.9            0   -1152448.9 0.0021025379  0.001279655 9.3873244e-05 
   29000   -1152448.9            0   -1152448.9 4.1443385e-05 5.3668763e-05 3.7349534e-05 
   29101   -1152448.9            0   -1152448.9 -1.8560919e-05 -7.6605836e-06 3.708999e-06 
Loop time of 2.09199 on 104 procs for 179 steps with 288751 atoms

99.9% CPU use with 104 MPI tasks x 1 OpenMP threads

Minimization stats:
  Stopping criterion = energy tolerance
  Energy initial, next-to-last, final = 
     -1152448.91315352  -1152448.91444724  -1152448.91444724
  Force two-norm initial, final = 0.1652025 0.00016718085
  Force max component initial, final = 0.099784291 4.0442868e-05
  Final line search alpha, max atom move = 1.0000000 4.0442868e-05
  Iterations, force evaluations = 179 358

MPI task timing breakdown:
Section |  min time  |  avg time  |  max time  |%varavg| %total
---------------------------------------------------------------
Pair    | 0.54809    | 1.5063     | 1.9631     |  33.0 | 72.00
Neigh   | 0          | 0          | 0          |   0.0 |  0.00
Comm    | 0.031929   | 0.33985    | 1.0214     |  48.7 | 16.25
Output  | 0.00011217 | 0.00011591 | 0.00027888 |   0.0 |  0.01
Modify  | 2.2765e-05 | 0.0029535  | 0.0062878  |   2.6 |  0.14
Other   |            | 0.2428     |            |       | 11.61

Nlocal:        2776.45 ave        3960 max           0 min
Histogram: 8 4 4 0 4 12 8 4 26 34
Nghost:        3879.04 ave        5426 max         232 min
Histogram: 8 0 8 0 16 0 8 8 16 40
Neighs:        79213.2 ave      115425 max           0 min
Histogram: 8 4 4 0 10 6 8 8 24 32

Total # of neighbors = 8238170
Ave neighs/atom = 28.530360
Neighbor list builds = 0
Dangerous builds = 0
The dot product: -2.78594136674868e-08
Setting atom values ...
  1 settings made for x
  1 settings made for y
  1 settings made for z
Setting up cg style minimization ...
  Unit style    : metal
  Current step  : 29101
Per MPI rank memory allocation (min/avg/max) = 5.441 | 5.816 | 6.074 Mbytes
Step PotEng KinEng TotEng v_fx v_fy v_fz 
   29101   -1152448.9            0   -1152448.9 0.0023327318 0.00088681599 -0.00055910627 
   29375   -1152448.9            0   -1152448.9 1.7392334e-07 -1.1051781e-08 -1.3800032e-07 
Loop time of 3.18402 on 104 procs for 274 steps with 288751 atoms

99.9% CPU use with 104 MPI tasks x 1 OpenMP threads

Minimization stats:
  Stopping criterion = energy tolerance
  Energy initial, next-to-last, final = 
     -1152448.88206077  -1152448.88335676  -1152448.88335676
  Force two-norm initial, final = 0.16632749 3.4136851e-06
  Force max component initial, final = 0.10023323 2.1442136e-07
  Final line search alpha, max atom move = 1.0000000 2.1442136e-07
  Iterations, force evaluations = 274 548

MPI task timing breakdown:
Section |  min time  |  avg time  |  max time  |%varavg| %total
---------------------------------------------------------------
Pair    | 0.83597    | 2.2977     | 2.9998     |  40.8 | 72.16
Neigh   | 0          | 0          | 0          |   0.0 |  0.00
Comm    | 0.055811   | 0.51798    | 1.5659     |  60.5 | 16.27
Output  | 0          | 0          | 0          |   0.0 |  0.00
Modify  | 3.4085e-05 | 0.0045245  | 0.0096238  |   3.2 |  0.14
Other   |            | 0.3638     |            |       | 11.43

Nlocal:        2776.45 ave        3960 max           0 min
Histogram: 8 4 4 0 4 12 8 4 26 34
Nghost:        3879.07 ave        5426 max         232 min
Histogram: 8 0 8 0 16 0 8 8 16 40
Neighs:        79213.2 ave      115425 max           0 min
Histogram: 8 4 4 0 10 6 8 8 24 32

Total # of neighbors = 8238169
Ave neighs/atom = 28.530357
Neighbor list builds = 0
Dangerous builds = 0
The dot product: 2.62886502337777e-10
