LAMMPS (29 Oct 2020)
OMP_NUM_THREADS environment is not set. Defaulting to 1 thread. (../comm.cpp:94)
  using 1 OpenMP thread(s) per MPI task
OMP_NUM_THREADS environment is not set. Defaulting to 1 thread. (../comm.cpp:94)
  using 1 OpenMP thread(s) per MPI task
Reading data file ...
  orthogonal box = (-122.39241 -121.13707 -37.090501) to (122.39241 121.13707 37.090501)
  13 by 4 by 2 MPI processor grid
  reading atoms ...
  288751 atoms
  read_data CPU = 0.416 seconds
199981 atoms in group inner
88770 atoms in group outer
1 atoms in group carbon
Neighbor list info ...
  update every 1 steps, delay 0 steps, check yes
  max neighbors/atom: 2000, page size: 100000
  master list distance cutoff = 5.6
  ghost atom cutoff = 5.6
  binsize = 2.8, bins = 88 87 27
  1 neighbor lists, perpetual/occasional/extra = 1 0 0
  (1) pair eam/alloy, perpetual
      attributes: half, newton on
      pair build: half/bin/atomonly/newton
      stencil: half/bin/3d/newton
      bin: standard
Setting up cg style minimization ...
  Unit style    : metal
  Current step  : 0
Per MPI rank memory allocation (min/avg/max) = 5.441 | 5.816 | 6.074 Mbytes
Step v_fx v_fy v_fz PotEng KinEng TotEng 
       0   -1.4877285   -1.1060716   -2.5033134   -1152447.8            0   -1152447.8 
     158 7.1877279e-06 1.0472536e-05 3.6695263e-05   -1152449.5            0   -1152449.5 
Loop time of 1.87293 on 104 procs for 158 steps with 288751 atoms

99.8% CPU use with 104 MPI tasks x 1 OpenMP threads

Minimization stats:
  Stopping criterion = energy tolerance
  Energy initial, next-to-last, final = 
     -1152447.78702555   -1152449.4503527   -1152449.4503527
  Force two-norm initial, final = 10.135687 0.0001582131
  Force max component initial, final = 4.5376345 4.0220312e-05
  Final line search alpha, max atom move = 1.0000000 4.0220312e-05
  Iterations, force evaluations = 158 315

MPI task timing breakdown:
Section |  min time  |  avg time  |  max time  |%varavg| %total
---------------------------------------------------------------
Pair    | 0.49449    | 1.3313     | 1.7315     |  30.7 | 71.08
Neigh   | 3.3808e-05 | 0.0087327  | 0.012645   |   3.9 |  0.47
Comm    | 0.029511   | 0.30203    | 0.89363    |  45.2 | 16.13
Output  | 0          | 0          | 0          |   0.0 |  0.00
Modify  | 1.7609e-05 | 0.0017066  | 0.0043735  |   2.6 |  0.09
Other   |            | 0.2292     |            |       | 12.24

Nlocal:        2776.45 ave        3960 max           0 min
Histogram: 8 4 4 0 4 12 8 2 28 34
Nghost:        3879.01 ave        5424 max         232 min
Histogram: 8 0 8 0 16 0 8 8 16 40
Neighs:        79213.5 ave      115442 max           0 min
Histogram: 8 4 4 0 10 6 8 8 24 32

Total # of neighbors = 8238207
Ave neighs/atom = 28.530488
Neighbor list builds = 3
Dangerous builds = 1
Setting atom values ...
  1 settings made for x
  1 settings made for y
  1 settings made for z
Setting up cg style minimization ...
  Unit style    : metal
  Current step  : 158
Per MPI rank memory allocation (min/avg/max) = 5.441 | 5.816 | 6.074 Mbytes
Step PotEng KinEng TotEng v_fx v_fy v_fz 
     158   -1152449.4            0   -1152449.4 -0.0077648732 0.0064574466 0.0012567335 
     296   -1152449.5            0   -1152449.5 -5.7384059e-07 3.5142591e-07 -3.0875143e-07 
Loop time of 1.65696 on 104 procs for 138 steps with 288751 atoms

99.9% CPU use with 104 MPI tasks x 1 OpenMP threads

Minimization stats:
  Stopping criterion = energy tolerance
  Energy initial, next-to-last, final = 
     -1152449.44945344  -1152449.45006285  -1152449.45006285
  Force two-norm initial, final = 0.1154145 0.00012310178
  Force max component initial, final = 0.051707769 3.6993618e-06
  Final line search alpha, max atom move = 1.0000000 3.6993618e-06
  Iterations, force evaluations = 138 276

MPI task timing breakdown:
Section |  min time  |  avg time  |  max time  |%varavg| %total
---------------------------------------------------------------
Pair    | 0.4232     | 1.1733     | 1.5347     |  29.3 | 70.81
Neigh   | 0          | 0          | 0          |   0.0 |  0.00
Comm    | 0.030166   | 0.2706     | 0.79509    |  42.2 | 16.33
Output  | 0          | 0          | 0          |   0.0 |  0.00
Modify  | 1.7712e-05 | 0.0022948  | 0.0049151  |   2.3 |  0.14
Other   |            | 0.2108     |            |       | 12.72

Nlocal:        2776.45 ave        3961 max           0 min
Histogram: 8 4 4 0 6 10 8 2 28 34
Nghost:        3879.01 ave        5424 max         232 min
Histogram: 8 0 8 0 16 0 8 8 16 40
Neighs:        79213.4 ave      115455 max           0 min
Histogram: 8 4 4 0 10 6 8 8 24 32

Total # of neighbors = 8238198
Ave neighs/atom = 28.530457
Neighbor list builds = 0
Dangerous builds = 0
Setting atom values ...
  1 settings made for x
  1 settings made for y
  1 settings made for z
Setting up cg style minimization ...
  Unit style    : metal
  Current step  : 296
Per MPI rank memory allocation (min/avg/max) = 5.441 | 5.816 | 6.074 Mbytes
Step PotEng KinEng TotEng v_fx v_fy v_fz 
     296   -1152449.4            0   -1152449.4 -0.018707446  0.018075276 0.0026667374 
     456   -1152449.4            0   -1152449.4 9.8715719e-08 -3.9194638e-06 -1.5010114e-05 
Loop time of 1.87912 on 104 procs for 160 steps with 288751 atoms

99.9% CPU use with 104 MPI tasks x 1 OpenMP threads

Minimization stats:
  Stopping criterion = energy tolerance
  Energy initial, next-to-last, final = 
     -1152449.44670614  -1152449.44838209  -1152449.44838209
  Force two-norm initial, final = 0.19212155 0.0001635496
  Force max component initial, final = 0.080078113 1.5010114e-05
  Final line search alpha, max atom move = 1.0000000 1.5010114e-05
  Iterations, force evaluations = 160 320

MPI task timing breakdown:
Section |  min time  |  avg time  |  max time  |%varavg| %total
---------------------------------------------------------------
Pair    | 0.48741    | 1.3456     | 1.761      |  31.4 | 71.61
Neigh   | 0          | 0          | 0          |   0.0 |  0.00
Comm    | 0.028154   | 0.30469    | 0.90381    |  45.8 | 16.21
Output  | 0          | 0          | 0          |   0.0 |  0.00
Modify  | 1.8858e-05 | 0.0026538  | 0.0056556  |   2.4 |  0.14
Other   |            | 0.2262     |            |       | 12.04

Nlocal:        2776.45 ave        3961 max           0 min
Histogram: 8 4 4 0 6 10 8 2 28 34
Nghost:        3879.01 ave        5426 max         232 min
Histogram: 8 0 8 0 16 0 8 8 16 40
Neighs:        79213.5 ave      115455 max           0 min
Histogram: 8 4 4 0 10 6 8 8 24 32

Total # of neighbors = 8238199
Ave neighs/atom = 28.530461
Neighbor list builds = 0
Dangerous builds = 0
The dot product: 1.56612925895176e-08
Setting atom values ...
  1 settings made for x
  1 settings made for y
  1 settings made for z
Setting up cg style minimization ...
  Unit style    : metal
  Current step  : 456
Per MPI rank memory allocation (min/avg/max) = 5.441 | 5.816 | 6.074 Mbytes
Step PotEng KinEng TotEng v_fx v_fy v_fz 
     456   -1152449.4            0   -1152449.4 -0.023602805  0.026762835 0.0026636744 
     612   -1152449.4            0   -1152449.4 1.1808545e-06 5.0773254e-07 8.8719952e-06 
Loop time of 1.8758 on 104 procs for 156 steps with 288751 atoms

99.9% CPU use with 104 MPI tasks x 1 OpenMP threads

Minimization stats:
  Stopping criterion = energy tolerance
  Energy initial, next-to-last, final = 
     -1152449.44354969   -1152449.4452268   -1152449.4452268
  Force two-norm initial, final = 0.19231292 7.0434464e-05
  Force max component initial, final = 0.076200709 8.8719952e-06
  Final line search alpha, max atom move = 1.0000000 8.8719952e-06
  Iterations, force evaluations = 156 312

MPI task timing breakdown:
Section |  min time  |  avg time  |  max time  |%varavg| %total
---------------------------------------------------------------
Pair    | 0.47559    | 1.3248     | 1.7457     |  31.2 | 70.62
Neigh   | 0          | 0          | 0          |   0.0 |  0.00
Comm    | 0.034021   | 0.30588    | 0.904      |  44.6 | 16.31
Output  | 0          | 0          | 0          |   0.0 |  0.00
Modify  | 1.9039e-05 | 0.0025885  | 0.0054958  |   2.4 |  0.14
Other   |            | 0.2426     |            |       | 12.93

Nlocal:        2776.45 ave        3960 max           0 min
Histogram: 8 4 4 0 4 12 8 2 28 34
Nghost:        3879.01 ave        5425 max         232 min
Histogram: 8 0 8 0 16 0 8 8 16 40
Neighs:        79213.5 ave      115424 max           0 min
Histogram: 8 4 4 0 10 6 8 8 24 32

Total # of neighbors = 8238201
Ave neighs/atom = 28.530467
Neighbor list builds = 0
Dangerous builds = 0
The dot product: -1.91832259552068e-08
Setting atom values ...
  1 settings made for x
  1 settings made for y
  1 settings made for z
Setting up cg style minimization ...
  Unit style    : metal
  Current step  : 612
Per MPI rank memory allocation (min/avg/max) = 5.441 | 5.816 | 6.074 Mbytes
Step PotEng KinEng TotEng v_fx v_fy v_fz 
     612   -1152449.4            0   -1152449.4 -0.025603318  0.033909974 0.0039138882 
     770   -1152449.4            0   -1152449.4 3.3468977e-07 9.8203244e-07 8.7300065e-06 
Loop time of 1.84467 on 104 procs for 158 steps with 288751 atoms

99.9% CPU use with 104 MPI tasks x 1 OpenMP threads

Minimization stats:
  Stopping criterion = energy tolerance
  Energy initial, next-to-last, final = 
     -1152449.43890926  -1152449.44057825  -1152449.44057825
  Force two-norm initial, final = 0.19189412 2.4237835e-05
  Force max component initial, final = 0.07340191 8.7300065e-06
  Final line search alpha, max atom move = 1.0000000 8.7300065e-06
  Iterations, force evaluations = 158 316

MPI task timing breakdown:
Section |  min time  |  avg time  |  max time  |%varavg| %total
---------------------------------------------------------------
Pair    | 0.48008    | 1.3267     | 1.7363     |  31.1 | 71.92
Neigh   | 0          | 0          | 0          |   0.0 |  0.00
Comm    | 0.028683   | 0.2989     | 0.89111    |  45.5 | 16.20
Output  | 0          | 0          | 0          |   0.0 |  0.00
Modify  | 1.9415e-05 | 0.0026123  | 0.0055894  |   2.4 |  0.14
Other   |            | 0.2165     |            |       | 11.74

Nlocal:        2776.45 ave        3960 max           0 min
Histogram: 8 4 4 0 4 12 8 2 28 34
Nghost:        3879.01 ave        5425 max         232 min
Histogram: 8 0 8 0 16 0 8 8 16 40
Neighs:        79213.5 ave      115424 max           0 min
Histogram: 8 4 4 0 10 6 8 8 24 32

Total # of neighbors = 8238201
Ave neighs/atom = 28.530467
Neighbor list builds = 0
Dangerous builds = 0
The dot product: -1.51934989676532e-08
Setting atom values ...
  1 settings made for x
  1 settings made for y
  1 settings made for z
Setting up cg style minimization ...
  Unit style    : metal
  Current step  : 770
Per MPI rank memory allocation (min/avg/max) = 5.441 | 5.816 | 6.074 Mbytes
Step PotEng KinEng TotEng v_fx v_fy v_fz 
     770   -1152449.4            0   -1152449.4 -0.025933225  0.039457898  0.006116932 
     921   -1152449.4            0   -1152449.4 3.1993985e-07 -8.1314029e-07 -2.6541244e-06 
Loop time of 1.80864 on 104 procs for 151 steps with 288751 atoms

99.8% CPU use with 104 MPI tasks x 1 OpenMP threads

Minimization stats:
  Stopping criterion = energy tolerance
  Energy initial, next-to-last, final = 
     -1152449.43275219  -1152449.43440589  -1152449.43440589
  Force two-norm initial, final = 0.1909962 2.8613420e-05
  Force max component initial, final = 0.073760674 2.6541244e-06
  Final line search alpha, max atom move = 1.0000000 2.6541244e-06
  Iterations, force evaluations = 151 302

MPI task timing breakdown:
Section |  min time  |  avg time  |  max time  |%varavg| %total
---------------------------------------------------------------
Pair    | 0.46847    | 1.2818     | 1.6723     |  30.3 | 70.87
Neigh   | 0          | 0          | 0          |   0.0 |  0.00
Comm    | 0.028818   | 0.29156    | 0.85587    |  43.9 | 16.12
Output  | 0          | 0          | 0          |   0.0 |  0.00
Modify  | 1.7788e-05 | 0.002509   | 0.0053737  |   2.4 |  0.14
Other   |            | 0.2328     |            |       | 12.87

Nlocal:        2776.45 ave        3960 max           0 min
Histogram: 8 4 4 0 4 12 8 2 28 34
Nghost:        3879.01 ave        5426 max         232 min
Histogram: 8 0 8 0 16 0 8 8 16 40
Neighs:        79213.5 ave      115424 max           0 min
Histogram: 8 4 4 0 10 6 8 8 24 32

Total # of neighbors = 8238200
Ave neighs/atom = 28.530464
Neighbor list builds = 0
Dangerous builds = 0
The dot product: 6.46889200515603e-10
Setting atom values ...
  1 settings made for x
  1 settings made for y
  1 settings made for z
Setting up cg style minimization ...
  Unit style    : metal
  Current step  : 921
Per MPI rank memory allocation (min/avg/max) = 5.441 | 5.816 | 6.074 Mbytes
Step PotEng KinEng TotEng v_fx v_fy v_fz 
     921   -1152449.4            0   -1152449.4 -0.025536373  0.043952159 0.0090524064 
    1000   -1152449.4            0   -1152449.4 1.3057643e-05 -2.8734433e-05 -6.8558606e-05 
    1040   -1152449.4            0   -1152449.4 -6.2017718e-07 -4.7439176e-06 -5.9126602e-05 
Loop time of 1.39198 on 104 procs for 119 steps with 288751 atoms

99.9% CPU use with 104 MPI tasks x 1 OpenMP threads

Minimization stats:
  Stopping criterion = energy tolerance
  Energy initial, next-to-last, final = 
     -1152449.42504369  -1152449.42667916  -1152449.42667916
  Force two-norm initial, final = 0.1898731 0.00016792381
  Force max component initial, final = 0.073423473 5.9126602e-05
  Final line search alpha, max atom move = 1.0000000 5.9126602e-05
  Iterations, force evaluations = 119 238

MPI task timing breakdown:
Section |  min time  |  avg time  |  max time  |%varavg| %total
---------------------------------------------------------------
Pair    | 0.36306    | 1.0005     | 1.3094     |  27.0 | 71.88
Neigh   | 0          | 0          | 0          |   0.0 |  0.00
Comm    | 0.024781   | 0.22543    | 0.67665    |  39.7 | 16.20
Output  | 0.0002415  | 0.00024437 | 0.00036549 |   0.0 |  0.02
Modify  | 1.4654e-05 | 0.0019766  | 0.0042172  |   2.1 |  0.14
Other   |            | 0.1638     |            |       | 11.77

Nlocal:        2776.45 ave        3959 max           0 min
Histogram: 8 4 4 0 4 12 8 2 28 34
Nghost:        3879.01 ave        5426 max         232 min
Histogram: 8 0 8 0 16 0 8 8 16 40
Neighs:        79213.5 ave      115390 max           0 min
Histogram: 8 4 4 0 10 6 8 8 24 32

Total # of neighbors = 8238202
Ave neighs/atom = 28.530471
Neighbor list builds = 0
Dangerous builds = 0
The dot product: 7.29563937442869e-08
Setting atom values ...
  1 settings made for x
  1 settings made for y
  1 settings made for z
Setting up cg style minimization ...
  Unit style    : metal
  Current step  : 1040
Per MPI rank memory allocation (min/avg/max) = 5.441 | 5.816 | 6.074 Mbytes
Step PotEng KinEng TotEng v_fx v_fy v_fz 
    1040   -1152449.4            0   -1152449.4  -0.02490584  0.047953236   0.01251058 
    1191   -1152449.4            0   -1152449.4 -2.1394477e-07 -2.961532e-08 -5.6504877e-06 
Loop time of 1.77922 on 104 procs for 151 steps with 288751 atoms

99.9% CPU use with 104 MPI tasks x 1 OpenMP threads

Minimization stats:
  Stopping criterion = energy tolerance
  Energy initial, next-to-last, final = 
     -1152449.41575821  -1152449.41737502  -1152449.41737502
  Force two-norm initial, final = 0.18870617 5.0240951e-05
  Force max component initial, final = 0.072491557 5.6504877e-06
  Final line search alpha, max atom move = 1.0000000 5.6504877e-06
  Iterations, force evaluations = 151 302

MPI task timing breakdown:
Section |  min time  |  avg time  |  max time  |%varavg| %total
---------------------------------------------------------------
Pair    | 0.45919    | 1.2738     | 1.6685     |  30.5 | 71.60
Neigh   | 0          | 0          | 0          |   0.0 |  0.00
Comm    | 0.027317   | 0.28863    | 0.86257    |  44.7 | 16.22
Output  | 0          | 0          | 0          |   0.0 |  0.00
Modify  | 1.8058e-05 | 0.0025017  | 0.0053511  |   2.4 |  0.14
Other   |            | 0.2143     |            |       | 12.04

Nlocal:        2776.45 ave        3959 max           0 min
Histogram: 8 4 4 0 4 12 8 2 28 34
Nghost:        3879.01 ave        5427 max         232 min
Histogram: 8 0 8 0 16 0 8 8 16 40
Neighs:        79213.5 ave      115390 max           0 min
Histogram: 8 4 4 0 10 6 8 8 24 32

Total # of neighbors = 8238201
Ave neighs/atom = 28.530467
Neighbor list builds = 0
Dangerous builds = 0
The dot product: 6.92089038714379e-09
Setting atom values ...
  1 settings made for x
  1 settings made for y
  1 settings made for z
Setting up cg style minimization ...
  Unit style    : metal
  Current step  : 1191
Per MPI rank memory allocation (min/avg/max) = 5.441 | 5.816 | 6.074 Mbytes
Step PotEng KinEng TotEng v_fx v_fy v_fz 
    1191   -1152449.4            0   -1152449.4 -0.024299141  0.052064567  0.016630015 
    1350   -1152449.4            0   -1152449.4 6.4547545e-07 -2.0838476e-06 -1.1509694e-05 
Loop time of 1.85144 on 104 procs for 159 steps with 288751 atoms

99.9% CPU use with 104 MPI tasks x 1 OpenMP threads

Minimization stats:
  Stopping criterion = energy tolerance
  Energy initial, next-to-last, final = 
     -1152449.40488155  -1152449.40648233  -1152449.40648233
  Force two-norm initial, final = 0.18773721 4.0601536e-05
  Force max component initial, final = 0.071100623 1.1509694e-05
  Final line search alpha, max atom move = 1.0000000 1.1509694e-05
  Iterations, force evaluations = 159 318

MPI task timing breakdown:
Section |  min time  |  avg time  |  max time  |%varavg| %total
---------------------------------------------------------------
Pair    | 0.48164    | 1.3359     | 1.7431     |  31.2 | 72.16
Neigh   | 0          | 0          | 0          |   0.0 |  0.00
Comm    | 0.029887   | 0.30027    | 0.90114    |  45.9 | 16.22
Output  | 0          | 0          | 0          |   0.0 |  0.00
Modify  | 1.891e-05  | 0.00263    | 0.005612   |   2.4 |  0.14
Other   |            | 0.2126     |            |       | 11.48

Nlocal:        2776.45 ave        3958 max           0 min
Histogram: 8 4 4 0 4 12 8 2 28 34
Nghost:        3879.01 ave        5425 max         232 min
Histogram: 8 0 8 0 16 0 8 8 16 40
Neighs:        79213.5 ave      115348 max           0 min
Histogram: 8 4 4 0 10 6 8 8 24 32

Total # of neighbors = 8238200
Ave neighs/atom = 28.530464
Neighbor list builds = 0
Dangerous builds = 0
The dot product: -6.62272027063603e-09
Setting atom values ...
  1 settings made for x
  1 settings made for y
  1 settings made for z
Setting up cg style minimization ...
  Unit style    : metal
  Current step  : 1350
Per MPI rank memory allocation (min/avg/max) = 5.441 | 5.816 | 6.074 Mbytes
Step PotEng KinEng TotEng v_fx v_fy v_fz 
    1350   -1152449.4            0   -1152449.4 -0.023817911  0.056916549  0.021483999 
    1484   -1152449.4            0   -1152449.4 3.0242591e-07 4.8959577e-07 2.0068518e-05 
Loop time of 1.60657 on 104 procs for 134 steps with 288751 atoms

99.9% CPU use with 104 MPI tasks x 1 OpenMP threads

Minimization stats:
  Stopping criterion = energy tolerance
  Energy initial, next-to-last, final = 
     -1152449.39241389  -1152449.39400791  -1152449.39400791
  Force two-norm initial, final = 0.18715219 8.5616699e-05
  Force max component initial, final = 0.069081183 2.0068518e-05
  Final line search alpha, max atom move = 1.0000000 2.0068518e-05
  Iterations, force evaluations = 134 268

MPI task timing breakdown:
Section |  min time  |  avg time  |  max time  |%varavg| %total
---------------------------------------------------------------
Pair    | 0.41194    | 1.1373     | 1.4976     |  28.9 | 70.79
Neigh   | 0          | 0          | 0          |   0.0 |  0.00
Comm    | 0.024416   | 0.26169    | 0.77497    |  41.6 | 16.29
Output  | 0          | 0          | 0          |   0.0 |  0.00
Modify  | 1.6141e-05 | 0.0022261  | 0.004748   |   2.2 |  0.14
Other   |            | 0.2053     |            |       | 12.78

Nlocal:        2776.45 ave        3958 max           0 min
Histogram: 8 4 4 0 4 12 8 2 28 34
Nghost:        3879.01 ave        5424 max         232 min
Histogram: 8 0 8 0 16 0 8 8 16 40
Neighs:        79213.4 ave      115348 max           0 min
Histogram: 8 4 4 0 10 6 8 8 24 32

Total # of neighbors = 8238198
Ave neighs/atom = 28.530457
Neighbor list builds = 0
Dangerous builds = 0
The dot product: 6.41597794268961e-09
Setting atom values ...
  1 settings made for x
  1 settings made for y
  1 settings made for z
Setting up cg style minimization ...
  Unit style    : metal
  Current step  : 1484
Per MPI rank memory allocation (min/avg/max) = 5.441 | 5.816 | 6.074 Mbytes
Step PotEng KinEng TotEng v_fx v_fy v_fz 
    1484   -1152449.4            0   -1152449.4 -0.023448854  0.063316388  0.027499746 
    1644   -1152449.4            0   -1152449.4 6.6219804e-07 -1.4447963e-06 4.1954322e-06 
Loop time of 1.89268 on 104 procs for 160 steps with 288751 atoms

99.9% CPU use with 104 MPI tasks x 1 OpenMP threads

Minimization stats:
  Stopping criterion = energy tolerance
  Energy initial, next-to-last, final = 
     -1152449.37838093  -1152449.37999024  -1152449.37999024
  Force two-norm initial, final = 0.18738365 2.4665776e-05
  Force max component initial, final = 0.066317686 4.1954322e-06
  Final line search alpha, max atom move = 1.0000000 4.1954322e-06
  Iterations, force evaluations = 160 320

MPI task timing breakdown:
Section |  min time  |  avg time  |  max time  |%varavg| %total
---------------------------------------------------------------
Pair    | 0.48526    | 1.3482     | 1.764      |  31.5 | 71.23
Neigh   | 0          | 0          | 0          |   0.0 |  0.00
Comm    | 0.032471   | 0.30567    | 0.90785    |  46.0 | 16.15
Output  | 0          | 0          | 0          |   0.0 |  0.00
Modify  | 1.8971e-05 | 0.0026495  | 0.0056757  |   2.4 |  0.14
Other   |            | 0.2362     |            |       | 12.48

Nlocal:        2776.45 ave        3958 max           0 min
Histogram: 8 4 4 0 4 12 8 2 28 34
Nghost:        3879.05 ave        5424 max         232 min
Histogram: 8 0 8 0 16 0 8 8 16 40
Neighs:        79213.4 ave      115348 max           0 min
Histogram: 8 4 4 0 10 6 8 8 24 32

Total # of neighbors = 8238198
Ave neighs/atom = 28.530457
Neighbor list builds = 0
Dangerous builds = 0
The dot product: -7.09231860400118e-09
Setting atom values ...
  1 settings made for x
  1 settings made for y
  1 settings made for z
Setting up cg style minimization ...
  Unit style    : metal
  Current step  : 1644
Per MPI rank memory allocation (min/avg/max) = 5.441 | 5.816 | 6.074 Mbytes
Step PotEng KinEng TotEng v_fx v_fy v_fz 
    1644   -1152449.4            0   -1152449.4 -0.023602741  0.074674638  0.038030101 
    1768   -1152449.4            0   -1152449.4 2.269821e-06 -3.9268201e-06 2.8395201e-05 
Loop time of 1.45727 on 104 procs for 124 steps with 288751 atoms

99.9% CPU use with 104 MPI tasks x 1 OpenMP threads

Minimization stats:
  Stopping criterion = energy tolerance
  Energy initial, next-to-last, final = 
     -1152449.36286924  -1152449.36461538  -1152449.36461538
  Force two-norm initial, final = 0.19052664 0.00014657002
  Force max component initial, final = 0.074674638 2.8395201e-05
  Final line search alpha, max atom move = 1.0000000 2.8395201e-05
  Iterations, force evaluations = 124 248

MPI task timing breakdown:
Section |  min time  |  avg time  |  max time  |%varavg| %total
---------------------------------------------------------------
Pair    | 0.37635    | 1.0476     | 1.3719     |  27.7 | 71.89
Neigh   | 0          | 0          | 0          |   0.0 |  0.00
Comm    | 0.022272   | 0.23832    | 0.70851    |  40.6 | 16.35
Output  | 0          | 0          | 0          |   0.0 |  0.00
Modify  | 1.4671e-05 | 0.0020568  | 0.0044132  |   2.1 |  0.14
Other   |            | 0.1693     |            |       | 11.62

Nlocal:        2776.45 ave        3957 max           0 min
Histogram: 8 4 4 0 4 12 8 2 28 34
Nghost:        3879.05 ave        5426 max         232 min
Histogram: 8 0 8 0 16 0 8 8 16 40
Neighs:        79213.4 ave      115326 max           0 min
Histogram: 8 4 4 0 10 6 8 8 24 32

Total # of neighbors = 8238197
Ave neighs/atom = 28.530454
Neighbor list builds = 0
Dangerous builds = 0
The dot product: 9.77342451626299e-08
Setting atom values ...
  1 settings made for x
  1 settings made for y
  1 settings made for z
Setting up cg style minimization ...
  Unit style    : metal
  Current step  : 1768
Per MPI rank memory allocation (min/avg/max) = 5.441 | 5.816 | 6.074 Mbytes
Step PotEng KinEng TotEng v_fx v_fy v_fz 
    1768   -1152449.3            0   -1152449.3 -0.023552775   0.10247837  0.062657001 
    1907   -1152449.4            0   -1152449.4 -1.0511157e-05 2.6770216e-05 -5.6552581e-05 
Loop time of 1.62903 on 104 procs for 139 steps with 288751 atoms

99.9% CPU use with 104 MPI tasks x 1 OpenMP threads

Minimization stats:
  Stopping criterion = energy tolerance
  Energy initial, next-to-last, final = 
     -1152449.34635943  -1152449.35088797  -1152449.35088797
  Force two-norm initial, final = 0.20594689 0.00022931639
  Force max component initial, final = 0.10247837 5.6552581e-05
  Final line search alpha, max atom move = 1.0000000 5.6552581e-05
  Iterations, force evaluations = 139 278

MPI task timing breakdown:
Section |  min time  |  avg time  |  max time  |%varavg| %total
---------------------------------------------------------------
Pair    | 0.42311    | 1.1679     | 1.529      |  29.2 | 71.69
Neigh   | 0          | 0          | 0          |   0.0 |  0.00
Comm    | 0.026813   | 0.26456    | 0.78972    |  42.6 | 16.24
Output  | 0          | 0          | 0          |   0.0 |  0.00
Modify  | 1.7165e-05 | 0.002304   | 0.0049157  |   2.3 |  0.14
Other   |            | 0.1942     |            |       | 11.92

Nlocal:        2776.45 ave        3958 max           0 min
Histogram: 8 4 4 0 4 12 8 2 28 34
Nghost:        3879.05 ave        5429 max         232 min
Histogram: 8 0 8 0 16 0 8 8 16 40
Neighs:        79213.4 ave      115348 max           0 min
Histogram: 8 4 4 0 10 6 8 8 24 32

Total # of neighbors = 8238192
Ave neighs/atom = 28.530436
Neighbor list builds = 0
Dangerous builds = 0
The dot product: -6.77685175755578e-07
Setting atom values ...
  1 settings made for x
  1 settings made for y
  1 settings made for z
Setting up cg style minimization ...
  Unit style    : metal
  Current step  : 1907
Per MPI rank memory allocation (min/avg/max) = 5.441 | 5.816 | 6.074 Mbytes
Step PotEng KinEng TotEng v_fx v_fy v_fz 
    1907   -1152449.3            0   -1152449.3  0.023726947   0.21798835   0.13877996 
    2000   -1152449.3            0   -1152449.3 4.8192914e-05 -0.00022830009 0.00018486175 
    2155   -1152449.3            0   -1152449.3 -1.1982059e-06 -2.9716385e-06 -5.8464336e-06 
Loop time of 2.9423 on 104 procs for 248 steps with 288751 atoms

99.9% CPU use with 104 MPI tasks x 1 OpenMP threads

Minimization stats:
  Stopping criterion = energy tolerance
  Energy initial, next-to-last, final = 
     -1152449.33554851  -1152449.34591904  -1152449.34591904
  Force two-norm initial, final = 0.29928521 3.7055089e-05
  Force max component initial, final = 0.21798835 1.0737354e-05
  Final line search alpha, max atom move = 1.0000000 1.0737354e-05
  Iterations, force evaluations = 248 496

MPI task timing breakdown:
Section |  min time  |  avg time  |  max time  |%varavg| %total
---------------------------------------------------------------
Pair    | 0.75647    | 2.0925     | 2.7456     |  39.0 | 71.12
Neigh   | 1.0201e-05 | 0.0029337  | 0.0042672  |   2.2 |  0.10
Comm    | 0.046318   | 0.47393    | 1.407      |  56.9 | 16.11
Output  | 0.00014543 | 0.00015471 | 0.00028635 |   0.0 |  0.01
Modify  | 3.1022e-05 | 0.0040998  | 0.0087321  |   3.0 |  0.14
Other   |            | 0.3686     |            |       | 12.53

Nlocal:        2776.45 ave        3959 max           0 min
Histogram: 8 4 4 0 4 12 8 2 28 34
Nghost:        3879.05 ave        5427 max         232 min
Histogram: 8 0 8 0 16 0 8 8 16 40
Neighs:        79213.4 ave      115392 max           0 min
Histogram: 8 4 4 0 10 6 8 8 24 32

Total # of neighbors = 8238196
Ave neighs/atom = 28.530450
Neighbor list builds = 1
Dangerous builds = 0
The dot product: -4.15261621425288e-07
Setting atom values ...
  1 settings made for x
  1 settings made for y
  1 settings made for z
Setting up cg style minimization ...
  Unit style    : metal
  Current step  : 2155
Per MPI rank memory allocation (min/avg/max) = 5.441 | 5.816 | 6.074 Mbytes
Step PotEng KinEng TotEng v_fx v_fy v_fz 
    2155   -1152449.3            0   -1152449.3  0.070497077   0.17555524   0.08012984 
    2394   -1152449.3            0   -1152449.3 2.6065379e-05 2.7474813e-05 5.3236249e-05 
Loop time of 2.87105 on 104 procs for 239 steps with 288751 atoms

99.8% CPU use with 104 MPI tasks x 1 OpenMP threads

Minimization stats:
  Stopping criterion = energy tolerance
  Energy initial, next-to-last, final = 
     -1152449.33328108  -1152449.34468427  -1152449.34468427
  Force two-norm initial, final = 0.24756998 0.00025508151
  Force max component initial, final = 0.17555524 5.3236249e-05
  Final line search alpha, max atom move = 1.0000000 5.3236249e-05
  Iterations, force evaluations = 239 478

MPI task timing breakdown:
Section |  min time  |  avg time  |  max time  |%varavg| %total
---------------------------------------------------------------
Pair    | 0.73052    | 2.0205     | 2.6451     |  38.4 | 70.38
Neigh   | 1.0556e-05 | 0.0029312  | 0.0042678  |   2.2 |  0.10
Comm    | 0.058645   | 0.4655     | 1.3585     |  54.8 | 16.21
Output  | 0          | 0          | 0          |   0.0 |  0.00
Modify  | 3.0464e-05 | 0.0039551  | 0.0084352  |   3.0 |  0.14
Other   |            | 0.3782     |            |       | 13.17

Nlocal:        2776.45 ave        3961 max           0 min
Histogram: 8 4 4 0 6 10 8 2 28 34
Nghost:        3879.03 ave        5424 max         232 min
Histogram: 8 0 8 0 16 0 8 8 16 40
Neighs:        79213.4 ave      115465 max           0 min
Histogram: 8 4 4 0 10 6 8 8 24 32

Total # of neighbors = 8238189
Ave neighs/atom = 28.530426
Neighbor list builds = 1
Dangerous builds = 0
The dot product: 6.06616484509779e-06
Setting atom values ...
  1 settings made for x
  1 settings made for y
  1 settings made for z
Setting up cg style minimization ...
  Unit style    : metal
  Current step  : 2394
Per MPI rank memory allocation (min/avg/max) = 5.441 | 5.816 | 6.074 Mbytes
Step PotEng KinEng TotEng v_fx v_fy v_fz 
    2394   -1152449.3            0   -1152449.3  -0.04994748 -0.029996518 -0.047921353 
    2574   -1152449.3            0   -1152449.3 -1.7912185e-05 -1.9111115e-06 -2.4155005e-05 
Loop time of 2.13738 on 104 procs for 180 steps with 288751 atoms

99.9% CPU use with 104 MPI tasks x 1 OpenMP threads

Minimization stats:
  Stopping criterion = energy tolerance
  Energy initial, next-to-last, final = 
     -1152449.34688104  -1152449.34818996  -1152449.34818996
  Force two-norm initial, final = 0.14636235 9.8354463e-05
  Force max component initial, final = 0.04994748 2.4155005e-05
  Final line search alpha, max atom move = 1.0000000 2.4155005e-05
  Iterations, force evaluations = 180 360

MPI task timing breakdown:
Section |  min time  |  avg time  |  max time  |%varavg| %total
---------------------------------------------------------------
Pair    | 0.5482     | 1.5209     | 1.9878     |  33.3 | 71.16
Neigh   | 0          | 0          | 0          |   0.0 |  0.00
Comm    | 0.037422   | 0.34621    | 1.0223     |  48.4 | 16.20
Output  | 0          | 0          | 0          |   0.0 |  0.00
Modify  | 2.3229e-05 | 0.0029829  | 0.0063515  |   2.6 |  0.14
Other   |            | 0.2673     |            |       | 12.51

Nlocal:        2776.45 ave        3961 max           0 min
Histogram: 8 4 4 0 6 10 8 2 28 34
Nghost:        3879.07 ave        5424 max         232 min
Histogram: 8 0 8 0 16 0 8 8 16 40
Neighs:        79213.4 ave      115457 max           0 min
Histogram: 8 4 4 0 10 6 8 8 24 32

Total # of neighbors = 8238192
Ave neighs/atom = 28.530436
Neighbor list builds = 0
Dangerous builds = 0
The dot product: 2.6164301770368e-07
Setting atom values ...
  1 settings made for x
  1 settings made for y
  1 settings made for z
Setting up cg style minimization ...
  Unit style    : metal
  Current step  : 2574
Per MPI rank memory allocation (min/avg/max) = 5.441 | 5.816 | 6.074 Mbytes
Step PotEng KinEng TotEng v_fx v_fy v_fz 
    2574   -1152449.3            0   -1152449.3 -0.0066873985 0.0096205362 -0.017545917 
    2749   -1152449.4            0   -1152449.4 3.9196483e-06 3.3073236e-06 3.4075181e-06 
Loop time of 2.05375 on 104 procs for 175 steps with 288751 atoms

99.9% CPU use with 104 MPI tasks x 1 OpenMP threads

Minimization stats:
  Stopping criterion = energy tolerance
  Energy initial, next-to-last, final = 
     -1152449.34955095  -1152449.35045775  -1152449.35045775
  Force two-norm initial, final = 0.12495449 0.00014728301
  Force max component initial, final = 0.047694233 1.4208804e-05
  Final line search alpha, max atom move = 1.0000000 1.4208804e-05
  Iterations, force evaluations = 175 350

MPI task timing breakdown:
Section |  min time  |  avg time  |  max time  |%varavg| %total
---------------------------------------------------------------
Pair    | 0.53057    | 1.4718     | 1.9184     |  32.5 | 71.66
Neigh   | 0          | 0          | 0          |   0.0 |  0.00
Comm    | 0.032325   | 0.3316     | 0.98884    |  47.9 | 16.15
Output  | 0          | 0          | 0          |   0.0 |  0.00
Modify  | 2.0184e-05 | 0.0028951  | 0.0061838  |   2.5 |  0.14
Other   |            | 0.2475     |            |       | 12.05

Nlocal:        2776.45 ave        3961 max           0 min
Histogram: 8 4 4 0 6 10 8 2 28 34
Nghost:        3879.07 ave        5425 max         232 min
Histogram: 8 0 8 0 16 0 8 8 16 40
Neighs:        79213.4 ave      115447 max           0 min
Histogram: 8 4 4 0 10 6 8 8 24 32

Total # of neighbors = 8238193
Ave neighs/atom = 28.530440
Neighbor list builds = 0
Dangerous builds = 0
The dot product: 4.43992486207752e-09
Setting atom values ...
  1 settings made for x
  1 settings made for y
  1 settings made for z
Setting up cg style minimization ...
  Unit style    : metal
  Current step  : 2749
Per MPI rank memory allocation (min/avg/max) = 5.441 | 5.816 | 6.074 Mbytes
Step PotEng KinEng TotEng v_fx v_fy v_fz 
    2749   -1152449.4            0   -1152449.4 -0.010231367 0.0063167744 -0.020387832 
    2924   -1152449.4            0   -1152449.4 1.355565e-05 1.2376413e-05 1.0972355e-05 
Loop time of 2.06614 on 104 procs for 175 steps with 288751 atoms

99.9% CPU use with 104 MPI tasks x 1 OpenMP threads

Minimization stats:
  Stopping criterion = energy tolerance
  Energy initial, next-to-last, final = 
      -1152449.3506091  -1152449.35151125  -1152449.35151125
  Force two-norm initial, final = 0.12559258 0.00016317151
  Force max component initial, final = 0.047092357 2.5928360e-05
  Final line search alpha, max atom move = 1.0000000 2.5928360e-05
  Iterations, force evaluations = 175 350

MPI task timing breakdown:
Section |  min time  |  avg time  |  max time  |%varavg| %total
---------------------------------------------------------------
Pair    | 0.53083    | 1.4805     | 1.9449     |  32.8 | 71.65
Neigh   | 0          | 0          | 0          |   0.0 |  0.00
Comm    | 0.03064    | 0.33856    | 1.0119     |  48.2 | 16.39
Output  | 0          | 0          | 0          |   0.0 |  0.00
Modify  | 2.1098e-05 | 0.002902   | 0.0062072  |   2.5 |  0.14
Other   |            | 0.2442     |            |       | 11.82

Nlocal:        2776.45 ave        3961 max           0 min
Histogram: 8 4 4 0 6 10 8 2 28 34
Nghost:        3879.09 ave        5424 max         232 min
Histogram: 8 0 8 0 16 0 8 8 16 40
Neighs:        79213.4 ave      115465 max           0 min
Histogram: 8 4 4 0 10 6 8 8 24 32

Total # of neighbors = 8238189
Ave neighs/atom = 28.530426
Neighbor list builds = 0
Dangerous builds = 0
The dot product: -4.24372813869499e-09
Setting atom values ...
  1 settings made for x
  1 settings made for y
  1 settings made for z
Setting up cg style minimization ...
  Unit style    : metal
  Current step  : 2924
Per MPI rank memory allocation (min/avg/max) = 5.441 | 5.816 | 6.074 Mbytes
Step PotEng KinEng TotEng v_fx v_fy v_fz 
    2924   -1152449.4            0   -1152449.4 -0.0094654531 0.0065767019 -0.019492287 
    3000   -1152449.4            0   -1152449.4 -0.00012601437 -3.5461935e-05 -0.00016399935 
    3087   -1152449.4            0   -1152449.4 4.3600516e-06 -4.1833688e-05 3.9103755e-05 
Loop time of 1.95616 on 104 procs for 163 steps with 288751 atoms

99.9% CPU use with 104 MPI tasks x 1 OpenMP threads

Minimization stats:
  Stopping criterion = energy tolerance
  Energy initial, next-to-last, final = 
     -1152449.35035463   -1152449.3512499   -1152449.3512499
  Force two-norm initial, final = 0.12514459 0.00024038499
  Force max component initial, final = 0.046465868 4.1833688e-05
  Final line search alpha, max atom move = 1.0000000 4.1833688e-05
  Iterations, force evaluations = 163 326

MPI task timing breakdown:
Section |  min time  |  avg time  |  max time  |%varavg| %total
---------------------------------------------------------------
Pair    | 0.49489    | 1.3784     | 1.8205     |  32.0 | 70.46
Neigh   | 0          | 0          | 0          |   0.0 |  0.00
Comm    | 0.031481   | 0.31706    | 0.93821    |  45.6 | 16.21
Output  | 0.00016439 | 0.00017504 | 0.00029341 |   0.0 |  0.01
Modify  | 1.9792e-05 | 0.002707   | 0.0057502  |   2.5 |  0.14
Other   |            | 0.2578     |            |       | 13.18

Nlocal:        2776.45 ave        3961 max           0 min
Histogram: 8 4 4 0 6 10 8 2 28 34
Nghost:        3879.01 ave        5424 max         232 min
Histogram: 8 0 8 0 16 0 8 8 16 40
Neighs:        79213.4 ave      115465 max           0 min
Histogram: 8 4 4 0 10 6 8 8 24 32

Total # of neighbors = 8238191
Ave neighs/atom = 28.530433
Neighbor list builds = 0
Dangerous builds = 0
The dot product: -3.24763957137431e-08
Setting atom values ...
  1 settings made for x
  1 settings made for y
  1 settings made for z
Setting up cg style minimization ...
  Unit style    : metal
  Current step  : 3087
Per MPI rank memory allocation (min/avg/max) = 5.441 | 5.816 | 6.074 Mbytes
Step PotEng KinEng TotEng v_fx v_fy v_fz 
    3087   -1152449.3            0   -1152449.3 -0.0085590166 0.0064121096 -0.018044905 
    3301   -1152449.3            0   -1152449.3 -1.1917786e-05 -2.7947942e-06 -1.5983871e-05 
Loop time of 2.54001 on 104 procs for 214 steps with 288751 atoms

99.9% CPU use with 104 MPI tasks x 1 OpenMP threads

Minimization stats:
  Stopping criterion = energy tolerance
  Energy initial, next-to-last, final = 
     -1152449.34875662  -1152449.34964002  -1152449.34964002
  Force two-norm initial, final = 0.124238 4.9284194e-05
  Force max component initial, final = 0.045801583 1.5983871e-05
  Final line search alpha, max atom move = 1.0000000 1.5983871e-05
  Iterations, force evaluations = 214 428

MPI task timing breakdown:
Section |  min time  |  avg time  |  max time  |%varavg| %total
---------------------------------------------------------------
Pair    | 0.64912    | 1.8087     | 2.3875     |  36.4 | 71.21
Neigh   | 0          | 0          | 0          |   0.0 |  0.00
Comm    | 0.043308   | 0.41601    | 1.2353     |  52.8 | 16.38
Output  | 0          | 0          | 0          |   0.0 |  0.00
Modify  | 2.6961e-05 | 0.0035462  | 0.0075551  |   2.8 |  0.14
Other   |            | 0.3118     |            |       | 12.28

Nlocal:        2776.45 ave        3960 max           0 min
Histogram: 8 4 4 0 4 12 8 2 28 34
Nghost:        3879.01 ave        5424 max         232 min
Histogram: 8 0 8 0 16 0 8 8 16 40
Neighs:        79213.4 ave      115434 max           0 min
Histogram: 8 4 4 0 10 6 8 8 24 32

Total # of neighbors = 8238191
Ave neighs/atom = 28.530433
Neighbor list builds = 0
Dangerous builds = 0
The dot product: 6.22165669097669e-09
Setting atom values ...
  1 settings made for x
  1 settings made for y
  1 settings made for z
Setting up cg style minimization ...
  Unit style    : metal
  Current step  : 3301
Per MPI rank memory allocation (min/avg/max) = 5.441 | 5.816 | 6.074 Mbytes
Step PotEng KinEng TotEng v_fx v_fy v_fz 
    3301   -1152449.3            0   -1152449.3 -0.0076183197 0.0060892851 -0.016403858 
    3468   -1152449.3            0   -1152449.3 4.2406992e-05 -5.7730735e-06 6.9290205e-05 
Loop time of 1.9491 on 104 procs for 167 steps with 288751 atoms

99.9% CPU use with 104 MPI tasks x 1 OpenMP threads

Minimization stats:
  Stopping criterion = energy tolerance
  Energy initial, next-to-last, final = 
     -1152449.34580405  -1152449.34667342  -1152449.34667342
  Force two-norm initial, final = 0.12326393 0.00023575894
  Force max component initial, final = 0.04514677 6.9290205e-05
  Final line search alpha, max atom move = 1.0000000 6.9290205e-05
  Iterations, force evaluations = 167 334

MPI task timing breakdown:
Section |  min time  |  avg time  |  max time  |%varavg| %total
---------------------------------------------------------------
Pair    | 0.50764    | 1.4077     | 1.8384     |  32.1 | 72.22
Neigh   | 0          | 0          | 0          |   0.0 |  0.00
Comm    | 0.029574   | 0.31745    | 0.95138    |  47.4 | 16.29
Output  | 0          | 0          | 0          |   0.0 |  0.00
Modify  | 2.023e-05  | 0.0027632  | 0.0058921  |   2.5 |  0.14
Other   |            | 0.2212     |            |       | 11.35

Nlocal:        2776.45 ave        3960 max           0 min
Histogram: 8 4 4 0 4 12 8 2 28 34
Nghost:        3879.01 ave        5424 max         232 min
Histogram: 8 0 8 0 16 0 8 8 16 40
Neighs:        79213.4 ave      115434 max           0 min
Histogram: 8 4 4 0 10 6 8 8 24 32

Total # of neighbors = 8238190
Ave neighs/atom = 28.530429
Neighbor list builds = 0
Dangerous builds = 0
The dot product: -3.1540510739194e-08
Setting atom values ...
  1 settings made for x
  1 settings made for y
  1 settings made for z
Setting up cg style minimization ...
  Unit style    : metal
  Current step  : 3468
Per MPI rank memory allocation (min/avg/max) = 5.441 | 5.816 | 6.074 Mbytes
Step PotEng KinEng TotEng v_fx v_fy v_fz 
    3468   -1152449.3            0   -1152449.3 -0.0067413821 0.0054452736 -0.014597026 
    3661   -1152449.3            0   -1152449.3 -1.2835152e-05 -5.4162904e-06 -1.5385063e-05 
Loop time of 2.26391 on 104 procs for 193 steps with 288751 atoms

99.9% CPU use with 104 MPI tasks x 1 OpenMP threads

Minimization stats:
  Stopping criterion = energy tolerance
  Energy initial, next-to-last, final = 
      -1152449.3414883  -1152449.34234483  -1152449.34234483
  Force two-norm initial, final = 0.1224113 9.0177544e-05
  Force max component initial, final = 0.044398691 1.5385063e-05
  Final line search alpha, max atom move = 1.0000000 1.5385063e-05
  Iterations, force evaluations = 193 386

MPI task timing breakdown:
Section |  min time  |  avg time  |  max time  |%varavg| %total
---------------------------------------------------------------
Pair    | 0.58465    | 1.623      | 2.1302     |  34.4 | 71.69
Neigh   | 0          | 0          | 0          |   0.0 |  0.00
Comm    | 0.035299   | 0.36744    | 1.0976     |  50.3 | 16.23
Output  | 0          | 0          | 0          |   0.0 |  0.00
Modify  | 2.3126e-05 | 0.0031901  | 0.0068184  |   2.7 |  0.14
Other   |            | 0.2703     |            |       | 11.94

Nlocal:        2776.45 ave        3960 max           0 min
Histogram: 8 4 4 0 4 12 8 2 28 34
Nghost:        3879.01 ave        5424 max         232 min
Histogram: 8 0 8 0 16 0 8 8 16 40
Neighs:        79213.4 ave      115434 max           0 min
Histogram: 8 4 4 0 10 6 8 8 24 32

Total # of neighbors = 8238191
Ave neighs/atom = 28.530433
Neighbor list builds = 0
Dangerous builds = 0
The dot product: 3.79168177058067e-09
Setting atom values ...
  1 settings made for x
  1 settings made for y
  1 settings made for z
Setting up cg style minimization ...
  Unit style    : metal
  Current step  : 3661
Per MPI rank memory allocation (min/avg/max) = 5.441 | 5.816 | 6.074 Mbytes
Step PotEng KinEng TotEng v_fx v_fy v_fz 
    3661   -1152449.3            0   -1152449.3 -0.006183667 0.0044973029 -0.013023749 
    3847   -1152449.3            0   -1152449.3 2.4604253e-05 2.6142602e-05 1.7098168e-05 
Loop time of 2.16246 on 104 procs for 186 steps with 288751 atoms

99.9% CPU use with 104 MPI tasks x 1 OpenMP threads

Minimization stats:
  Stopping criterion = energy tolerance
  Energy initial, next-to-last, final = 
     -1152449.33579477  -1152449.33664371  -1152449.33664371
  Force two-norm initial, final = 0.12196545 0.0001079719
  Force max component initial, final = 0.04417085 2.6142602e-05
  Final line search alpha, max atom move = 1.0000000 2.6142602e-05
  Iterations, force evaluations = 186 372

MPI task timing breakdown:
Section |  min time  |  avg time  |  max time  |%varavg| %total
---------------------------------------------------------------
Pair    | 0.56455    | 1.5603     | 2.0407     |  33.7 | 72.15
Neigh   | 0          | 0          | 0          |   0.0 |  0.00
Comm    | 0.03349    | 0.35051    | 1.0503     |  49.8 | 16.21
Output  | 0          | 0          | 0          |   0.0 |  0.00
Modify  | 2.322e-05  | 0.0030734  | 0.0065676  |   2.6 |  0.14
Other   |            | 0.2486     |            |       | 11.50

Nlocal:        2776.45 ave        3960 max           0 min
Histogram: 8 4 4 0 4 12 8 2 28 34
Nghost:        3879.05 ave        5424 max         232 min
Histogram: 8 0 8 0 16 0 8 8 16 40
Neighs:        79213.4 ave      115434 max           0 min
Histogram: 8 4 4 0 10 6 8 8 24 32

Total # of neighbors = 8238192
Ave neighs/atom = 28.530436
Neighbor list builds = 0
Dangerous builds = 0
The dot product: -2.79985930830286e-10
Setting atom values ...
  1 settings made for x
  1 settings made for y
  1 settings made for z
Setting up cg style minimization ...
  Unit style    : metal
  Current step  : 3847
Per MPI rank memory allocation (min/avg/max) = 5.441 | 5.816 | 6.074 Mbytes
Step PotEng KinEng TotEng v_fx v_fy v_fz 
    3847   -1152449.3            0   -1152449.3 -0.0057891008 0.0032758512 -0.011474795 
    4000   -1152449.3            0   -1152449.3 6.3641321e-07 -5.942513e-06 5.6740649e-06 
    4019   -1152449.3            0   -1152449.3 -4.445386e-05 -2.966116e-06 -6.5885386e-05 
Loop time of 2.00569 on 104 procs for 172 steps with 288751 atoms

99.9% CPU use with 104 MPI tasks x 1 OpenMP threads

Minimization stats:
  Stopping criterion = energy tolerance
  Energy initial, next-to-last, final = 
     -1152449.32870479  -1152449.32955105  -1152449.32955105
  Force two-norm initial, final = 0.121856 0.00019515934
  Force max component initial, final = 0.044036684 6.5885386e-05
  Final line search alpha, max atom move = 1.0000000 6.5885386e-05
  Iterations, force evaluations = 172 344

MPI task timing breakdown:
Section |  min time  |  avg time  |  max time  |%varavg| %total
---------------------------------------------------------------
Pair    | 0.52298    | 1.4508     | 1.891      |  32.5 | 72.33
Neigh   | 0          | 0          | 0          |   0.0 |  0.00
Comm    | 0.030328   | 0.32571    | 0.97464    |  47.9 | 16.24
Output  | 0.0001581  | 0.00016131 | 0.0002934  |   0.0 |  0.01
Modify  | 2.0928e-05 | 0.0028427  | 0.0060801  |   2.5 |  0.14
Other   |            | 0.2262     |            |       | 11.28

Nlocal:        2776.45 ave        3960 max           0 min
Histogram: 8 4 4 0 4 12 8 2 28 34
Nghost:        3879.05 ave        5424 max         232 min
Histogram: 8 0 8 0 16 0 8 8 16 40
Neighs:        79213.4 ave      115434 max           0 min
Histogram: 8 4 4 0 10 6 8 8 24 32

Total # of neighbors = 8238190
Ave neighs/atom = 28.530429
Neighbor list builds = 0
Dangerous builds = 0
The dot product: 2.02314245100823e-08
Setting atom values ...
  1 settings made for x
  1 settings made for y
  1 settings made for z
Setting up cg style minimization ...
  Unit style    : metal
  Current step  : 4019
Per MPI rank memory allocation (min/avg/max) = 5.441 | 5.816 | 6.074 Mbytes
Step PotEng KinEng TotEng v_fx v_fy v_fz 
    4019   -1152449.3            0   -1152449.3 -0.0057853068 0.0017085687 -0.010243913 
    4185   -1152449.3            0   -1152449.3 9.4562745e-06 2.0435951e-05 -1.651118e-06 
Loop time of 1.94313 on 104 procs for 166 steps with 288751 atoms

99.9% CPU use with 104 MPI tasks x 1 OpenMP threads

Minimization stats:
  Stopping criterion = energy tolerance
  Energy initial, next-to-last, final = 
      -1152449.3201887  -1152449.32103866  -1152449.32103866
  Force two-norm initial, final = 0.12214986 0.0002367049
  Force max component initial, final = 0.043837654 4.1881526e-05
  Final line search alpha, max atom move = 1.0000000 4.1881526e-05
  Iterations, force evaluations = 166 332

MPI task timing breakdown:
Section |  min time  |  avg time  |  max time  |%varavg| %total
---------------------------------------------------------------
Pair    | 0.5039     | 1.3934     | 1.8261     |  31.9 | 71.71
Neigh   | 0          | 0          | 0          |   0.0 |  0.00
Comm    | 0.029355   | 0.31367    | 0.93727    |  46.7 | 16.14
Output  | 0          | 0          | 0          |   0.0 |  0.00
Modify  | 1.9415e-05 | 0.0027453  | 0.0058623  |   2.5 |  0.14
Other   |            | 0.2333     |            |       | 12.01

Nlocal:        2776.45 ave        3960 max           0 min
Histogram: 8 4 4 0 4 12 8 2 28 34
Nghost:        3879.01 ave        5424 max         232 min
Histogram: 8 0 8 0 16 0 8 8 16 40
Neighs:        79213.3 ave      115434 max           0 min
Histogram: 8 4 4 0 10 6 8 8 24 32

Total # of neighbors = 8238188
Ave neighs/atom = 28.530422
Neighbor list builds = 0
Dangerous builds = 0
The dot product: 1.96917030617808e-10
Setting atom values ...
  1 settings made for x
  1 settings made for y
  1 settings made for z
Setting up cg style minimization ...
  Unit style    : metal
  Current step  : 4185
Per MPI rank memory allocation (min/avg/max) = 5.441 | 5.816 | 6.074 Mbytes
Step PotEng KinEng TotEng v_fx v_fy v_fz 
    4185   -1152449.3            0   -1152449.3 -0.0059350021 -7.3066515e-05 -0.0090745631 
    4348   -1152449.3            0   -1152449.3 2.7310129e-06 -3.5833491e-06 7.0434272e-06 
Loop time of 1.92994 on 104 procs for 163 steps with 288751 atoms

99.9% CPU use with 104 MPI tasks x 1 OpenMP threads

Minimization stats:
  Stopping criterion = energy tolerance
  Energy initial, next-to-last, final = 
     -1152449.31021566  -1152449.31107231  -1152449.31107231
  Force two-norm initial, final = 0.12266269 0.0002598841
  Force max component initial, final = 0.043669845 6.3124868e-05
  Final line search alpha, max atom move = 1.0000000 6.3124868e-05
  Iterations, force evaluations = 163 326

MPI task timing breakdown:
Section |  min time  |  avg time  |  max time  |%varavg| %total
---------------------------------------------------------------
Pair    | 0.49741    | 1.3828     | 1.816      |  31.8 | 71.65
Neigh   | 0          | 0          | 0          |   0.0 |  0.00
Comm    | 0.027989   | 0.31402    | 0.93501    |  46.5 | 16.27
Output  | 0          | 0          | 0          |   0.0 |  0.00
Modify  | 1.9484e-05 | 0.0027032  | 0.0057897  |   2.4 |  0.14
Other   |            | 0.2304     |            |       | 11.94

Nlocal:        2776.45 ave        3960 max           0 min
Histogram: 8 4 4 0 4 12 8 2 28 34
Nghost:        3879.01 ave        5424 max         232 min
Histogram: 8 0 8 0 16 0 8 8 16 40
Neighs:        79213.4 ave      115435 max           0 min
Histogram: 8 4 4 0 10 6 8 8 24 32

Total # of neighbors = 8238189
Ave neighs/atom = 28.530426
Neighbor list builds = 0
Dangerous builds = 0
The dot product: -1.81632903076336e-09
Setting atom values ...
  1 settings made for x
  1 settings made for y
  1 settings made for z
Setting up cg style minimization ...
  Unit style    : metal
  Current step  : 4348
Per MPI rank memory allocation (min/avg/max) = 5.441 | 5.816 | 6.074 Mbytes
Step PotEng KinEng TotEng v_fx v_fy v_fz 
    4348   -1152449.3            0   -1152449.3 -0.0064544327 -0.0021029849 -0.0082762943 
    4512   -1152449.3            0   -1152449.3 6.0899865e-06 6.0735496e-05 -3.8796269e-05 
Loop time of 1.94098 on 104 procs for 164 steps with 288751 atoms

99.9% CPU use with 104 MPI tasks x 1 OpenMP threads

Minimization stats:
  Stopping criterion = energy tolerance
  Energy initial, next-to-last, final = 
      -1152449.2987569   -1152449.2996198   -1152449.2996198
  Force two-norm initial, final = 0.12332229 0.00024809627
  Force max component initial, final = 0.043582851 6.0735496e-05
  Final line search alpha, max atom move = 1.0000000 6.0735496e-05
  Iterations, force evaluations = 164 328

MPI task timing breakdown:
Section |  min time  |  avg time  |  max time  |%varavg| %total
---------------------------------------------------------------
Pair    | 0.4978     | 1.3786     | 1.8094     |  31.8 | 71.02
Neigh   | 0          | 0          | 0          |   0.0 |  0.00
Comm    | 0.029269   | 0.31321    | 0.92565    |  46.0 | 16.14
Output  | 0          | 0          | 0          |   0.0 |  0.00
Modify  | 1.9868e-05 | 0.0027281  | 0.005812   |   2.4 |  0.14
Other   |            | 0.2465     |            |       | 12.70

Nlocal:        2776.45 ave        3960 max           0 min
Histogram: 8 4 4 0 4 12 8 2 28 34
Nghost:        3879.07 ave        5424 max         232 min
Histogram: 8 0 8 0 16 0 8 8 16 40
Neighs:        79213.4 ave      115439 max           0 min
Histogram: 8 4 4 0 10 6 8 8 24 32

Total # of neighbors = 8238189
Ave neighs/atom = 28.530426
Neighbor list builds = 0
Dangerous builds = 0
The dot product: -5.00909945623739e-09
Setting atom values ...
  1 settings made for x
  1 settings made for y
  1 settings made for z
Setting up cg style minimization ...
  Unit style    : metal
  Current step  : 4512
Per MPI rank memory allocation (min/avg/max) = 5.441 | 5.816 | 6.074 Mbytes
Step PotEng KinEng TotEng v_fx v_fy v_fz 
    4512   -1152449.3            0   -1152449.3 -0.0073789559 -0.0041666102 -0.0080802163 
    4709   -1152449.3            0   -1152449.3 3.0743192e-06 1.0086025e-05 -3.2566505e-06 
Loop time of 2.3451 on 104 procs for 197 steps with 288751 atoms

99.9% CPU use with 104 MPI tasks x 1 OpenMP threads

Minimization stats:
  Stopping criterion = energy tolerance
  Energy initial, next-to-last, final = 
     -1152449.28579179  -1152449.28665709  -1152449.28665709
  Force two-norm initial, final = 0.12398335 8.3855164e-05
  Force max component initial, final = 0.043311162 1.8124997e-05
  Final line search alpha, max atom move = 1.0000000 1.8124997e-05
  Iterations, force evaluations = 197 394

MPI task timing breakdown:
Section |  min time  |  avg time  |  max time  |%varavg| %total
---------------------------------------------------------------
Pair    | 0.59827    | 1.665      | 2.2116     |  35.0 | 71.00
Neigh   | 0          | 0          | 0          |   0.0 |  0.00
Comm    | 0.035401   | 0.38364    | 1.1325     |  50.5 | 16.36
Output  | 0          | 0          | 0          |   0.0 |  0.00
Modify  | 2.3058e-05 | 0.0032653  | 0.0069431  |   2.7 |  0.14
Other   |            | 0.2932     |            |       | 12.50

Nlocal:        2776.45 ave        3960 max           0 min
Histogram: 8 4 4 0 4 12 8 2 28 34
Nghost:        3879.12 ave        5424 max         232 min
Histogram: 8 0 8 0 16 0 8 8 16 40
Neighs:        79213.3 ave      115439 max           0 min
Histogram: 8 4 4 0 10 6 8 8 24 32

Total # of neighbors = 8238187
Ave neighs/atom = 28.530419
Neighbor list builds = 0
Dangerous builds = 0
The dot product: -3.62182674299754e-09
Setting atom values ...
  1 settings made for x
  1 settings made for y
  1 settings made for z
Setting up cg style minimization ...
  Unit style    : metal
  Current step  : 4709
Per MPI rank memory allocation (min/avg/max) = 5.441 | 5.816 | 6.074 Mbytes
Step PotEng KinEng TotEng v_fx v_fy v_fz 
    4709   -1152449.3            0   -1152449.3 -0.0088430154 -0.0063076984 -0.0086674176 
    4884   -1152449.3            0   -1152449.3 2.4649014e-05 1.3170591e-05 2.7656705e-05 
Loop time of 2.04492 on 104 procs for 175 steps with 288751 atoms

99.9% CPU use with 104 MPI tasks x 1 OpenMP threads

Minimization stats:
  Stopping criterion = energy tolerance
  Energy initial, next-to-last, final = 
     -1152449.27131684  -1152449.27217741  -1152449.27217741
  Force two-norm initial, final = 0.12455043 0.00016092109
  Force max component initial, final = 0.043151252 2.7656705e-05
  Final line search alpha, max atom move = 1.0000000 2.7656705e-05
  Iterations, force evaluations = 175 350

MPI task timing breakdown:
Section |  min time  |  avg time  |  max time  |%varavg| %total
---------------------------------------------------------------
Pair    | 0.53137    | 1.473      | 1.9275     |  32.9 | 72.03
Neigh   | 0          | 0          | 0          |   0.0 |  0.00
Comm    | 0.031508   | 0.33271    | 0.99523    |  48.4 | 16.27
Output  | 0          | 0          | 0          |   0.0 |  0.00
Modify  | 2.1742e-05 | 0.0028985  | 0.0062025  |   2.5 |  0.14
Other   |            | 0.2363     |            |       | 11.56

Nlocal:        2776.45 ave        3960 max           0 min
Histogram: 8 4 4 0 4 12 8 2 28 34
Nghost:        3879.11 ave        5424 max         232 min
Histogram: 8 0 8 0 16 0 8 8 16 40
Neighs:        79213.3 ave      115439 max           0 min
Histogram: 8 4 4 0 10 6 8 8 24 32

Total # of neighbors = 8238186
Ave neighs/atom = 28.530415
Neighbor list builds = 0
Dangerous builds = 0
The dot product: -3.09502830291612e-08
Setting atom values ...
  1 settings made for x
  1 settings made for y
  1 settings made for z
Setting up cg style minimization ...
  Unit style    : metal
  Current step  : 4884
Per MPI rank memory allocation (min/avg/max) = 5.441 | 5.816 | 6.074 Mbytes
Step PotEng KinEng TotEng v_fx v_fy v_fz 
    4884   -1152449.3            0   -1152449.3 -0.010996784 -0.0081322101 -0.010597881 
    5000   -1152449.3            0   -1152449.3 -4.6455991e-05 -4.976367e-05 -3.2562066e-05 
    5063   -1152449.3            0   -1152449.3 3.006594e-05 2.1832523e-05 2.929341e-05 
Loop time of 2.12193 on 104 procs for 179 steps with 288751 atoms

99.9% CPU use with 104 MPI tasks x 1 OpenMP threads

Minimization stats:
  Stopping criterion = energy tolerance
  Energy initial, next-to-last, final = 
     -1152449.25535712  -1152449.25620486  -1152449.25620486
  Force two-norm initial, final = 0.12510883 0.0001407896
  Force max component initial, final = 0.044199485 3.8177632e-05
  Final line search alpha, max atom move = 1.0000000 3.8177632e-05
  Iterations, force evaluations = 179 358

MPI task timing breakdown:
Section |  min time  |  avg time  |  max time  |%varavg| %total
---------------------------------------------------------------
Pair    | 0.54899    | 1.5139     | 1.9808     |  33.1 | 71.34
Neigh   | 0          | 0          | 0          |   0.0 |  0.00
Comm    | 0.031244   | 0.34722    | 1.031      |  48.0 | 16.36
Output  | 0.00016066 | 0.0001704  | 0.0003     |   0.0 |  0.01
Modify  | 2.1886e-05 | 0.002959   | 0.0063379  |   2.6 |  0.14
Other   |            | 0.2577     |            |       | 12.14

Nlocal:        2776.45 ave        3960 max           0 min
Histogram: 8 4 4 0 4 12 8 2 28 34
Nghost:        3879.11 ave        5424 max         232 min
Histogram: 8 0 8 0 16 0 8 8 16 40
Neighs:        79213.3 ave      115442 max           0 min
Histogram: 8 4 4 0 10 6 8 8 24 32

Total # of neighbors = 8238187
Ave neighs/atom = 28.530419
Neighbor list builds = 0
Dangerous builds = 0
The dot product: -5.7944381961339e-08
Setting atom values ...
  1 settings made for x
  1 settings made for y
  1 settings made for z
Setting up cg style minimization ...
  Unit style    : metal
  Current step  : 5063
Per MPI rank memory allocation (min/avg/max) = 5.441 | 5.816 | 6.074 Mbytes
Step PotEng KinEng TotEng v_fx v_fy v_fz 
    5063   -1152449.2            0   -1152449.2 -0.014248315 -0.0096036882 -0.014561415 
    5217   -1152449.2            0   -1152449.2 -5.9175681e-05 -1.347673e-05 -8.1402985e-05 
Loop time of 1.79238 on 104 procs for 154 steps with 288751 atoms

99.9% CPU use with 104 MPI tasks x 1 OpenMP threads

Minimization stats:
  Stopping criterion = energy tolerance
  Energy initial, next-to-last, final = 
     -1152449.23799489  -1152449.23883088  -1152449.23883088
  Force two-norm initial, final = 0.12631031 0.00027347028
  Force max component initial, final = 0.047457187 8.1402985e-05
  Final line search alpha, max atom move = 1.0000000 8.1402985e-05
  Iterations, force evaluations = 154 308

MPI task timing breakdown:
Section |  min time  |  avg time  |  max time  |%varavg| %total
---------------------------------------------------------------
Pair    | 0.46564    | 1.2942     | 1.6901     |  30.8 | 72.20
Neigh   | 0          | 0          | 0          |   0.0 |  0.00
Comm    | 0.027749   | 0.29065    | 0.87271    |  45.4 | 16.22
Output  | 0          | 0          | 0          |   0.0 |  0.00
Modify  | 1.857e-05  | 0.0025495  | 0.0054287  |   2.4 |  0.14
Other   |            | 0.205      |            |       | 11.44

Nlocal:        2776.45 ave        3960 max           0 min
Histogram: 8 4 4 0 4 12 8 2 28 34
Nghost:        3879.09 ave        5424 max         232 min
Histogram: 8 0 8 0 16 0 8 8 16 40
Neighs:        79213.3 ave      115442 max           0 min
Histogram: 8 4 4 0 10 6 8 8 24 32

Total # of neighbors = 8238185
Ave neighs/atom = 28.530412
Neighbor list builds = 0
Dangerous builds = 0
The dot product: 2.11621755312568e-07
Setting atom values ...
  1 settings made for x
  1 settings made for y
  1 settings made for z
Setting up cg style minimization ...
  Unit style    : metal
  Current step  : 5217
Per MPI rank memory allocation (min/avg/max) = 5.441 | 5.816 | 6.074 Mbytes
Step PotEng KinEng TotEng v_fx v_fy v_fz 
    5217   -1152449.2            0   -1152449.2 -0.019382718 -0.010412327 -0.022119911 
    5519   -1152449.3            0   -1152449.3 2.1919319e-06 9.2019543e-07 2.7059138e-06 
Loop time of 3.53725 on 104 procs for 302 steps with 288751 atoms

99.9% CPU use with 104 MPI tasks x 1 OpenMP threads

Minimization stats:
  Stopping criterion = energy tolerance
  Energy initial, next-to-last, final = 
     -1152449.21945762  -1152449.25004413  -1152449.25004413
  Force two-norm initial, final = 0.13035424 1.2100118e-05
  Force max component initial, final = 0.050703433 2.7059138e-06
  Final line search alpha, max atom move = 1.0000000 2.7059138e-06
  Iterations, force evaluations = 302 602

MPI task timing breakdown:
Section |  min time  |  avg time  |  max time  |%varavg| %total
---------------------------------------------------------------
Pair    | 0.91966    | 2.5375     | 3.3098     |  42.7 | 71.74
Neigh   | 2.0634e-05 | 0.0058711  | 0.0085678  |   3.2 |  0.17
Comm    | 0.064972   | 0.57596    | 1.7178     |  63.1 | 16.28
Output  | 0          | 0          | 0          |   0.0 |  0.00
Modify  | 3.6433e-05 | 0.0049692  | 0.010621   |   3.3 |  0.14
Other   |            | 0.4129     |            |       | 11.67

Nlocal:        2776.45 ave        3960 max           0 min
Histogram: 8 4 4 0 4 12 8 2 28 34
Nghost:        3879.11 ave        5424 max         232 min
Histogram: 8 0 8 0 16 0 8 8 16 40
Neighs:        79213.1 ave      115433 max           0 min
Histogram: 8 4 4 0 10 6 8 8 24 32

Total # of neighbors = 8238167
Ave neighs/atom = 28.530350
Neighbor list builds = 2
Dangerous builds = 0
The dot product: -2.61382127183546e-07
Setting atom values ...
  1 settings made for x
  1 settings made for y
  1 settings made for z
Setting up cg style minimization ...
  Unit style    : metal
  Current step  : 5519
Per MPI rank memory allocation (min/avg/max) = 5.441 | 5.816 | 6.074 Mbytes
Step PotEng KinEng TotEng v_fx v_fy v_fz 
    5519   -1152449.2            0   -1152449.2 -0.027979146 -0.033887169 -0.023808986 
    5727   -1152449.2            0   -1152449.2 2.6607686e-05 -4.0440083e-06 6.2120102e-05 
Loop time of 2.41306 on 104 procs for 208 steps with 288751 atoms

99.9% CPU use with 104 MPI tasks x 1 OpenMP threads

Minimization stats:
  Stopping criterion = energy tolerance
  Energy initial, next-to-last, final = 
     -1152449.24564042  -1152449.24930724  -1152449.24930724
  Force two-norm initial, final = 0.15067582 0.00023944498
  Force max component initial, final = 0.055805919 6.2120102e-05
  Final line search alpha, max atom move = 1.0000000 6.2120102e-05
  Iterations, force evaluations = 208 416

MPI task timing breakdown:
Section |  min time  |  avg time  |  max time  |%varavg| %total
---------------------------------------------------------------
Pair    | 0.63084    | 1.7422     | 2.2749     |  35.6 | 72.20
Neigh   | 0          | 0          | 0          |   0.0 |  0.00
Comm    | 0.037183   | 0.38984    | 1.1693     |  52.5 | 16.16
Output  | 0          | 0          | 0          |   0.0 |  0.00
Modify  | 2.4546e-05 | 0.0034334  | 0.0073535  |   2.8 |  0.14
Other   |            | 0.2776     |            |       | 11.50

Nlocal:        2776.45 ave        3960 max           0 min
Histogram: 8 4 4 0 4 12 8 2 28 34
Nghost:        3879.05 ave        5424 max         232 min
Histogram: 8 0 8 0 16 0 8 8 16 40
Neighs:        79213.3 ave      115434 max           0 min
Histogram: 8 4 4 0 10 6 8 8 24 32

Total # of neighbors = 8238183
Ave neighs/atom = 28.530405
Neighbor list builds = 0
Dangerous builds = 0
The dot product: -2.02155627894193e-06
Setting atom values ...
  1 settings made for x
  1 settings made for y
  1 settings made for z
Setting up cg style minimization ...
  Unit style    : metal
  Current step  : 5727
Per MPI rank memory allocation (min/avg/max) = 5.441 | 5.816 | 6.074 Mbytes
Step PotEng KinEng TotEng v_fx v_fy v_fz 
    5727   -1152449.3            0   -1152449.3 -0.014957454 -0.038240185 0.0010791431 
    5935   -1152449.3            0   -1152449.3 3.0111533e-06 6.0142028e-07 6.9347584e-06 
Loop time of 2.44695 on 104 procs for 208 steps with 288751 atoms

99.9% CPU use with 104 MPI tasks x 1 OpenMP threads

Minimization stats:
  Stopping criterion = energy tolerance
  Energy initial, next-to-last, final = 
     -1152449.25028345  -1152449.25218997  -1152449.25218997
  Force two-norm initial, final = 0.1535929 5.6929671e-05
  Force max component initial, final = 0.055088835 1.0314962e-05
  Final line search alpha, max atom move = 1.0000000 1.0314962e-05
  Iterations, force evaluations = 208 416

MPI task timing breakdown:
Section |  min time  |  avg time  |  max time  |%varavg| %total
---------------------------------------------------------------
Pair    | 0.62875    | 1.7576     | 2.3044     |  35.9 | 71.83
Neigh   | 0          | 0          | 0          |   0.0 |  0.00
Comm    | 0.03564    | 0.39852    | 1.1835     |  52.5 | 16.29
Output  | 0          | 0          | 0          |   0.0 |  0.00
Modify  | 2.4366e-05 | 0.0034384  | 0.0073634  |   2.8 |  0.14
Other   |            | 0.2874     |            |       | 11.75

Nlocal:        2776.45 ave        3960 max           0 min
Histogram: 8 4 4 0 4 12 8 2 28 34
Nghost:        3879.12 ave        5424 max         232 min
Histogram: 8 0 8 0 16 0 8 8 16 40
Neighs:        79213.3 ave      115424 max           0 min
Histogram: 8 4 4 0 10 6 8 8 24 32

Total # of neighbors = 8238186
Ave neighs/atom = 28.530415
Neighbor list builds = 0
Dangerous builds = 0
The dot product: -7.0007108550943e-08
Setting atom values ...
  1 settings made for x
  1 settings made for y
  1 settings made for z
Setting up cg style minimization ...
  Unit style    : metal
  Current step  : 5935
Per MPI rank memory allocation (min/avg/max) = 5.441 | 5.816 | 6.074 Mbytes
Step PotEng KinEng TotEng v_fx v_fy v_fz 
    5935   -1152449.3            0   -1152449.3 -0.014273538 -0.049352869  0.012779312 
    6000   -1152449.3            0   -1152449.3 -3.8822824e-05 -7.0089675e-06 -9.4003255e-05 
    6036   -1152449.3            0   -1152449.3 -8.1017575e-06 7.4485927e-06 -2.8635902e-05 
Loop time of 1.19352 on 104 procs for 101 steps with 288751 atoms

99.9% CPU use with 104 MPI tasks x 1 OpenMP threads

Minimization stats:
  Stopping criterion = energy tolerance
  Energy initial, next-to-last, final = 
     -1152449.25427177   -1152449.2554718   -1152449.2554718
  Force two-norm initial, final = 0.15226225 0.00014142058
  Force max component initial, final = 0.055465843 2.8635902e-05
  Final line search alpha, max atom move = 1.0000000 2.8635902e-05
  Iterations, force evaluations = 101 202

MPI task timing breakdown:
Section |  min time  |  avg time  |  max time  |%varavg| %total
---------------------------------------------------------------
Pair    | 0.30759    | 0.84992    | 1.1142     |  24.9 | 71.21
Neigh   | 0          | 0          | 0          |   0.0 |  0.00
Comm    | 0.018068   | 0.19133    | 0.57196    |  36.6 | 16.03
Output  | 0.00015528 | 0.00015768 | 0.00027147 |   0.0 |  0.01
Modify  | 1.2231e-05 | 0.0016794  | 0.0035683  |   1.9 |  0.14
Other   |            | 0.1504     |            |       | 12.60

Nlocal:        2776.45 ave        3960 max           0 min
Histogram: 8 4 4 0 4 12 8 2 28 34
Nghost:        3879.12 ave        5424 max         232 min
Histogram: 8 0 8 0 16 0 8 8 16 40
Neighs:        79213.3 ave      115424 max           0 min
Histogram: 8 4 4 0 10 6 8 8 24 32

Total # of neighbors = 8238182
Ave neighs/atom = 28.530402
Neighbor list builds = 0
Dangerous builds = 0
The dot product: 3.18620404782746e-08
Setting atom values ...
  1 settings made for x
  1 settings made for y
  1 settings made for z
Setting up cg style minimization ...
  Unit style    : metal
  Current step  : 6036
Per MPI rank memory allocation (min/avg/max) = 5.441 | 5.816 | 6.074 Mbytes
Step PotEng KinEng TotEng v_fx v_fy v_fz 
    6036   -1152449.3            0   -1152449.3 -0.013646486  -0.05746134  0.020550305 
    6308   -1152449.3            0   -1152449.3 -1.3515807e-06 -1.0787272e-06 -2.5111778e-06 
Loop time of 3.21776 on 104 procs for 272 steps with 288751 atoms

99.9% CPU use with 104 MPI tasks x 1 OpenMP threads

Minimization stats:
  Stopping criterion = energy tolerance
  Energy initial, next-to-last, final = 
     -1152449.25693188  -1152449.29755639  -1152449.29755639
  Force two-norm initial, final = 0.15747034 2.9285134e-05
  Force max component initial, final = 0.05746134 6.1654584e-06
  Final line search alpha, max atom move = 1.0000000 6.1654584e-06
  Iterations, force evaluations = 272 543

MPI task timing breakdown:
Section |  min time  |  avg time  |  max time  |%varavg| %total
---------------------------------------------------------------
Pair    | 0.82364    | 2.2962     | 3.0085     |  40.9 | 71.36
Neigh   | 1.0308e-05 | 0.0029374  | 0.0042584  |   2.2 |  0.09
Comm    | 0.047086   | 0.52241    | 1.548      |  59.6 | 16.24
Output  | 0          | 0          | 0          |   0.0 |  0.00
Modify  | 3.1777e-05 | 0.0044933  | 0.0096758  |   3.2 |  0.14
Other   |            | 0.3917     |            |       | 12.17

Nlocal:        2776.45 ave        3960 max           0 min
Histogram: 8 4 4 0 4 12 8 2 28 34
Nghost:        3879.12 ave        5424 max         232 min
Histogram: 8 0 8 0 16 0 8 8 16 40
Neighs:        79213.4 ave      115424 max           0 min
Histogram: 8 4 4 0 10 6 8 8 24 32

Total # of neighbors = 8238197
Ave neighs/atom = 28.530454
Neighbor list builds = 1
Dangerous builds = 0
The dot product: 2.66023172708234e-07
Setting atom values ...
  1 settings made for x
  1 settings made for y
  1 settings made for z
Setting up cg style minimization ...
  Unit style    : metal
  Current step  : 6308
Per MPI rank memory allocation (min/avg/max) = 5.441 | 5.816 | 6.074 Mbytes
Step PotEng KinEng TotEng v_fx v_fy v_fz 
    6308   -1152449.3            0   -1152449.3  0.028769652  0.058996953  0.058754791 
    6505   -1152449.3            0   -1152449.3 -1.2642529e-05 -2.782787e-06 -3.8930343e-05 
Loop time of 2.31023 on 104 procs for 197 steps with 288751 atoms

99.9% CPU use with 104 MPI tasks x 1 OpenMP threads

Minimization stats:
  Stopping criterion = energy tolerance
  Energy initial, next-to-last, final = 
     -1152449.30887225  -1152449.31115401  -1152449.31115401
  Force two-norm initial, final = 0.16258341 0.00014708743
  Force max component initial, final = 0.058996953 3.8930343e-05
  Final line search alpha, max atom move = 1.0000000 3.8930343e-05
  Iterations, force evaluations = 197 394

MPI task timing breakdown:
Section |  min time  |  avg time  |  max time  |%varavg| %total
---------------------------------------------------------------
Pair    | 0.59859    | 1.6558     | 2.1644     |  34.8 | 71.67
Neigh   | 0          | 0          | 0          |   0.0 |  0.00
Comm    | 0.035342   | 0.37422    | 1.1265     |  51.1 | 16.20
Output  | 0          | 0          | 0          |   0.0 |  0.00
Modify  | 2.4844e-05 | 0.0032633  | 0.0069539  |   2.7 |  0.14
Other   |            | 0.277      |            |       | 11.99

Nlocal:        2776.45 ave        3960 max           0 min
Histogram: 8 4 4 0 4 12 8 6 24 34
Nghost:        3879.05 ave        5424 max         232 min
Histogram: 8 0 8 0 16 0 8 8 16 40
Neighs:        79213.4 ave      115431 max           0 min
Histogram: 8 4 4 0 10 6 8 8 24 32

Total # of neighbors = 8238197
Ave neighs/atom = 28.530454
Neighbor list builds = 0
Dangerous builds = 0
The dot product: -3.8299922884807e-07
Setting atom values ...
  1 settings made for x
  1 settings made for y
  1 settings made for z
Setting up cg style minimization ...
  Unit style    : metal
  Current step  : 6505
Per MPI rank memory allocation (min/avg/max) = 5.441 | 5.816 | 6.074 Mbytes
Step PotEng KinEng TotEng v_fx v_fy v_fz 
    6505   -1152449.3            0   -1152449.3 -0.0060666894 -0.071123391  0.027014493 
    6677   -1152449.3            0   -1152449.3 6.6342873e-06 -2.3444352e-05 3.5589456e-05 
Loop time of 2.02486 on 104 procs for 172 steps with 288751 atoms

99.9% CPU use with 104 MPI tasks x 1 OpenMP threads

Minimization stats:
  Stopping criterion = energy tolerance
  Energy initial, next-to-last, final = 
     -1152449.32050107   -1152449.3217454   -1152449.3217454
  Force two-norm initial, final = 0.16161525 0.00017010567
  Force max component initial, final = 0.071123391 3.5589456e-05
  Final line search alpha, max atom move = 1.0000000 3.5589456e-05
  Iterations, force evaluations = 172 344

MPI task timing breakdown:
Section |  min time  |  avg time  |  max time  |%varavg| %total
---------------------------------------------------------------
Pair    | 0.52217    | 1.4512     | 1.9115     |  32.6 | 71.67
Neigh   | 0          | 0          | 0          |   0.0 |  0.00
Comm    | 0.03053    | 0.33116    | 0.98862    |  47.4 | 16.35
Output  | 0          | 0          | 0          |   0.0 |  0.00
Modify  | 2.1502e-05 | 0.0028484  | 0.0060918  |   2.5 |  0.14
Other   |            | 0.2396     |            |       | 11.83

Nlocal:        2776.45 ave        3960 max           0 min
Histogram: 8 4 4 0 4 12 8 4 26 34
Nghost:        3879.05 ave        5427 max         232 min
Histogram: 8 0 8 0 16 0 8 8 16 40
Neighs:        79213.4 ave      115422 max           0 min
Histogram: 8 4 4 0 10 6 8 8 24 32

Total # of neighbors = 8238195
Ave neighs/atom = 28.530447
Neighbor list builds = 0
Dangerous builds = 0
The dot product: 1.90095319975432e-07
Setting atom values ...
  1 settings made for x
  1 settings made for y
  1 settings made for z
Setting up cg style minimization ...
  Unit style    : metal
  Current step  : 6677
Per MPI rank memory allocation (min/avg/max) = 5.441 | 5.816 | 6.074 Mbytes
Step PotEng KinEng TotEng v_fx v_fy v_fz 
    6677   -1152449.3            0   -1152449.3 -0.00049608019 -0.053828706  0.031423045 
    6857   -1152449.3            0   -1152449.3 7.4618401e-06 1.4005935e-05 1.4420586e-05 
Loop time of 2.09646 on 104 procs for 180 steps with 288751 atoms

99.9% CPU use with 104 MPI tasks x 1 OpenMP threads

Minimization stats:
  Stopping criterion = energy tolerance
  Energy initial, next-to-last, final = 
     -1152449.32952221  -1152449.33070679  -1152449.33070679
  Force two-norm initial, final = 0.15654439 0.00012501767
  Force max component initial, final = 0.054021646 2.7020713e-05
  Final line search alpha, max atom move = 1.0000000 2.7020713e-05
  Iterations, force evaluations = 180 360

MPI task timing breakdown:
Section |  min time  |  avg time  |  max time  |%varavg| %total
---------------------------------------------------------------
Pair    | 0.54577    | 1.5134     | 1.9765     |  33.3 | 72.19
Neigh   | 0          | 0          | 0          |   0.0 |  0.00
Comm    | 0.032386   | 0.33997    | 1.0201     |  49.0 | 16.22
Output  | 0          | 0          | 0          |   0.0 |  0.00
Modify  | 2.0954e-05 | 0.0029771  | 0.0063458  |   2.6 |  0.14
Other   |            | 0.2401     |            |       | 11.45

Nlocal:        2776.45 ave        3960 max           0 min
Histogram: 8 4 4 0 4 12 8 4 26 34
Nghost:        3879.11 ave        5429 max         232 min
Histogram: 8 0 8 0 16 0 8 8 16 40
Neighs:        79213.4 ave      115422 max           0 min
Histogram: 8 4 4 0 10 6 8 8 24 32

Total # of neighbors = 8238197
Ave neighs/atom = 28.530454
Neighbor list builds = 0
Dangerous builds = 0
The dot product: -1.09765227871157e-08
Setting atom values ...
  1 settings made for x
  1 settings made for y
  1 settings made for z
Setting up cg style minimization ...
  Unit style    : metal
  Current step  : 6857
Per MPI rank memory allocation (min/avg/max) = 5.441 | 5.816 | 6.074 Mbytes
Step PotEng KinEng TotEng v_fx v_fy v_fz 
    6857   -1152449.3            0   -1152449.3 -0.0012596221 -0.058228295  0.030918417 
    7000   -1152449.3            0   -1152449.3 -1.6763391e-05 1.2163813e-05 -5.8550014e-05 
    7043   -1152449.3            0   -1152449.3 5.5803996e-06 1.0180953e-05 1.0993008e-05 
Loop time of 2.17946 on 104 procs for 186 steps with 288751 atoms

99.9% CPU use with 104 MPI tasks x 1 OpenMP threads

Minimization stats:
  Stopping criterion = energy tolerance
  Energy initial, next-to-last, final = 
     -1152449.33685057   -1152449.3380667   -1152449.3380667
  Force two-norm initial, final = 0.15886881 9.3976239e-05
  Force max component initial, final = 0.058228295 1.3917042e-05
  Final line search alpha, max atom move = 1.0000000 1.3917042e-05
  Iterations, force evaluations = 186 372

MPI task timing breakdown:
Section |  min time  |  avg time  |  max time  |%varavg| %total
---------------------------------------------------------------
Pair    | 0.56456    | 1.5708     | 2.0485     |  33.9 | 72.07
Neigh   | 0          | 0          | 0          |   0.0 |  0.00
Comm    | 0.032856   | 0.35642    | 1.0635     |  49.7 | 16.35
Output  | 0.0001728  | 0.00018388 | 0.00034172 |   0.0 |  0.01
Modify  | 2.2853e-05 | 0.0030782  | 0.0066075  |   2.6 |  0.14
Other   |            | 0.249      |            |       | 11.42

Nlocal:        2776.45 ave        3960 max           0 min
Histogram: 8 4 4 0 4 12 8 4 26 34
Nghost:        3879.12 ave        5429 max         232 min
Histogram: 8 0 8 0 16 0 8 8 16 40
Neighs:        79213.4 ave      115422 max           0 min
Histogram: 8 4 4 0 10 6 8 8 24 32

Total # of neighbors = 8238197
Ave neighs/atom = 28.530454
Neighbor list builds = 0
Dangerous builds = 0
The dot product: -1.57442126268357e-08
Setting atom values ...
  1 settings made for x
  1 settings made for y
  1 settings made for z
Setting up cg style minimization ...
  Unit style    : metal
  Current step  : 7043
Per MPI rank memory allocation (min/avg/max) = 5.441 | 5.816 | 6.074 Mbytes
Step PotEng KinEng TotEng v_fx v_fy v_fz 
    7043   -1152449.3            0   -1152449.3 -0.0012955006 -0.058777006  0.030129348 
    7232   -1152449.3            0   -1152449.3 -4.6793167e-06 6.0381282e-06  -1.7717e-05 
[...]

Nlocal:        2776.45 ave        3960 max           0 min
Histogram: 8 4 4 0 4 12 8 2 28 34
Nghost:        3879.01 ave        5424 max         232 min
Histogram: 8 0 8 0 16 0 8 8 16 40
Neighs:        79213.5 ave      115434 max           0 min
Histogram: 8 4 4 0 10 6 8 8 24 32

Total # of neighbors = 8238202
Ave neighs/atom = 28.530471
Neighbor list builds = 0
Dangerous builds = 0
The dot product: 3.49173167841672e-08
Setting atom values ...
  1 settings made for x
  1 settings made for y
  1 settings made for z
Setting up cg style minimization ...
  Unit style    : metal
  Current step  : 2325
Per MPI rank memory allocation (min/avg/max) = 5.441 | 5.816 | 6.074 Mbytes
Step PotEng KinEng TotEng v_fx v_fy v_fz 
    2325   -1152449.3            0   -1152449.3 0.0045571421 0.0056048102 0.0036749575 
    2441   -1152449.4            0   -1152449.4 -6.7362746e-06 -5.15816e-06 -8.8373619e-06 
Loop time of 1.34355 on 104 procs for 116 steps with 288751 atoms

99.9% CPU use with 104 MPI tasks x 1 OpenMP threads

Minimization stats:
  Stopping criterion = energy tolerance
  Energy initial, next-to-last, final = 
     -1152449.34944758  -1152449.35066134  -1152449.35066134
  Force two-norm initial, final = 0.13671881 7.4789242e-05
  Force max component initial, final = 0.067895627 8.8373619e-06
  Final line search alpha, max atom move = 1.0000000 8.8373619e-06
  Iterations, force evaluations = 116 232

MPI task timing breakdown:
Section |  min time  |  avg time  |  max time  |%varavg| %total
---------------------------------------------------------------
Pair    | 0.35285    | 0.97905    | 1.2664     |  26.7 | 72.87
Neigh   | 0          | 0          | 0          |   0.0 |  0.00
Comm    | 0.0212     | 0.22068    | 0.66507    |  39.4 | 16.43
Output  | 0          | 0          | 0          |   0.0 |  0.00
Modify  | 1.3568e-05 | 0.0019242  | 0.0041331  |   2.1 |  0.14
Other   |            | 0.1419     |            |       | 10.56

Nlocal:        2776.45 ave        3960 max           0 min
Histogram: 8 4 4 0 4 12 8 2 28 34
Nghost:        3879.01 ave        5424 max         232 min
Histogram: 8 0 8 0 16 0 8 8 16 40
Neighs:        79213.5 ave      115434 max           0 min
Histogram: 8 4 4 0 10 6 8 8 24 32

Total # of neighbors = 8238201
Ave neighs/atom = 28.530467
Neighbor list builds = 0
Dangerous builds = 0
The dot product: -5.127447986278e-08
Setting atom values ...
  1 settings made for x
  1 settings made for y
  1 settings made for z
Setting up cg style minimization ...
  Unit style    : metal
  Current step  : 2441
Per MPI rank memory allocation (min/avg/max) = 5.441 | 5.816 | 6.074 Mbytes
Step PotEng KinEng TotEng v_fx v_fy v_fz 
    2441   -1152449.3            0   -1152449.3 0.0073498814 0.0022966657  0.012641401 
    2676   -1152449.3            0   -1152449.3 1.0323791e-05 9.2711974e-06 1.1389966e-05 
Loop time of 2.7365 on 104 procs for 235 steps with 288751 atoms

99.9% CPU use with 104 MPI tasks x 1 OpenMP threads

Minimization stats:
  Stopping criterion = energy tolerance
  Energy initial, next-to-last, final = 
      -1152449.3400459  -1152449.34214473  -1152449.34214473
  Force two-norm initial, final = 0.14103814 5.4660746e-05
  Force max component initial, final = 0.066014458 1.5071204e-05
  Final line search alpha, max atom move = 1.0000000 1.5071204e-05
  Iterations, force evaluations = 235 470

MPI task timing breakdown:
Section |  min time  |  avg time  |  max time  |%varavg| %total
---------------------------------------------------------------
Pair    | 0.71319    | 1.9764     | 2.5629     |  37.8 | 72.22
Neigh   | 0          | 0          | 0          |   0.0 |  0.00
Comm    | 0.040791   | 0.44725    | 1.3679     |  56.0 | 16.34
Output  | 0          | 0          | 0          |   0.0 |  0.00
Modify  | 2.8321e-05 | 0.0038858  | 0.0083489  |   2.9 |  0.14
Other   |            | 0.309      |            |       | 11.29

Nlocal:        2776.45 ave        3960 max           0 min
Histogram: 8 4 4 0 4 12 8 2 28 34
Nghost:        3879.01 ave        5424 max         232 min
Histogram: 8 0 8 0 16 0 8 8 16 40
Neighs:        79213.5 ave      115434 max           0 min
Histogram: 8 4 4 0 10 6 8 8 24 32

Total # of neighbors = 8238202
Ave neighs/atom = 28.530471
Neighbor list builds = 0
Dangerous builds = 0
The dot product: 1.96209991120042e-07
Setting atom values ...
  1 settings made for x
  1 settings made for y
  1 settings made for z
Setting up cg style minimization ...
  Unit style    : metal
  Current step  : 2676
Per MPI rank memory allocation (min/avg/max) = 5.441 | 5.816 | 6.074 Mbytes
Step PotEng KinEng TotEng v_fx v_fy v_fz 
    2676   -1152449.3            0   -1152449.3  0.012906463 -0.0011317018   0.02411546 
    2912   -1152449.3            0   -1152449.3 -1.9217849e-05 -1.5434994e-05 -2.0115352e-05 
Loop time of 2.73707 on 104 procs for 236 steps with 288751 atoms

99.9% CPU use with 104 MPI tasks x 1 OpenMP threads

Minimization stats:
  Stopping criterion = energy tolerance
  Energy initial, next-to-last, final = 
     -1152449.33582138  -1152449.34623613  -1152449.34623613
  Force two-norm initial, final = 0.15606879 0.00012335759
  Force max component initial, final = 0.058913966 2.6103543e-05
  Final line search alpha, max atom move = 1.0000000 2.6103543e-05
  Iterations, force evaluations = 236 472

MPI task timing breakdown:
Section |  min time  |  avg time  |  max time  |%varavg| %total
---------------------------------------------------------------
Pair    | 0.72175    | 1.988      | 2.5702     |  37.8 | 72.63
Neigh   | 1.0114e-05 | 0.0029383  | 0.0042822  |   2.2 |  0.11
Comm    | 0.039878   | 0.45305    | 1.378      |  56.2 | 16.55
Output  | 0          | 0          | 0          |   0.0 |  0.00
Modify  | 2.7265e-05 | 0.0039043  | 0.0084117  |   3.0 |  0.14
Other   |            | 0.2891     |            |       | 10.56

Nlocal:        2776.45 ave        3960 max           0 min
Histogram: 8 4 4 0 4 12 8 2 28 34
Nghost:        3879.05 ave        5424 max         232 min
Histogram: 8 0 8 0 16 0 8 8 16 40
Neighs:        79213.4 ave      115434 max           0 min
Histogram: 8 4 4 0 10 6 8 8 24 32

Total # of neighbors = 8238193
Ave neighs/atom = 28.530440
Neighbor list builds = 1
Dangerous builds = 0
The dot product: -5.1909140611135e-07
Setting atom values ...
  1 settings made for x
  1 settings made for y
  1 settings made for z
Setting up cg style minimization ...
  Unit style    : metal
  Current step  : 2912
Per MPI rank memory allocation (min/avg/max) = 5.441 | 5.816 | 6.074 Mbytes
Step PotEng KinEng TotEng v_fx v_fy v_fz 
    2912   -1152449.3            0   -1152449.3 -0.015299568  0.010019251 -0.030369849 
    3000   -1152449.3            0   -1152449.3 4.4738801e-05 -3.8571042e-06 6.9542151e-05 
    3045   -1152449.3            0   -1152449.3 2.5714646e-06 -1.5152495e-05 1.5303283e-05 
Loop time of 1.53787 on 104 procs for 133 steps with 288751 atoms

99.9% CPU use with 104 MPI tasks x 1 OpenMP threads

Minimization stats:
  Stopping criterion = energy tolerance
  Energy initial, next-to-last, final = 
     -1152449.34821489  -1152449.34915926  -1152449.34915926
  Force two-norm initial, final = 0.12869171 0.00013362652
  Force max component initial, final = 0.048211854 1.5474305e-05
  Final line search alpha, max atom move = 1.0000000 1.5474305e-05
  Iterations, force evaluations = 133 266

MPI task timing breakdown:
Section |  min time  |  avg time  |  max time  |%varavg| %total
---------------------------------------------------------------
Pair    | 0.40244    | 1.1193     | 1.4496     |  28.5 | 72.79
Neigh   | 0          | 0          | 0          |   0.0 |  0.00
Comm    | 0.0233     | 0.25097    | 0.75995    |  42.3 | 16.32
Output  | 0.00016311 | 0.00016978 | 0.00035747 |   0.0 |  0.01
Modify  | 1.5294e-05 | 0.0021975  | 0.004716   |   2.2 |  0.14
Other   |            | 0.1652     |            |       | 10.74

Nlocal:        2776.45 ave        3961 max           0 min
Histogram: 8 4 4 0 6 10 8 2 28 34
Nghost:        3879.07 ave        5425 max         232 min
Histogram: 8 0 8 0 16 0 8 8 16 40
Neighs:        79213.4 ave      115447 max           0 min
Histogram: 8 4 4 0 10 6 8 8 24 32

Total # of neighbors = 8238191
Ave neighs/atom = 28.530433
Neighbor list builds = 0
Dangerous builds = 0
The dot product: -5.03605034222772e-08
Setting atom values ...
  1 settings made for x
  1 settings made for y
  1 settings made for z
Setting up cg style minimization ...
  Unit style    : metal
  Current step  : 3045
Per MPI rank memory allocation (min/avg/max) = 5.441 | 5.816 | 6.074 Mbytes
Step PotEng KinEng TotEng v_fx v_fy v_fz 
    3045   -1152449.4            0   -1152449.4 -0.0097429538 0.0060288321 -0.019413914 
    3232   -1152449.4            0   -1152449.4 3.1877734e-06 9.5110235e-06 -2.5171988e-06 
Loop time of 2.17701 on 104 procs for 187 steps with 288751 atoms

99.9% CPU use with 104 MPI tasks x 1 OpenMP threads

Minimization stats:
  Stopping criterion = energy tolerance
  Energy initial, next-to-last, final = 
     -1152449.35009232  -1152449.35099617  -1152449.35099617
  Force two-norm initial, final = 0.12527884 9.8450304e-05
  Force max component initial, final = 0.04742066 2.1622798e-05
  Final line search alpha, max atom move = 1.0000000 2.1622798e-05
  Iterations, force evaluations = 187 374

MPI task timing breakdown:
Section |  min time  |  avg time  |  max time  |%varavg| %total
---------------------------------------------------------------
Pair    | 0.56667    | 1.5723     | 2.0404     |  33.7 | 72.22
Neigh   | 0          | 0          | 0          |   0.0 |  0.00
Comm    | 0.032273   | 0.35493    | 1.0661     |  49.7 | 16.30
Output  | 0          | 0          | 0          |   0.0 |  0.00
Modify  | 2.2638e-05 | 0.0030955  | 0.0066834  |   2.6 |  0.14
Other   |            | 0.2467     |            |       | 11.33

Nlocal:        2776.45 ave        3961 max           0 min
Histogram: 8 4 4 0 6 10 8 2 28 34
Nghost:        3879.07 ave        5425 max         232 min
Histogram: 8 0 8 0 16 0 8 8 16 40
Neighs:        79213.4 ave      115447 max           0 min
Histogram: 8 4 4 0 10 6 8 8 24 32

Total # of neighbors = 8238192
Ave neighs/atom = 28.530436
Neighbor list builds = 0
Dangerous builds = 0
The dot product: 1.76702356717103e-09
Setting atom values ...
  1 settings made for x
  1 settings made for y
  1 settings made for z
Setting up cg style minimization ...
  Unit style    : metal
  Current step  : 3232
Per MPI rank memory allocation (min/avg/max) = 5.441 | 5.816 | 6.074 Mbytes
Step PotEng KinEng TotEng v_fx v_fy v_fz 
    3232   -1152449.4            0   -1152449.4 -0.0099315122 0.0065530273 -0.020139857 
    3430   -1152449.4            0   -1152449.4 -2.3459368e-05 -9.9775147e-06 -2.786528e-05 
Loop time of 2.31904 on 104 procs for 198 steps with 288751 atoms

99.9% CPU use with 104 MPI tasks x 1 OpenMP threads

Minimization stats:
  Stopping criterion = energy tolerance
  Energy initial, next-to-last, final = 
     -1152449.35067019  -1152449.35157059  -1152449.35157059
  Force two-norm initial, final = 0.12551191 8.6727802e-05
  Force max component initial, final = 0.046880401 2.7865280e-05
  Final line search alpha, max atom move = 1.0000000 2.7865280e-05
  Iterations, force evaluations = 198 396

MPI task timing breakdown:
Section |  min time  |  avg time  |  max time  |%varavg| %total
---------------------------------------------------------------
Pair    | 0.60193    | 1.667      | 2.1654     |  34.8 | 71.88
Neigh   | 0          | 0          | 0          |   0.0 |  0.00
Comm    | 0.034331   | 0.38008    | 1.1368     |  50.7 | 16.39
Output  | 0          | 0          | 0          |   0.0 |  0.00
Modify  | 2.2677e-05 | 0.0032806  | 0.0070269  |   2.7 |  0.14
Other   |            | 0.2687     |            |       | 11.59

Nlocal:        2776.45 ave        3961 max           0 min
Histogram: 8 4 4 0 6 10 8 2 28 34
Nghost:        3879.09 ave        5424 max         232 min
Histogram: 8 0 8 0 16 0 8 8 16 40
Neighs:        79213.4 ave      115465 max           0 min
Histogram: 8 4 4 0 10 6 8 8 24 32

Total # of neighbors = 8238190
Ave neighs/atom = 28.530429
Neighbor list builds = 0
Dangerous builds = 0
The dot product: 1.27151630726762e-08
Setting atom values ...
  1 settings made for x
  1 settings made for y
  1 settings made for z
Setting up cg style minimization ...
  Unit style    : metal
  Current step  : 3430
Per MPI rank memory allocation (min/avg/max) = 5.441 | 5.816 | 6.074 Mbytes
Step PotEng KinEng TotEng v_fx v_fy v_fz 
    3430   -1152449.3            0   -1152449.3 -0.0091877697 0.0065378332  -0.01906156 
    3708   -1152449.4            0   -1152449.4 4.3141412e-08 -3.8103899e-07 3.6191835e-07 
Loop time of 3.23991 on 104 procs for 278 steps with 288751 atoms

99.9% CPU use with 104 MPI tasks x 1 OpenMP threads

Minimization stats:
  Stopping criterion = energy tolerance
  Energy initial, next-to-last, final = 
      -1152449.3499212  -1152449.35081255  -1152449.35081255
  Force two-norm initial, final = 0.12487511 1.9040635e-06
  Force max component initial, final = 0.046242464 4.3112255e-07
  Final line search alpha, max atom move = 1.0000000 4.3112255e-07
  Iterations, force evaluations = 278 556

MPI task timing breakdown:
Section |  min time  |  avg time  |  max time  |%varavg| %total
---------------------------------------------------------------
Pair    | 0.84289    | 2.3407     | 3.0368     |  41.1 | 72.25
Neigh   | 0          | 0          | 0          |   0.0 |  0.00
Comm    | 0.049547   | 0.53034    | 1.603      |  60.7 | 16.37
Output  | 0          | 0          | 0          |   0.0 |  0.00
Modify  | 3.3237e-05 | 0.0045985  | 0.0098702  |   3.2 |  0.14
Other   |            | 0.3643     |            |       | 11.24

Nlocal:        2776.45 ave        3961 max           0 min
Histogram: 8 4 4 0 6 10 8 2 28 34
Nghost:        3879.01 ave        5424 max         232 min
Histogram: 8 0 8 0 16 0 8 8 16 40
Neighs:        79213.4 ave      115465 max           0 min
Histogram: 8 4 4 0 10 6 8 8 24 32

Total # of neighbors = 8238192
Ave neighs/atom = 28.530436
Neighbor list builds = 0
Dangerous builds = 0
The dot product: -2.93168646827382e-10
Setting atom values ...
  1 settings made for x
  1 settings made for y
  1 settings made for z
Setting up cg style minimization ...
  Unit style    : metal
  Current step  : 3708
Per MPI rank memory allocation (min/avg/max) = 5.441 | 5.816 | 6.074 Mbytes
Step PotEng KinEng TotEng v_fx v_fy v_fz 
    3708   -1152449.3            0   -1152449.3 -0.0082071825 0.0063536601 -0.017479709 
    3904   -1152449.3            0   -1152449.3 2.2343702e-05 8.1615727e-06 2.770474e-05 
Loop time of 2.31223 on 104 procs for 196 steps with 288751 atoms

99.9% CPU use with 104 MPI tasks x 1 OpenMP threads

Minimization stats:
  Stopping criterion = energy tolerance
  Energy initial, next-to-last, final = 
     -1152449.34782322  -1152449.34870151  -1152449.34870151
  Force two-norm initial, final = 0.12388207 9.1061458e-05
  Force max component initial, final = 0.045581908 2.7704740e-05
  Final line search alpha, max atom move = 1.0000000 2.7704740e-05
  Iterations, force evaluations = 196 392

MPI task timing breakdown:
Section |  min time  |  avg time  |  max time  |%varavg| %total
---------------------------------------------------------------
Pair    | 0.59481    | 1.6516     | 2.1565     |  34.7 | 71.43
Neigh   | 0          | 0          | 0          |   0.0 |  0.00
Comm    | 0.03504    | 0.3783     | 1.1302     |  50.6 | 16.36
Output  | 0          | 0          | 0          |   0.0 |  0.00
Modify  | 2.2556e-05 | 0.0032443  | 0.00696    |   2.7 |  0.14
Other   |            | 0.2791     |            |       | 12.07

Nlocal:        2776.45 ave        3960 max           0 min
Histogram: 8 4 4 0 4 12 8 2 28 34
Nghost:        3879.01 ave        5424 max         232 min
Histogram: 8 0 8 0 16 0 8 8 16 40
Neighs:        79213.4 ave      115434 max           0 min
Histogram: 8 4 4 0 10 6 8 8 24 32

Total # of neighbors = 8238191
Ave neighs/atom = 28.530433
Neighbor list builds = 0
Dangerous builds = 0
The dot product: -9.93986027489339e-09
Setting atom values ...
  1 settings made for x
  1 settings made for y
  1 settings made for z
Setting up cg style minimization ...
  Unit style    : metal
  Current step  : 3904
Per MPI rank memory allocation (min/avg/max) = 5.441 | 5.816 | 6.074 Mbytes
Step PotEng KinEng TotEng v_fx v_fy v_fz 
    3904   -1152449.3            0   -1152449.3 -0.0072601707  0.005897696 -0.015722035 
    4000   -1152449.3            0   -1152449.3 1.5325504e-05 6.2524788e-05 -2.5606041e-05 
    4158   -1152449.3            0   -1152449.3 9.9791775e-07 1.1257583e-06 6.4251086e-07 
Loop time of 2.93111 on 104 procs for 254 steps with 288751 atoms

99.9% CPU use with 104 MPI tasks x 1 OpenMP threads

Minimization stats:
  Stopping criterion = energy tolerance
  Energy initial, next-to-last, final = 
     -1152449.34436809  -1152449.34523221  -1152449.34523221
  Force two-norm initial, final = 0.12291065 6.7194454e-06
  Force max component initial, final = 0.044875678 1.1553894e-06
  Final line search alpha, max atom move = 1.0000000 1.1553894e-06
  Iterations, force evaluations = 254 508

MPI task timing breakdown:
Section |  min time  |  avg time  |  max time  |%varavg| %total
---------------------------------------------------------------
Pair    | 0.76817    | 2.1389     | 2.7638     |  39.4 | 72.97
Neigh   | 0          | 0          | 0          |   0.0 |  0.00
Comm    | 0.045944   | 0.48054    | 1.4518     |  58.4 | 16.39
Output  | 0.00014586 | 0.00015596 | 0.0003068  |   0.0 |  0.01
Modify  | 2.9212e-05 | 0.0041978  | 0.0090086  |   3.1 |  0.14
Other   |            | 0.3073     |            |       | 10.48

Nlocal:        2776.45 ave        3960 max           0 min
Histogram: 8 4 4 0 4 12 8 2 28 34
Nghost:        3879.01 ave        5424 max         232 min
Histogram: 8 0 8 0 16 0 8 8 16 40
Neighs:        79213.4 ave      115434 max           0 min
Histogram: 8 4 4 0 10 6 8 8 24 32

Total # of neighbors = 8238190
Ave neighs/atom = 28.530429
Neighbor list builds = 0
Dangerous builds = 0
The dot product: 9.8569394528258e-11
Setting up cg style minimization ...
  Unit style    : metal
  Current step  : 4158
Per MPI rank memory allocation (min/avg/max) = 5.441 | 5.816 | 6.074 Mbytes
Step PotEng KinEng TotEng v_fx v_fy v_fz 
    4158   -1152449.3            0   -1152449.3   0.15957207  -0.08186578  -0.10439674 
    4363   -1152449.4            0   -1152449.4 3.5014041e-05 2.6363026e-05 4.803946e-05 
Loop time of 2.37183 on 104 procs for 205 steps with 288751 atoms

99.9% CPU use with 104 MPI tasks x 1 OpenMP threads

Minimization stats:
  Stopping criterion = energy tolerance
  Energy initial, next-to-last, final = 
     -1152449.34523221   -1152449.3515733   -1152449.3515733
  Force two-norm initial, final = 0.20751851 0.0002191497
  Force max component initial, final = 0.15957207 4.8039460e-05
  Final line search alpha, max atom move = 1.0000000 4.8039460e-05
  Iterations, force evaluations = 205 410

MPI task timing breakdown:
Section |  min time  |  avg time  |  max time  |%varavg| %total
---------------------------------------------------------------
Pair    | 0.62036    | 1.7236     | 2.2337     |  35.4 | 72.67
Neigh   | 0          | 0          | 0          |   0.0 |  0.00
Comm    | 0.036479   | 0.38825    | 1.1759     |  52.5 | 16.37
Output  | 0          | 0          | 0          |   0.0 |  0.00
Modify  | 2.3477e-05 | 0.002209   | 0.0057144  |   2.9 |  0.09
Other   |            | 0.2577     |            |       | 10.87

Nlocal:        2776.45 ave        3960 max           0 min
Histogram: 8 4 4 0 4 12 8 2 28 34
Nghost:        3879.01 ave        5424 max         232 min
Histogram: 8 0 8 0 16 0 8 8 16 40
Neighs:        79213.4 ave      115434 max           0 min
Histogram: 8 4 4 0 10 6 8 8 24 32

Total # of neighbors = 8238190
Ave neighs/atom = 28.530429
Neighbor list builds = 0
Dangerous builds = 0
