LAMMPS (29 Oct 2020)
OMP_NUM_THREADS environment is not set. Defaulting to 1 thread. (../comm.cpp:94)
  using 1 OpenMP thread(s) per MPI task
OMP_NUM_THREADS environment is not set. Defaulting to 1 thread. (../comm.cpp:94)
  using 1 OpenMP thread(s) per MPI task
Reading data file ...
  orthogonal box = (-122.39241 -121.13707 -37.090501) to (122.39241 121.13707 37.090501)
  13 by 4 by 1 MPI processor grid
  reading atoms ...
  288751 atoms
  read_data CPU = 0.440 seconds
199981 atoms in group inner
88770 atoms in group outer
1 atoms in group carbon
Neighbor list info ...
  update every 1 steps, delay 0 steps, check yes
  max neighbors/atom: 2000, page size: 100000
  master list distance cutoff = 5.6
  ghost atom cutoff = 5.6
  binsize = 2.8, bins = 88 87 27
  1 neighbor lists, perpetual/occasional/extra = 1 0 0
  (1) pair eam/alloy, perpetual
      attributes: half, newton on
      pair build: half/bin/atomonly/newton
      stencil: half/bin/3d/newton
      bin: standard
Setting up cg style minimization ...
  Unit style    : metal
  Current step  : 0
Per MPI rank memory allocation (min/avg/max) = 5.465 | 6.344 | 6.728 Mbytes
Step v_fx v_fy v_fz PotEng KinEng TotEng 
       0    0.3449085  -0.48248972  -0.52957096   -1152447.8            0   -1152447.8 
     145 -6.0201382e-05 5.7525184e-06 1.0950653e-05   -1152449.5            0   -1152449.5 
Loop time of 3.18354 on 52 procs for 145 steps with 288751 atoms

99.8% CPU use with 52 MPI tasks x 1 OpenMP threads

Minimization stats:
  Stopping criterion = energy tolerance
  Energy initial, next-to-last, final = 
     -1152447.84631856  -1152449.45035279  -1152449.45035279
  Force two-norm initial, final = 9.7978200 0.00026287097
  Force max component initial, final = 5.2670741 6.3689240e-05
  Final line search alpha, max atom move = 1.0000000 6.3689240e-05
  Iterations, force evaluations = 145 289

MPI task timing breakdown:
Section |  min time  |  avg time  |  max time  |%varavg| %total
---------------------------------------------------------------
Pair    | 0.84215    | 2.3155     | 3.0385     |  41.7 | 72.73
Neigh   | 4.4035e-05 | 0.012564   | 0.019464   |   4.7 |  0.39
Comm    | 0.038103   | 0.51408    | 1.6225     |  64.0 | 16.15
Output  | 0          | 0          | 0          |   0.0 |  0.00
Modify  | 5.2256e-05 | 0.0031871  | 0.0080054  |   3.5 |  0.10
Other   |            | 0.3382     |            |       | 10.62

Nlocal:        5552.90 ave        7909 max           0 min
Histogram: 4 2 2 0 2 6 4 0 15 17
Nghost:        6213.54 ave        8769 max         412 min
Histogram: 4 0 4 0 8 0 4 5 7 20
Neighs:       158427.0 ave      230553 max           0 min
Histogram: 4 2 2 0 5 3 4 4 12 16

Total # of neighbors = 8238222
Ave neighs/atom = 28.530540
Neighbor list builds = 2
Dangerous builds = 0
Setting atom values ...
  1 settings made for x
  1 settings made for y
  1 settings made for z
Setting up cg style minimization ...
  Unit style    : metal
  Current step  : 145
Per MPI rank memory allocation (min/avg/max) = 5.465 | 6.344 | 6.728 Mbytes
Step PotEng KinEng TotEng v_fx v_fy v_fz 
     145   -1152449.4            0   -1152449.4 0.0002342688 -0.0097225392 -0.0086858365 
     327   -1152449.5            0   -1152449.5 1.5584428e-05 -9.3068762e-07 -2.5320759e-05 
Loop time of 3.95145 on 52 procs for 182 steps with 288751 atoms

99.9% CPU use with 52 MPI tasks x 1 OpenMP threads

Minimization stats:
  Stopping criterion = energy tolerance
  Energy initial, next-to-last, final = 
     -1152449.44958961  -1152449.45008242  -1152449.45008242
  Force two-norm initial, final = 0.10186763 8.4260686e-05
  Force max component initial, final = 0.051661886 2.5320759e-05
  Final line search alpha, max atom move = 1.0000000 2.5320759e-05
  Iterations, force evaluations = 182 364

MPI task timing breakdown:
Section |  min time  |  avg time  |  max time  |%varavg| %total
---------------------------------------------------------------
Pair    | 1.0318     | 2.9016     | 3.7903     |  47.2 | 73.43
Neigh   | 0          | 0          | 0          |   0.0 |  0.00
Comm    | 0.047895   | 0.64038    | 2.0375     |  72.7 | 16.21
Output  | 0          | 0          | 0          |   0.0 |  0.00
Modify  | 7.3016e-05 | 0.0060838  | 0.012806   |   3.6 |  0.15
Other   |            | 0.4034     |            |       | 10.21

Nlocal:        5552.90 ave        7913 max           0 min
Histogram: 4 2 2 0 2 6 4 1 14 17
Nghost:        6213.54 ave        8769 max         412 min
Histogram: 4 0 4 0 8 0 4 5 7 20
Neighs:       158427.0 ave      230650 max           0 min
Histogram: 4 2 2 0 5 3 4 4 12 16

Total # of neighbors = 8238197
Ave neighs/atom = 28.530454
Neighbor list builds = 0
Dangerous builds = 0
Setting atom values ...
  1 settings made for x
  1 settings made for y
  1 settings made for z
Setting up cg style minimization ...
  Unit style    : metal
  Current step  : 327
Per MPI rank memory allocation (min/avg/max) = 5.465 | 6.344 | 6.728 Mbytes
Step PotEng KinEng TotEng v_fx v_fy v_fz 
     327   -1152449.4            0   -1152449.4 -0.0004566604 -0.020432732 -0.018610104 
     506   -1152449.4            0   -1152449.4 1.5659497e-05 -1.5824772e-06 -3.0055599e-05 
Loop time of 3.92799 on 52 procs for 179 steps with 288751 atoms

99.9% CPU use with 52 MPI tasks x 1 OpenMP threads

Minimization stats:
  Stopping criterion = linesearch alpha is zero
  Energy initial, next-to-last, final = 
     -1152449.44665062  -1152449.44825706  -1152449.44825706
  Force two-norm initial, final = 0.18519115 0.00017989392
  Force max component initial, final = 0.0939471 3.5929849e-05
  Final line search alpha, max atom move = 0.25 8.9824623e-06
  Iterations, force evaluations = 179 361

MPI task timing breakdown:
Section |  min time  |  avg time  |  max time  |%varavg| %total
---------------------------------------------------------------
Pair    | 1.0216     | 2.8683     | 3.7661     |  47.0 | 73.02
Neigh   | 0          | 0          | 0          |   0.0 |  0.00
Comm    | 0.049252   | 0.63083    | 1.9988     |  72.0 | 16.06
Output  | 0          | 0          | 0          |   0.0 |  0.00
Modify  | 7.792e-05  | 0.0060256  | 0.012684   |   3.6 |  0.15
Other   |            | 0.4229     |            |       | 10.77

Nlocal:        5552.90 ave        7913 max           0 min
Histogram: 4 2 2 0 2 6 4 1 14 17
Nghost:        6213.54 ave        8769 max         412 min
Histogram: 4 0 4 0 8 0 4 5 7 20
Neighs:       158427.0 ave      230657 max           0 min
Histogram: 4 2 2 0 5 3 4 4 12 16

Total # of neighbors = 8238198
Ave neighs/atom = 28.530457
Neighbor list builds = 0
Dangerous builds = 0
The dot product: 6.32452946224505e-08
Setting atom values ...
  1 settings made for x
  1 settings made for y
  1 settings made for z
Setting up cg style minimization ...
  Unit style    : metal
  Current step  : 506
Per MPI rank memory allocation (min/avg/max) = 5.465 | 6.344 | 6.728 Mbytes
Step PotEng KinEng TotEng v_fx v_fy v_fz 
     506   -1152449.4            0   -1152449.4 -0.0021958266  -0.02662916  -0.02499388 
     635   -1152449.4            0   -1152449.4 -2.5148417e-05 8.0146398e-06 6.2923874e-05 
Loop time of 2.83485 on 52 procs for 129 steps with 288751 atoms

99.8% CPU use with 52 MPI tasks x 1 OpenMP threads

Minimization stats:
  Stopping criterion = energy tolerance
  Energy initial, next-to-last, final = 
     -1152449.44328007  -1152449.44489361  -1152449.44489361
  Force two-norm initial, final = 0.18668225 0.00026103746
  Force max component initial, final = 0.092480415 6.2923874e-05
  Final line search alpha, max atom move = 1.0000000 6.2923874e-05
  Iterations, force evaluations = 129 258

MPI task timing breakdown:
Section |  min time  |  avg time  |  max time  |%varavg| %total
---------------------------------------------------------------
Pair    | 0.73988    | 2.0692     | 2.6951     |  39.5 | 72.99
Neigh   | 0          | 0          | 0          |   0.0 |  0.00
Comm    | 0.036694   | 0.4634     | 1.4814     |  60.9 | 16.35
Output  | 0          | 0          | 0          |   0.0 |  0.00
Modify  | 5.295e-05  | 0.0043101  | 0.0090269  |   3.1 |  0.15
Other   |            | 0.2979     |            |       | 10.51

Nlocal:        5552.90 ave        7912 max           0 min
Histogram: 4 2 2 0 2 6 4 0 15 17
Nghost:        6213.54 ave        8769 max         412 min
Histogram: 4 0 4 0 8 0 4 5 7 20
Neighs:       158427.0 ave      230636 max           0 min
Histogram: 4 2 2 0 5 3 4 4 12 16

Total # of neighbors = 8238196
Ave neighs/atom = 28.530450
Neighbor list builds = 0
Dangerous builds = 0
The dot product: -2.31692683424991e-07
Setting atom values ...
  1 settings made for x
  1 settings made for y
  1 settings made for z
Setting up cg style minimization ...
  Unit style    : metal
  Current step  : 635
Per MPI rank memory allocation (min/avg/max) = 5.465 | 6.344 | 6.728 Mbytes
Step PotEng KinEng TotEng v_fx v_fy v_fz 
     635   -1152449.4            0   -1152449.4 -0.0068583174 -0.031592993 -0.026960076 
     748   -1152449.4            0   -1152449.4 -9.2891124e-06 -5.675086e-07 2.3473888e-05 
Loop time of 2.44634 on 52 procs for 113 steps with 288751 atoms

99.9% CPU use with 52 MPI tasks x 1 OpenMP threads

Minimization stats:
  Stopping criterion = energy tolerance
  Energy initial, next-to-last, final = 
     -1152449.43858101  -1152449.44020403  -1152449.44020403
  Force two-norm initial, final = 0.18713342 0.00025888333
  Force max component initial, final = 0.088979597 3.6878422e-05
  Final line search alpha, max atom move = 1.0000000 3.6878422e-05
  Iterations, force evaluations = 113 226

MPI task timing breakdown:
Section |  min time  |  avg time  |  max time  |%varavg| %total
---------------------------------------------------------------
Pair    | 0.63824    | 1.7953     | 2.3507     |  37.2 | 73.39
Neigh   | 0          | 0          | 0          |   0.0 |  0.00
Comm    | 0.028533   | 0.39521    | 1.2599     |  57.4 | 16.16
Output  | 0          | 0          | 0          |   0.0 |  0.00
Modify  | 4.7251e-05 | 0.0037804  | 0.0079531  |   2.9 |  0.15
Other   |            | 0.2521     |            |       | 10.30

Nlocal:        5552.90 ave        7911 max           0 min
Histogram: 4 2 2 0 2 6 4 0 15 17
Nghost:        6213.54 ave        8769 max         412 min
Histogram: 4 0 4 0 8 0 4 5 7 20
Neighs:       158427.0 ave      230609 max           0 min
Histogram: 4 2 2 0 5 3 4 4 12 16

Total # of neighbors = 8238195
Ave neighs/atom = 28.530447
Neighbor list builds = 0
Dangerous builds = 0
The dot product: -9.34360956713533e-08
Setting atom values ...
  1 settings made for x
  1 settings made for y
  1 settings made for z
Setting up cg style minimization ...
  Unit style    : metal
  Current step  : 748
Per MPI rank memory allocation (min/avg/max) = 5.465 | 6.344 | 6.728 Mbytes
Step PotEng KinEng TotEng v_fx v_fy v_fz 
     748   -1152449.4            0   -1152449.4 -0.011249453 -0.032423901 -0.023821289 
     875   -1152449.4            0   -1152449.4 -1.2748027e-05 -3.8728353e-06 3.3364126e-05 
Loop time of 2.74844 on 52 procs for 127 steps with 288751 atoms

99.9% CPU use with 52 MPI tasks x 1 OpenMP threads

Minimization stats:
  Stopping criterion = energy tolerance
  Energy initial, next-to-last, final = 
       -1152449.432578   -1152449.4341794   -1152449.4341794
  Force two-norm initial, final = 0.18572368 0.00013423204
  Force max component initial, final = 0.084884428 3.3364126e-05
  Final line search alpha, max atom move = 1.0000000 3.3364126e-05
  Iterations, force evaluations = 127 254

MPI task timing breakdown:
Section |  min time  |  avg time  |  max time  |%varavg| %total
---------------------------------------------------------------
Pair    | 0.71887    | 2.023      | 2.6388     |  39.4 | 73.60
Neigh   | 0          | 0          | 0          |   0.0 |  0.00
Comm    | 0.03268    | 0.44425    | 1.4181     |  61.0 | 16.16
Output  | 0          | 0          | 0          |   0.0 |  0.00
Modify  | 5.0798e-05 | 0.0042411  | 0.008877   |   3.0 |  0.15
Other   |            | 0.277      |            |       | 10.08

Nlocal:        5552.90 ave        7909 max           0 min
Histogram: 4 2 2 0 2 6 4 0 15 17
Nghost:        6213.54 ave        8769 max         412 min
Histogram: 4 0 4 0 8 0 4 5 7 20
Neighs:       158427.0 ave      230559 max           0 min
Histogram: 4 2 2 0 5 3 4 4 12 16

Total # of neighbors = 8238197
Ave neighs/atom = 28.530454
Neighbor list builds = 0
Dangerous builds = 0
The dot product: -1.1099071773226e-07
Setting atom values ...
  1 settings made for x
  1 settings made for y
  1 settings made for z
Setting up cg style minimization ...
  Unit style    : metal
  Current step  : 875
Per MPI rank memory allocation (min/avg/max) = 5.465 | 6.344 | 6.728 Mbytes
Step PotEng KinEng TotEng v_fx v_fy v_fz 
     875   -1152449.4            0   -1152449.4  -0.01380476 -0.030698169 -0.018420415 
    1000   -1152449.4            0   -1152449.4 -5.958974e-06 2.5187674e-06 2.801732e-05 
    1027   -1152449.4            0   -1152449.4 1.5770215e-06  2.02671e-06 -1.2717271e-06 
Loop time of 3.30905 on 52 procs for 152 steps with 288751 atoms

99.9% CPU use with 52 MPI tasks x 1 OpenMP threads

Minimization stats:
  Stopping criterion = energy tolerance
  Energy initial, next-to-last, final = 
     -1152449.42520572  -1152449.42677415  -1152449.42677415
  Force two-norm initial, final = 0.18367272 5.4909477e-05
  Force max component initial, final = 0.081428946 6.4430369e-06
  Final line search alpha, max atom move = 1.0000000 6.4430369e-06
  Iterations, force evaluations = 152 304

MPI task timing breakdown:
Section |  min time  |  avg time  |  max time  |%varavg| %total
---------------------------------------------------------------
Pair    | 0.86025    | 2.4174     | 3.163      |  42.9 | 73.05
Neigh   | 0          | 0          | 0          |   0.0 |  0.00
Comm    | 0.040604   | 0.53532    | 1.6969     |  66.1 | 16.18
Output  | 0.00020799 | 0.00021533 | 0.00035982 |   0.0 |  0.01
Modify  | 6.1744e-05 | 0.00508    | 0.010718   |   3.3 |  0.15
Other   |            | 0.351      |            |       | 10.61

Nlocal:        5552.90 ave        7907 max           0 min
Histogram: 4 2 2 0 2 6 4 0 15 17
Nghost:        6213.54 ave        8769 max         412 min
Histogram: 4 0 4 0 8 0 4 5 7 20
Neighs:       158427.0 ave      230506 max           0 min
Histogram: 4 2 2 0 5 3 4 4 12 16

Total # of neighbors = 8238198
Ave neighs/atom = 28.530457
Neighbor list builds = 0
Dangerous builds = 0
The dot product: -7.72481436251303e-10
Setting atom values ...
  1 settings made for x
  1 settings made for y
  1 settings made for z
Setting up cg style minimization ...
  Unit style    : metal
  Current step  : 1027
Per MPI rank memory allocation (min/avg/max) = 5.465 | 6.344 | 6.728 Mbytes
Step PotEng KinEng TotEng v_fx v_fy v_fz 
    1027   -1152449.4            0   -1152449.4 -0.014483534 -0.027665176 -0.012820667 
    1175   -1152449.4            0   -1152449.4 -9.9540525e-07 -1.6243141e-06 -1.4121107e-07 
Loop time of 3.21497 on 52 procs for 148 steps with 288751 atoms

99.9% CPU use with 52 MPI tasks x 1 OpenMP threads

Minimization stats:
  Stopping criterion = linesearch alpha is zero
  Energy initial, next-to-last, final = 
     -1152449.41641282  -1152449.41794986  -1152449.41794986
  Force two-norm initial, final = 0.18159035 5.3114370e-05
  Force max component initial, final = 0.079032286 6.1248254e-06
  Final line search alpha, max atom move = 0.5 3.0624127e-06
  Iterations, force evaluations = 148 297

MPI task timing breakdown:
Section |  min time  |  avg time  |  max time  |%varavg| %total
---------------------------------------------------------------
Pair    | 0.84063    | 2.3661     | 3.0867     |  42.7 | 73.60
Neigh   | 0          | 0          | 0          |   0.0 |  0.00
Comm    | 0.040602   | 0.52008    | 1.6612     |  66.2 | 16.18
Output  | 0          | 0          | 0          |   0.0 |  0.00
Modify  | 5.4504e-05 | 0.0049481  | 0.010409   |   3.3 |  0.15
Other   |            | 0.3239     |            |       | 10.07

Nlocal:        5552.90 ave        7906 max           0 min
Histogram: 4 2 2 0 2 6 4 0 15 17
Nghost:        6213.54 ave        8769 max         412 min
Histogram: 4 0 4 0 8 0 4 5 7 20
Neighs:       158427.0 ave      230465 max           0 min
Histogram: 4 2 2 0 5 3 4 4 12 16

Total # of neighbors = 8238199
Ave neighs/atom = 28.530461
Neighbor list builds = 0
Dangerous builds = 0
The dot product: 2.4573805655462e-09
Setting atom values ...
  1 settings made for x
  1 settings made for y
  1 settings made for z
Setting up cg style minimization ...
  Unit style    : metal
  Current step  : 1175
Per MPI rank memory allocation (min/avg/max) = 5.465 | 6.344 | 6.728 Mbytes
Step PotEng KinEng TotEng v_fx v_fy v_fz 
    1175   -1152449.4            0   -1152449.4 -0.013557694 -0.023612244 -0.0077025742 
    1273   -1152449.4            0   -1152449.4 -1.0002552e-05 -6.6124839e-06 2.6095825e-05 
Loop time of 2.12834 on 52 procs for 98 steps with 288751 atoms

99.9% CPU use with 52 MPI tasks x 1 OpenMP threads

Minimization stats:
  Stopping criterion = energy tolerance
  Energy initial, next-to-last, final = 
      -1152449.4061657    -1152449.407685    -1152449.407685
  Force two-norm initial, final = 0.17970692 0.00033996606
  Force max component initial, final = 0.077739109 8.0595137e-05
  Final line search alpha, max atom move = 1.0000000 8.0595137e-05
  Iterations, force evaluations = 98 196

MPI task timing breakdown:
Section |  min time  |  avg time  |  max time  |%varavg| %total
---------------------------------------------------------------
Pair    | 0.55629    | 1.5597     | 2.0393     |  34.5 | 73.28
Neigh   | 0          | 0          | 0          |   0.0 |  0.00
Comm    | 0.025029   | 0.34162    | 1.0942     |  53.5 | 16.05
Output  | 0          | 0          | 0          |   0.0 |  0.00
Modify  | 3.7343e-05 | 0.0032826  | 0.0069059  |   2.7 |  0.15
Other   |            | 0.2238     |            |       | 10.51

Nlocal:        5552.90 ave        7904 max           0 min
Histogram: 4 2 2 0 2 6 4 0 15 17
Nghost:        6213.54 ave        8769 max         412 min
Histogram: 4 0 4 0 8 0 4 5 7 20
Neighs:       158427.0 ave      230407 max           0 min
Histogram: 4 2 2 0 5 3 4 4 12 16

Total # of neighbors = 8238202
Ave neighs/atom = 28.530471
Neighbor list builds = 0
Dangerous builds = 0
The dot product: -2.68795722940198e-08
Setting atom values ...
  1 settings made for x
  1 settings made for y
  1 settings made for z
Setting up cg style minimization ...
  Unit style    : metal
  Current step  : 1273
Per MPI rank memory allocation (min/avg/max) = 5.465 | 6.344 | 6.728 Mbytes
Step PotEng KinEng TotEng v_fx v_fy v_fz 
    1273   -1152449.4            0   -1152449.4 -0.010718409 -0.017599552 -0.0029670589 
    1393   -1152449.4            0   -1152449.4 -3.0737674e-06 -6.5911348e-06 -5.5525591e-06 
Loop time of 2.63531 on 52 procs for 120 steps with 288751 atoms

99.9% CPU use with 52 MPI tasks x 1 OpenMP threads

Minimization stats:
  Stopping criterion = linesearch alpha is zero
  Energy initial, next-to-last, final = 
     -1152449.39446435  -1152449.39599562  -1152449.39599562
  Force two-norm initial, final = 0.17807419 0.00019619103
  Force max component initial, final = 0.077660961 2.3222599e-05
  Final line search alpha, max atom move = 0.25 5.8056497e-06
  Iterations, force evaluations = 120 243

MPI task timing breakdown:
Section |  min time  |  avg time  |  max time  |%varavg| %total
---------------------------------------------------------------
Pair    | 0.68842    | 1.9417     | 2.5316     |  38.7 | 73.68
Neigh   | 0          | 0          | 0          |   0.0 |  0.00
Comm    | 0.030783   | 0.43123    | 1.3846     |  59.4 | 16.36
Output  | 0          | 0          | 0          |   0.0 |  0.00
Modify  | 4.6132e-05 | 0.0040434  | 0.0085605  |   3.0 |  0.15
Other   |            | 0.2583     |            |       |  9.80

Nlocal:        5552.90 ave        7902 max           0 min
Histogram: 4 2 2 0 2 6 4 0 15 17
Nghost:        6213.54 ave        8769 max         412 min
Histogram: 4 0 4 0 8 0 4 5 7 20
Neighs:       158427.0 ave      230344 max           0 min
Histogram: 4 2 2 0 5 3 4 4 12 16

Total # of neighbors = 8238203
Ave neighs/atom = 28.530474
Neighbor list builds = 0
Dangerous builds = 0
The dot product: -1.93312836633954e-08
Setting atom values ...
  1 settings made for x
  1 settings made for y
  1 settings made for z
Setting up cg style minimization ...
  Unit style    : metal
  Current step  : 1393
Per MPI rank memory allocation (min/avg/max) = 5.465 | 6.344 | 6.728 Mbytes
Step PotEng KinEng TotEng v_fx v_fy v_fz 
    1393   -1152449.4            0   -1152449.4 -0.0061590359 -0.0091784665 0.0020219692 
    1548   -1152449.4            0   -1152449.4 -3.9502374e-06 -4.7983783e-06 4.5043503e-06 
Loop time of 3.35486 on 52 procs for 155 steps with 288751 atoms

99.9% CPU use with 52 MPI tasks x 1 OpenMP threads

Minimization stats:
  Stopping criterion = energy tolerance
  Energy initial, next-to-last, final = 
     -1152449.38135836  -1152449.38295413  -1152449.38295413
  Force two-norm initial, final = 0.17688733 0.00020920211
  Force max component initial, final = 0.078858836 2.5504519e-05
  Final line search alpha, max atom move = 1.0000000 2.5504519e-05
  Iterations, force evaluations = 155 310

MPI task timing breakdown:
Section |  min time  |  avg time  |  max time  |%varavg| %total
---------------------------------------------------------------
Pair    | 0.87559    | 2.465      | 3.2247     |  43.5 | 73.48
Neigh   | 0          | 0          | 0          |   0.0 |  0.00
Comm    | 0.041293   | 0.53906    | 1.723      |  67.2 | 16.07
Output  | 0          | 0          | 0          |   0.0 |  0.00
Modify  | 5.924e-05  | 0.0051663  | 0.010826   |   3.3 |  0.15
Other   |            | 0.3456     |            |       | 10.30

Nlocal:        5552.90 ave        7896 max           0 min
Histogram: 4 2 2 0 2 6 4 0 14 18
Nghost:        6213.54 ave        8769 max         412 min
Histogram: 4 0 4 0 8 0 4 5 7 20
Neighs:       158427.0 ave      230156 max           0 min
Histogram: 4 2 2 0 5 3 4 4 12 16

Total # of neighbors = 8238203
Ave neighs/atom = 28.530474
Neighbor list builds = 0
Dangerous builds = 0
The dot product: -2.43286215098761e-08
Setting atom values ...
  1 settings made for x
  1 settings made for y
  1 settings made for z
Setting up cg style minimization ...
  Unit style    : metal
  Current step  : 1548
Per MPI rank memory allocation (min/avg/max) = 5.465 | 6.344 | 6.728 Mbytes
Step PotEng KinEng TotEng v_fx v_fy v_fz 
    1548   -1152449.4            0   -1152449.4 -0.00035275253 0.0030023576 0.0094436697 
    1689   -1152449.4            0   -1152449.4 -1.5472853e-05 -1.2229568e-06 6.6275777e-05 
Loop time of 3.05496 on 52 procs for 141 steps with 288751 atoms

99.9% CPU use with 52 MPI tasks x 1 OpenMP threads

Minimization stats:
  Stopping criterion = energy tolerance
  Energy initial, next-to-last, final = 
     -1152449.36697446  -1152449.36885517  -1152449.36885517
  Force two-norm initial, final = 0.17677188 0.0002403688
  Force max component initial, final = 0.081739493 6.6275777e-05
  Final line search alpha, max atom move = 1.0000000 6.6275777e-05
  Iterations, force evaluations = 141 282

MPI task timing breakdown:
Section |  min time  |  avg time  |  max time  |%varavg| %total
---------------------------------------------------------------
Pair    | 0.79912    | 2.245      | 2.9304     |  41.5 | 73.49
Neigh   | 0          | 0          | 0          |   0.0 |  0.00
Comm    | 0.036351   | 0.49483    | 1.5801     |  64.1 | 16.20
Output  | 0          | 0          | 0          |   0.0 |  0.00
Modify  | 5.5155e-05 | 0.0047072  | 0.0098889  |   3.2 |  0.15
Other   |            | 0.3104     |            |       | 10.16

Nlocal:        5552.90 ave        7894 max           0 min
Histogram: 4 2 2 0 2 6 4 0 14 18
Nghost:        6213.54 ave        8769 max         412 min
Histogram: 4 0 4 0 8 0 4 5 7 20
Neighs:       158427.0 ave      230084 max           0 min
Histogram: 4 2 2 0 5 3 4 4 12 16

Total # of neighbors = 8238205
Ave neighs/atom = 28.530481
Neighbor list builds = 0
Dangerous builds = 0
The dot product: 3.67898888578923e-07
Setting atom values ...
  1 settings made for x
  1 settings made for y
  1 settings made for z
Setting up cg style minimization ...
  Unit style    : metal
  Current step  : 1689
Per MPI rank memory allocation (min/avg/max) = 5.465 | 6.344 | 6.728 Mbytes
Step PotEng KinEng TotEng v_fx v_fy v_fz 
    1689   -1152449.4            0   -1152449.4 0.0056407405  0.022532307  0.023584215 
    1851   -1152449.4            0   -1152449.4 2.170532e-05 -2.7071702e-06 -9.0907559e-05 
Loop time of 3.52241 on 52 procs for 162 steps with 288751 atoms

99.9% CPU use with 52 MPI tasks x 1 OpenMP threads

Minimization stats:
  Stopping criterion = energy tolerance
  Energy initial, next-to-last, final = 
      -1152449.3517817  -1152449.35390612  -1152449.35390612
  Force two-norm initial, final = 0.17935048 0.00034447575
  Force max component initial, final = 0.086894769 9.0907559e-05
  Final line search alpha, max atom move = 1.0000000 9.0907559e-05
  Iterations, force evaluations = 162 324

MPI task timing breakdown:
Section |  min time  |  avg time  |  max time  |%varavg| %total
---------------------------------------------------------------
Pair    | 0.91708    | 2.5741     | 3.3683     |  44.5 | 73.08
Neigh   | 0          | 0          | 0          |   0.0 |  0.00
Comm    | 0.044525   | 0.57097    | 1.8194     |  68.4 | 16.21
Output  | 0          | 0          | 0          |   0.0 |  0.00
Modify  | 6.7182e-05 | 0.005407   | 0.011413   |   3.4 |  0.15
Other   |            | 0.3719     |            |       | 10.56

Nlocal:        5552.90 ave        7894 max           0 min
Histogram: 4 2 2 0 2 6 4 0 14 18
Nghost:        6213.54 ave        8769 max         412 min
Histogram: 4 0 4 0 8 0 4 5 7 20
Neighs:       158427.0 ave      230084 max           0 min
Histogram: 4 2 2 0 5 3 4 4 12 16

Total # of neighbors = 8238204
Ave neighs/atom = 28.530478
Neighbor list builds = 0
Dangerous builds = 0
The dot product: -8.35868414728098e-07
Setting atom values ...
  1 settings made for x
  1 settings made for y
  1 settings made for z
Setting up cg style minimization ...
  Unit style    : metal
  Current step  : 1851
Per MPI rank memory allocation (min/avg/max) = 5.465 | 6.344 | 6.728 Mbytes
Step PotEng KinEng TotEng v_fx v_fy v_fz 
    1851   -1152449.3            0   -1152449.3   0.00732141  0.037690761  0.031066224 
    2000   -1152449.3            0   -1152449.3 1.5677341e-05 6.3104063e-06 -4.3532984e-05 
    2027   -1152449.3            0   -1152449.3 -1.1490142e-05 2.0223247e-06 4.1739284e-05 
Loop time of 3.8195 on 52 procs for 176 steps with 288751 atoms

99.9% CPU use with 52 MPI tasks x 1 OpenMP threads

Minimization stats:
  Stopping criterion = energy tolerance
  Energy initial, next-to-last, final = 
     -1152449.33584284  -1152449.33814451  -1152449.33814451
  Force two-norm initial, final = 0.18287657 0.00025203352
  Force max component initial, final = 0.093597035 4.1739284e-05
  Final line search alpha, max atom move = 1.0000000 4.1739284e-05
  Iterations, force evaluations = 176 352

MPI task timing breakdown:
Section |  min time  |  avg time  |  max time  |%varavg| %total
---------------------------------------------------------------
Pair    | 0.99902    | 2.8051     | 3.6556     |  46.4 | 73.44
Neigh   | 0          | 0          | 0          |   0.0 |  0.00
Comm    | 0.047249   | 0.61774    | 1.9823     |  71.8 | 16.17
Output  | 0.00011966 | 0.00012358 | 0.00027284 |   0.0 |  0.00
Modify  | 6.3866e-05 | 0.0058636  | 0.012364   |   3.6 |  0.15
Other   |            | 0.3907     |            |       | 10.23

Nlocal:        5552.90 ave        7896 max           0 min
Histogram: 4 2 2 0 2 6 4 0 14 18
Nghost:        6213.62 ave        8769 max         412 min
Histogram: 4 0 4 0 8 0 4 5 7 20
Neighs:       158427.0 ave      230154 max           0 min
Histogram: 4 2 2 0 5 3 4 4 12 16

Total # of neighbors = 8238205
Ave neighs/atom = 28.530481
Neighbor list builds = 0
Dangerous builds = 0
The dot product: 4.12180026624183e-07
Setting atom values ...
  1 settings made for x
  1 settings made for y
  1 settings made for z
Setting up cg style minimization ...
  Unit style    : metal
  Current step  : 2027
Per MPI rank memory allocation (min/avg/max) = 5.465 | 6.344 | 6.728 Mbytes
Step PotEng KinEng TotEng v_fx v_fy v_fz 
    2027   -1152449.3            0   -1152449.3 0.0058137214  0.042193265  0.028653317 
    2217   -1152449.3            0   -1152449.3 1.0038201e-05 -1.3598913e-06 -3.1305406e-05 
Loop time of 4.13009 on 52 procs for 190 steps with 288751 atoms

99.9% CPU use with 52 MPI tasks x 1 OpenMP threads

Minimization stats:
  Stopping criterion = linesearch alpha is zero
  Energy initial, next-to-last, final = 
     -1152449.31901175  -1152449.32120049  -1152449.32120049
  Force two-norm initial, final = 0.18313499 0.00015386146
  Force max component initial, final = 0.099871766 3.3471076e-05
  Final line search alpha, max atom move = 0.5 1.6735538e-05
  Iterations, force evaluations = 190 381

MPI task timing breakdown:
Section |  min time  |  avg time  |  max time  |%varavg| %total
---------------------------------------------------------------
Pair    | 1.0768     | 3.0203     | 3.9625     |  48.1 | 73.13
Neigh   | 0          | 0          | 0          |   0.0 |  0.00
Comm    | 0.048091   | 0.66478    | 2.1074     |  74.2 | 16.10
Output  | 0          | 0          | 0          |   0.0 |  0.00
Modify  | 7.428e-05  | 0.0063562  | 0.01333    |   3.7 |  0.15
Other   |            | 0.4386     |            |       | 10.62

Nlocal:        5552.90 ave        7900 max           0 min
Histogram: 4 2 2 0 2 6 4 0 14 18
Nghost:        6213.62 ave        8769 max         412 min
Histogram: 4 0 4 0 8 0 4 5 7 20
Neighs:       158427.0 ave      230297 max           0 min
Histogram: 4 2 2 0 5 3 4 4 12 16

Total # of neighbors = 8238204
Ave neighs/atom = 28.530478
Neighbor list builds = 0
Dangerous builds = 0
The dot product: -2.74695592333978e-07
Setting atom values ...
  1 settings made for x
  1 settings made for y
  1 settings made for z
Setting up cg style minimization ...
  Unit style    : metal
  Current step  : 2217
Per MPI rank memory allocation (min/avg/max) = 5.465 | 6.344 | 6.728 Mbytes
Step PotEng KinEng TotEng v_fx v_fy v_fz 
    2217   -1152449.3            0   -1152449.3 0.0038880437  0.039072756  0.021911436 
    2370   -1152449.3            0   -1152449.3 -2.5258266e-05 1.3155612e-05 7.9274019e-05 
Loop time of 3.31078 on 52 procs for 153 steps with 288751 atoms

99.9% CPU use with 52 MPI tasks x 1 OpenMP threads

Minimization stats:
  Stopping criterion = energy tolerance
  Energy initial, next-to-last, final = 
     -1152449.30088001  -1152449.30294157  -1152449.30294157
  Force two-norm initial, final = 0.18111887 0.00040683051
  Force max component initial, final = 0.10522817 9.4757997e-05
  Final line search alpha, max atom move = 1.0000000 9.4757997e-05
  Iterations, force evaluations = 153 306

MPI task timing breakdown:
Section |  min time  |  avg time  |  max time  |%varavg| %total
---------------------------------------------------------------
Pair    | 0.86515    | 2.4335     | 3.1814     |  43.3 | 73.50
Neigh   | 0          | 0          | 0          |   0.0 |  0.00
Comm    | 0.038897   | 0.53741    | 1.7194     |  66.8 | 16.23
Output  | 0          | 0          | 0          |   0.0 |  0.00
Modify  | 5.9656e-05 | 0.0051065  | 0.010747   |   3.3 |  0.15
Other   |            | 0.3348     |            |       | 10.11

Nlocal:        5552.90 ave        7904 max           0 min
Histogram: 4 2 2 0 2 6 4 0 15 17
Nghost:        6213.62 ave        8769 max         412 min
Histogram: 4 0 4 0 8 0 4 5 7 20
Neighs:       158427.0 ave      230408 max           0 min
Histogram: 4 2 2 0 5 3 4 4 12 16

Total # of neighbors = 8238209
Ave neighs/atom = 28.530495
Neighbor list builds = 0
Dangerous builds = 0
The dot product: 7.5805489782323e-07
Setting atom values ...
  1 settings made for x
  1 settings made for y
  1 settings made for z
Setting up cg style minimization ...
  Unit style    : metal
  Current step  : 2370
Per MPI rank memory allocation (min/avg/max) = 5.465 | 6.344 | 6.728 Mbytes
Step PotEng KinEng TotEng v_fx v_fy v_fz 
    2370   -1152449.3            0   -1152449.3 0.0019844985  0.033559287  0.016925645 
    2592   -1152449.3            0   -1152449.3 4.0976116e-06 -5.9109026e-07 -1.0689262e-05 
Loop time of 4.82278 on 52 procs for 222 steps with 288751 atoms

99.9% CPU use with 52 MPI tasks x 1 OpenMP threads

Minimization stats:
  Stopping criterion = linesearch alpha is zero
  Energy initial, next-to-last, final = 
     -1152449.28141534  -1152449.28341646  -1152449.28341646
  Force two-norm initial, final = 0.17888145 5.3643180e-05
  Force max component initial, final = 0.10943151 1.0689262e-05
  Final line search alpha, max atom move = 0.5 5.3446309e-06
  Iterations, force evaluations = 222 445

MPI task timing breakdown:
Section |  min time  |  avg time  |  max time  |%varavg| %total
---------------------------------------------------------------
Pair    | 1.2578     | 3.5254     | 4.635      |  52.0 | 73.10
Neigh   | 0          | 0          | 0          |   0.0 |  0.00
Comm    | 0.055672   | 0.77737    | 2.456      |  79.8 | 16.12
Output  | 0          | 0          | 0          |   0.0 |  0.00
Modify  | 9.5723e-05 | 0.0074051  | 0.01564    |   4.0 |  0.15
Other   |            | 0.5126     |            |       | 10.63

Nlocal:        5552.90 ave        7906 max           0 min
Histogram: 4 2 2 0 2 6 4 0 15 17
Nghost:        6213.65 ave        8769 max         412 min
Histogram: 4 0 4 0 8 0 4 5 7 20
Neighs:       158427.0 ave      230468 max           0 min
Histogram: 4 2 2 0 5 3 4 4 12 16

Total # of neighbors = 8238212
Ave neighs/atom = 28.530506
Neighbor list builds = 0
Dangerous builds = 0
The dot product: -8.9904601133315e-08
Setting atom values ...
  1 settings made for x
  1 settings made for y
  1 settings made for z
Setting up cg style minimization ...
  Unit style    : metal
  Current step  : 2592
Per MPI rank memory allocation (min/avg/max) = 5.465 | 6.344 | 6.728 Mbytes
Step PotEng KinEng TotEng v_fx v_fy v_fz 
    2592   -1152449.3            0   -1152449.3 -0.00024683649  0.027847755  0.015198043 
    2771   -1152449.3            0   -1152449.3 -1.3094579e-05 -6.2571713e-06 2.7500509e-05 
Loop time of 3.88684 on 52 procs for 179 steps with 288751 atoms

99.9% CPU use with 52 MPI tasks x 1 OpenMP threads

Minimization stats:
  Stopping criterion = energy tolerance
  Energy initial, next-to-last, final = 
     -1152449.26075498  -1152449.26267315  -1152449.26267315
  Force two-norm initial, final = 0.17684504 0.00021843837
  Force max component initial, final = 0.11281755 5.0120655e-05
  Final line search alpha, max atom move = 1.0000000 5.0120655e-05
  Iterations, force evaluations = 179 358

MPI task timing breakdown:
Section |  min time  |  avg time  |  max time  |%varavg| %total
---------------------------------------------------------------
Pair    | 1.0122     | 2.8557     | 3.7325     |  46.9 | 73.47
Neigh   | 0          | 0          | 0          |   0.0 |  0.00
Comm    | 0.045261   | 0.63442    | 2.0287     |  71.9 | 16.32
Output  | 0          | 0          | 0          |   0.0 |  0.00
Modify  | 6.9732e-05 | 0.0059686  | 0.012535   |   3.6 |  0.15
Other   |            | 0.3907     |            |       | 10.05

Nlocal:        5552.90 ave        7906 max           0 min
Histogram: 4 2 2 0 2 6 4 0 15 17
Nghost:        6213.67 ave        8769 max         412 min
Histogram: 4 0 4 0 8 0 4 5 7 20
Neighs:       158427.0 ave      230478 max           0 min
Histogram: 4 2 2 0 5 3 4 4 12 16

Total # of neighbors = 8238217
Ave neighs/atom = 28.530523
Neighbor list builds = 0
Dangerous builds = 0
The dot product: 1.6857779945605e-07
Setting atom values ...
  1 settings made for x
  1 settings made for y
  1 settings made for z
Setting up cg style minimization ...
  Unit style    : metal
  Current step  : 2771
Per MPI rank memory allocation (min/avg/max) = 5.465 | 6.344 | 6.728 Mbytes
Step PotEng KinEng TotEng v_fx v_fy v_fz 
    2771   -1152449.2            0   -1152449.2 -0.0019598265   0.02272069  0.014162288 
    2956   -1152449.2            0   -1152449.2 -1.0513206e-05 4.3725835e-07 2.3444088e-05 
Loop time of 4.06694 on 52 procs for 185 steps with 288751 atoms

99.9% CPU use with 52 MPI tasks x 1 OpenMP threads

Minimization stats:
  Stopping criterion = linesearch alpha is zero
  Energy initial, next-to-last, final = 
     -1152449.23884739  -1152449.24072755  -1152449.24072755
  Force two-norm initial, final = 0.17519796 0.00016078942
  Force max component initial, final = 0.1158002 3.1500419e-05
  Final line search alpha, max atom move = 0.25 7.8751047e-06
  Iterations, force evaluations = 185 373

MPI task timing breakdown:
Section |  min time  |  avg time  |  max time  |%varavg| %total
---------------------------------------------------------------
Pair    | 1.0561     | 2.9645     | 3.8976     |  47.7 | 72.89
Neigh   | 0          | 0          | 0          |   0.0 |  0.00
Comm    | 0.049733   | 0.6526     | 2.0597     |  73.0 | 16.05
Output  | 0          | 0          | 0          |   0.0 |  0.00
Modify  | 7.3479e-05 | 0.0062204  | 0.013091   |   3.7 |  0.15
Other   |            | 0.4436     |            |       | 10.91

Nlocal:        5552.90 ave        7907 max           0 min
Histogram: 4 2 2 0 2 6 4 0 15 17
Nghost:        6213.67 ave        8769 max         412 min
Histogram: 4 0 4 0 8 0 4 5 7 20
Neighs:       158427.0 ave      230491 max           0 min
Histogram: 4 2 2 0 5 3 4 4 12 16

Total # of neighbors = 8238212
Ave neighs/atom = 28.530506
Neighbor list builds = 0
Dangerous builds = 0
The dot product: 2.11957989516183e-07
Setting atom values ...
  1 settings made for x
  1 settings made for y
  1 settings made for z
Setting up cg style minimization ...
  Unit style    : metal
  Current step  : 2956
Per MPI rank memory allocation (min/avg/max) = 5.465 | 6.344 | 6.728 Mbytes
Step PotEng KinEng TotEng v_fx v_fy v_fz 
    2956   -1152449.2            0   -1152449.2 -0.0040879535  0.019886372  0.015692949 
    3000   -1152449.2            0   -1152449.2 7.4028495e-05 -1.2850711e-05 -0.00015877691 
    3139   -1152449.2            0   -1152449.2 2.5537967e-06 -2.0907881e-06 -6.0723359e-06 
Loop time of 3.99017 on 52 procs for 183 steps with 288751 atoms

99.9% CPU use with 52 MPI tasks x 1 OpenMP threads

Minimization stats:
  Stopping criterion = energy tolerance
  Energy initial, next-to-last, final = 
      -1152449.2157867  -1152449.21780704  -1152449.21780704
  Force two-norm initial, final = 0.17424723 0.00016943754
  Force max component initial, final = 0.11863829 2.1497385e-05
  Final line search alpha, max atom move = 1.0000000 2.1497385e-05
  Iterations, force evaluations = 183 366

MPI task timing breakdown:
Section |  min time  |  avg time  |  max time  |%varavg| %total
---------------------------------------------------------------
Pair    | 1.037      | 2.9227     | 3.8208     |  47.4 | 73.25
Neigh   | 0          | 0          | 0          |   0.0 |  0.00
Comm    | 0.046104   | 0.65248    | 2.08       |  72.4 | 16.35
Output  | 0.00011867 | 0.00012247 | 0.00026746 |   0.0 |  0.00
Modify  | 6.99e-05   | 0.0060979  | 0.012751   |   3.6 |  0.15
Other   |            | 0.4088     |            |       | 10.25

Nlocal:        5552.90 ave        7908 max           0 min
Histogram: 4 2 2 0 2 6 4 0 15 17
Nghost:        6213.65 ave        8769 max         412 min
Histogram: 4 0 4 0 8 0 4 5 7 20
Neighs:       158427.0 ave      230504 max           0 min
Histogram: 4 2 2 0 5 3 4 4 12 16

Total # of neighbors = 8238211
Ave neighs/atom = 28.530502
Neighbor list builds = 0
Dangerous builds = 0
The dot product: -8.69692204762859e-08
Setting atom values ...
  1 settings made for x
  1 settings made for y
  1 settings made for z
Setting up cg style minimization ...
  Unit style    : metal
  Current step  : 3139
Per MPI rank memory allocation (min/avg/max) = 5.465 | 6.344 | 6.728 Mbytes
Step PotEng KinEng TotEng v_fx v_fy v_fz 
    3139   -1152449.2            0   -1152449.2 -0.0085939236  0.021702872  0.023050652 
    3321   -1152449.2            0   -1152449.2 -1.3463748e-05 -3.6281282e-06 2.499796e-05 
Loop time of 3.97579 on 52 procs for 182 steps with 288751 atoms

99.9% CPU use with 52 MPI tasks x 1 OpenMP threads

Minimization stats:
  Stopping criterion = energy tolerance
  Energy initial, next-to-last, final = 
     -1152449.19205003  -1152449.19427012  -1152449.19427012
  Force two-norm initial, final = 0.17435296 0.00015620813
  Force max component initial, final = 0.12116089 2.8393450e-05
  Final line search alpha, max atom move = 1.0000000 2.8393450e-05
  Iterations, force evaluations = 182 364

MPI task timing breakdown:
Section |  min time  |  avg time  |  max time  |%varavg| %total
---------------------------------------------------------------
Pair    | 1.031      | 2.8991     | 3.8003     |  47.2 | 72.92
Neigh   | 0          | 0          | 0          |   0.0 |  0.00
Comm    | 0.050015   | 0.63927    | 2.0274     |  72.7 | 16.08
Output  | 0          | 0          | 0          |   0.0 |  0.00
Modify  | 7.1383e-05 | 0.0060843  | 0.012845   |   3.6 |  0.15
Other   |            | 0.4313     |            |       | 10.85

Nlocal:        5552.90 ave        7908 max           0 min
Histogram: 4 2 2 0 2 6 4 0 15 17
Nghost:        6213.62 ave        8769 max         412 min
Histogram: 4 0 4 0 8 0 4 5 7 20
Neighs:       158427.0 ave      230501 max           0 min
Histogram: 4 2 2 0 5 3 4 4 12 16

Total # of neighbors = 8238212
Ave neighs/atom = 28.530506
Neighbor list builds = 0
Dangerous builds = 0
The dot product: 3.60556970896992e-07
Setting atom values ...
  1 settings made for x
  1 settings made for y
  1 settings made for z
Setting up cg style minimization ...
  Unit style    : metal
  Current step  : 3321
Per MPI rank memory allocation (min/avg/max) = 5.465 | 6.344 | 6.728 Mbytes
Step PotEng KinEng TotEng v_fx v_fy v_fz 
    3321   -1152449.2            0   -1152449.2 -0.013472134  0.024948857  0.029753104 
    3519   -1152449.2            0   -1152449.2 -9.9767123e-06 -3.9048438e-06 1.6853856e-05 
Loop time of 4.29135 on 52 procs for 198 steps with 288751 atoms

99.9% CPU use with 52 MPI tasks x 1 OpenMP threads

Minimization stats:
  Stopping criterion = energy tolerance
  Energy initial, next-to-last, final = 
     -1152449.16787221  -1152449.17005791  -1152449.17005791
  Force two-norm initial, final = 0.17517538 0.00010686029
  Force max component initial, final = 0.12386178 2.2566275e-05
  Final line search alpha, max atom move = 1.0000000 2.2566275e-05
  Iterations, force evaluations = 198 396

MPI task timing breakdown:
Section |  min time  |  avg time  |  max time  |%varavg| %total
---------------------------------------------------------------
Pair    | 1.1177     | 3.1459     | 4.1247     |  49.3 | 73.31
Neigh   | 0          | 0          | 0          |   0.0 |  0.00
Comm    | 0.050923   | 0.69438    | 2.2039     |  75.7 | 16.18
Output  | 0          | 0          | 0          |   0.0 |  0.00
Modify  | 7.5495e-05 | 0.0065873  | 0.013951   |   3.8 |  0.15
Other   |            | 0.4445     |            |       | 10.36

Nlocal:        5552.90 ave        7907 max           0 min
Histogram: 4 2 2 0 2 6 4 0 15 17
Nghost:        6213.56 ave        8769 max         412 min
Histogram: 4 0 4 0 8 0 4 5 7 20
Neighs:       158427.0 ave      230477 max           0 min
Histogram: 4 2 2 0 5 3 4 4 12 16

Total # of neighbors = 8238215
Ave neighs/atom = 28.530516
Neighbor list builds = 0
Dangerous builds = 0
The dot product: 2.40982738010035e-07
Setting atom values ...
  1 settings made for x
  1 settings made for y
  1 settings made for z
Setting up cg style minimization ...
  Unit style    : metal
  Current step  : 3519
Per MPI rank memory allocation (min/avg/max) = 5.465 | 6.344 | 6.728 Mbytes
Step PotEng KinEng TotEng v_fx v_fy v_fz 
    3519   -1152449.1            0   -1152449.1 -0.014522794   0.02376112  0.028195055 
    3684   -1152449.1            0   -1152449.1 -2.7187823e-05 -2.0910058e-06 4.4409129e-05 
Loop time of 3.63389 on 52 procs for 165 steps with 288751 atoms

99.9% CPU use with 52 MPI tasks x 1 OpenMP threads

Minimization stats:
  Stopping criterion = linesearch alpha is zero
  Energy initial, next-to-last, final = 
     -1152449.14280443  -1152449.14486171  -1152449.14486171
  Force two-norm initial, final = 0.17468128 0.00024651288
  Force max component initial, final = 0.12693716 5.7078400e-05
  Final line search alpha, max atom move = 0.125 7.1348001e-06
  Iterations, force evaluations = 165 335

MPI task timing breakdown:
Section |  min time  |  avg time  |  max time  |%varavg| %total
---------------------------------------------------------------
Pair    | 0.94768    | 2.6591     | 3.4894     |  45.2 | 73.18
Neigh   | 0          | 0          | 0          |   0.0 |  0.00
Comm    | 0.041899   | 0.58728    | 1.867      |  69.5 | 16.16
Output  | 0          | 0          | 0          |   0.0 |  0.00
Modify  | 6.4968e-05 | 0.0055908  | 0.011865   |   3.5 |  0.15
Other   |            | 0.3819     |            |       | 10.51

Nlocal:        5552.90 ave        7909 max           0 min
Histogram: 4 2 2 0 2 6 4 0 15 17
Nghost:        6213.50 ave        8769 max         412 min
Histogram: 4 0 4 0 8 0 4 5 7 20
Neighs:       158427.0 ave      230534 max           0 min
Histogram: 4 2 2 0 5 3 4 4 12 16

Total # of neighbors = 8238215
Ave neighs/atom = 28.530516
Neighbor list builds = 0
Dangerous builds = 0
The dot product: 6.55717907076429e-07
Setting atom values ...
  1 settings made for x
  1 settings made for y
  1 settings made for z
Setting up cg style minimization ...
  Unit style    : metal
  Current step  : 3684
Per MPI rank memory allocation (min/avg/max) = 5.465 | 6.344 | 6.728 Mbytes
Step PotEng KinEng TotEng v_fx v_fy v_fz 
    3684   -1152449.1            0   -1152449.1 -0.013545338  0.020317625  0.023762846 
    3851   -1152449.1            0   -1152449.1 3.5783563e-07 -5.3076937e-06 -1.3020991e-06 
Loop time of 3.62361 on 52 procs for 167 steps with 288751 atoms

99.9% CPU use with 52 MPI tasks x 1 OpenMP threads

Minimization stats:
  Stopping criterion = energy tolerance
  Energy initial, next-to-last, final = 
     -1152449.11662289  -1152449.11848962  -1152449.11848962
  Force two-norm initial, final = 0.17384817 0.00020260562
  Force max component initial, final = 0.12993476 4.5737113e-05
  Final line search alpha, max atom move = 1.0000000 4.5737113e-05
  Iterations, force evaluations = 167 334

MPI task timing breakdown:
Section |  min time  |  avg time  |  max time  |%varavg| %total
---------------------------------------------------------------
Pair    | 0.94513    | 2.6662     | 3.4832     |  45.4 | 73.58
Neigh   | 0          | 0          | 0          |   0.0 |  0.00
Comm    | 0.043111   | 0.58634    | 1.8723     |  70.2 | 16.18
Output  | 0          | 0          | 0          |   0.0 |  0.00
Modify  | 6.4003e-05 | 0.0055608  | 0.011741   |   3.5 |  0.15
Other   |            | 0.3655     |            |       | 10.09

Nlocal:        5552.90 ave        7909 max           0 min
Histogram: 4 2 2 0 2 6 4 0 15 17
Nghost:        6213.38 ave        8769 max         412 min
Histogram: 4 0 4 0 8 0 4 5 7 20
Neighs:       158427.0 ave      230529 max           0 min
Histogram: 4 2 2 0 5 3 4 4 12 16

Total # of neighbors = 8238213
Ave neighs/atom = 28.530509
Neighbor list builds = 0
Dangerous builds = 0
The dot product: -4.39571512302425e-08
Setting atom values ...
  1 settings made for x
  1 settings made for y
  1 settings made for z
Setting up cg style minimization ...
  Unit style    : metal
  Current step  : 3851
Per MPI rank memory allocation (min/avg/max) = 5.465 | 6.344 | 6.728 Mbytes
Step PotEng KinEng TotEng v_fx v_fy v_fz 
    3851   -1152449.1            0   -1152449.1 -0.010931544  0.015858464  0.017812414 
    4000   -1152449.1            0   -1152449.1 -5.1961648e-05 -5.6449238e-06 7.5398748e-05 
    4056   -1152449.1            0   -1152449.1 -1.6794674e-05 -2.7794921e-06 2.4260587e-05 
Loop time of 4.47272 on 52 procs for 205 steps with 288751 atoms

99.9% CPU use with 52 MPI tasks x 1 OpenMP threads

Minimization stats:
  Stopping criterion = energy tolerance
  Energy initial, next-to-last, final = 
     -1152449.08910097  -1152449.09083612  -1152449.09083612
  Force two-norm initial, final = 0.17325603 8.1939399e-05
  Force max component initial, final = 0.1327693 2.4260587e-05
  Final line search alpha, max atom move = 1.0000000 2.4260587e-05
  Iterations, force evaluations = 205 410

MPI task timing breakdown:
Section |  min time  |  avg time  |  max time  |%varavg| %total
---------------------------------------------------------------
Pair    | 1.1626     | 3.2558     | 4.2802     |  49.9 | 72.79
Neigh   | 0          | 0          | 0          |   0.0 |  0.00
Comm    | 0.052039   | 0.72313    | 2.2889     |  76.4 | 16.17
Output  | 0.00011878 | 0.00012246 | 0.00026763 |   0.0 |  0.00
Modify  | 8.7971e-05 | 0.0068529  | 0.014612   |   3.9 |  0.15
Other   |            | 0.4868     |            |       | 10.88

Nlocal:        5552.90 ave        7910 max           0 min
Histogram: 4 2 2 0 2 6 4 0 15 17
Nghost:        6213.37 ave        8769 max         412 min
Histogram: 4 0 4 0 8 0 4 5 7 20
Neighs:       158427.0 ave      230580 max           0 min
Histogram: 4 2 2 0 5 3 4 4 12 16

Total # of neighbors = 8238213
Ave neighs/atom = 28.530509
Neighbor list builds = 0
Dangerous builds = 0
The dot product: 2.60579838864575e-07
Setting atom values ...
  1 settings made for x
  1 settings made for y
  1 settings made for z
Setting up cg style minimization ...
  Unit style    : metal
  Current step  : 4056
Per MPI rank memory allocation (min/avg/max) = 5.465 | 6.344 | 6.728 Mbytes
Step PotEng KinEng TotEng v_fx v_fy v_fz 
    4056   -1152449.1            0   -1152449.1 -0.0081217339  0.011358353  0.012499732 
    4235   -1152449.1            0   -1152449.1 7.774069e-06 2.7212259e-06 -1.0654386e-05 
Loop time of 3.92188 on 52 procs for 179 steps with 288751 atoms

99.9% CPU use with 52 MPI tasks x 1 OpenMP threads

Minimization stats:
  Stopping criterion = linesearch alpha is zero
  Energy initial, next-to-last, final = 
     -1152449.06023646   -1152449.0618948   -1152449.0618948
  Force two-norm initial, final = 0.17332287 0.00016174496
  Force max component initial, final = 0.13547088 1.6272371e-05
  Final line search alpha, max atom move = 0.25 4.0680928e-06
  Iterations, force evaluations = 179 361

MPI task timing breakdown:
Section |  min time  |  avg time  |  max time  |%varavg| %total
---------------------------------------------------------------
Pair    | 1.021      | 2.8838     | 3.77       |  47.2 | 73.53
Neigh   | 0          | 0          | 0          |   0.0 |  0.00
Comm    | 0.04553    | 0.64274    | 2.0621     |  72.2 | 16.39
Output  | 0          | 0          | 0          |   0.0 |  0.00
Modify  | 6.8971e-05 | 0.0060276  | 0.012757   |   3.6 |  0.15
Other   |            | 0.3894     |            |       |  9.93

Nlocal:        5552.90 ave        7911 max           0 min
Histogram: 4 2 2 0 2 6 4 0 15 17
Nghost:        6213.37 ave        8769 max         412 min
Histogram: 4 0 4 0 8 0 4 5 7 20
Neighs:       158427.0 ave      230618 max           0 min
Histogram: 4 2 2 0 5 3 4 4 12 16

Total # of neighbors = 8238214
Ave neighs/atom = 28.530512
Neighbor list builds = 0
Dangerous builds = 0
The dot product: -9.43531951513746e-08
Setting atom values ...
  1 settings made for x
  1 settings made for y
  1 settings made for z
Setting up cg style minimization ...
  Unit style    : metal
  Current step  : 4235
Per MPI rank memory allocation (min/avg/max) = 5.465 | 6.344 | 6.728 Mbytes
Step PotEng KinEng TotEng v_fx v_fy v_fz 
    4235     -1152449            0     -1152449 -0.0055252388 0.0074777641 0.0081418518 
    4429     -1152449            0     -1152449 3.7106252e-06 1.2106853e-06 -4.9396166e-06 
Loop time of 4.22011 on 52 procs for 194 steps with 288751 atoms

99.9% CPU use with 52 MPI tasks x 1 OpenMP threads

Minimization stats:
  Stopping criterion = energy tolerance
  Energy initial, next-to-last, final = 
     -1152449.03008062  -1152449.03172186  -1152449.03172186
  Force two-norm initial, final = 0.1738682 0.00010215374
  Force max component initial, final = 0.13792109 1.1000472e-05
  Final line search alpha, max atom move = 1.0000000 1.1000472e-05
  Iterations, force evaluations = 194 388

MPI task timing breakdown:
Section |  min time  |  avg time  |  max time  |%varavg| %total
---------------------------------------------------------------
Pair    | 1.0992     | 3.0804     | 4.0506     |  48.6 | 72.99
Neigh   | 0          | 0          | 0          |   0.0 |  0.00
Comm    | 0.052759   | 0.67665    | 2.141      |  74.6 | 16.03
Output  | 0          | 0          | 0          |   0.0 |  0.00
Modify  | 7.3003e-05 | 0.006461   | 0.01353    |   3.7 |  0.15
Other   |            | 0.4566     |            |       | 10.82

Nlocal:        5552.90 ave        7912 max           0 min
Histogram: 4 2 2 0 2 6 4 0 15 17
Nghost:        6213.25 ave        8769 max         412 min
Histogram: 4 0 4 0 8 0 4 5 7 20
Neighs:       158427.0 ave      230652 max           0 min
Histogram: 4 2 2 0 5 3 4 4 12 16

Total # of neighbors = 8238218
Ave neighs/atom = 28.530526
Neighbor list builds = 0
Dangerous builds = 0
The dot product: -3.97571054977e-08
Setting atom values ...
  1 settings made for x
  1 settings made for y
  1 settings made for z
Setting up cg style minimization ...
  Unit style    : metal
  Current step  : 4429
Per MPI rank memory allocation (min/avg/max) = 5.465 | 6.344 | 6.728 Mbytes
Step PotEng KinEng TotEng v_fx v_fy v_fz 
    4429     -1152449            0     -1152449 -0.0036428516 0.0045705247 0.0051694944 
    4592     -1152449            0     -1152449 5.621971e-05 7.7136597e-06 -7.3726729e-05 
Loop time of 3.60334 on 52 procs for 163 steps with 288751 atoms

99.9% CPU use with 52 MPI tasks x 1 OpenMP threads

Minimization stats:
  Stopping criterion = linesearch alpha is zero
  Energy initial, next-to-last, final = 
     -1152448.99878315  -1152449.00043196  -1152449.00043196
  Force two-norm initial, final = 0.1746085 0.00028111687
  Force max component initial, final = 0.14003681 7.3726729e-05
  Final line search alpha, max atom move = 0.125 9.2158411e-06
  Iterations, force evaluations = 163 331

MPI task timing breakdown:
Section |  min time  |  avg time  |  max time  |%varavg| %total
---------------------------------------------------------------
Pair    | 0.93892    | 2.6418     | 3.4582     |  45.1 | 73.32
Neigh   | 0          | 0          | 0          |   0.0 |  0.00
Comm    | 0.043212   | 0.59443    | 1.8983     |  68.7 | 16.50
Output  | 0          | 0          | 0          |   0.0 |  0.00
Modify  | 6.4687e-05 | 0.0055605  | 0.011686   |   3.5 |  0.15
Other   |            | 0.3615     |            |       | 10.03

Nlocal:        5552.90 ave        7913 max           0 min
Histogram: 4 2 2 0 2 6 4 1 14 17
Nghost:        6213.25 ave        8770 max         412 min
Histogram: 4 0 4 0 8 0 4 5 7 20
Neighs:       158427.0 ave      230684 max           0 min
Histogram: 4 2 2 0 5 3 4 4 12 16

Total # of neighbors = 8238216
Ave neighs/atom = 28.530519
Neighbor list builds = 0
Dangerous builds = 0
The dot product: -5.5220662929927e-07
Setting atom values ...
  1 settings made for x
  1 settings made for y
  1 settings made for z
Setting up cg style minimization ...
  Unit style    : metal
  Current step  : 4592
Per MPI rank memory allocation (min/avg/max) = 5.465 | 6.344 | 6.728 Mbytes
Step PotEng KinEng TotEng v_fx v_fy v_fz 
    4592     -1152449            0     -1152449 -0.0017977243 0.0025653693 0.0025084687 
    4756     -1152449            0     -1152449 -8.868976e-06 -9.7452448e-06 1.0744325e-05 
Loop time of 3.63387 on 52 procs for 164 steps with 288751 atoms

99.9% CPU use with 52 MPI tasks x 1 OpenMP threads

Minimization stats:
  Stopping criterion = linesearch alpha is zero
  Energy initial, next-to-last, final = 
     -1152448.96642517  -1152448.96808403  -1152448.96808403
  Force two-norm initial, final = 0.17548326 0.00027162728
  Force max component initial, final = 0.14198142 4.9551692e-05
  Final line search alpha, max atom move = 0.125 6.1939615e-06
  Iterations, force evaluations = 164 333

MPI task timing breakdown:
Section |  min time  |  avg time  |  max time  |%varavg| %total
---------------------------------------------------------------
Pair    | 0.94163    | 2.6517     | 3.4847     |  45.2 | 72.97
Neigh   | 0          | 0          | 0          |   0.0 |  0.00
Comm    | 0.042761   | 0.58967    | 1.8656     |  69.1 | 16.23
Output  | 0          | 0          | 0          |   0.0 |  0.00
Modify  | 7.2305e-05 | 0.0055474  | 0.011673   |   3.5 |  0.15
Other   |            | 0.387      |            |       | 10.65

Nlocal:        5552.90 ave        7913 max           0 min
Histogram: 4 2 2 0 2 6 4 1 14 17
Nghost:        6213.19 ave        8770 max         412 min
Histogram: 4 0 4 0 8 0 4 5 7 20
Neighs:       158427.0 ave      230690 max           0 min
Histogram: 4 2 2 0 5 3 4 4 12 16

Total # of neighbors = 8238218
Ave neighs/atom = 28.530526
Neighbor list builds = 0
Dangerous builds = 0
The dot product: 7.13016699559513e-08
Setting atom values ...
  1 settings made for x
  1 settings made for y
  1 settings made for z
Setting up cg style minimization ...
  Unit style    : metal
  Current step  : 4756
Per MPI rank memory allocation (min/avg/max) = 5.465 | 6.344 | 6.728 Mbytes
Step PotEng KinEng TotEng v_fx v_fy v_fz 
    4756   -1152448.9            0   -1152448.9 -0.00034390147 0.0013229162 0.00052780092 
    4967   -1152448.9            0   -1152448.9 -1.6101384e-05 -2.5950844e-06 2.0188619e-05 
Loop time of 4.58782 on 52 procs for 211 steps with 288751 atoms

99.9% CPU use with 52 MPI tasks x 1 OpenMP threads

Minimization stats:
  Stopping criterion = energy tolerance
  Energy initial, next-to-last, final = 
       -1152448.933104  -1152448.93481873  -1152448.93481873
  Force two-norm initial, final = 0.17627822 8.4075082e-05
  Force max component initial, final = 0.14359717 2.0188619e-05
  Final line search alpha, max atom move = 1.0000000 2.0188619e-05
  Iterations, force evaluations = 211 422

MPI task timing breakdown:
Section |  min time  |  avg time  |  max time  |%varavg| %total
---------------------------------------------------------------
Pair    | 1.197      | 3.3646     | 4.405      |  51.0 | 73.34
Neigh   | 0          | 0          | 0          |   0.0 |  0.00
Comm    | 0.055157   | 0.74332    | 2.3607     |  78.2 | 16.20
Output  | 0          | 0          | 0          |   0.0 |  0.00
Modify  | 8.1993e-05 | 0.0070421  | 0.014834   |   3.9 |  0.15
Other   |            | 0.4728     |            |       | 10.31

Nlocal:        5552.90 ave        7911 max           0 min
Histogram: 4 2 2 0 2 6 4 0 15 17
Nghost:        6213.15 ave        8770 max         412 min
Histogram: 4 0 4 0 8 0 4 5 7 20
Neighs:       158427.0 ave      230629 max           0 min
Histogram: 4 2 2 0 5 3 4 4 12 16

Total # of neighbors = 8238215
Ave neighs/atom = 28.530516
Neighbor list builds = 0
Dangerous builds = 0
The dot product: 1.34760942033143e-07
Setting atom values ...
  1 settings made for x
  1 settings made for y
  1 settings made for z
Setting up cg style minimization ...
  Unit style    : metal
  Current step  : 4967
Per MPI rank memory allocation (min/avg/max) = 5.465 | 6.344 | 6.728 Mbytes
Step PotEng KinEng TotEng v_fx v_fy v_fz 
    4967   -1152448.9            0   -1152448.9  0.001009093 0.00066606884 -0.001207368 
    5000   -1152448.9            0   -1152448.9 -6.0027049e-05 -1.2980538e-05 7.3647247e-05 
    5145   -1152448.9            0   -1152448.9 -1.4141452e-05 -2.3247378e-06 1.7400409e-05 
Loop time of 3.91152 on 52 procs for 178 steps with 288751 atoms

99.9% CPU use with 52 MPI tasks x 1 OpenMP threads

Minimization stats:
  Stopping criterion = linesearch alpha is zero
  Energy initial, next-to-last, final = 
     -1152448.89896664  -1152448.90060453  -1152448.90060453
  Force two-norm initial, final = 0.17703527 0.00019404845
  Force max component initial, final = 0.14507039 1.7400409e-05
  Final line search alpha, max atom move = 0.25 4.3501021e-06
  Iterations, force evaluations = 178 359

MPI task timing breakdown:
Section |  min time  |  avg time  |  max time  |%varavg| %total
---------------------------------------------------------------
Pair    | 1.0174     | 2.8524     | 3.7484     |  46.8 | 72.92
Neigh   | 0          | 0          | 0          |   0.0 |  0.00
Comm    | 0.045256   | 0.63176    | 2.0037     |  71.7 | 16.15
Output  | 0.000158   | 0.00016206 | 0.00031074 |   0.0 |  0.00
Modify  | 7.03e-05   | 0.0060057  | 0.012757   |   3.6 |  0.15
Other   |            | 0.4212     |            |       | 10.77

Nlocal:        5552.90 ave        7912 max           0 min
Histogram: 4 2 2 0 2 6 4 0 15 17
Nghost:        6213.12 ave        8770 max         412 min
Histogram: 4 0 4 0 8 0 4 5 7 20
Neighs:       158427.0 ave      230647 max           0 min
Histogram: 4 2 2 0 5 3 4 4 12 16

Total # of neighbors = 8238214
Ave neighs/atom = 28.530512
Neighbor list builds = 0
Dangerous builds = 0
The dot product: 9.8006833540215e-08
Setting atom values ...
  1 settings made for x
  1 settings made for y
  1 settings made for z
Setting up cg style minimization ...
  Unit style    : metal
  Current step  : 5145
Per MPI rank memory allocation (min/avg/max) = 5.465 | 6.344 | 6.728 Mbytes
Step PotEng KinEng TotEng v_fx v_fy v_fz 
    5145   -1152448.9            0   -1152448.9 0.0035042656 0.00027904836 -0.0042676166 
    5307   -1152448.9            0   -1152448.9 -4.0603618e-05 -2.8556068e-06 4.9474144e-05 
Loop time of 3.5223 on 52 procs for 162 steps with 288751 atoms

99.9% CPU use with 52 MPI tasks x 1 OpenMP threads

Minimization stats:
  Stopping criterion = energy tolerance
  Energy initial, next-to-last, final = 
     -1152448.86372635  -1152448.86533618  -1152448.86533618
  Force two-norm initial, final = 0.1782704 0.00028876214
  Force max component initial, final = 0.14676133 7.1638489e-05
  Final line search alpha, max atom move = 1.0000000 7.1638489e-05
  Iterations, force evaluations = 162 324

MPI task timing breakdown:
Section |  min time  |  avg time  |  max time  |%varavg| %total
---------------------------------------------------------------
Pair    | 0.91765    | 2.5816     | 3.3853     |  44.7 | 73.29
Neigh   | 0          | 0          | 0          |   0.0 |  0.00
Comm    | 0.042795   | 0.57066    | 1.807      |  68.6 | 16.20
Output  | 0          | 0          | 0          |   0.0 |  0.00
Modify  | 6.6216e-05 | 0.0054085  | 0.011297   |   3.4 |  0.15
Other   |            | 0.3646     |            |       | 10.35

Nlocal:        5552.90 ave        7911 max           0 min
Histogram: 4 2 2 0 2 6 4 0 15 17
Nghost:        6213.08 ave        8770 max         412 min
Histogram: 4 0 4 0 8 0 4 5 7 20
Neighs:       158427.0 ave      230614 max           0 min
Histogram: 4 2 2 0 5 3 4 4 12 16

Total # of neighbors = 8238214
Ave neighs/atom = 28.530512
Neighbor list builds = 0
Dangerous builds = 0
The dot product: 2.26688456181143e-07
Setting atom values ...
  1 settings made for x
  1 settings made for y
  1 settings made for z
Setting up cg style minimization ...
  Unit style    : metal
  Current step  : 5307
Per MPI rank memory allocation (min/avg/max) = 5.465 | 6.344 | 6.728 Mbytes
Step PotEng KinEng TotEng v_fx v_fy v_fz 
    5307   -1152448.8            0   -1152448.8 0.0060301406 0.00022249445 -0.0072754567 
    5468   -1152448.8            0   -1152448.8 3.582702e-05 8.2469121e-06 -4.2755442e-05 
Loop time of 3.50179 on 52 procs for 161 steps with 288751 atoms

99.9% CPU use with 52 MPI tasks x 1 OpenMP threads

Minimization stats:
  Stopping criterion = energy tolerance
  Energy initial, next-to-last, final = 
      -1152448.8274128  -1152448.82912579  -1152448.82912579
  Force two-norm initial, final = 0.17958589 0.00027881671
  Force max component initial, final = 0.14839537 5.8181408e-05
  Final line search alpha, max atom move = 1.0000000 5.8181408e-05
  Iterations, force evaluations = 161 322

MPI task timing breakdown:
Section |  min time  |  avg time  |  max time  |%varavg| %total
---------------------------------------------------------------
Pair    | 0.91306    | 2.557      | 3.3629     |  44.3 | 73.02
Neigh   | 0          | 0          | 0          |   0.0 |  0.00
Comm    | 0.040834   | 0.56354    | 1.7803     |  67.9 | 16.09
Output  | 0          | 0          | 0          |   0.0 |  0.00
Modify  | 6.9754e-05 | 0.0053835  | 0.011455   |   3.4 |  0.15
Other   |            | 0.3759     |            |       | 10.73

Nlocal:        5552.90 ave        7910 max           0 min
Histogram: 4 2 2 0 2 6 4 0 15 17
Nghost:        6213.04 ave        8770 max         412 min
Histogram: 4 0 4 0 8 0 4 5 7 20
Neighs:       158427.0 ave      230583 max           0 min
Histogram: 4 2 2 0 5 3 4 4 12 16

Total # of neighbors = 8238216
Ave neighs/atom = 28.530519
Neighbor list builds = 0
Dangerous builds = 0
The dot product: -1.82746750390296e-07
Setting atom values ...
  1 settings made for x
  1 settings made for y
  1 settings made for z
Setting up cg style minimization ...
  Unit style    : metal
  Current step  : 5468
Per MPI rank memory allocation (min/avg/max) = 5.465 | 6.344 | 6.728 Mbytes
Step PotEng KinEng TotEng v_fx v_fy v_fz 
    5468   -1152448.8            0   -1152448.8 0.0078636609 0.00047650608 -0.0093772289 
    5663   -1152448.8            0   -1152448.8 1.1976236e-05 4.7000132e-07 -1.4298868e-05 
Loop time of 4.24865 on 52 procs for 195 steps with 288751 atoms

99.9% CPU use with 52 MPI tasks x 1 OpenMP threads

Minimization stats:
  Stopping criterion = linesearch alpha is zero
  Energy initial, next-to-last, final = 
     -1152448.79038601  -1152448.79201059  -1152448.79201059
  Force two-norm initial, final = 0.1801892 0.0001105058
  Force max component initial, final = 0.14946639 2.3093868e-05
  Final line search alpha, max atom move = 0.5 1.1546934e-05
  Iterations, force evaluations = 195 391

MPI task timing breakdown:
Section |  min time  |  avg time  |  max time  |%varavg| %total
---------------------------------------------------------------
Pair    | 1.1056     | 3.12       | 4.0829     |  49.1 | 73.43
Neigh   | 0          | 0          | 0          |   0.0 |  0.00
Comm    | 0.049302   | 0.69209    | 2.2149     |  75.4 | 16.29
Output  | 0          | 0          | 0          |   0.0 |  0.00
Modify  | 7.4333e-05 | 0.0065156  | 0.013783   |   3.8 |  0.15
Other   |            | 0.4301     |            |       | 10.12

Nlocal:        5552.90 ave        7909 max           0 min
Histogram: 4 2 2 0 2 6 4 0 15 17
Nghost:        6213.06 ave        8770 max         412 min
Histogram: 4 0 4 0 8 0 4 5 7 20
Neighs:       158427.0 ave      230574 max           0 min
Histogram: 4 2 2 0 5 3 4 4 12 16

Total # of neighbors = 8238212
Ave neighs/atom = 28.530506
Neighbor list builds = 0
Dangerous builds = 0
The dot product: -4.18511571087177e-08
Setting atom values ...
  1 settings made for x
  1 settings made for y
  1 settings made for z
Setting up cg style minimization ...
  Unit style    : metal
  Current step  : 5663
Per MPI rank memory allocation (min/avg/max) = 5.465 | 6.344 | 6.728 Mbytes
Step PotEng KinEng TotEng v_fx v_fy v_fz 
    5663   -1152448.8            0   -1152448.8  0.010819392 0.0010293547 -0.012786273 
    5819   -1152448.8            0   -1152448.8 4.0873382e-05 7.5894462e-06 -4.8047673e-05 
Loop time of 3.44992 on 52 procs for 156 steps with 288751 atoms

99.9% CPU use with 52 MPI tasks x 1 OpenMP threads

Minimization stats:
  Stopping criterion = linesearch alpha is zero
  Energy initial, next-to-last, final = 
     -1152448.75225444  -1152448.75388334  -1152448.75388334
  Force two-norm initial, final = 0.18117344 0.00029744062
  Force max component initial, final = 0.15077396 5.0184662e-05
  Final line search alpha, max atom move = 0.125 6.2730827e-06
  Iterations, force evaluations = 156 317

MPI task timing breakdown:
Section |  min time  |  avg time  |  max time  |%varavg| %total
---------------------------------------------------------------
Pair    | 0.90029    | 2.5176     | 3.3114     |  43.9 | 72.97
Neigh   | 0          | 0          | 0          |   0.0 |  0.00
Comm    | 0.040292   | 0.55316    | 1.7485     |  67.4 | 16.03
Output  | 0          | 0          | 0          |   0.0 |  0.00
Modify  | 6.1169e-05 | 0.0053017  | 0.011144   |   3.4 |  0.15
Other   |            | 0.3739     |            |       | 10.84

Nlocal:        5552.90 ave        7908 max           0 min
Histogram: 4 2 2 0 2 6 4 0 15 17
Nghost:        6213.02 ave        8770 max         412 min
Histogram: 4 0 4 0 8 0 4 5 7 20
Neighs:       158427.0 ave      230535 max           0 min
Histogram: 4 2 2 0 5 3 4 4 12 16

Total # of neighbors = 8238212
Ave neighs/atom = 28.530506
Neighbor list builds = 0
Dangerous builds = 0
The dot product: -8.57401487052814e-08
Setting atom values ...
  1 settings made for x
  1 settings made for y
  1 settings made for z
Setting up cg style minimization ...
  Unit style    : metal
  Current step  : 5819
Per MPI rank memory allocation (min/avg/max) = 5.465 | 6.344 | 6.728 Mbytes
Step PotEng KinEng TotEng v_fx v_fy v_fz 
    5819   -1152448.7            0   -1152448.7  0.013690375 0.0018918869 -0.016073258 
    5972   -1152448.7            0   -1152448.7 1.4633259e-05 4.0763669e-06 -1.7035762e-05 
Loop time of 3.3481 on 52 procs for 153 steps with 288751 atoms

99.9% CPU use with 52 MPI tasks x 1 OpenMP threads

Minimization stats:
  Stopping criterion = energy tolerance
  Energy initial, next-to-last, final = 
     -1152448.71318911  -1152448.71497932  -1152448.71497932
  Force two-norm initial, final = 0.18173192 0.00019071239
  Force max component initial, final = 0.15192776 2.3850673e-05
  Final line search alpha, max atom move = 1.0000000 2.3850673e-05
  Iterations, force evaluations = 153 308

MPI task timing breakdown:
Section |  min time  |  avg time  |  max time  |%varavg| %total
---------------------------------------------------------------
Pair    | 0.87225    | 2.4579     | 3.2179     |  43.5 | 73.41
Neigh   | 0          | 0          | 0          |   0.0 |  0.00
Comm    | 0.038892   | 0.54393    | 1.7328     |  66.6 | 16.25
Output  | 0          | 0          | 0          |   0.0 |  0.00
Modify  | 5.9655e-05 | 0.0051463  | 0.010761   |   3.3 |  0.15
Other   |            | 0.3411     |            |       | 10.19

Nlocal:        5552.90 ave        7906 max           0 min
Histogram: 4 2 2 0 2 6 4 0 15 17
Nghost:        6212.98 ave        8770 max         412 min
Histogram: 4 0 4 0 8 0 4 5 7 20
Neighs:       158427.0 ave      230468 max           0 min
Histogram: 4 2 2 0 5 3 4 4 12 16

Total # of neighbors = 8238212
Ave neighs/atom = 28.530506
Neighbor list builds = 0
Dangerous builds = 0
The dot product: -2.18642552216814e-08
Setting atom values ...
  1 settings made for x
  1 settings made for y
  1 settings made for z
Setting up cg style minimization ...
  Unit style    : metal
  Current step  : 5972
Per MPI rank memory allocation (min/avg/max) = 5.465 | 6.344 | 6.728 Mbytes
Step PotEng KinEng TotEng v_fx v_fy v_fz 
    5972   -1152448.7            0   -1152448.7  0.015587595 0.0025582844 -0.018223642 
    6000   -1152448.7            0   -1152448.7 0.00049214596 0.00016507687 -0.00056929345 
    6131   -1152448.7            0   -1152448.7 3.6187292e-05 4.1223606e-06 -4.2438024e-05 
Loop time of 3.52879 on 52 procs for 159 steps with 288751 atoms

99.9% CPU use with 52 MPI tasks x 1 OpenMP threads

Minimization stats:
  Stopping criterion = linesearch alpha is zero
  Energy initial, next-to-last, final = 
     -1152448.67381474  -1152448.67555902  -1152448.67555902
  Force two-norm initial, final = 0.18059641 0.00019170752
  Force max component initial, final = 0.15192449 4.2438024e-05
  Final line search alpha, max atom move = 0.25 1.0609506e-05
  Iterations, force evaluations = 159 321

MPI task timing breakdown:
Section |  min time  |  avg time  |  max time  |%varavg| %total
---------------------------------------------------------------
Pair    | 0.90956    | 2.5509     | 3.358      |  44.3 | 72.29
Neigh   | 0          | 0          | 0          |   0.0 |  0.00
Comm    | 0.040953   | 0.56606    | 1.7881     |  67.6 | 16.04
Output  | 0.00011692 | 0.00012035 | 0.00025822 |   0.0 |  0.00
Modify  | 5.7437e-05 | 0.0053736  | 0.011215   |   3.4 |  0.15
Other   |            | 0.4063     |            |       | 11.51

Nlocal:        5552.90 ave        7906 max           0 min
Histogram: 4 2 2 0 2 6 4 0 15 17
Nghost:        6212.94 ave        8770 max         412 min
Histogram: 4 0 4 0 8 0 4 5 7 20
Neighs:       158427.0 ave      230478 max           0 min
Histogram: 4 2 2 0 5 3 4 4 12 16

Total # of neighbors = 8238205
Ave neighs/atom = 28.530481
Neighbor list builds = 0
Dangerous builds = 0
The dot product: 1.20626656034558e-08
Setting atom values ...
  1 settings made for x
  1 settings made for y
  1 settings made for z
Setting up cg style minimization ...
  Unit style    : metal
  Current step  : 6131
Per MPI rank memory allocation (min/avg/max) = 5.465 | 6.344 | 6.728 Mbytes
Step PotEng KinEng TotEng v_fx v_fy v_fz 
    6131   -1152448.6            0   -1152448.6  0.018319943 0.0037725118 -0.021372053 
    6357   -1152448.6            0   -1152448.6 9.7064081e-06 -1.3281163e-06 -1.1571318e-05 
Loop time of 4.9209 on 52 procs for 226 steps with 288751 atoms

99.9% CPU use with 52 MPI tasks x 1 OpenMP threads

Minimization stats:
  Stopping criterion = linesearch alpha is zero
  Energy initial, next-to-last, final = 
      -1152448.6340633  -1152448.63605064  -1152448.63605064
  Force two-norm initial, final = 0.17969386 0.00011114071
  Force max component initial, final = 0.15173625 1.6782505e-05
  Final line search alpha, max atom move = 0.5 8.3912523e-06
  Iterations, force evaluations = 226 453

MPI task timing breakdown:
Section |  min time  |  avg time  |  max time  |%varavg| %total
---------------------------------------------------------------
Pair    | 1.2859     | 3.6115     | 4.7284     |  52.7 | 73.39
Neigh   | 0          | 0          | 0          |   0.0 |  0.00
Comm    | 0.057205   | 0.80065    | 2.5493     |  80.9 | 16.27
Output  | 0          | 0          | 0          |   0.0 |  0.00
Modify  | 8.8645e-05 | 0.0075443  | 0.015752   |   4.0 |  0.15
Other   |            | 0.5012     |            |       | 10.19

Nlocal:        5552.90 ave        7905 max           0 min
Histogram: 4 2 2 0 2 6 4 0 15 17
Nghost:        6212.94 ave        8770 max         412 min
Histogram: 4 0 4 0 8 0 4 5 7 20
Neighs:       158427.0 ave      230431 max           0 min
Histogram: 4 2 2 0 5 3 4 4 12 16

Total # of neighbors = 8238200
Ave neighs/atom = 28.530464
Neighbor list builds = 0
Dangerous builds = 0
The dot product: 1.28323728477557e-08
Setting atom values ...
  1 settings made for x
  1 settings made for y
  1 settings made for z
Setting up cg style minimization ...
  Unit style    : metal
  Current step  : 6357
Per MPI rank memory allocation (min/avg/max) = 5.465 | 6.344 | 6.728 Mbytes
Step PotEng KinEng TotEng v_fx v_fy v_fz 
    6357   -1152448.6            0   -1152448.6  0.020958365 0.0014244033  -0.02470953 
    6563   -1152448.6            0   -1152448.6 -1.6219312e-05 -2.7956908e-06 1.8990504e-05 
Loop time of 4.49687 on 52 procs for 206 steps with 288751 atoms

99.9% CPU use with 52 MPI tasks x 1 OpenMP threads

Minimization stats:
  Stopping criterion = energy tolerance
  Energy initial, next-to-last, final = 
     -1152448.59528507  -1152448.59743146  -1152448.59743146
  Force two-norm initial, final = 0.17781257 0.00011161935
  Force max component initial, final = 0.14922631 2.1810018e-05
  Final line search alpha, max atom move = 1.0000000 2.1810018e-05
  Iterations, force evaluations = 206 414

MPI task timing breakdown:
Section |  min time  |  avg time  |  max time  |%varavg| %total
---------------------------------------------------------------
Pair    | 1.1729     | 3.2888     | 4.3225     |  50.2 | 73.13
Neigh   | 0          | 0          | 0          |   0.0 |  0.00
Comm    | 0.052416   | 0.72383    | 2.2986     |  77.2 | 16.10
Output  | 0          | 0          | 0          |   0.0 |  0.00
Modify  | 9.6744e-05 | 0.0069483  | 0.014576   |   3.9 |  0.15
Other   |            | 0.4773     |            |       | 10.61

Nlocal:        5552.90 ave        7903 max           0 min
Histogram: 4 2 2 0 2 6 4 0 15 17
Nghost:        6212.94 ave        8770 max         412 min
Histogram: 4 0 4 0 8 0 4 5 7 20
Neighs:       158427.0 ave      230392 max           0 min
Histogram: 4 2 2 0 5 3 4 4 12 16

Total # of neighbors = 8238205
Ave neighs/atom = 28.530481
Neighbor list builds = 0
Dangerous builds = 0
The dot product: -9.9923290644189e-09
Setting atom values ...
  1 settings made for x
  1 settings made for y
  1 settings made for z
Setting up cg style minimization ...
  Unit style    : metal
  Current step  : 6563
Per MPI rank memory allocation (min/avg/max) = 5.465 | 6.344 | 6.728 Mbytes
Step PotEng KinEng TotEng v_fx v_fy v_fz 
    6563   -1152448.6            0   -1152448.6  0.021993585 -0.00050272109 -0.026130226 
    6806   -1152448.6            0   -1152448.6 1.5697573e-05 1.0363507e-06 -1.853597e-05 
Loop time of 5.29573 on 52 procs for 243 steps with 288751 atoms

99.9% CPU use with 52 MPI tasks x 1 OpenMP threads

Minimization stats:
  Stopping criterion = linesearch alpha is zero
  Energy initial, next-to-last, final = 
     -1152448.55832761  -1152448.57008346  -1152448.57008346
  Force two-norm initial, final = 0.18453578 9.7948341e-05
  Force max component initial, final = 0.14663278 2.0673307e-05
  Final line search alpha, max atom move = 0.5 1.0336653e-05
  Iterations, force evaluations = 243 487

MPI task timing breakdown:
Section |  min time  |  avg time  |  max time  |%varavg| %total
---------------------------------------------------------------
Pair    | 1.3851     | 3.8858     | 5.0775     |  54.7 | 73.38
Neigh   | 1.8848e-05 | 0.0057289  | 0.0083824  |   3.2 |  0.11
Comm    | 0.069167   | 0.85782    | 2.7355     |  84.4 | 16.20
Output  | 0          | 0          | 0          |   0.0 |  0.00
Modify  | 9.0924e-05 | 0.0080961  | 0.017073   |   4.2 |  0.15
Other   |            | 0.5383     |            |       | 10.16

Nlocal:        5552.90 ave        7902 max           0 min
Histogram: 4 2 2 0 2 6 4 0 15 17
Nghost:        6212.94 ave        8769 max         412 min
Histogram: 4 0 4 0 8 0 4 5 7 20
Neighs:       158427.0 ave      230333 max           0 min
Histogram: 4 2 2 0 5 3 4 4 12 16

Total # of neighbors = 8238195
Ave neighs/atom = 28.530447
Neighbor list builds = 1
Dangerous builds = 0
The dot product: -3.43214896690269e-07
Setting atom values ...
  1 settings made for x
  1 settings made for y
  1 settings made for z
Setting up cg style minimization ...
  Unit style    : metal
  Current step  : 6806
Per MPI rank memory allocation (min/avg/max) = 5.465 | 6.344 | 6.728 Mbytes
Step PotEng KinEng TotEng v_fx v_fy v_fz 
    6806   -1152448.5            0   -1152448.5  0.014531007 0.0020567686 -0.016442797 
    7000   -1152448.5            0   -1152448.5 0.00011522458 1.4977237e-05 -0.00013049744 
    7141   -1152448.5            0   -1152448.5 -2.8336682e-05 -4.4510149e-06 3.2027435e-05 
Loop time of 7.30696 on 52 procs for 335 steps with 288751 atoms

99.9% CPU use with 52 MPI tasks x 1 OpenMP threads

Minimization stats:
  Stopping criterion = energy tolerance
[...]
Nghost:        6213.67 ave        8770 max         412 min
Histogram: 4 0 4 0 8 0 4 5 7 20
Neighs:       158426.0 ave      230877 max           0 min
Histogram: 4 2 2 0 5 3 4 4 12 16

Total # of neighbors = 8238174
Ave neighs/atom = 28.530374
Neighbor list builds = 0
Dangerous builds = 0
The dot product: 3.40612103100555e-09
Setting atom values ...
  1 settings made for x
  1 settings made for y
  1 settings made for z
Setting up cg style minimization ...
  Unit style    : metal
  Current step  : 25502
Per MPI rank memory allocation (min/avg/max) = 5.465 | 6.344 | 6.728 Mbytes
Step PotEng KinEng TotEng v_fx v_fy v_fz 
   25502   -1152449.1            0   -1152449.1 -0.00091443035 0.0072746084 0.0096790229 
   25675   -1152449.1            0   -1152449.1 -1.2424173e-05 2.7346403e-08 8.9549253e-06 
Loop time of 3.73897 on 52 procs for 173 steps with 288751 atoms

99.8% CPU use with 52 MPI tasks x 1 OpenMP threads

Minimization stats:
  Stopping criterion = linesearch alpha is zero
  Energy initial, next-to-last, final = 
     -1152449.10683457  -1152449.10819367  -1152449.10819367
  Force two-norm initial, final = 0.16202637 0.00013108801
  Force max component initial, final = 0.094526463 3.3907987e-05
  Final line search alpha, max atom move = 0.5 1.6953994e-05
  Iterations, force evaluations = 173 347

MPI task timing breakdown:
Section |  min time  |  avg time  |  max time  |%varavg| %total
---------------------------------------------------------------
Pair    | 0.98067    | 2.7467     | 3.5793     |  45.7 | 73.46
Neigh   | 0          | 0          | 0          |   0.0 |  0.00
Comm    | 0.044922   | 0.59609    | 1.9127     |  71.6 | 15.94
Output  | 0          | 0          | 0          |   0.0 |  0.00
Modify  | 6.6459e-05 | 0.0057861  | 0.012308   |   3.5 |  0.15
Other   |            | 0.3904     |            |       | 10.44

Nlocal:        5552.90 ave        7921 max           0 min
Histogram: 4 2 2 0 3 5 4 2 13 17
Nghost:        6213.67 ave        8770 max         412 min
Histogram: 4 0 4 0 8 0 4 5 7 20
Neighs:       158426.0 ave      230877 max           0 min
Histogram: 4 2 2 0 5 3 4 4 12 16

Total # of neighbors = 8238172
Ave neighs/atom = 28.530367
Neighbor list builds = 0
Dangerous builds = 0
The dot product: -5.17933460664094e-09
Setting atom values ...
  1 settings made for x
  1 settings made for y
  1 settings made for z
Setting up cg style minimization ...
  Unit style    : metal
  Current step  : 25675
Per MPI rank memory allocation (min/avg/max) = 5.465 | 6.344 | 6.728 Mbytes
Step PotEng KinEng TotEng v_fx v_fy v_fz 
   25675   -1152449.1            0   -1152449.1 -0.0010779518 0.0061377061  0.008395434 
   25816   -1152449.1            0   -1152449.1 8.9212427e-05 -1.1326674e-06 -6.5443402e-05 
Loop time of 3.05822 on 52 procs for 141 steps with 288751 atoms

99.9% CPU use with 52 MPI tasks x 1 OpenMP threads

Minimization stats:
  Stopping criterion = energy tolerance
  Energy initial, next-to-last, final = 
     -1152449.08704396  -1152449.08844018  -1152449.08844018
  Force two-norm initial, final = 0.1617832 0.00027917222
  Force max component initial, final = 0.095323368 8.9212427e-05
  Final line search alpha, max atom move = 1.0000000 8.9212427e-05
  Iterations, force evaluations = 141 284

MPI task timing breakdown:
Section |  min time  |  avg time  |  max time  |%varavg| %total
---------------------------------------------------------------
Pair    | 0.80282    | 2.2484     | 2.933      |  41.4 | 73.52
Neigh   | 0          | 0          | 0          |   0.0 |  0.00
Comm    | 0.036928   | 0.4925     | 1.5923     |  64.4 | 16.10
Output  | 0          | 0          | 0          |   0.0 |  0.00
Modify  | 5.107e-05  | 0.0047356  | 0.010129   |   3.2 |  0.15
Other   |            | 0.3126     |            |       | 10.22

Nlocal:        5552.90 ave        7921 max           0 min
Histogram: 4 2 2 0 3 5 4 2 13 17
Nghost:        6213.67 ave        8770 max         412 min
Histogram: 4 0 4 0 8 0 4 5 7 20
Neighs:       158426.0 ave      230892 max           0 min
Histogram: 4 2 2 0 5 3 4 4 12 16

Total # of neighbors = 8238172
Ave neighs/atom = 28.530367
Neighbor list builds = 0
Dangerous builds = 0
The dot product: 4.90392676669437e-08
Setting atom values ...
  1 settings made for x
  1 settings made for y
  1 settings made for z
Setting up cg style minimization ...
  Unit style    : metal
  Current step  : 25816
Per MPI rank memory allocation (min/avg/max) = 5.465 | 6.344 | 6.728 Mbytes
Step PotEng KinEng TotEng v_fx v_fy v_fz 
   25816   -1152449.1            0   -1152449.1 -0.0010988566 0.0051966708 0.0072495909 
   25968   -1152449.1            0   -1152449.1 -1.9863737e-06 -4.6155974e-06 -4.3135336e-06 
Loop time of 3.28121 on 52 procs for 152 steps with 288751 atoms

99.9% CPU use with 52 MPI tasks x 1 OpenMP threads

Minimization stats:
  Stopping criterion = energy tolerance
  Energy initial, next-to-last, final = 
     -1152449.06624577  -1152449.06763213  -1152449.06763213
  Force two-norm initial, final = 0.1618143 0.0002730564
  Force max component initial, final = 0.096130033 5.7713314e-05
  Final line search alpha, max atom move = 1.0000000 5.7713314e-05
  Iterations, force evaluations = 152 304

MPI task timing breakdown:
Section |  min time  |  avg time  |  max time  |%varavg| %total
---------------------------------------------------------------
Pair    | 0.85744    | 2.4112     | 3.1482     |  42.8 | 73.48
Neigh   | 0          | 0          | 0          |   0.0 |  0.00
Comm    | 0.04025    | 0.52512    | 1.6884     |  67.0 | 16.00
Output  | 0          | 0          | 0          |   0.0 |  0.00
Modify  | 5.8597e-05 | 0.0050651  | 0.010793   |   3.3 |  0.15
Other   |            | 0.3398     |            |       | 10.36

Nlocal:        5552.90 ave        7921 max           0 min
Histogram: 4 2 2 0 3 5 4 2 13 17
Nghost:        6213.67 ave        8770 max         412 min
Histogram: 4 0 4 0 8 0 4 5 7 20
Neighs:       158426.0 ave      230897 max           0 min
Histogram: 4 2 2 0 5 3 4 4 12 16

Total # of neighbors = 8238171
Ave neighs/atom = 28.530364
Neighbor list builds = 0
Dangerous builds = 0
The dot product: -1.24695754374507e-08
Setting atom values ...
  1 settings made for x
  1 settings made for y
  1 settings made for z
Setting up cg style minimization ...
  Unit style    : metal
  Current step  : 25968
Per MPI rank memory allocation (min/avg/max) = 5.465 | 6.344 | 6.728 Mbytes
Step PotEng KinEng TotEng v_fx v_fy v_fz 
   25968     -1152449            0     -1152449 -0.0011615645 0.0042976921  0.006182278 
   26000     -1152449            0     -1152449 -0.00048797968 6.5415619e-05 0.00043138585 
   26136     -1152449            0     -1152449 -3.01388e-05 -1.3192915e-06 1.9972561e-05 
Loop time of 3.60901 on 52 procs for 168 steps with 288751 atoms

99.9% CPU use with 52 MPI tasks x 1 OpenMP threads

Minimization stats:
  Stopping criterion = energy tolerance
  Energy initial, next-to-last, final = 
     -1152449.04428837   -1152449.0456413   -1152449.0456413
  Force two-norm initial, final = 0.1619 0.00019697695
  Force max component initial, final = 0.096748211 3.5928413e-05
  Final line search alpha, max atom move = 1.0000000 3.5928413e-05
  Iterations, force evaluations = 168 336

MPI task timing breakdown:
Section |  min time  |  avg time  |  max time  |%varavg| %total
---------------------------------------------------------------
Pair    | 0.94988    | 2.6593     | 3.4674     |  45.0 | 73.68
Neigh   | 0          | 0          | 0          |   0.0 |  0.00
Comm    | 0.043761   | 0.57828    | 1.8582     |  70.3 | 16.02
Output  | 0.00011783 | 0.00012146 | 0.00027356 |   0.0 |  0.00
Modify  | 6.7944e-05 | 0.0056059  | 0.011993   |   3.5 |  0.16
Other   |            | 0.3657     |            |       | 10.13

Nlocal:        5552.90 ave        7920 max           0 min
Histogram: 4 2 2 0 2 6 4 2 13 17
Nghost:        6213.67 ave        8770 max         412 min
Histogram: 4 0 4 0 8 0 4 5 7 20
Neighs:       158426.0 ave      230860 max           0 min
Histogram: 4 2 2 0 5 3 4 4 12 16

Total # of neighbors = 8238170
Ave neighs/atom = 28.530360
Neighbor list builds = 0
Dangerous builds = 0
The dot product: -1.8437961989102e-08
Setting atom values ...
  1 settings made for x
  1 settings made for y
  1 settings made for z
Setting up cg style minimization ...
  Unit style    : metal
  Current step  : 26136
Per MPI rank memory allocation (min/avg/max) = 5.465 | 6.344 | 6.728 Mbytes
Step PotEng KinEng TotEng v_fx v_fy v_fz 
   26136     -1152449            0     -1152449 -0.0008759459 0.0035209735 0.0050142988 
   26340     -1152449            0     -1152449 -1.3780918e-05 1.454201e-06 1.169095e-05 
Loop time of 4.38553 on 52 procs for 204 steps with 288751 atoms

99.9% CPU use with 52 MPI tasks x 1 OpenMP threads

Minimization stats:
  Stopping criterion = energy tolerance
  Energy initial, next-to-last, final = 
     -1152449.02102738   -1152449.0223599   -1152449.0223599
  Force two-norm initial, final = 0.16217574 6.6731562e-05
  Force max component initial, final = 0.097447002 1.4885502e-05
  Final line search alpha, max atom move = 1.0000000 1.4885502e-05
  Iterations, force evaluations = 204 408

MPI task timing breakdown:
Section |  min time  |  avg time  |  max time  |%varavg| %total
---------------------------------------------------------------
Pair    | 1.1502     | 3.2281     | 4.2103     |  49.6 | 73.61
Neigh   | 0          | 0          | 0          |   0.0 |  0.00
Comm    | 0.054816   | 0.70001    | 2.2414     |  77.4 | 15.96
Output  | 0          | 0          | 0          |   0.0 |  0.00
Modify  | 8.0499e-05 | 0.006799   | 0.014645   |   3.9 |  0.16
Other   |            | 0.4507     |            |       | 10.28

Nlocal:        5552.90 ave        7920 max           0 min
Histogram: 4 2 2 0 2 6 4 2 13 17
Nghost:        6213.67 ave        8770 max         412 min
Histogram: 4 0 4 0 8 0 4 5 7 20
Neighs:       158426.0 ave      230854 max           0 min
Histogram: 4 2 2 0 5 3 4 4 12 16

Total # of neighbors = 8238171
Ave neighs/atom = 28.530364
Neighbor list builds = 0
Dangerous builds = 0
The dot product: -5.67324511858042e-09
Setting atom values ...
  1 settings made for x
  1 settings made for y
  1 settings made for z
Setting up cg style minimization ...
  Unit style    : metal
  Current step  : 26340
Per MPI rank memory allocation (min/avg/max) = 5.465 | 6.344 | 6.728 Mbytes
Step PotEng KinEng TotEng v_fx v_fy v_fz 
   26340     -1152449            0     -1152449 -0.00025258403  0.002847633 0.0037310709 
   26502     -1152449            0     -1152449 -2.6814318e-05 -8.5693602e-06 8.531056e-06 
Loop time of 3.50187 on 52 procs for 162 steps with 288751 atoms

99.9% CPU use with 52 MPI tasks x 1 OpenMP threads

Minimization stats:
  Stopping criterion = energy tolerance
  Energy initial, next-to-last, final = 
     -1152448.99637459    -1152448.997689    -1152448.997689
  Force two-norm initial, final = 0.16262825 0.00026354694
  Force max component initial, final = 0.09809553 4.8767369e-05
  Final line search alpha, max atom move = 1.0000000 4.8767369e-05
  Iterations, force evaluations = 162 324

MPI task timing breakdown:
Section |  min time  |  avg time  |  max time  |%varavg| %total
---------------------------------------------------------------
Pair    | 0.91664    | 2.5678     | 3.3476     |  44.3 | 73.33
Neigh   | 0          | 0          | 0          |   0.0 |  0.00
Comm    | 0.044155   | 0.56085    | 1.7935     |  68.8 | 16.02
Output  | 0          | 0          | 0          |   0.0 |  0.00
Modify  | 6.0193e-05 | 0.0054048  | 0.011615   |   3.4 |  0.15
Other   |            | 0.3678     |            |       | 10.50

Nlocal:        5552.90 ave        7920 max           0 min
Histogram: 4 2 2 0 2 6 4 2 13 17
Nghost:        6213.71 ave        8770 max         412 min
Histogram: 4 0 4 0 8 0 4 5 7 20
Neighs:       158426.0 ave      230855 max           0 min
Histogram: 4 2 2 0 5 3 4 4 12 16

Total # of neighbors = 8238173
Ave neighs/atom = 28.530370
Neighbor list builds = 0
Dangerous builds = 0
The dot product: -3.16317375709977e-08
Setting atom values ...
  1 settings made for x
  1 settings made for y
  1 settings made for z
Setting up cg style minimization ...
  Unit style    : metal
  Current step  : 26502
Per MPI rank memory allocation (min/avg/max) = 5.465 | 6.344 | 6.728 Mbytes
Step PotEng KinEng TotEng v_fx v_fy v_fz 
   26502     -1152449            0     -1152449 0.00054348498 0.0022479168 0.0024147338 
   26688     -1152449            0     -1152449 9.5763462e-06 -4.4364838e-06 -1.2391974e-05 
Loop time of 4.0151 on 52 procs for 186 steps with 288751 atoms

99.9% CPU use with 52 MPI tasks x 1 OpenMP threads

Minimization stats:
  Stopping criterion = linesearch alpha is zero
  Energy initial, next-to-last, final = 
     -1152448.97022935  -1152448.97152938  -1152448.97152938
  Force two-norm initial, final = 0.16325032 0.00012034664
  Force max component initial, final = 0.098646188 3.1121470e-05
  Final line search alpha, max atom move = 0.5 1.5560735e-05
  Iterations, force evaluations = 186 373

MPI task timing breakdown:
Section |  min time  |  avg time  |  max time  |%varavg| %total
---------------------------------------------------------------
Pair    | 1.052      | 2.9499     | 3.8476     |  47.5 | 73.47
Neigh   | 0          | 0          | 0          |   0.0 |  0.00
Comm    | 0.048339   | 0.64224    | 2.0597     |  74.0 | 16.00
Output  | 0          | 0          | 0          |   0.0 |  0.00
Modify  | 7.1211e-05 | 0.0062172  | 0.01325    |   3.7 |  0.15
Other   |            | 0.4167     |            |       | 10.38

Nlocal:        5552.90 ave        7920 max           0 min
Histogram: 4 2 2 0 2 6 4 2 13 17
Nghost:        6213.71 ave        8770 max         412 min
Histogram: 4 0 4 0 8 0 4 5 7 20
Neighs:       158426.0 ave      230857 max           0 min
Histogram: 4 2 2 0 5 3 4 4 12 16

Total # of neighbors = 8238171
Ave neighs/atom = 28.530364
Neighbor list builds = 0
Dangerous builds = 0
The dot product: 6.82770755191175e-09
Setting atom values ...
  1 settings made for x
  1 settings made for y
  1 settings made for z
Setting up cg style minimization ...
  Unit style    : metal
  Current step  : 26688
Per MPI rank memory allocation (min/avg/max) = 5.465 | 6.344 | 6.728 Mbytes
Step PotEng KinEng TotEng v_fx v_fy v_fz 
   26688   -1152448.9            0   -1152448.9 0.0014300132 0.0017319127 0.0011377169 
   26877   -1152448.9            0   -1152448.9 2.0901171e-05 1.5519272e-05 4.4077973e-06 
Loop time of 4.08071 on 52 procs for 189 steps with 288751 atoms

99.9% CPU use with 52 MPI tasks x 1 OpenMP threads

Minimization stats:
  Stopping criterion = linesearch alpha is zero
  Energy initial, next-to-last, final = 
     -1152448.94250088   -1152448.9437948   -1152448.9437948
  Force two-norm initial, final = 0.16412958 0.00011137446
  Force max component initial, final = 0.099216129 2.8254294e-05
  Final line search alpha, max atom move = 0.5 1.4127147e-05
  Iterations, force evaluations = 189 379

MPI task timing breakdown:
Section |  min time  |  avg time  |  max time  |%varavg| %total
---------------------------------------------------------------
Pair    | 1.0698     | 2.9989     | 3.9193     |  47.9 | 73.49
Neigh   | 0          | 0          | 0          |   0.0 |  0.00
Comm    | 0.049437   | 0.65647    | 2.1178     |  74.5 | 16.09
Output  | 0          | 0          | 0          |   0.0 |  0.00
Modify  | 8.2249e-05 | 0.0063042  | 0.013532   |   3.7 |  0.15
Other   |            | 0.4191     |            |       | 10.27

Nlocal:        5552.90 ave        7920 max           0 min
Histogram: 4 2 2 0 2 6 4 2 13 17
Nghost:        6213.67 ave        8770 max         412 min
Histogram: 4 0 4 0 8 0 4 5 7 20
Neighs:       158426.0 ave      230849 max           0 min
Histogram: 4 2 2 0 5 3 4 4 12 16

Total # of neighbors = 8238172
Ave neighs/atom = 28.530367
Neighbor list builds = 0
Dangerous builds = 0
The dot product: 3.31325469379177e-08
Setting atom values ...
  1 settings made for x
  1 settings made for y
  1 settings made for z
Setting up cg style minimization ...
  Unit style    : metal
  Current step  : 26877
Per MPI rank memory allocation (min/avg/max) = 5.465 | 6.344 | 6.728 Mbytes
Step PotEng KinEng TotEng v_fx v_fy v_fz 
   26877   -1152448.9            0   -1152448.9 0.0021046968  0.001307989 0.00012768739 
   27000   -1152448.9            0   -1152448.9 -0.00013688341 2.8053069e-05 0.00013286794 
   27071   -1152448.9            0   -1152448.9 -2.7269465e-05 4.3395072e-06 2.4910626e-05 
Loop time of 4.17696 on 52 procs for 194 steps with 288751 atoms

99.9% CPU use with 52 MPI tasks x 1 OpenMP threads

Minimization stats:
  Stopping criterion = linesearch alpha is zero
  Energy initial, next-to-last, final = 
     -1152448.91311872  -1152448.91441243  -1152448.91441243
  Force two-norm initial, final = 0.16519999 0.0001158963
  Force max component initial, final = 0.099740755 3.1906680e-05
  Final line search alpha, max atom move = 0.5 1.5953340e-05
  Iterations, force evaluations = 194 389

MPI task timing breakdown:
Section |  min time  |  avg time  |  max time  |%varavg| %total
---------------------------------------------------------------
Pair    | 1.0989     | 3.0778     | 4.0145     |  48.4 | 73.68
Neigh   | 0          | 0          | 0          |   0.0 |  0.00
Comm    | 0.050482   | 0.66952    | 2.1502     |  75.7 | 16.03
Output  | 0.00011718 | 0.00012131 | 0.00028048 |   0.0 |  0.00
Modify  | 7.6789e-05 | 0.0064842  | 0.013938   |   3.8 |  0.16
Other   |            | 0.423      |            |       | 10.13

Nlocal:        5552.90 ave        7920 max           0 min
Histogram: 4 2 2 0 2 6 4 2 13 17
Nghost:        6213.63 ave        8770 max         412 min
Histogram: 4 0 4 0 8 0 4 5 7 20
Neighs:       158426.0 ave      230846 max           0 min
Histogram: 4 2 2 0 5 3 4 4 12 16

Total # of neighbors = 8238170
Ave neighs/atom = 28.530360
Neighbor list builds = 0
Dangerous builds = 0
The dot product: -3.8393413995102e-08
Setting atom values ...
  1 settings made for x
  1 settings made for y
  1 settings made for z
Setting up cg style minimization ...
  Unit style    : metal
  Current step  : 27071
Per MPI rank memory allocation (min/avg/max) = 5.465 | 6.344 | 6.728 Mbytes
Step PotEng KinEng TotEng v_fx v_fy v_fz 
   27071   -1152448.9            0   -1152448.9 0.0023248227 0.00089771764 -0.00053985236 
   27265   -1152448.9            0   -1152448.9 -3.7391876e-06 6.1835782e-06 1.038783e-05 
Loop time of 4.17433 on 52 procs for 194 steps with 288751 atoms

99.9% CPU use with 52 MPI tasks x 1 OpenMP threads

Minimization stats:
  Stopping criterion = linesearch alpha is zero
  Energy initial, next-to-last, final = 
     -1152448.88202386  -1152448.88331989  -1152448.88331989
  Force two-norm initial, final = 0.16634535 0.00011353102
  Force max component initial, final = 0.10024381 1.0387830e-05
  Final line search alpha, max atom move = 0.5 5.1939150e-06
  Iterations, force evaluations = 194 389

MPI task timing breakdown:
Section |  min time  |  avg time  |  max time  |%varavg| %total
---------------------------------------------------------------
Pair    | 1.0953     | 3.0769     | 4.0124     |  48.5 | 73.71
Neigh   | 0          | 0          | 0          |   0.0 |  0.00
Comm    | 0.050721   | 0.67205    | 2.1784     |  75.7 | 16.10
Output  | 0          | 0          | 0          |   0.0 |  0.00
Modify  | 7.3523e-05 | 0.0064818  | 0.013795   |   3.7 |  0.16
Other   |            | 0.4189     |            |       | 10.03

Nlocal:        5552.90 ave        7920 max           0 min
Histogram: 4 2 2 0 2 6 4 2 13 17
Nghost:        6213.65 ave        8771 max         412 min
Histogram: 4 0 4 0 8 0 4 5 7 20
Neighs:       158426.0 ave      230838 max           0 min
Histogram: 4 2 2 0 5 3 4 4 12 16

Total # of neighbors = 8238169
Ave neighs/atom = 28.530357
Neighbor list builds = 0
Dangerous builds = 0
The dot product: -5.6088551838443e-09
