LAMMPS (29 Oct 2020)
OMP_NUM_THREADS environment is not set. Defaulting to 1 thread. (../comm.cpp:94)
  using 1 OpenMP thread(s) per MPI task
OMP_NUM_THREADS environment is not set. Defaulting to 1 thread. (../comm.cpp:94)
  using 1 OpenMP thread(s) per MPI task
Reading data file ...
  orthogonal box = (-122.39241 -121.13707 -37.090501) to (122.39241 121.13707 37.090501)
  13 by 4 by 2 MPI processor grid
  reading atoms ...
  288751 atoms
  read_data CPU = 0.480 seconds
199981 atoms in group inner
88770 atoms in group outer
1 atoms in group carbon
Neighbor list info ...
  update every 1 steps, delay 0 steps, check yes
  max neighbors/atom: 2000, page size: 100000
  master list distance cutoff = 5.6
  ghost atom cutoff = 5.6
  binsize = 2.8, bins = 88 87 27
  1 neighbor lists, perpetual/occasional/extra = 1 0 0
  (1) pair eam/alloy, perpetual
      attributes: half, newton on
      pair build: half/bin/atomonly/newton
      stencil: half/bin/3d/newton
      bin: standard
Setting up cg style minimization ...
  Unit style    : metal
  Current step  : 0
Per MPI rank memory allocation (min/avg/max) = 5.441 | 5.816 | 6.074 Mbytes
Step v_fx v_fy v_fz PotEng KinEng TotEng 
       0  -0.21657515    -30.04813   -50.390662   -1152433.3            0   -1152433.3 
     174 7.5699081e-07 -2.6504002e-06 1.2351379e-05   -1152449.5            0   -1152449.5 
Loop time of 2.06542 on 104 procs for 174 steps with 288751 atoms

99.8% CPU use with 104 MPI tasks x 1 OpenMP threads

Minimization stats:
  Stopping criterion = energy tolerance
  Energy initial, next-to-last, final = 
     -1152433.30951864  -1152449.45035271  -1152449.45035271
  Force two-norm initial, final = 87.912276 7.4641969e-05
  Force max component initial, final = 57.526621 1.2351379e-05
  Final line search alpha, max atom move = 1.0000000 1.2351379e-05
  Iterations, force evaluations = 174 340

MPI task timing breakdown:
Section |  min time  |  avg time  |  max time  |%varavg| %total
---------------------------------------------------------------
Pair    | 0.54379    | 1.4477     | 1.8656     |  31.8 | 70.09
Neigh   | 5.2148e-05 | 0.015342   | 0.022655   |   5.2 |  0.74
Comm    | 0.032789   | 0.34106    | 0.98604    |  45.9 | 16.51
Output  | 0          | 0          | 0          |   0.0 |  0.00
Modify  | 1.9473e-05 | 0.001859   | 0.0048045  |   2.7 |  0.09
Other   |            | 0.2594     |            |       | 12.56

Nlocal:        2776.45 ave        3960 max           0 min
Histogram: 8 4 4 0 4 12 8 2 28 34
Nghost:        3879.01 ave        5424 max         232 min
Histogram: 8 0 8 0 16 0 8 8 16 40
Neighs:        79213.5 ave      115432 max           0 min
Histogram: 8 4 4 0 10 6 8 8 24 32

Total # of neighbors = 8238208
Ave neighs/atom = 28.530492
Neighbor list builds = 5
Dangerous builds = 0
Setting atom values ...
  1 settings made for x
  1 settings made for y
  1 settings made for z
Setting up cg style minimization ...
  Unit style    : metal
  Current step  : 174
Per MPI rank memory allocation (min/avg/max) = 5.441 | 5.816 | 6.074 Mbytes
Step PotEng KinEng TotEng v_fx v_fy v_fz 
     174   -1152449.4            0   -1152449.4   0.20517073   0.10923768  -0.22942136 
     416   -1152449.4            0   -1152449.4 -2.7555279e-06 -7.9522943e-06 -2.4665498e-06 
Loop time of 2.91097 on 104 procs for 242 steps with 288751 atoms

99.9% CPU use with 104 MPI tasks x 1 OpenMP threads

Minimization stats:
  Stopping criterion = energy tolerance
  Energy initial, next-to-last, final = 
     -1152449.36911799  -1152449.42619582  -1152449.42619582
  Force two-norm initial, final = 1.1882603 6.1760021e-05
  Force max component initial, final = 0.59301258 7.9522943e-06
  Final line search alpha, max atom move = 1.0000000 7.9522943e-06
  Iterations, force evaluations = 242 484

MPI task timing breakdown:
Section |  min time  |  avg time  |  max time  |%varavg| %total
---------------------------------------------------------------
Pair    | 0.74003    | 2.0512     | 2.6807     |  38.8 | 70.46
Neigh   | 2.0246e-05 | 0.0058853  | 0.0085344  |   3.2 |  0.20
Comm    | 0.048349   | 0.47769    | 1.4151     |  55.7 | 16.41
Output  | 0          | 0          | 0          |   0.0 |  0.00
Modify  | 3.2937e-05 | 0.0040165  | 0.0086013  |   3.0 |  0.14
Other   |            | 0.3722     |            |       | 12.78

Nlocal:        2776.45 ave        3961 max           0 min
Histogram: 8 4 4 0 6 10 8 2 28 34
Nghost:        3879.01 ave        5424 max         232 min
Histogram: 8 0 8 0 16 0 8 8 16 40
Neighs:        79213.4 ave      115458 max           0 min
Histogram: 8 4 4 0 10 6 8 8 24 32

Total # of neighbors = 8238197
Ave neighs/atom = 28.530454
Neighbor list builds = 2
Dangerous builds = 0
Setting atom values ...
  1 settings made for x
  1 settings made for y
  1 settings made for z
Setting up cg style minimization ...
  Unit style    : metal
  Current step  : 416
Per MPI rank memory allocation (min/avg/max) = 5.441 | 5.816 | 6.074 Mbytes
Step PotEng KinEng TotEng v_fx v_fy v_fz 
     416   -1152449.1            0   -1152449.1   0.34757103   0.28899678  -0.47993369 
     668   -1152449.2            0   -1152449.2 3.5125759e-06 1.8836217e-05 1.2382604e-05 
Loop time of 2.98385 on 104 procs for 252 steps with 288751 atoms

99.9% CPU use with 104 MPI tasks x 1 OpenMP threads

Minimization stats:
  Stopping criterion = energy tolerance
  Energy initial, next-to-last, final = 
      -1152449.0692066  -1152449.24975975  -1152449.24975975
  Force two-norm initial, final = 2.2443441 9.9772047e-05
  Force max component initial, final = 1.2166229 2.3813637e-05
  Final line search alpha, max atom move = 1.0000000 2.3813637e-05
  Iterations, force evaluations = 252 504

MPI task timing breakdown:
Section |  min time  |  avg time  |  max time  |%varavg| %total
---------------------------------------------------------------
Pair    | 0.76183    | 2.1192     | 2.7539     |  39.5 | 71.02
Neigh   | 1.0169e-05 | 0.0029422  | 0.0042561  |   2.2 |  0.10
Comm    | 0.047184   | 0.48837    | 1.4621     |  57.0 | 16.37
Output  | 0          | 0          | 0          |   0.0 |  0.00
Modify  | 2.968e-05  | 0.0041758  | 0.0088572  |   3.0 |  0.14
Other   |            | 0.3692     |            |       | 12.37

Nlocal:        2776.45 ave        3961 max           0 min
Histogram: 8 4 4 0 6 10 8 2 28 34
Nghost:        3879.09 ave        5424 max         232 min
Histogram: 8 0 8 0 16 0 8 8 16 40
Neighs:        79213.4 ave      115466 max           0 min
Histogram: 8 4 4 0 10 6 8 8 24 32

Total # of neighbors = 8238197
Ave neighs/atom = 28.530454
Neighbor list builds = 1
Dangerous builds = 0
The dot product: -6.31233596393477e-08
Setting atom values ...
  1 settings made for x
  1 settings made for y
  1 settings made for z
Setting up cg style minimization ...
  Unit style    : metal
  Current step  : 668
Per MPI rank memory allocation (min/avg/max) = 5.441 | 5.816 | 6.074 Mbytes
Step PotEng KinEng TotEng v_fx v_fy v_fz 
     668   -1152448.7            0   -1152448.7   0.39716276   0.37657124  -0.75631948 
     935   -1152449.3            0   -1152449.3 4.8795372e-06 -6.5957137e-07 -1.6035305e-05 
Loop time of 3.14533 on 104 procs for 267 steps with 288751 atoms

99.9% CPU use with 104 MPI tasks x 1 OpenMP threads

Minimization stats:
  Stopping criterion = energy tolerance
  Energy initial, next-to-last, final = 
     -1152448.73127204  -1152449.32688391  -1152449.32688391
  Force two-norm initial, final = 2.2321572 0.00012531954
  Force max component initial, final = 1.1848126 2.0128929e-05
  Final line search alpha, max atom move = 1.0000000 2.0128929e-05
  Iterations, force evaluations = 267 532

MPI task timing breakdown:
Section |  min time  |  avg time  |  max time  |%varavg| %total
---------------------------------------------------------------
Pair    | 0.82615    | 2.2525     | 2.9058     |  40.1 | 71.61
Neigh   | 7.0808e-05 | 0.020536   | 0.02973    |   5.9 |  0.65
Comm    | 0.049285   | 0.51704    | 1.5412     |  58.8 | 16.44
Output  | 0          | 0          | 0          |   0.0 |  0.00
Modify  | 3.2464e-05 | 0.0044047  | 0.0093518  |   3.1 |  0.14
Other   |            | 0.3509     |            |       | 11.16

Nlocal:        2776.45 ave        3952 max           0 min
Histogram: 8 4 4 0 4 12 8 0 30 34
Nghost:        3879.14 ave        5425 max         232 min
Histogram: 8 0 8 0 16 0 8 8 16 40
Neighs:        79213.3 ave      115172 max           0 min
Histogram: 8 4 4 0 10 6 8 8 24 32

Total # of neighbors = 8238183
Ave neighs/atom = 28.530405
Neighbor list builds = 7
Dangerous builds = 0
The dot product: 8.26412955920381e-06
Setting atom values ...
  1 settings made for x
  1 settings made for y
  1 settings made for z
Setting up cg style minimization ...
  Unit style    : metal
  Current step  : 935
Per MPI rank memory allocation (min/avg/max) = 5.441 | 5.816 | 6.074 Mbytes
Step PotEng KinEng TotEng v_fx v_fy v_fz 
     935   -1152449.2            0   -1152449.2   0.21683123  -0.85364426 -0.013386733 
    1000   -1152449.4            0   -1152449.4 0.0008767933 0.00042482628 0.0025263975 
    1172   -1152449.4            0   -1152449.4 2.1052494e-05 6.2789468e-06 5.8050442e-05 
Loop time of 2.83331 on 104 procs for 237 steps with 288751 atoms

99.9% CPU use with 104 MPI tasks x 1 OpenMP threads

Minimization stats:
  Stopping criterion = energy tolerance
  Energy initial, next-to-last, final = 
     -1152449.17989944  -1152449.39447216  -1152449.39447216
  Force two-norm initial, final = 1.8168306 0.00018827605
  Force max component initial, final = 0.88959708 5.8050442e-05
  Final line search alpha, max atom move = 1.0000000 5.8050442e-05
  Iterations, force evaluations = 237 474

MPI task timing breakdown:
Section |  min time  |  avg time  |  max time  |%varavg| %total
---------------------------------------------------------------
Pair    | 0.71578    | 1.9986     | 2.5977     |  38.3 | 70.54
Neigh   | 1.0215e-05 | 0.0029384  | 0.0042833  |   2.2 |  0.10
Comm    | 0.045546   | 0.46023    | 1.3716     |  55.0 | 16.24
Output  | 0.00031097 | 0.00031987 | 0.00045303 |   0.0 |  0.01
Modify  | 2.8155e-05 | 0.003915   | 0.0083427  |   2.9 |  0.14
Other   |            | 0.3673     |            |       | 12.96

Nlocal:        2776.45 ave        3960 max           0 min
Histogram: 8 4 4 0 4 12 8 2 28 34
Nghost:        3879.11 ave        5426 max         232 min
Histogram: 8 0 8 0 16 0 8 8 16 40
Neighs:        79213.4 ave      115432 max           0 min
Histogram: 8 4 4 0 10 6 8 8 24 32

Total # of neighbors = 8238195
Ave neighs/atom = 28.530447
Neighbor list builds = 1
Dangerous builds = 0
The dot product: -4.47936350663447e-06
Setting atom values ...
  1 settings made for x
  1 settings made for y
  1 settings made for z
Setting up cg style minimization ...
  Unit style    : metal
  Current step  : 1172
Per MPI rank memory allocation (min/avg/max) = 5.441 | 5.816 | 6.074 Mbytes
Step PotEng KinEng TotEng v_fx v_fy v_fz 
    1172   -1152449.3            0   -1152449.3   0.11125215 -0.021847131   0.25574009 
    1417   -1152449.4            0   -1152449.4 -1.0012303e-05 7.6184637e-06 -2.3438161e-05 
Loop time of 2.87355 on 104 procs for 245 steps with 288751 atoms

99.9% CPU use with 104 MPI tasks x 1 OpenMP threads

Minimization stats:
  Stopping criterion = energy tolerance
  Energy initial, next-to-last, final = 
     -1152449.31765029  -1152449.44799053  -1152449.44799053
  Force two-norm initial, final = 1.6677160 0.00010537774
  Force max component initial, final = 0.85664501 2.3438161e-05
  Final line search alpha, max atom move = 1.0000000 2.3438161e-05
  Iterations, force evaluations = 245 490

MPI task timing breakdown:
Section |  min time  |  avg time  |  max time  |%varavg| %total
---------------------------------------------------------------
Pair    | 0.7362     | 2.0636     | 2.6887     |  39.0 | 71.81
Neigh   | 0          | 0          | 0          |   0.0 |  0.00
Comm    | 0.041627   | 0.47294    | 1.4278     |  56.6 | 16.46
Output  | 0          | 0          | 0          |   0.0 |  0.00
Modify  | 2.8935e-05 | 0.0040567  | 0.008699   |   3.0 |  0.14
Other   |            | 0.3329     |            |       | 11.59

Nlocal:        2776.45 ave        3958 max           0 min
Histogram: 8 4 4 0 4 12 8 2 28 34
Nghost:        3879.09 ave        5424 max         232 min
Histogram: 8 0 8 0 16 0 8 8 16 40
Neighs:        79213.5 ave      115370 max           0 min
Histogram: 8 4 4 0 10 6 8 8 24 32

Total # of neighbors = 8238204
Ave neighs/atom = 28.530478
Neighbor list builds = 0
Dangerous builds = 0
The dot product: -2.89445553557555e-07
Setting atom values ...
  1 settings made for x
  1 settings made for y
  1 settings made for z
Setting up cg style minimization ...
  Unit style    : metal
  Current step  : 1417
Per MPI rank memory allocation (min/avg/max) = 5.441 | 5.816 | 6.074 Mbytes
Step PotEng KinEng TotEng v_fx v_fy v_fz 
    1417   -1152449.2            0   -1152449.2   0.06739394  -0.20024076   0.16209546 
    1642   -1152449.4            0   -1152449.4 1.4172003e-05 4.9564995e-06 3.3976006e-05 
Loop time of 2.64351 on 104 procs for 225 steps with 288751 atoms

99.9% CPU use with 104 MPI tasks x 1 OpenMP threads

Minimization stats:
  Stopping criterion = energy tolerance
  Energy initial, next-to-last, final = 
     -1152449.22525524  -1152449.35038854  -1152449.35038854
  Force two-norm initial, final = 1.7155928 0.0002583863
  Force max component initial, final = 0.92425116 6.2237987e-05
  Final line search alpha, max atom move = 1.0000000 6.2237987e-05
  Iterations, force evaluations = 225 450

MPI task timing breakdown:
Section |  min time  |  avg time  |  max time  |%varavg| %total
---------------------------------------------------------------
Pair    | 0.67297    | 1.8865     | 2.4569     |  37.3 | 71.36
Neigh   | 0          | 0          | 0          |   0.0 |  0.00
Comm    | 0.038252   | 0.42997    | 1.295      |  54.1 | 16.27
Output  | 0          | 0          | 0          |   0.0 |  0.00
Modify  | 2.6623e-05 | 0.0037189  | 0.0078924  |   2.9 |  0.14
Other   |            | 0.3233     |            |       | 12.23

Nlocal:        2776.45 ave        3960 max           0 min
Histogram: 8 4 4 0 4 12 8 2 28 34
Nghost:        3878.99 ave        5424 max         232 min
Histogram: 8 0 8 0 16 0 8 8 16 40
Neighs:        79213.4 ave      115424 max           0 min
Histogram: 8 4 4 0 10 6 8 8 24 32

Total # of neighbors = 8238198
Ave neighs/atom = 28.530457
Neighbor list builds = 0
Dangerous builds = 0
The dot product: 2.7883614085688e-07
Setting atom values ...
  1 settings made for x
  1 settings made for y
  1 settings made for z
Setting up cg style minimization ...
  Unit style    : metal
  Current step  : 1642
Per MPI rank memory allocation (min/avg/max) = 5.441 | 5.816 | 6.074 Mbytes
Step PotEng KinEng TotEng v_fx v_fy v_fz 
    1642     -1152449            0     -1152449  0.051817636   -0.1587098    0.1266358 
    1881   -1152449.1            0   -1152449.1 -2.1298144e-06 1.3149584e-05 -5.2269265e-06 
Loop time of 2.80705 on 104 procs for 239 steps with 288751 atoms

99.9% CPU use with 104 MPI tasks x 1 OpenMP threads

Minimization stats:
  Stopping criterion = energy tolerance
  Energy initial, next-to-last, final = 
     -1152448.97643004  -1152449.11016411  -1152449.11016411
  Force two-norm initial, final = 1.7650179 0.00015853464
  Force max component initial, final = 0.96187557 3.8652634e-05
  Final line search alpha, max atom move = 1.0000000 3.8652634e-05
  Iterations, force evaluations = 239 478

MPI task timing breakdown:
Section |  min time  |  avg time  |  max time  |%varavg| %total
---------------------------------------------------------------
Pair    | 0.73115    | 2.0164     | 2.6149     |  38.2 | 71.83
Neigh   | 3.0797e-05 | 0.0087441  | 0.013359   |   3.9 |  0.31
Comm    | 0.041229   | 0.46138    | 1.384      |  55.9 | 16.44
Output  | 0          | 0          | 0          |   0.0 |  0.00
Modify  | 2.8497e-05 | 0.0039544  | 0.008392   |   3.0 |  0.14
Other   |            | 0.3165     |            |       | 11.28

Nlocal:        2776.45 ave        3955 max           0 min
Histogram: 8 4 4 0 4 12 8 0 30 34
Nghost:        3879.11 ave        5426 max         232 min
Histogram: 8 0 8 0 16 0 8 8 16 40
Neighs:        79213.5 ave      115278 max           0 min
Histogram: 8 4 4 0 10 6 8 8 24 32

Total # of neighbors = 8238200
Ave neighs/atom = 28.530464
Neighbor list builds = 3
Dangerous builds = 0
The dot product: 2.01679838310434e-07
Setting atom values ...
  1 settings made for x
  1 settings made for y
  1 settings made for z
Setting up cg style minimization ...
  Unit style    : metal
  Current step  : 1881
Per MPI rank memory allocation (min/avg/max) = 5.441 | 5.816 | 6.074 Mbytes
Step PotEng KinEng TotEng v_fx v_fy v_fz 
    1881   -1152448.6            0   -1152448.6  0.065407605   0.22457176   0.15558301 
    2000   -1152448.7            0   -1152448.7 -0.00015250398 -0.00030255983 -0.00036116045 
    2123   -1152448.7            0   -1152448.7 4.8153139e-06 1.3886245e-05 1.1434926e-05 
Loop time of 2.82793 on 104 procs for 242 steps with 288751 atoms

99.9% CPU use with 104 MPI tasks x 1 OpenMP threads

Minimization stats:
  Stopping criterion = energy tolerance
  Energy initial, next-to-last, final = 
     -1152448.61532297  -1152448.74421581  -1152448.74421581
  Force two-norm initial, final = 1.6840929 0.00012283785
  Force max component initial, final = 0.92451227 3.4022520e-05
  Final line search alpha, max atom move = 1.0000000 3.4022520e-05
  Iterations, force evaluations = 242 484

MPI task timing breakdown:
Section |  min time  |  avg time  |  max time  |%varavg| %total
---------------------------------------------------------------
Pair    | 0.73852    | 2.0323     | 2.6409     |  38.3 | 71.87
Neigh   | 3.0202e-05 | 0.0088302  | 0.012837   |   3.9 |  0.31
Comm    | 0.045502   | 0.46222    | 1.3979     |  56.4 | 16.34
Output  | 0.00028185 | 0.00028573 | 0.00043748 |   0.0 |  0.01
Modify  | 3.0862e-05 | 0.0040046  | 0.0085235  |   3.0 |  0.14
Other   |            | 0.3203     |            |       | 11.33

Nlocal:        2776.45 ave        3956 max           0 min
Histogram: 8 4 4 0 4 12 8 0 30 34
Nghost:        3879.08 ave        5427 max         232 min
Histogram: 8 0 8 0 16 0 8 8 16 40
Neighs:        79213.5 ave      115304 max           0 min
Histogram: 8 4 4 0 10 6 8 8 24 32

Total # of neighbors = 8238199
Ave neighs/atom = 28.530461
Neighbor list builds = 3
Dangerous builds = 0
The dot product: 1.35421265323999e-06
Setting atom values ...
  1 settings made for x
  1 settings made for y
  1 settings made for z
Setting up cg style minimization ...
  Unit style    : metal
  Current step  : 2123
Per MPI rank memory allocation (min/avg/max) = 5.441 | 5.816 | 6.074 Mbytes
Step PotEng KinEng TotEng v_fx v_fy v_fz 
    2123   -1152448.3            0   -1152448.3   0.14147701   0.44806975   0.39600921 
    2454   -1152448.6            0   -1152448.6 -1.1270002e-06 2.2412471e-07 -2.6275927e-06 
Loop time of 3.89473 on 104 procs for 331 steps with 288751 atoms

99.9% CPU use with 104 MPI tasks x 1 OpenMP threads

Minimization stats:
  Stopping criterion = energy tolerance
  Energy initial, next-to-last, final = 
     -1152448.32390485  -1152448.62854767  -1152448.62854767
  Force two-norm initial, final = 1.6963605 1.4701615e-05
  Force max component initial, final = 0.81462731 2.6275927e-06
  Final line search alpha, max atom move = 1.0000000 2.6275927e-06
  Iterations, force evaluations = 331 662

MPI task timing breakdown:
Section |  min time  |  avg time  |  max time  |%varavg| %total
---------------------------------------------------------------
Pair    | 1.0015     | 2.7935     | 3.6228     |  45.1 | 71.72
Neigh   | 3.025e-05  | 0.0088171  | 0.012824   |   3.9 |  0.23
Comm    | 0.065438   | 0.64142    | 1.9279     |  65.9 | 16.47
Output  | 0          | 0          | 0          |   0.0 |  0.00
Modify  | 3.8952e-05 | 0.0054684  | 0.011626   |   3.5 |  0.14
Other   |            | 0.4456     |            |       | 11.44

Nlocal:        2776.45 ave        3954 max           0 min
Histogram: 8 4 4 0 4 12 8 0 30 34
Nghost:        3878.92 ave        5427 max         232 min
Histogram: 8 0 8 0 16 0 8 8 16 40
Neighs:        79213.6 ave      115239 max           0 min
Histogram: 8 4 4 0 10 6 8 8 24 32

Total # of neighbors = 8238218
Ave neighs/atom = 28.530526
Neighbor list builds = 3
Dangerous builds = 0
The dot product: -4.87729597551508e-07
Setting atom values ...
  1 settings made for x
  1 settings made for y
  1 settings made for z
Setting up cg style minimization ...
  Unit style    : metal
  Current step  : 2454
Per MPI rank memory allocation (min/avg/max) = 5.441 | 5.816 | 6.074 Mbytes
Step PotEng KinEng TotEng v_fx v_fy v_fz 
    2454   -1152448.4            0   -1152448.4  -0.22895971   0.71719866  -0.63569053 
    2729   -1152448.8            0   -1152448.8 -6.2191713e-06 1.6547211e-05 -1.7480592e-05 
Loop time of 3.20922 on 104 procs for 275 steps with 288751 atoms

99.9% CPU use with 104 MPI tasks x 1 OpenMP threads

Minimization stats:
  Stopping criterion = energy tolerance
  Energy initial, next-to-last, final = 
     -1152448.38644319  -1152448.83385503  -1152448.83385503
  Force two-norm initial, final = 1.8306997 0.00012322109
  Force max component initial, final = 0.98754831 1.7480592e-05
  Final line search alpha, max atom move = 1.0000000 1.7480592e-05
  Iterations, force evaluations = 275 550

MPI task timing breakdown:
Section |  min time  |  avg time  |  max time  |%varavg| %total
---------------------------------------------------------------
Pair    | 0.84323    | 2.3163     | 2.9972     |  40.9 | 72.18
Neigh   | 4.0724e-05 | 0.011765   | 0.017067   |   4.5 |  0.37
Comm    | 0.047932   | 0.5283     | 1.6127     |  60.3 | 16.46
Output  | 0          | 0          | 0          |   0.0 |  0.00
Modify  | 3.273e-05  | 0.0045466  | 0.0096915  |   3.2 |  0.14
Other   |            | 0.3483     |            |       | 10.85

Nlocal:        2776.45 ave        3957 max           0 min
Histogram: 8 4 4 0 4 12 8 4 26 34
Nghost:        3879.07 ave        5424 max         232 min
Histogram: 8 0 8 0 16 0 8 8 16 40
Neighs:        79213.6 ave      115339 max           0 min
Histogram: 8 4 4 0 10 6 8 8 24 32

Total # of neighbors = 8238213
Ave neighs/atom = 28.530509
Neighbor list builds = 4
Dangerous builds = 0
The dot product: 7.38043525518884e-06
Setting atom values ...
  1 settings made for x
  1 settings made for y
  1 settings made for z
Setting up cg style minimization ...
  Unit style    : metal
  Current step  : 2729
Per MPI rank memory allocation (min/avg/max) = 5.441 | 5.816 | 6.074 Mbytes
Step PotEng KinEng TotEng v_fx v_fy v_fz 
    2729   -1152448.8            0   -1152448.8  0.019484383 0.0082120201  0.037268788 
    2989   -1152448.9            0   -1152448.9 -3.8494736e-09 5.5256032e-07 2.8108313e-08 
Loop time of 3.05412 on 104 procs for 260 steps with 288751 atoms

99.9% CPU use with 104 MPI tasks x 1 OpenMP threads

Minimization stats:
  Stopping criterion = energy tolerance
  Energy initial, next-to-last, final = 
     -1152448.84437491  -1152448.94875688  -1152448.94875688
  Force two-norm initial, final = 1.3591963 9.1024735e-05
  Force max component initial, final = 0.63692519 5.2290324e-06
  Final line search alpha, max atom move = 1.0000000 5.2290324e-06
  Iterations, force evaluations = 260 520

MPI task timing breakdown:
Section |  min time  |  avg time  |  max time  |%varavg| %total
---------------------------------------------------------------
Pair    | 0.78243    | 2.1923     | 2.8646     |  40.2 | 71.78
Neigh   | 1.0153e-05 | 0.0029366  | 0.0042578  |   2.2 |  0.10
Comm    | 0.045477   | 0.50302    | 1.502      |  58.2 | 16.47
Output  | 0          | 0          | 0          |   0.0 |  0.00
Modify  | 3.0806e-05 | 0.0042958  | 0.0091828  |   3.1 |  0.14
Other   |            | 0.3515     |            |       | 11.51

Nlocal:        2776.45 ave        3953 max           0 min
Histogram: 8 4 4 0 4 12 8 2 28 34
Nghost:        3879.09 ave        5424 max         232 min
Histogram: 8 0 8 0 16 0 8 8 16 40
Neighs:        79213.4 ave      115208 max           0 min
Histogram: 8 4 4 0 10 6 8 8 24 32

Total # of neighbors = 8238192
Ave neighs/atom = 28.530436
Neighbor list builds = 1
Dangerous builds = 0
The dot product: -5.03406739651277e-09
Setting up cg style minimization ...
  Unit style    : metal
  Current step  : 2989
Per MPI rank memory allocation (min/avg/max) = 5.441 | 5.816 | 6.074 Mbytes
Step PotEng KinEng TotEng v_fx v_fy v_fz 
    2989   -1152448.9            0   -1152448.9   0.22737464 0.0077180673  -0.12057355 
    3000     -1152449            0     -1152449 0.0050182516 -0.0040442659  0.015724523 
    3267     -1152449            0     -1152449 1.7878323e-05 -2.4525682e-05 2.9625767e-05 
Loop time of 3.232 on 104 procs for 278 steps with 288751 atoms

99.9% CPU use with 104 MPI tasks x 1 OpenMP threads

Minimization stats:
  Stopping criterion = energy tolerance
  Energy initial, next-to-last, final = 
     -1152448.94875688  -1152448.97218774  -1152448.97218774
  Force two-norm initial, final = 0.25748162 0.00014211145
  Force max component initial, final = 0.22737464 2.9625767e-05
  Final line search alpha, max atom move = 1.0000000 2.9625767e-05
  Iterations, force evaluations = 278 556

MPI task timing breakdown:
Section |  min time  |  avg time  |  max time  |%varavg| %total
---------------------------------------------------------------
Pair    | 0.8379     | 2.3308     | 3.0323     |  41.4 | 72.12
Neigh   | 2.0395e-05 | 0.0058684  | 0.0086739  |   3.2 |  0.18
Comm    | 0.048047   | 0.52937    | 1.6057     |  60.3 | 16.38
Output  | 0.0001503  | 0.00016205 | 0.00024543 |   0.0 |  0.01
Modify  | 3.0707e-05 | 0.0029932  | 0.0076462  |   3.4 |  0.09
Other   |            | 0.3628     |            |       | 11.23

Nlocal:        2776.45 ave        3949 max           0 min
Histogram: 8 4 4 0 4 12 8 0 28 36
Nghost:        3879.08 ave        5425 max         232 min
Histogram: 8 0 8 0 16 0 8 8 16 40
Neighs:        79213.7 ave      115075 max           0 min
Histogram: 8 4 4 0 10 6 8 8 24 32

Total # of neighbors = 8238223
Ave neighs/atom = 28.530544
Neighbor list builds = 2
Dangerous builds = 0
OMP_NUM_THREADS environment is not set. Defaulting to 1 thread. (../comm.cpp:94)
  using 1 OpenMP thread(s) per MPI task
Reading data file ...
  orthogonal box = (-122.39241 -121.13707 -37.090501) to (122.39241 121.13707 37.090501)
  13 by 4 by 2 MPI processor grid
  reading atoms ...
  288751 atoms
  read_data CPU = 0.349 seconds
199981 atoms in group inner
88770 atoms in group outer
1 atoms in group carbon
Neighbor list info ...
  update every 1 steps, delay 0 steps, check yes
  max neighbors/atom: 2000, page size: 100000
  master list distance cutoff = 5.6
  ghost atom cutoff = 5.6
  binsize = 2.8, bins = 88 87 27
  1 neighbor lists, perpetual/occasional/extra = 1 0 0
  (1) pair eam/alloy, perpetual
      attributes: half, newton on
      pair build: half/bin/atomonly/newton
      stencil: half/bin/3d/newton
      bin: standard
Setting up cg style minimization ...
  Unit style    : metal
  Current step  : 0
Per MPI rank memory allocation (min/avg/max) = 5.441 | 5.816 | 6.074 Mbytes
Step v_fx v_fy v_fz PotEng KinEng TotEng 
       0  -0.21657515    -30.04813   -50.390662   -1152433.3            0   -1152433.3 
     174 7.5699081e-07 -2.6504002e-06 1.2351379e-05   -1152449.5            0   -1152449.5 
Loop time of 2.02627 on 104 procs for 174 steps with 288751 atoms

99.9% CPU use with 104 MPI tasks x 1 OpenMP threads

Minimization stats:
  Stopping criterion = energy tolerance
  Energy initial, next-to-last, final = 
     -1152433.30951864  -1152449.45035271  -1152449.45035271
  Force two-norm initial, final = 87.912276 7.4641969e-05
  Force max component initial, final = 57.526621 1.2351379e-05
  Final line search alpha, max atom move = 1.0000000 1.2351379e-05
  Iterations, force evaluations = 174 340

MPI task timing breakdown:
Section |  min time  |  avg time  |  max time  |%varavg| %total
---------------------------------------------------------------
Pair    | 0.52925    | 1.4396     | 1.875      |  32.1 | 71.05
Neigh   | 5.0131e-05 | 0.01473    | 0.021482   |   5.0 |  0.73
Comm    | 0.031784   | 0.33365    | 0.97366    |  46.4 | 16.47
Output  | 0          | 0          | 0          |   0.0 |  0.00
Modify  | 1.9319e-05 | 0.0018346  | 0.0046786  |   2.7 |  0.09
Other   |            | 0.2364     |            |       | 11.67

Nlocal:        2776.45 ave        3960 max           0 min
Histogram: 8 4 4 0 4 12 8 2 28 34
Nghost:        3879.01 ave        5424 max         232 min
Histogram: 8 0 8 0 16 0 8 8 16 40
Neighs:        79213.5 ave      115432 max           0 min
Histogram: 8 4 4 0 10 6 8 8 24 32

Total # of neighbors = 8238208
Ave neighs/atom = 28.530492
Neighbor list builds = 5
Dangerous builds = 0
Setting atom values ...
  1 settings made for x
  1 settings made for y
  1 settings made for z
Setting up cg style minimization ...
  Unit style    : metal
  Current step  : 174
Per MPI rank memory allocation (min/avg/max) = 5.441 | 5.816 | 6.074 Mbytes
Step PotEng KinEng TotEng v_fx v_fy v_fz 
     174   -1152448.9            0   -1152448.9  -0.46430989  -0.15871157  -0.34649973 
     418   -1152449.3            0   -1152449.3 -1.7960506e-05 1.9774197e-05 -3.6403828e-05 
Loop time of 2.84545 on 104 procs for 244 steps with 288751 atoms

99.9% CPU use with 104 MPI tasks x 1 OpenMP threads

Minimization stats:
  Stopping criterion = energy tolerance
  Energy initial, next-to-last, final = 
     -1152448.91665056  -1152449.30091235  -1152449.30091235
  Force two-norm initial, final = 3.2855429 0.00015687936
  Force max component initial, final = 2.3860447 3.6403828e-05
  Final line search alpha, max atom move = 1.0000000 3.6403828e-05
  Iterations, force evaluations = 244 487

MPI task timing breakdown:
Section |  min time  |  avg time  |  max time  |%varavg| %total
---------------------------------------------------------------
Pair    | 0.74186    | 2.0456     | 2.658      |  38.5 | 71.89
Neigh   | 2.0189e-05 | 0.0058577  | 0.0085232  |   3.2 |  0.21
Comm    | 0.044484   | 0.46447    | 1.3843     |  56.4 | 16.32
Output  | 0          | 0          | 0          |   0.0 |  0.00
Modify  | 2.831e-05  | 0.0040206  | 0.0085513  |   3.0 |  0.14
Other   |            | 0.3255     |            |       | 11.44

Nlocal:        2776.45 ave        3959 max           0 min
Histogram: 8 4 4 0 4 12 8 2 28 34
Nghost:        3879.05 ave        5424 max         232 min
Histogram: 8 0 8 0 16 0 8 8 16 40
Neighs:        79213.7 ave      115397 max           0 min
Histogram: 8 4 4 0 10 6 8 8 24 32

Total # of neighbors = 8238226
Ave neighs/atom = 28.530554
Neighbor list builds = 2
Dangerous builds = 0
Setting atom values ...
  1 settings made for x
  1 settings made for y
  1 settings made for z
Setting up cg style minimization ...
  Unit style    : metal
  Current step  : 418
Per MPI rank memory allocation (min/avg/max) = 5.441 | 5.816 | 6.074 Mbytes
Step PotEng KinEng TotEng v_fx v_fy v_fz 
     418   -1152448.9            0   -1152448.9  -0.20531946  0.049061603  -0.26649532 
     686   -1152449.1            0   -1152449.1 -4.3305921e-06 4.6473986e-06 -9.3300188e-06 
Loop time of 3.15612 on 104 procs for 268 steps with 288751 atoms

99.9% CPU use with 104 MPI tasks x 1 OpenMP threads

Minimization stats:
  Stopping criterion = energy tolerance
  Energy initial, next-to-last, final = 
     -1152448.87472024  -1152449.05881494  -1152449.05881494
  Force two-norm initial, final = 2.0301200 5.7649561e-05
  Force max component initial, final = 1.6189012 1.0269546e-05
  Final line search alpha, max atom move = 1.0000000 1.0269546e-05
  Iterations, force evaluations = 268 536

MPI task timing breakdown:
Section |  min time  |  avg time  |  max time  |%varavg| %total
---------------------------------------------------------------
Pair    | 0.80856    | 2.2569     | 2.9311     |  40.5 | 71.51
Neigh   | 2.0059e-05 | 0.0058815  | 0.0085392  |   3.2 |  0.19
Comm    | 0.048191   | 0.51808    | 1.534      |  58.7 | 16.42
Output  | 0          | 0          | 0          |   0.0 |  0.00
Modify  | 3.1216e-05 | 0.0044444  | 0.0094186  |   3.2 |  0.14
Other   |            | 0.3709     |            |       | 11.75

Nlocal:        2776.45 ave        3960 max           0 min
Histogram: 8 4 4 0 4 12 8 2 28 34
Nghost:        3879.04 ave        5424 max         232 min
Histogram: 8 0 8 0 16 0 8 8 16 40
Neighs:        79213.5 ave      115442 max           0 min
Histogram: 8 4 4 0 10 6 8 8 24 32

Total # of neighbors = 8238209
Ave neighs/atom = 28.530495
Neighbor list builds = 2
Dangerous builds = 0
The dot product: -2.32904398228567e-07
Setting atom values ...
  1 settings made for x
  1 settings made for y
  1 settings made for z
Setting up cg style minimization ...
  Unit style    : metal
  Current step  : 686
Per MPI rank memory allocation (min/avg/max) = 5.441 | 5.816 | 6.074 Mbytes
Step PotEng KinEng TotEng v_fx v_fy v_fz 
     686   -1152448.5            0   -1152448.5   -0.3374274   0.11358616  -0.41280485 
     979   -1152448.7            0   -1152448.7 -1.9565966e-06 2.2570322e-06 -4.0188478e-06 
Loop time of 3.40417 on 104 procs for 293 steps with 288751 atoms

99.9% CPU use with 104 MPI tasks x 1 OpenMP threads

Minimization stats:
  Stopping criterion = energy tolerance
  Energy initial, next-to-last, final = 
     -1152448.54733966  -1152448.70797943  -1152448.70797943
  Force two-norm initial, final = 2.1207231 4.4868349e-05
  Force max component initial, final = 1.7828975 4.0188478e-06
  Final line search alpha, max atom move = 1.0000000 4.0188478e-06
  Iterations, force evaluations = 293 586

MPI task timing breakdown:
Section |  min time  |  avg time  |  max time  |%varavg| %total
---------------------------------------------------------------
Pair    | 0.88635    | 2.4572     | 3.1989     |  42.3 | 72.18
Neigh   | 2.0541e-05 | 0.005865   | 0.0084829  |   3.2 |  0.17
Comm    | 0.056635   | 0.5534     | 1.6547     |  62.1 | 16.26
Output  | 0          | 0          | 0          |   0.0 |  0.00
Modify  | 3.3908e-05 | 0.0048522  | 0.010261   |   3.3 |  0.14
Other   |            | 0.3828     |            |       | 11.25

Nlocal:        2776.45 ave        3959 max           0 min
Histogram: 8 4 4 0 4 12 8 2 28 34
Nghost:        3879.12 ave        5424 max         232 min
Histogram: 8 0 8 0 16 0 8 8 16 40
Neighs:        79213.8 ave      115408 max           0 min
Histogram: 8 4 4 0 10 6 8 8 24 32

Total # of neighbors = 8238230
Ave neighs/atom = 28.530568
Neighbor list builds = 2
Dangerous builds = 0
The dot product: -1.08930046004363e-07
Setting atom values ...
  1 settings made for x
  1 settings made for y
  1 settings made for z
Setting up cg style minimization ...
  Unit style    : metal
  Current step  : 979
Per MPI rank memory allocation (min/avg/max) = 5.441 | 5.816 | 6.074 Mbytes
Step PotEng KinEng TotEng v_fx v_fy v_fz 
     979   -1152448.2            0   -1152448.2  -0.49310124    0.3005152  -0.67689592 
    1000   -1152448.5            0   -1152448.5  0.011051397 -0.0071707622  0.015612838 
    1255   -1152448.6            0   -1152448.6 -4.2590656e-06 1.1494537e-05 -1.4880731e-05 
Loop time of 3.2191 on 104 procs for 276 steps with 288751 atoms

99.9% CPU use with 104 MPI tasks x 1 OpenMP threads

Minimization stats:
  Stopping criterion = energy tolerance
  Energy initial, next-to-last, final = 
     -1152448.16152647  -1152448.55445949  -1152448.55445949
  Force two-norm initial, final = 2.4914430 0.00014863751
  Force max component initial, final = 2.0351660 1.4880731e-05
  Final line search alpha, max atom move = 1.0000000 1.4880731e-05
  Iterations, force evaluations = 276 552

MPI task timing breakdown:
Section |  min time  |  avg time  |  max time  |%varavg| %total
---------------------------------------------------------------
Pair    | 0.84283    | 2.3215     | 3.0095     |  41.0 | 72.12
Neigh   | 4.0985e-05 | 0.011757   | 0.017091   |   4.5 |  0.37
Comm    | 0.051016   | 0.52693    | 1.5649     |  59.9 | 16.37
Output  | 0.00015389 | 0.00016543 | 0.00026802 |   0.0 |  0.01
Modify  | 3.2417e-05 | 0.0045592  | 0.0096879  |   3.2 |  0.14
Other   |            | 0.3542     |            |       | 11.00

Nlocal:        2776.45 ave        3955 max           0 min
Histogram: 8 4 4 0 4 12 8 0 30 34
Nghost:        3879.12 ave        5424 max         232 min
Histogram: 8 0 8 0 16 0 8 8 16 40
Neighs:        79213.6 ave      115282 max           0 min
Histogram: 8 4 4 0 10 6 8 8 24 32

Total # of neighbors = 8238217
Ave neighs/atom = 28.530523
Neighbor list builds = 4
Dangerous builds = 0
The dot product: 1.30109466720782e-06
Setting atom values ...
  1 settings made for x
  1 settings made for y
  1 settings made for z
Setting up cg style minimization ...
  Unit style    : metal
  Current step  : 1255
Per MPI rank memory allocation (min/avg/max) = 5.441 | 5.816 | 6.074 Mbytes
Step PotEng KinEng TotEng v_fx v_fy v_fz 
    1255   -1152448.4            0   -1152448.4  -0.44576453   0.19893571  -0.74684991 
    1490   -1152448.5            0   -1152448.5 2.101277e-06 -3.7746888e-06 6.6100825e-06 
Loop time of 2.75335 on 104 procs for 235 steps with 288751 atoms

99.9% CPU use with 104 MPI tasks x 1 OpenMP threads

Minimization stats:
  Stopping criterion = energy tolerance
  Energy initial, next-to-last, final = 
     -1152448.38989215   -1152448.5147552   -1152448.5147552
  Force two-norm initial, final = 1.6542874 0.00017763088
  Force max component initial, final = 1.1065485 6.6100825e-06
  Final line search alpha, max atom move = 1.0000000 6.6100825e-06
  Iterations, force evaluations = 235 470

MPI task timing breakdown:
Section |  min time  |  avg time  |  max time  |%varavg| %total
---------------------------------------------------------------
Pair    | 0.70997    | 1.9753     | 2.573      |  38.0 | 71.74
Neigh   | 1.0162e-05 | 0.0029462  | 0.0042543  |   2.2 |  0.11
Comm    | 0.044278   | 0.4488     | 1.3345     |  55.4 | 16.30
Output  | 0          | 0          | 0          |   0.0 |  0.00
Modify  | 2.7715e-05 | 0.0038816  | 0.0082645  |   2.9 |  0.14
Other   |            | 0.3225     |            |       | 11.71

Nlocal:        2776.45 ave        3947 max           0 min
Histogram: 8 4 4 0 4 12 8 0 28 36
Nghost:        3879.17 ave        5423 max         232 min
Histogram: 8 0 8 0 16 0 8 8 16 40
Neighs:        79213.5 ave      115028 max           0 min
Histogram: 8 4 4 0 10 6 8 8 24 32

Total # of neighbors = 8238208
Ave neighs/atom = 28.530492
Neighbor list builds = 1
Dangerous builds = 0
The dot product: 5.10845567432194e-08
Setting atom values ...
  1 settings made for x
  1 settings made for y
  1 settings made for z
Setting up cg style minimization ...
  Unit style    : metal
  Current step  : 1490
Per MPI rank memory allocation (min/avg/max) = 5.441 | 5.816 | 6.074 Mbytes
Step PotEng KinEng TotEng v_fx v_fy v_fz 
    1490   -1152448.2            0   -1152448.2  -0.42051224   0.11825768  -0.62071093 
    2000   -1152449.4            0   -1152449.4 0.00049555869 -0.00021371834 0.00081140979 
    2131   -1152449.4            0   -1152449.4 -1.3863671e-05 3.7356554e-07 -1.6674723e-05 
Loop time of 7.59466 on 104 procs for 641 steps with 288751 atoms

99.9% CPU use with 104 MPI tasks x 1 OpenMP threads

Minimization stats:
  Stopping criterion = energy tolerance
  Energy initial, next-to-last, final = 
     -1152448.20523037  -1152449.43583294  -1152449.43583294
  Force two-norm initial, final = 1.5747271 0.00015491407
  Force max component initial, final = 0.99209265 3.7010413e-05
  Final line search alpha, max atom move = 1.0000000 3.7010413e-05
  Iterations, force evaluations = 641 1279

MPI task timing breakdown:
Section |  min time  |  avg time  |  max time  |%varavg| %total
---------------------------------------------------------------
Pair    | 2.0008     | 5.4087     | 7.0062     |  62.0 | 71.22
Neigh   | 0.00021478 | 0.061517   | 0.089112   |  10.3 |  0.81
Comm    | 0.11997    | 1.2598     | 3.7286     |  90.1 | 16.59
Output  | 0.00029003 | 0.00029698 | 0.00047329 |   0.0 |  0.00
Modify  | 7.5463e-05 | 0.010554   | 0.022399   |   4.8 |  0.14
Other   |            | 0.8538     |            |       | 11.24

Nlocal:        2776.45 ave        3953 max           0 min
Histogram: 8 4 4 0 4 12 8 0 30 34
Nghost:        3879.11 ave        5423 max         232 min
Histogram: 8 0 8 0 16 0 8 8 16 40
Neighs:        79213.2 ave      115154 max           0 min
Histogram: 8 4 4 0 10 6 8 8 24 32

Total # of neighbors = 8238178
Ave neighs/atom = 28.530388
Neighbor list builds = 21
Dangerous builds = 0
The dot product: -3.11103245444015e-06
Setting atom values ...
  1 settings made for x
  1 settings made for y
  1 settings made for z
Setting up cg style minimization ...
  Unit style    : metal
  Current step  : 2131
Per MPI rank memory allocation (min/avg/max) = 5.441 | 5.816 | 6.074 Mbytes
Step PotEng KinEng TotEng v_fx v_fy v_fz 
    2131   -1152449.2            0   -1152449.2  -0.41709027   0.39558955  -0.41006227 
    2416   -1152449.4            0   -1152449.4 -1.8176484e-06 -2.4963582e-06 -1.8956967e-06 
Loop time of 3.33196 on 104 procs for 285 steps with 288751 atoms

99.9% CPU use with 104 MPI tasks x 1 OpenMP threads

Minimization stats:
  Stopping criterion = energy tolerance
  Energy initial, next-to-last, final = 
     -1152449.24654907  -1152449.38954816  -1152449.38954816
  Force two-norm initial, final = 1.8388104 1.4873989e-05
  Force max component initial, final = 0.94506159 2.6318116e-06
  Final line search alpha, max atom move = 1.0000000 2.6318116e-06
  Iterations, force evaluations = 285 570

MPI task timing breakdown:
Section |  min time  |  avg time  |  max time  |%varavg| %total
---------------------------------------------------------------
Pair    | 0.85574    | 2.3921     | 3.1307     |  41.9 | 71.79
Neigh   | 1.0228e-05 | 0.0029365  | 0.0042703  |   2.2 |  0.09
Comm    | 0.053448   | 0.54722    | 1.6187     |  60.6 | 16.42
Output  | 0          | 0          | 0          |   0.0 |  0.00
Modify  | 3.382e-05  | 0.004704   | 0.010036   |   3.2 |  0.14
Other   |            | 0.3849     |            |       | 11.55

Nlocal:        2776.45 ave        3959 max           0 min
Histogram: 8 4 4 0 4 12 8 2 28 34
Nghost:        3879.10 ave        5424 max         232 min
Histogram: 8 0 8 0 16 0 8 8 16 40
Neighs:        79213.5 ave      115314 max           0 min
Histogram: 8 4 4 0 10 6 8 8 24 32

Total # of neighbors = 8238206
Ave neighs/atom = 28.530485
Neighbor list builds = 1
Dangerous builds = 0
The dot product: -8.87672136984865e-09
Setting up cg style minimization ...
  Unit style    : metal
  Current step  : 2416
Per MPI rank memory allocation (min/avg/max) = 5.441 | 5.816 | 6.074 Mbytes
Step PotEng KinEng TotEng v_fx v_fy v_fz 
    2416   -1152449.4            0   -1152449.4   0.37659258 0.0096221748  -0.37376572 
    2644   -1152449.4            0   -1152449.4 -1.6410952e-05 -2.9037497e-05 -2.2821724e-05 
Loop time of 2.67738 on 104 procs for 228 steps with 288751 atoms

99.9% CPU use with 104 MPI tasks x 1 OpenMP threads

Minimization stats:
  Stopping criterion = energy tolerance
  Energy initial, next-to-last, final = 
     -1152449.38954816  -1152449.44165449  -1152449.44165449
  Force two-norm initial, final = 0.53067445 0.0001951575
  Force max component initial, final = 0.37659258 4.1467494e-05
  Final line search alpha, max atom move = 1.0000000 4.1467494e-05
  Iterations, force evaluations = 228 456

MPI task timing breakdown:
Section |  min time  |  avg time  |  max time  |%varavg| %total
---------------------------------------------------------------
Pair    | 0.68538    | 1.9218     | 2.5225     |  37.7 | 71.78
Neigh   | 1.0195e-05 | 0.0029349  | 0.0042813  |   2.2 |  0.11
Comm    | 0.03988    | 0.44162    | 1.3032     |  54.3 | 16.49
Output  | 0          | 0          | 0          |   0.0 |  0.00
Modify  | 2.5742e-05 | 0.0024591  | 0.0062718  |   3.1 |  0.09
Other   |            | 0.3086     |            |       | 11.52

Nlocal:        2776.45 ave        3960 max           0 min
Histogram: 8 4 4 0 4 12 8 4 26 34
Nghost:        3879.16 ave        5425 max         232 min
Histogram: 8 0 8 0 16 0 8 8 16 40
Neighs:        79213.5 ave      115361 max           0 min
Histogram: 8 4 4 0 10 6 8 8 24 32

Total # of neighbors = 8238208
Ave neighs/atom = 28.530492
Neighbor list builds = 1
Dangerous builds = 0
OMP_NUM_THREADS environment is not set. Defaulting to 1 thread. (../comm.cpp:94)
  using 1 OpenMP thread(s) per MPI task
Reading data file ...
  orthogonal box = (-122.39241 -121.13707 -37.090501) to (122.39241 121.13707 37.090501)
  13 by 4 by 2 MPI processor grid
  reading atoms ...
  288751 atoms
  read_data CPU = 0.348 seconds
199981 atoms in group inner
88770 atoms in group outer
1 atoms in group carbon
Neighbor list info ...
  update every 1 steps, delay 0 steps, check yes
  max neighbors/atom: 2000, page size: 100000
  master list distance cutoff = 5.6
  ghost atom cutoff = 5.6
  binsize = 2.8, bins = 88 87 27
  1 neighbor lists, perpetual/occasional/extra = 1 0 0
  (1) pair eam/alloy, perpetual
      attributes: half, newton on
      pair build: half/bin/atomonly/newton
      stencil: half/bin/3d/newton
      bin: standard
Setting up cg style minimization ...
  Unit style    : metal
  Current step  : 0
Per MPI rank memory allocation (min/avg/max) = 5.441 | 5.816 | 6.074 Mbytes
Step v_fx v_fy v_fz PotEng KinEng TotEng 
       0  -0.21657515    -30.04813   -50.390662   -1152433.3            0   -1152433.3 
     174 7.5699081e-07 -2.6504002e-06 1.2351379e-05   -1152449.5            0   -1152449.5 
Loop time of 2.01334 on 104 procs for 174 steps with 288751 atoms

99.9% CPU use with 104 MPI tasks x 1 OpenMP threads

Minimization stats:
  Stopping criterion = energy tolerance
  Energy initial, next-to-last, final = 
     -1152433.30951864  -1152449.45035271  -1152449.45035271
  Force two-norm initial, final = 87.912276 7.4641969e-05
  Force max component initial, final = 57.526621 1.2351379e-05
  Final line search alpha, max atom move = 1.0000000 1.2351379e-05
  Iterations, force evaluations = 174 340

MPI task timing breakdown:
Section |  min time  |  avg time  |  max time  |%varavg| %total
---------------------------------------------------------------
Pair    | 0.53363    | 1.4373     | 1.8602     |  31.7 | 71.39
Neigh   | 4.9946e-05 | 0.014739   | 0.021362   |   5.0 |  0.73
Comm    | 0.036924   | 0.32874    | 0.97609    |  47.1 | 16.33
Output  | 0          | 0          | 0          |   0.0 |  0.00
Modify  | 1.9587e-05 | 0.0018377  | 0.0046613  |   2.7 |  0.09
Other   |            | 0.2307     |            |       | 11.46

Nlocal:        2776.45 ave        3960 max           0 min
Histogram: 8 4 4 0 4 12 8 2 28 34
Nghost:        3879.01 ave        5424 max         232 min
Histogram: 8 0 8 0 16 0 8 8 16 40
Neighs:        79213.5 ave      115432 max           0 min
Histogram: 8 4 4 0 10 6 8 8 24 32

Total # of neighbors = 8238208
Ave neighs/atom = 28.530492
Neighbor list builds = 5
Dangerous builds = 0
Setting atom values ...
  1 settings made for x
  1 settings made for y
  1 settings made for z
Setting up cg style minimization ...
  Unit style    : metal
  Current step  : 174
Per MPI rank memory allocation (min/avg/max) = 5.441 | 5.816 | 6.074 Mbytes
Step PotEng KinEng TotEng v_fx v_fy v_fz 
     174   -1152449.2            0   -1152449.2   0.55858592   0.22588411     0.173726 
     427   -1152449.4            0   -1152449.4 -3.0045484e-06 3.7897913e-06 2.4462528e-06 
Loop time of 2.98439 on 104 procs for 253 steps with 288751 atoms

99.9% CPU use with 104 MPI tasks x 1 OpenMP threads

Minimization stats:
  Stopping criterion = energy tolerance
  Energy initial, next-to-last, final = 
     -1152449.18306953  -1152449.36452281  -1152449.36452281
  Force two-norm initial, final = 2.1462355 7.4507542e-05
  Force max component initial, final = 1.0739647 3.8523158e-06
  Final line search alpha, max atom move = 1.0000000 3.8523158e-06
  Iterations, force evaluations = 253 506

MPI task timing breakdown:
Section |  min time  |  avg time  |  max time  |%varavg| %total
---------------------------------------------------------------
Pair    | 0.76264    | 2.1298     | 2.7757     |  39.5 | 71.37
Neigh   | 1.213e-05  | 0.0029219  | 0.0042622  |   2.2 |  0.10
Comm    | 0.044606   | 0.49207    | 1.4624     |  56.8 | 16.49
Output  | 0          | 0          | 0          |   0.0 |  0.00
Modify  | 3.0405e-05 | 0.0041743  | 0.0089198  |   3.1 |  0.14
Other   |            | 0.3554     |            |       | 11.91

Nlocal:        2776.45 ave        3961 max           0 min
Histogram: 8 4 4 0 6 10 8 2 28 34
Nghost:        3879.01 ave        5424 max         232 min
Histogram: 8 0 8 0 16 0 8 8 16 40
Neighs:        79213.4 ave      115458 max           0 min
Histogram: 8 4 4 0 10 6 8 8 24 32

Total # of neighbors = 8238196
Ave neighs/atom = 28.530450
Neighbor list builds = 1
Dangerous builds = 1
Setting atom values ...
  1 settings made for x
  1 settings made for y
  1 settings made for z
Setting up cg style minimization ...
  Unit style    : metal
  Current step  : 427
Per MPI rank memory allocation (min/avg/max) = 5.441 | 5.816 | 6.074 Mbytes
Step PotEng KinEng TotEng v_fx v_fy v_fz 
     427   -1152449.1            0   -1152449.1    1.1381426  -0.17040344   0.46164988 
     693   -1152449.3            0   -1152449.3 4.5727445e-06 -2.3437477e-06 3.5929689e-07 
Loop time of 3.11775 on 104 procs for 266 steps with 288751 atoms

99.9% CPU use with 104 MPI tasks x 1 OpenMP threads

Minimization stats:
  Stopping criterion = energy tolerance
  Energy initial, next-to-last, final = 
     -1152449.06425788  -1152449.34061846  -1152449.34061846
  Force two-norm initial, final = 2.1692069 2.6001628e-05
  Force max component initial, final = 1.1381426 6.0957130e-06
  Final line search alpha, max atom move = 1.0000000 6.0957130e-06
  Iterations, force evaluations = 266 532

MPI task timing breakdown:
Section |  min time  |  avg time  |  max time  |%varavg| %total
---------------------------------------------------------------
Pair    | 0.80307    | 2.2382     | 2.9197     |  40.5 | 71.79
Neigh   | 2.0348e-05 | 0.0058638  | 0.0084682  |   3.2 |  0.19
Comm    | 0.051181   | 0.50872    | 1.5156     |  59.2 | 16.32
Output  | 0          | 0          | 0          |   0.0 |  0.00
Modify  | 3.2083e-05 | 0.0043949  | 0.009347   |   3.1 |  0.14
Other   |            | 0.3606     |            |       | 11.57

Nlocal:        2776.45 ave        3960 max           0 min
Histogram: 8 4 4 0 4 12 8 4 26 34
Nghost:        3879.14 ave        5425 max         232 min
Histogram: 8 0 8 0 16 0 8 8 16 40
Neighs:        79213.6 ave      115423 max           0 min
Histogram: 8 4 4 0 10 6 8 8 24 32

Total # of neighbors = 8238215
Ave neighs/atom = 28.530516
Neighbor list builds = 2
Dangerous builds = 0
The dot product: 9.76916282373914e-07
Setting atom values ...
  1 settings made for x
  1 settings made for y
  1 settings made for z
Setting up cg style minimization ...
  Unit style    : metal
  Current step  : 693
Per MPI rank memory allocation (min/avg/max) = 5.441 | 5.816 | 6.074 Mbytes
Step PotEng KinEng TotEng v_fx v_fy v_fz 
     693   -1152449.1            0   -1152449.1   0.23747672  -0.15702581    0.2033887 
     911   -1152449.2            0   -1152449.2 -2.4279498e-05 -1.3394315e-05 -4.4636411e-05 
Loop time of 2.5422 on 104 procs for 218 steps with 288751 atoms

99.9% CPU use with 104 MPI tasks x 1 OpenMP threads

Minimization stats:
  Stopping criterion = energy tolerance
  Energy initial, next-to-last, final = 
     -1152449.13475816  -1152449.24912888  -1152449.24912888
  Force two-norm initial, final = 1.2878054 0.00017028553
  Force max component initial, final = 0.45831486 4.4636411e-05
  Final line search alpha, max atom move = 1.0000000 4.4636411e-05
  Iterations, force evaluations = 218 436

MPI task timing breakdown:
Section |  min time  |  avg time  |  max time  |%varavg| %total
---------------------------------------------------------------
Pair    | 0.65605    | 1.8342     | 2.3865     |  36.7 | 72.15
Neigh   | 1.0283e-05 | 0.0029463  | 0.0042679  |   2.2 |  0.12
Comm    | 0.038931   | 0.41583    | 1.2458     |  53.6 | 16.36
Output  | 0          | 0          | 0          |   0.0 |  0.00
Modify  | 2.7584e-05 | 0.0036085  | 0.0076952  |   2.8 |  0.14
Other   |            | 0.2856     |            |       | 11.24

Nlocal:        2776.45 ave        3960 max           0 min
Histogram: 8 4 4 0 4 12 8 4 26 34
Nghost:        3879.09 ave        5424 max         232 min
Histogram: 8 0 8 0 16 0 8 8 16 40
Neighs:        79213.4 ave      115422 max           0 min
Histogram: 8 4 4 0 10 6 8 8 24 32

Total # of neighbors = 8238192
Ave neighs/atom = 28.530436
Neighbor list builds = 1
Dangerous builds = 0
The dot product: -5.71411674124223e-06
Setting atom values ...
  1 settings made for x
  1 settings made for y
  1 settings made for z
Setting up cg style minimization ...
  Unit style    : metal
  Current step  : 911
Per MPI rank memory allocation (min/avg/max) = 5.441 | 5.816 | 6.074 Mbytes
Step PotEng KinEng TotEng v_fx v_fy v_fz 
     911   -1152449.1            0   -1152449.1   0.17470526  -0.40866984 -0.066201256 
    1000   -1152449.4            0   -1152449.4 -0.00017601422 -3.4167553e-05 -0.00041973912 
    1135   -1152449.4            0   -1152449.4 8.0140042e-06 4.1568961e-06 2.1948618e-05 
Loop time of 2.62768 on 104 procs for 224 steps with 288751 atoms

99.9% CPU use with 104 MPI tasks x 1 OpenMP threads

Minimization stats:
  Stopping criterion = energy tolerance
  Energy initial, next-to-last, final = 
     -1152449.09359533  -1152449.35106483  -1152449.35106483
  Force two-norm initial, final = 1.6451107 0.00016107075
  Force max component initial, final = 0.79584075 2.5793312e-05
  Final line search alpha, max atom move = 1.0000000 2.5793312e-05
  Iterations, force evaluations = 224 448

MPI task timing breakdown:
Section |  min time  |  avg time  |  max time  |%varavg| %total
---------------------------------------------------------------
Pair    | 0.68281    | 1.8808     | 2.4528     |  36.9 | 71.57
Neigh   | 3.0141e-05 | 0.0088288  | 0.012817   |   3.9 |  0.34
Comm    | 0.042002   | 0.42635    | 1.2726     |  54.1 | 16.23
Output  | 0.00022248 | 0.00022543 | 0.00036508 |   0.0 |  0.01
Modify  | 2.7345e-05 | 0.0037066  | 0.0078524  |   2.9 |  0.14
Other   |            | 0.3078     |            |       | 11.71

Nlocal:        2776.45 ave        3959 max           0 min
Histogram: 8 4 4 0 4 12 8 2 28 34
Nghost:        3879.12 ave        5424 max         232 min
Histogram: 8 0 8 0 16 0 8 8 16 40
Neighs:        79213.4 ave      115401 max           0 min
Histogram: 8 4 4 0 10 6 8 8 24 32

Total # of neighbors = 8238193
Ave neighs/atom = 28.530440
Neighbor list builds = 3
Dangerous builds = 0
The dot product: 1.15323277534399e-06
Setting atom values ...
  1 settings made for x
  1 settings made for y
  1 settings made for z
Setting up cg style minimization ...
  Unit style    : metal
  Current step  : 1135
Per MPI rank memory allocation (min/avg/max) = 5.441 | 5.816 | 6.074 Mbytes
Step PotEng KinEng TotEng v_fx v_fy v_fz 
    1135   -1152449.2            0   -1152449.2   0.00192434  -0.69954182   -0.3525223 
    1369   -1152449.4            0   -1152449.4 -3.6019989e-07 2.886455e-05 1.3707727e-05 
Loop time of 2.74049 on 104 procs for 234 steps with 288751 atoms

99.9% CPU use with 104 MPI tasks x 1 OpenMP threads

Minimization stats:
  Stopping criterion = energy tolerance
  Energy initial, next-to-last, final = 
     -1152449.18371072  -1152449.42228879  -1152449.42228879
  Force two-norm initial, final = 1.7632195 0.00015033523
  Force max component initial, final = 0.81058027 2.8864550e-05
  Final line search alpha, max atom move = 1.0000000 2.8864550e-05
  Iterations, force evaluations = 234 468

MPI task timing breakdown:
Section |  min time  |  avg time  |  max time  |%varavg| %total
---------------------------------------------------------------
Pair    | 0.70755    | 1.9705     | 2.5684     |  38.0 | 71.90
Neigh   | 2.0186e-05 | 0.005895   | 0.0085821  |   3.2 |  0.22
Comm    | 0.041526   | 0.44874    | 1.3365     |  55.4 | 16.37
Output  | 0          | 0          | 0          |   0.0 |  0.00
Modify  | 2.8608e-05 | 0.0038899  | 0.0082596  |   3.0 |  0.14
Other   |            | 0.3114     |            |       | 11.36

Nlocal:        2776.45 ave        3960 max           0 min
Histogram: 8 4 4 0 4 12 8 2 28 34
Nghost:        3879.01 ave        5424 max         232 min
Histogram: 8 0 8 0 16 0 8 8 16 40
Neighs:        79213.5 ave      115435 max           0 min
Histogram: 8 4 4 0 10 6 8 8 24 32

Total # of neighbors = 8238199
Ave neighs/atom = 28.530461
Neighbor list builds = 2
Dangerous builds = 0
The dot product: -7.13716535126083e-06
Setting atom values ...
  1 settings made for x
  1 settings made for y
  1 settings made for z
Setting up cg style minimization ...
  Unit style    : metal
  Current step  : 1369
Per MPI rank memory allocation (min/avg/max) = 5.441 | 5.816 | 6.074 Mbytes
Step PotEng KinEng TotEng v_fx v_fy v_fz 
    1369   -1152449.3            0   -1152449.3   0.12381003 -0.084203735   0.28524423 
    1620   -1152449.4            0   -1152449.4 -5.9345751e-06 -1.4010851e-05 -1.2857017e-05 
Loop time of 2.90869 on 104 procs for 251 steps with 288751 atoms

99.9% CPU use with 104 MPI tasks x 1 OpenMP threads

Minimization stats:
  Stopping criterion = energy tolerance
  Energy initial, next-to-last, final = 
     -1152449.30430624  -1152449.43672005  -1152449.43672005
  Force two-norm initial, final = 1.7067025 8.0004984e-05
  Force max component initial, final = 0.86592142 1.4010851e-05
  Final line search alpha, max atom move = 1.0000000 1.4010851e-05
  Iterations, force evaluations = 251 502

MPI task timing breakdown:
Section |  min time  |  avg time  |  max time  |%varavg| %total
---------------------------------------------------------------
Pair    | 0.75525    | 2.1029     | 2.7377     |  39.3 | 72.30
Neigh   | 1.0194e-05 | 0.0029318  | 0.004232   |   2.2 |  0.10
Comm    | 0.044173   | 0.47729    | 1.4299     |  57.5 | 16.41
Output  | 0          | 0          | 0          |   0.0 |  0.00
Modify  | 3.0215e-05 | 0.0041533  | 0.0087824  |   3.0 |  0.14
Other   |            | 0.3214     |            |       | 11.05

Nlocal:        2776.45 ave        3959 max           0 min
Histogram: 8 4 4 0 4 12 8 2 28 34
Nghost:        3879.03 ave        5424 max         232 min
Histogram: 8 0 8 0 16 0 8 8 16 40
Neighs:        79213.5 ave      115401 max           0 min
Histogram: 8 4 4 0 10 6 8 8 24 32

Total # of neighbors = 8238203
Ave neighs/atom = 28.530474
Neighbor list builds = 1
Dangerous builds = 0
The dot product: -6.92705001792589e-07
Setting atom values ...
  1 settings made for x
  1 settings made for y
  1 settings made for z
Setting up cg style minimization ...
  Unit style    : metal
  Current step  : 1620
Per MPI rank memory allocation (min/avg/max) = 5.441 | 5.816 | 6.074 Mbytes
Step PotEng KinEng TotEng v_fx v_fy v_fz 
    1620   -1152449.2            0   -1152449.2  0.062580245  -0.19989389   0.15104611 
    1889   -1152449.3            0   -1152449.3 -7.8345542e-07 -1.6756579e-06 -1.8781947e-06 
Loop time of 3.14039 on 104 procs for 269 steps with 288751 atoms

99.9% CPU use with 104 MPI tasks x 1 OpenMP threads

Minimization stats:
  Stopping criterion = energy tolerance
  Energy initial, next-to-last, final = 
     -1152449.18213044  -1152449.30510496  -1152449.30510496
  Force two-norm initial, final = 1.7143601 2.6778158e-05
  Force max component initial, final = 0.93773553 4.6611339e-06
  Final line search alpha, max atom move = 1.0000000 4.6611339e-06
  Iterations, force evaluations = 269 538

MPI task timing breakdown:
Section |  min time  |  avg time  |  max time  |%varavg| %total
---------------------------------------------------------------
Pair    | 0.80709    | 2.2637     | 2.9507     |  40.8 | 72.08
Neigh   | 1.0158e-05 | 0.0029323  | 0.0042317  |   2.2 |  0.09
Comm    | 0.049123   | 0.51862    | 1.5692     |  59.3 | 16.51
Output  | 0          | 0          | 0          |   0.0 |  0.00
Modify  | 3.2773e-05 | 0.0044389  | 0.0094277  |   3.1 |  0.14
Other   |            | 0.3507     |            |       | 11.17

Nlocal:        2776.45 ave        3960 max           0 min
Histogram: 8 4 4 0 4 12 8 2 28 34
Nghost:        3879.07 ave        5424 max         232 min
Histogram: 8 0 8 0 16 0 8 8 16 40
Neighs:        79213.4 ave      115415 max           0 min
Histogram: 8 4 4 0 10 6 8 8 24 32

Total # of neighbors = 8238197
Ave neighs/atom = 28.530454
Neighbor list builds = 1
Dangerous builds = 0
The dot product: -1.07638206900274e-08
Setting atom values ...
  1 settings made for x
  1 settings made for y
  1 settings made for z
Setting up cg style minimization ...
  Unit style    : metal
  Current step  : 1889
Per MPI rank memory allocation (min/avg/max) = 5.441 | 5.816 | 6.074 Mbytes
Step PotEng KinEng TotEng v_fx v_fy v_fz 
    1889   -1152448.9            0   -1152448.9  0.060259601 -0.075996878   0.14729986 
    2000     -1152449            0     -1152449 0.00064785899 -5.0322261e-06 0.0015780746 
    2138     -1152449            0     -1152449 7.733037e-06 1.9077766e-06 1.8822879e-05 
Loop time of 2.89786 on 104 procs for 249 steps with 288751 atoms

99.9% CPU use with 104 MPI tasks x 1 OpenMP threads

Minimization stats:
  Stopping criterion = energy tolerance
  Energy initial, next-to-last, final = 
     -1152448.89074804  -1152449.02803392  -1152449.02803392
  Force two-norm initial, final = 1.7607019 9.7264280e-05
  Force max component initial, final = 0.9669627 1.8822879e-05
  Final line search alpha, max atom move = 1.0000000 1.8822879e-05
  Iterations, force evaluations = 249 498

MPI task timing breakdown:
Section |  min time  |  avg time  |  max time  |%varavg| %total
---------------------------------------------------------------
Pair    | 0.75794    | 2.0902     | 2.7139     |  39.0 | 72.13
Neigh   | 3.0308e-05 | 0.0088473  | 0.012834   |   3.9 |  0.31
Comm    | 0.044365   | 0.47362    | 1.4156     |  57.3 | 16.34
Output  | 0.00022363 | 0.00023398 | 0.00037834 |   0.0 |  0.01
Modify  | 2.9639e-05 | 0.0041123  | 0.008699   |   3.0 |  0.14
Other   |            | 0.3209     |            |       | 11.07

Nlocal:        2776.45 ave        3960 max           0 min
Histogram: 8 4 4 0 4 12 8 6 24 34
Nghost:        3879.11 ave        5426 max         232 min
Histogram: 8 0 8 0 16 0 8 8 16 40
Neighs:        79213.4 ave      115433 max           0 min
Histogram: 8 4 4 0 10 6 8 8 24 32

Total # of neighbors = 8238196
Ave neighs/atom = 28.530450
Neighbor list builds = 3
Dangerous builds = 0
The dot product: -4.58708128785186e-07
Setting atom values ...
  1 settings made for x
  1 settings made for y
  1 settings made for z
Setting up cg style minimization ...
  Unit style    : metal
  Current step  : 2138
Per MPI rank memory allocation (min/avg/max) = 5.441 | 5.816 | 6.074 Mbytes
Step PotEng KinEng TotEng v_fx v_fy v_fz 
    2138   -1152448.5            0   -1152448.5  0.057550282   0.26681491   0.13885354 
    2385   -1152448.7            0   -1152448.7 1.889772e-05 -1.1552045e-05 4.4093628e-05 
Loop time of 2.87283 on 104 procs for 247 steps with 288751 atoms

99.9% CPU use with 104 MPI tasks x 1 OpenMP threads

Minimization stats:
  Stopping criterion = energy tolerance
  Energy initial, next-to-last, final = 
      -1152448.5205021  -1152448.68337681  -1152448.68337681
  Force two-norm initial, final = 1.6737066 0.0001466952
  Force max component initial, final = 0.9060464 4.4093628e-05
  Final line search alpha, max atom move = 1.0000000 4.4093628e-05
  Iterations, force evaluations = 247 494

MPI task timing breakdown:
Section |  min time  |  avg time  |  max time  |%varavg| %total
---------------------------------------------------------------
Pair    | 0.75422    | 2.0817     | 2.6885     |  38.8 | 72.46
Neigh   | 3.0703e-05 | 0.0088268  | 0.012773   |   3.9 |  0.31
Comm    | 0.043538   | 0.47711    | 1.4387     |  56.9 | 16.61
Output  | 0          | 0          | 0          |   0.0 |  0.00
Modify  | 3.0385e-05 | 0.0040859  | 0.0086468  |   3.0 |  0.14
Other   |            | 0.3011     |            |       | 10.48

Nlocal:        2776.45 ave        3956 max           0 min
Histogram: 8 4 4 0 4 12 8 0 30 34
Nghost:        3878.91 ave        5427 max         232 min
Histogram: 8 0 8 0 16 0 8 8 16 40
Neighs:        79213.6 ave      115296 max           0 min
Histogram: 8 4 4 0 10 6 8 8 24 32

Total # of neighbors = 8238211
Ave neighs/atom = 28.530502
Neighbor list builds = 3
Dangerous builds = 0
The dot product: -7.54613055763747e-08
Setting atom values ...
  1 settings made for x
  1 settings made for y
  1 settings made for z
Setting up cg style minimization ...
  Unit style    : metal
  Current step  : 2385
Per MPI rank memory allocation (min/avg/max) = 5.441 | 5.816 | 6.074 Mbytes
Step PotEng KinEng TotEng v_fx v_fy v_fz 
    2385   -1152448.4            0   -1152448.4    0.1159091   0.23065437   0.35381929 
    2646   -1152448.6            0   -1152448.6 -8.8689859e-06 1.7211383e-05 -1.735876e-05 
Loop time of 3.06148 on 104 procs for 261 steps with 288751 atoms

99.9% CPU use with 104 MPI tasks x 1 OpenMP threads

Minimization stats:
  Stopping criterion = energy tolerance
  Energy initial, next-to-last, final = 
     -1152448.37254477  -1152448.59814378  -1152448.59814378
  Force two-norm initial, final = 1.4376682 0.00011059384
  Force max component initial, final = 0.72878046 1.7358760e-05
  Final line search alpha, max atom move = 1.0000000 1.7358760e-05
  Iterations, force evaluations = 261 522

MPI task timing breakdown:
Section |  min time  |  avg time  |  max time  |%varavg| %total
---------------------------------------------------------------
Pair    | 0.79229    | 2.1967     | 2.8617     |  40.1 | 71.75
Neigh   | 3.0189e-05 | 0.0088099  | 0.012767   |   3.9 |  0.29
Comm    | 0.049526   | 0.49954    | 1.4867     |  58.4 | 16.32
Output  | 0          | 0          | 0          |   0.0 |  0.00
Modify  | 3.1429e-05 | 0.0043225  | 0.0092094  |   3.1 |  0.14
Other   |            | 0.3521     |            |       | 11.50

Nlocal:        2776.45 ave        3955 max           0 min
Histogram: 8 4 4 0 4 12 8 0 30 34
Nghost:        3879.16 ave        5426 max         232 min
Histogram: 8 0 8 0 16 0 8 8 16 40
Neighs:        79213.5 ave      115252 max           0 min
Histogram: 8 4 4 0 10 6 8 8 24 32

Total # of neighbors = 8238204
Ave neighs/atom = 28.530478
Neighbor list builds = 3
Dangerous builds = 0
The dot product: -4.62632386645132e-06
Setting atom values ...
  1 settings made for x
  1 settings made for y
  1 settings made for z
Setting up cg style minimization ...
  Unit style    : metal
  Current step  : 2646
Per MPI rank memory allocation (min/avg/max) = 5.441 | 5.816 | 6.074 Mbytes
Step PotEng KinEng TotEng v_fx v_fy v_fz 
    2646   -1152448.4            0   -1152448.4   -0.3585507   0.55790798  -0.97151064 
    2939   -1152448.9            0   -1152448.9 -3.3796814e-06 9.5880739e-06 -8.8785884e-06 
Loop time of 3.45967 on 104 procs for 293 steps with 288751 atoms

99.9% CPU use with 104 MPI tasks x 1 OpenMP threads

Minimization stats:
  Stopping criterion = energy tolerance
  Energy initial, next-to-last, final = 
     -1152448.39327528  -1152448.87696549  -1152448.87696549
  Force two-norm initial, final = 1.9708567 4.4189504e-05
  Force max component initial, final = 0.97151064 1.4398289e-05
  Final line search alpha, max atom move = 1.0000000 1.4398289e-05
  Iterations, force evaluations = 293 586

MPI task timing breakdown:
Section |  min time  |  avg time  |  max time  |%varavg| %total
---------------------------------------------------------------
Pair    | 0.88545    | 2.4672     | 3.2192     |  42.5 | 71.31
Neigh   | 3.0512e-05 | 0.0088124  | 0.012764   |   3.9 |  0.25
Comm    | 0.052711   | 0.56286    | 1.6737     |  62.0 | 16.27
Output  | 0          | 0          | 0          |   0.0 |  0.00
Modify  | 3.553e-05  | 0.0048429  | 0.010332   |   3.3 |  0.14
Other   |            | 0.416      |            |       | 12.02

Nlocal:        2776.45 ave        3954 max           0 min
Histogram: 8 4 4 0 4 12 8 0 30 34
Nghost:        3879.10 ave        5425 max         232 min
Histogram: 8 0 8 0 16 0 8 8 16 40
Neighs:        79213.5 ave      115234 max           0 min
Histogram: 8 4 4 0 10 6 8 8 24 32

Total # of neighbors = 8238204
Ave neighs/atom = 28.530478
Neighbor list builds = 3
Dangerous builds = 0
The dot product: 3.39449049692326e-06
Setting atom values ...
  1 settings made for x
  1 settings made for y
  1 settings made for z
Setting up cg style minimization ...
  Unit style    : metal
  Current step  : 2939
Per MPI rank memory allocation (min/avg/max) = 5.441 | 5.816 | 6.074 Mbytes
Step PotEng KinEng TotEng v_fx v_fy v_fz 
    2939   -1152448.9            0   -1152448.9 -0.016674335  0.020433943 -0.030324486 
    3000     -1152449            0     -1152449 -0.0010314987 0.0014415131 -0.0018645083 
    3197     -1152449            0     -1152449 1.4773787e-05 -2.1186408e-05 2.6669957e-05 
Loop time of 3.06638 on 104 procs for 258 steps with 288751 atoms

99.9% CPU use with 104 MPI tasks x 1 OpenMP threads

Minimization stats:
  Stopping criterion = energy tolerance
  Energy initial, next-to-last, final = 
     -1152448.85572857  -1152448.95945973  -1152448.95945973
  Force two-norm initial, final = 1.3670730 0.000130017
  Force max component initial, final = 0.67883617 3.4861497e-05
  Final line search alpha, max atom move = 1.0000000 3.4861497e-05
  Iterations, force evaluations = 258 516

MPI task timing breakdown:
Section |  min time  |  avg time  |  max time  |%varavg| %total
---------------------------------------------------------------
Pair    | 0.77386    | 2.1708     | 2.8384     |  40.1 | 70.79
Neigh   | 1.0119e-05 | 0.0029424  | 0.0042944  |   2.2 |  0.10
Comm    | 0.048536   | 0.49774    | 1.4662     |  57.3 | 16.23
Output  | 0.00025741 | 0.00026938 | 0.00039572 |   0.0 |  0.01
Modify  | 3.0917e-05 | 0.0042628  | 0.0090398  |   3.1 |  0.14
Other   |            | 0.3903     |            |       | 12.73

Nlocal:        2776.45 ave        3952 max           0 min
Histogram: 8 4 4 0 4 12 8 2 28 34
Nghost:        3878.99 ave        5424 max         232 min
Histogram: 8 0 8 0 16 0 8 8 16 40
Neighs:        79213.4 ave      115169 max           0 min
Histogram: 8 4 4 0 10 6 8 8 24 32

Total # of neighbors = 8238191
Ave neighs/atom = 28.530433
Neighbor list builds = 1
Dangerous builds = 0
The dot product: -1.09123159734824e-06
Setting atom values ...
  1 settings made for x
  1 settings made for y
  1 settings made for z
Setting up cg style minimization ...
  Unit style    : metal
  Current step  : 3197
Per MPI rank memory allocation (min/avg/max) = 5.441 | 5.816 | 6.074 Mbytes
Step PotEng KinEng TotEng v_fx v_fy v_fz 
    3197   -1152448.8            0   -1152448.8 -0.017407671 -0.026711924 -0.033268311 
    3822   -1152449.4            0   -1152449.4 -3.3154461e-05 3.1267477e-05 -5.8771785e-05 
Loop time of 7.36403 on 104 procs for 625 steps with 288751 atoms

99.9% CPU use with 104 MPI tasks x 1 OpenMP threads

Minimization stats:
  Stopping criterion = energy tolerance
  Energy initial, next-to-last, final = 
     -1152448.83701766  -1152449.43072503  -1152449.43072503
  Force two-norm initial, final = 1.4225790 0.00021556024
  Force max component initial, final = 0.72815697 5.8771785e-05
  Final line search alpha, max atom move = 1.0000000 5.8771785e-05
  Iterations, force evaluations = 625 1250

MPI task timing breakdown:
Section |  min time  |  avg time  |  max time  |%varavg| %total
---------------------------------------------------------------
Pair    | 1.9401     | 5.2752     | 6.8556     |  61.4 | 71.64
Neigh   | 0.00018548 | 0.052754   | 0.07667    |   9.5 |  0.72
Comm    | 0.12073    | 1.2024     | 3.5851     |  90.2 | 16.33
Output  | 0          | 0          | 0          |   0.0 |  0.00
Modify  | 7.583e-05  | 0.010324   | 0.022032   |   4.8 |  0.14
Other   |            | 0.8233     |            |       | 11.18

Nlocal:        2776.45 ave        3951 max           0 min
Histogram: 8 4 4 0 4 12 8 2 27 35
Nghost:        3879.25 ave        5430 max         232 min
Histogram: 8 0 8 0 16 0 8 8 16 40
Neighs:        79213.2 ave      115078 max           0 min
Histogram: 8 4 4 0 10 6 8 8 24 32

Total # of neighbors = 8238170
Ave neighs/atom = 28.530360
Neighbor list builds = 18
Dangerous builds = 0
The dot product: 1.98981989531216e-05
Setting up cg style minimization ...
  Unit style    : metal
  Current step  : 3822
Per MPI rank memory allocation (min/avg/max) = 5.441 | 5.816 | 6.074 Mbytes
Step PotEng KinEng TotEng v_fx v_fy v_fz 
    3822   -1152449.4            0   -1152449.4   0.24925537 0.0076636267   -0.1366274 
    4000   -1152449.4            0   -1152449.4 -6.4577803e-07 -3.9997174e-06 -0.00024880215 
    4059   -1152449.4            0   -1152449.4 1.6661671e-06 -2.0224173e-06 1.0488983e-05 
Loop time of 2.77243 on 104 procs for 237 steps with 288751 atoms

99.9% CPU use with 104 MPI tasks x 1 OpenMP threads

Minimization stats:
  Stopping criterion = energy tolerance
  Energy initial, next-to-last, final = 
     -1152449.43072503  -1152449.44165461  -1152449.44165461
  Force two-norm initial, final = 0.28434848 7.5603769e-05
  Force max component initial, final = 0.24925537 1.3094303e-05
  Final line search alpha, max atom move = 1.0000000 1.3094303e-05
  Iterations, force evaluations = 237 474

MPI task timing breakdown:
Section |  min time  |  avg time  |  max time  |%varavg| %total
---------------------------------------------------------------
Pair    | 0.71362    | 1.989      | 2.5935     |  38.2 | 71.74
Neigh   | 0          | 0          | 0          |   0.0 |  0.00
Comm    | 0.046904   | 0.4508     | 1.3415     |  55.8 | 16.26
Output  | 0.00016014 | 0.00016699 | 0.00033207 |   0.0 |  0.01
Modify  | 2.8673e-05 | 0.0025598  | 0.0065182  |   3.2 |  0.09
Other   |            | 0.3299     |            |       | 11.90

Nlocal:        2776.45 ave        3962 max           0 min
Histogram: 8 4 4 0 6 10 8 4 26 34
Nghost:        3879.24 ave        5431 max         232 min
Histogram: 8 0 8 0 16 0 8 8 16 40
Neighs:        79213.4 ave      115417 max           0 min
Histogram: 8 4 4 0 10 6 8 8 24 32

Total # of neighbors = 8238197
Ave neighs/atom = 28.530454
Neighbor list builds = 0
Dangerous builds = 0
OMP_NUM_THREADS environment is not set. Defaulting to 1 thread. (../comm.cpp:94)
  using 1 OpenMP thread(s) per MPI task
Reading data file ...
  orthogonal box = (-122.39241 -121.13707 -37.090501) to (122.39241 121.13707 37.090501)
  13 by 4 by 2 MPI processor grid
  reading atoms ...
  288751 atoms
  read_data CPU = 0.348 seconds
199981 atoms in group inner
88770 atoms in group outer
1 atoms in group carbon
Neighbor list info ...
  update every 1 steps, delay 0 steps, check yes
  max neighbors/atom: 2000, page size: 100000
  master list distance cutoff = 5.6
  ghost atom cutoff = 5.6
  binsize = 2.8, bins = 88 87 27
  1 neighbor lists, perpetual/occasional/extra = 1 0 0
  (1) pair eam/alloy, perpetual
      attributes: half, newton on
      pair build: half/bin/atomonly/newton
      stencil: half/bin/3d/newton
      bin: standard
Setting up cg style minimization ...
  Unit style    : metal
  Current step  : 0
Per MPI rank memory allocation (min/avg/max) = 5.441 | 5.816 | 6.074 Mbytes
Step v_fx v_fy v_fz PotEng KinEng TotEng 
       0  -0.21657515    -30.04813   -50.390662   -1152433.3            0   -1152433.3 
     174 7.5699081e-07 -2.6504002e-06 1.2351379e-05   -1152449.5            0   -1152449.5 
Loop time of 2.00478 on 104 procs for 174 steps with 288751 atoms

99.9% CPU use with 104 MPI tasks x 1 OpenMP threads

Minimization stats:
  Stopping criterion = energy tolerance
  Energy initial, next-to-last, final = 
     -1152433.30951864  -1152449.45035271  -1152449.45035271
  Force two-norm initial, final = 87.912276 7.4641969e-05
  Force max component initial, final = 57.526621 1.2351379e-05
  Final line search alpha, max atom move = 1.0000000 1.2351379e-05
  Iterations, force evaluations = 174 340

MPI task timing breakdown:
Section |  min time  |  avg time  |  max time  |%varavg| %total
---------------------------------------------------------------
Pair    | 0.52962    | 1.4386     | 1.8696     |  32.0 | 71.76
Neigh   | 5.0208e-05 | 0.014757   | 0.021431   |   5.0 |  0.74
Comm    | 0.030897   | 0.32998    | 0.99989    |  47.1 | 16.46
Output  | 0          | 0          | 0          |   0.0 |  0.00
Modify  | 1.9301e-05 | 0.0018321  | 0.0047001  |   2.7 |  0.09
Other   |            | 0.2196     |            |       | 10.95

Nlocal:        2776.45 ave        3960 max           0 min
Histogram: 8 4 4 0 4 12 8 2 28 34
Nghost:        3879.01 ave        5424 max         232 min
Histogram: 8 0 8 0 16 0 8 8 16 40
Neighs:        79213.5 ave      115432 max           0 min
Histogram: 8 4 4 0 10 6 8 8 24 32

Total # of neighbors = 8238208
Ave neighs/atom = 28.530492
Neighbor list builds = 5
Dangerous builds = 0
Setting atom values ...
  1 settings made for x
  1 settings made for y
  1 settings made for z
Setting up cg style minimization ...
  Unit style    : metal
  Current step  : 174
Per MPI rank memory allocation (min/avg/max) = 5.441 | 5.816 | 6.074 Mbytes
Step PotEng KinEng TotEng v_fx v_fy v_fz 
     174   -1152449.3            0   -1152449.3  0.084998426  0.086900982  -0.31343799 
     403   -1152449.4            0   -1152449.4 -1.1085552e-05 2.4784138e-06 2.0640319e-05 
Loop time of 2.66313 on 104 procs for 229 steps with 288751 atoms

99.9% CPU use with 104 MPI tasks x 1 OpenMP threads

Minimization stats:
  Stopping criterion = energy tolerance
  Energy initial, next-to-last, final = 
     -1152449.34938723  -1152449.41211304  -1152449.41211304
  Force two-norm initial, final = 1.1806597 0.00017289197
  Force max component initial, final = 0.71177837 2.8723972e-05
  Final line search alpha, max atom move = 1.0000000 2.8723972e-05
  Iterations, force evaluations = 229 458

MPI task timing breakdown:
Section |  min time  |  avg time  |  max time  |%varavg| %total
---------------------------------------------------------------
Pair    | 0.68723    | 1.9209     | 2.5045     |  37.4 | 72.13
Neigh   | 0          | 0          | 0          |   0.0 |  0.00
Comm    | 0.039527   | 0.43514    | 1.3026     |  54.8 | 16.34
Output  | 0          | 0          | 0          |   0.0 |  0.00
Modify  | 2.7599e-05 | 0.003767   | 0.0080088  |   2.9 |  0.14
Other   |            | 0.3034     |            |       | 11.39

Nlocal:        2776.45 ave        3961 max           0 min
Histogram: 8 4 4 0 6 10 8 2 28 34
Nghost:        3879.01 ave        5424 max         232 min
Histogram: 8 0 8 0 16 0 8 8 16 40
Neighs:        79213.5 ave      115458 max           0 min
Histogram: 8 4 4 0 10 6 8 8 24 32

Total # of neighbors = 8238199
Ave neighs/atom = 28.530461
Neighbor list builds = 0
Dangerous builds = 0
Setting atom values ...
  1 settings made for x
  1 settings made for y
  1 settings made for z
Setting up cg style minimization ...
  Unit style    : metal
  Current step  : 403
Per MPI rank memory allocation (min/avg/max) = 5.441 | 5.816 | 6.074 Mbytes
Step PotEng KinEng TotEng v_fx v_fy v_fz 
     403   -1152449.1            0   -1152449.1   0.12790292   0.14997687  -0.68581829 
     625   -1152449.3            0   -1152449.3 -8.5829004e-06 2.1024955e-05 -1.6628795e-05 
Loop time of 2.58908 on 104 procs for 222 steps with 288751 atoms

99.9% CPU use with 104 MPI tasks x 1 OpenMP threads

Minimization stats:
  Stopping criterion = energy tolerance
  Energy initial, next-to-last, final = 
[...]
  1 settings made for z
Setting up cg style minimization ...
  Unit style    : metal
  Current step  : 674
Per MPI rank memory allocation (min/avg/max) = 5.441 | 5.816 | 6.074 Mbytes
Step PotEng KinEng TotEng v_fx v_fy v_fz 
     674   -1152448.6            0   -1152448.6  -0.11257159   0.35663942  -0.47684133 
     977   -1152448.7            0   -1152448.7 -3.3086554e-06 6.5629657e-06 -8.7504648e-06 
Loop time of 3.5338 on 104 procs for 303 steps with 288751 atoms

99.9% CPU use with 104 MPI tasks x 1 OpenMP threads

Minimization stats:
  Stopping criterion = energy tolerance
  Energy initial, next-to-last, final = 
     -1152448.56339358  -1152448.72477958  -1152448.72477958
  Force two-norm initial, final = 2.0065286 4.3698811e-05
  Force max component initial, final = 1.4529010 8.7504648e-06
  Final line search alpha, max atom move = 1.0000000 8.7504648e-06
  Iterations, force evaluations = 303 606

MPI task timing breakdown:
Section |  min time  |  avg time  |  max time  |%varavg| %total
---------------------------------------------------------------
Pair    | 0.91577    | 2.5459     | 3.3191     |  43.1 | 72.05
Neigh   | 2.0405e-05 | 0.0058748  | 0.0085291  |   3.2 |  0.17
Comm    | 0.067877   | 0.58123    | 1.7175     |  63.1 | 16.45
Output  | 0          | 0          | 0          |   0.0 |  0.00
Modify  | 3.6487e-05 | 0.0049993  | 0.011006   |   3.4 |  0.14
Other   |            | 0.3958     |            |       | 11.20

Nlocal:        2776.45 ave        3960 max           0 min
Histogram: 8 4 4 0 4 12 8 4 26 34
Nghost:        3879.11 ave        5424 max         232 min
Histogram: 8 0 8 0 16 0 8 8 16 40
Neighs:        79213.6 ave      115437 max           0 min
Histogram: 8 4 4 0 10 6 8 8 24 32

Total # of neighbors = 8238218
Ave neighs/atom = 28.530526
Neighbor list builds = 2
Dangerous builds = 0
The dot product: 1.42450479615998e-07
Setting atom values ...
  1 settings made for x
  1 settings made for y
  1 settings made for z
Setting up cg style minimization ...
  Unit style    : metal
  Current step  : 977
Per MPI rank memory allocation (min/avg/max) = 5.441 | 5.816 | 6.074 Mbytes
Step PotEng KinEng TotEng v_fx v_fy v_fz 
     977   -1152448.2            0   -1152448.2 -0.089107587   0.42023599  -0.55962777 
    1000   -1152448.4            0   -1152448.4 -0.012762889 0.0092495637  -0.01431877 
    1322   -1152448.5            0   -1152448.5 6.1730288e-07 -6.7969033e-06 8.8987851e-06 
Loop time of 4.04842 on 104 procs for 345 steps with 288751 atoms

99.9% CPU use with 104 MPI tasks x 1 OpenMP threads

Minimization stats:
  Stopping criterion = energy tolerance
  Energy initial, next-to-last, final = 
     -1152448.18024301  -1152448.54793848  -1152448.54793848
  Force two-norm initial, final = 2.1155545 0.00019745673
  Force max component initial, final = 1.6486843 8.8987851e-06
  Final line search alpha, max atom move = 1.0000000 8.8987851e-06
  Iterations, force evaluations = 345 692

MPI task timing breakdown:
Section |  min time  |  avg time  |  max time  |%varavg| %total
---------------------------------------------------------------
Pair    | 1.055      | 2.9072     | 3.7649     |  45.9 | 71.81
Neigh   | 5.0333e-05 | 0.014691   | 0.021329   |   5.0 |  0.36
Comm    | 0.063256   | 0.65675    | 1.96       |  67.7 | 16.22
Output  | 0.00013647 | 0.00014324 | 0.00025396 |   0.0 |  0.00
Modify  | 4.3014e-05 | 0.0057043  | 0.012467   |   3.6 |  0.14
Other   |            | 0.4639     |            |       | 11.46

Nlocal:        2776.45 ave        3951 max           0 min
Histogram: 8 4 4 0 4 12 8 0 30 34
Nghost:        3879.12 ave        5423 max         232 min
Histogram: 8 0 8 0 16 0 8 8 16 40
Neighs:        79213.7 ave      115111 max           0 min
Histogram: 8 4 4 0 10 6 8 8 24 32

Total # of neighbors = 8238220
Ave neighs/atom = 28.530533
Neighbor list builds = 5
Dangerous builds = 0
The dot product: 4.66643934937996e-07
Setting atom values ...
  1 settings made for x
  1 settings made for y
  1 settings made for z
Setting up cg style minimization ...
  Unit style    : metal
  Current step  : 1322
Per MPI rank memory allocation (min/avg/max) = 5.441 | 5.816 | 6.074 Mbytes
Step PotEng KinEng TotEng v_fx v_fy v_fz 
    1322   -1152448.3            0   -1152448.3  -0.54005452   0.13195009  -0.72975628 
    1677   -1152448.4            0   -1152448.4 5.9233043e-08 -6.3980521e-08 1.338547e-07 
Loop time of 4.14181 on 104 procs for 355 steps with 288751 atoms

99.9% CPU use with 104 MPI tasks x 1 OpenMP threads

Minimization stats:
  Stopping criterion = energy tolerance
  Energy initial, next-to-last, final = 
     -1152448.30569392  -1152448.43528946  -1152448.43528946
  Force two-norm initial, final = 1.6637582 7.1475111e-06
  Force max component initial, final = 1.0837330 1.4883917e-07
  Final line search alpha, max atom move = 1.0000000 1.4883917e-07
  Iterations, force evaluations = 355 710

MPI task timing breakdown:
Section |  min time  |  avg time  |  max time  |%varavg| %total
---------------------------------------------------------------
Pair    | 1.0682     | 2.9779     | 3.8912     |  46.8 | 71.90
Neigh   | 2.0572e-05 | 0.0058718  | 0.0085223  |   3.2 |  0.14
Comm    | 0.063089   | 0.68214    | 2.0131     |  67.8 | 16.47
Output  | 0          | 0          | 0          |   0.0 |  0.00
Modify  | 4.2941e-05 | 0.0058516  | 0.012779   |   3.6 |  0.14
Other   |            | 0.47       |            |       | 11.35

Nlocal:        2776.45 ave        3952 max           0 min
Histogram: 8 4 4 0 4 12 8 0 30 34
Nghost:        3879.14 ave        5423 max         232 min
Histogram: 8 0 8 0 16 0 8 8 16 40
Neighs:        79213.6 ave      115138 max           0 min
Histogram: 8 4 4 0 10 6 8 8 24 32

Total # of neighbors = 8238213
Ave neighs/atom = 28.530509
Neighbor list builds = 2
Dangerous builds = 0
The dot product: -9.51676130428446e-10
Setting up cg style minimization ...
  Unit style    : metal
  Current step  : 1677
Per MPI rank memory allocation (min/avg/max) = 5.441 | 5.816 | 6.074 Mbytes
Step PotEng KinEng TotEng v_fx v_fy v_fz 
    1677   -1152448.4            0   -1152448.4   0.56453973  -0.56522236  -0.51998625 
    1948   -1152448.6            0   -1152448.6 3.5484925e-06 -5.154169e-06 5.4301546e-05 
Loop time of 3.144 on 104 procs for 271 steps with 288751 atoms

99.9% CPU use with 104 MPI tasks x 1 OpenMP threads

Minimization stats:
  Stopping criterion = energy tolerance
  Energy initial, next-to-last, final = 
     -1152448.43528946  -1152448.55524655  -1152448.55524655
  Force two-norm initial, final = 0.95318788 0.0001898677
  Force max component initial, final = 0.56522236 5.4301546e-05
  Final line search alpha, max atom move = 1.0000000 5.4301546e-05
  Iterations, force evaluations = 271 542

MPI task timing breakdown:
Section |  min time  |  avg time  |  max time  |%varavg| %total
---------------------------------------------------------------
Pair    | 0.82526    | 2.278      | 2.9469     |  40.7 | 72.45
Neigh   | 3.2405e-05 | 0.008788   | 0.012726   |   3.9 |  0.28
Comm    | 0.048138   | 0.51429    | 1.5411     |  60.2 | 16.36
Output  | 0          | 0          | 0          |   0.0 |  0.00
Modify  | 3.1157e-05 | 0.00292    | 0.0076944  |   3.4 |  0.09
Other   |            | 0.34       |            |       | 10.82

Nlocal:        2776.45 ave        3949 max           0 min
Histogram: 8 4 4 0 4 12 8 0 28 36
Nghost:        3879.09 ave        5424 max         232 min
Histogram: 8 0 8 0 16 0 8 8 16 40
Neighs:        79213.5 ave      115067 max           0 min
Histogram: 8 4 4 0 10 6 8 8 24 32

Total # of neighbors = 8238207
Ave neighs/atom = 28.530488
Neighbor list builds = 3
Dangerous builds = 1
OMP_NUM_THREADS environment is not set. Defaulting to 1 thread. (../comm.cpp:94)
  using 1 OpenMP thread(s) per MPI task
Reading data file ...
  orthogonal box = (-122.39241 -121.13707 -37.090501) to (122.39241 121.13707 37.090501)
  13 by 4 by 2 MPI processor grid
  reading atoms ...
  288751 atoms
  read_data CPU = 0.344 seconds
199981 atoms in group inner
88770 atoms in group outer
1 atoms in group carbon
Neighbor list info ...
  update every 1 steps, delay 0 steps, check yes
  max neighbors/atom: 2000, page size: 100000
  master list distance cutoff = 5.6
  ghost atom cutoff = 5.6
  binsize = 2.8, bins = 88 87 27
  1 neighbor lists, perpetual/occasional/extra = 1 0 0
  (1) pair eam/alloy, perpetual
      attributes: half, newton on
      pair build: half/bin/atomonly/newton
      stencil: half/bin/3d/newton
      bin: standard
Setting up cg style minimization ...
  Unit style    : metal
  Current step  : 0
Per MPI rank memory allocation (min/avg/max) = 5.441 | 5.816 | 6.074 Mbytes
Step v_fx v_fy v_fz PotEng KinEng TotEng 
       0  -0.21657515    -30.04813   -50.390662   -1152433.3            0   -1152433.3 
     174 7.5699081e-07 -2.6504002e-06 1.2351379e-05   -1152449.5            0   -1152449.5 
Loop time of 1.99648 on 104 procs for 174 steps with 288751 atoms

99.9% CPU use with 104 MPI tasks x 1 OpenMP threads

Minimization stats:
  Stopping criterion = energy tolerance
  Energy initial, next-to-last, final = 
     -1152433.30951864  -1152449.45035271  -1152449.45035271
  Force two-norm initial, final = 87.912276 7.4641969e-05
  Force max component initial, final = 57.526621 1.2351379e-05
  Final line search alpha, max atom move = 1.0000000 1.2351379e-05
  Iterations, force evaluations = 174 340

MPI task timing breakdown:
Section |  min time  |  avg time  |  max time  |%varavg| %total
---------------------------------------------------------------
Pair    | 0.52906    | 1.4344     | 1.8598     |  32.0 | 71.85
Neigh   | 4.9738e-05 | 0.0147     | 0.021285   |   5.0 |  0.74
Comm    | 0.031357   | 0.32635    | 0.97919    |  47.4 | 16.35
Output  | 0          | 0          | 0          |   0.0 |  0.00
Modify  | 1.8871e-05 | 0.0018325  | 0.004711   |   2.7 |  0.09
Other   |            | 0.2192     |            |       | 10.98

Nlocal:        2776.45 ave        3960 max           0 min
Histogram: 8 4 4 0 4 12 8 2 28 34
Nghost:        3879.01 ave        5424 max         232 min
Histogram: 8 0 8 0 16 0 8 8 16 40
Neighs:        79213.5 ave      115432 max           0 min
Histogram: 8 4 4 0 10 6 8 8 24 32

Total # of neighbors = 8238208
Ave neighs/atom = 28.530492
Neighbor list builds = 5
Dangerous builds = 0
Setting atom values ...
  1 settings made for x
  1 settings made for y
  1 settings made for z
Setting up cg style minimization ...
  Unit style    : metal
  Current step  : 174
Per MPI rank memory allocation (min/avg/max) = 5.441 | 5.816 | 6.074 Mbytes
Step PotEng KinEng TotEng v_fx v_fy v_fz 
     174   -1152449.2            0   -1152449.2   0.61623864   0.23414715   0.62856231 
     464   -1152449.4            0   -1152449.4 3.7847965e-07 -1.3254928e-06 -1.9010318e-07 
Loop time of 3.36549 on 104 procs for 290 steps with 288751 atoms

99.9% CPU use with 104 MPI tasks x 1 OpenMP threads

Minimization stats:
  Stopping criterion = energy tolerance
  Energy initial, next-to-last, final = 
     -1152449.15702354   -1152449.3589591   -1152449.3589591
  Force two-norm initial, final = 2.2190214 1.3034457e-05
  Force max component initial, final = 0.80572448 1.3254928e-06
  Final line search alpha, max atom move = 1.0000000 1.3254928e-06
  Iterations, force evaluations = 290 580

MPI task timing breakdown:
Section |  min time  |  avg time  |  max time  |%varavg| %total
---------------------------------------------------------------
Pair    | 0.87       | 2.4447     | 3.1605     |  42.5 | 72.64
Neigh   | 1.0101e-05 | 0.0029304  | 0.004227   |   2.2 |  0.09
Comm    | 0.051045   | 0.56214    | 1.7106     |  62.6 | 16.70
Output  | 0          | 0          | 0          |   0.0 |  0.00
Modify  | 3.3764e-05 | 0.0047927  | 0.01016    |   3.3 |  0.14
Other   |            | 0.3509     |            |       | 10.43

Nlocal:        2776.45 ave        3961 max           0 min
Histogram: 8 4 4 0 6 10 8 2 28 34
Nghost:        3879.01 ave        5424 max         232 min
Histogram: 8 0 8 0 16 0 8 8 16 40
Neighs:        79213.4 ave      115458 max           0 min
Histogram: 8 4 4 0 10 6 8 8 24 32

Total # of neighbors = 8238194
Ave neighs/atom = 28.530443
Neighbor list builds = 1
Dangerous builds = 0
Setting atom values ...
  1 settings made for x
  1 settings made for y
  1 settings made for z
Setting up cg style minimization ...
  Unit style    : metal
  Current step  : 464
Per MPI rank memory allocation (min/avg/max) = 5.441 | 5.816 | 6.074 Mbytes
Step PotEng KinEng TotEng v_fx v_fy v_fz 
     464   -1152449.2            0   -1152449.2  0.023420357   0.13697349   0.12962223 
     701   -1152449.3            0   -1152449.3 -8.6874809e-06 1.4847318e-05 -2.1842639e-06 
Loop time of 2.78396 on 104 procs for 237 steps with 288751 atoms

99.9% CPU use with 104 MPI tasks x 1 OpenMP threads

Minimization stats:
  Stopping criterion = energy tolerance
  Energy initial, next-to-last, final = 
     -1152449.18016339  -1152449.34133854  -1152449.34133854
  Force two-norm initial, final = 1.4889671 7.8413201e-05
  Force max component initial, final = 0.5801678 1.8651092e-05
  Final line search alpha, max atom move = 1.0000000 1.8651092e-05
  Iterations, force evaluations = 237 474

MPI task timing breakdown:
Section |  min time  |  avg time  |  max time  |%varavg| %total
---------------------------------------------------------------
Pair    | 0.71108    | 1.9982     | 2.6117     |  38.5 | 71.78
Neigh   | 1.0123e-05 | 0.0029297  | 0.0042215  |   2.2 |  0.11
Comm    | 0.042166   | 0.45638    | 1.3539     |  55.5 | 16.39
Output  | 0          | 0          | 0          |   0.0 |  0.00
Modify  | 2.7823e-05 | 0.0039135  | 0.0083884  |   3.0 |  0.14
Other   |            | 0.3225     |            |       | 11.59

Nlocal:        2776.45 ave        3960 max           0 min
Histogram: 8 4 4 0 4 12 8 4 26 34
Nghost:        3879.11 ave        5425 max         232 min
Histogram: 8 0 8 0 16 0 8 8 16 40
Neighs:        79213.4 ave      115423 max           0 min
Histogram: 8 4 4 0 10 6 8 8 24 32

Total # of neighbors = 8238198
Ave neighs/atom = 28.530457
Neighbor list builds = 1
Dangerous builds = 0
The dot product: 1.16356098945308e-07
Setting atom values ...
  1 settings made for x
  1 settings made for y
  1 settings made for z
Setting up cg style minimization ...
  Unit style    : metal
  Current step  : 701
Per MPI rank memory allocation (min/avg/max) = 5.441 | 5.816 | 6.074 Mbytes
Step PotEng KinEng TotEng v_fx v_fy v_fz 
     701   -1152449.1            0   -1152449.1   0.13814921 -0.090717209   0.13985434 
     914   -1152449.2            0   -1152449.2 2.9767631e-05 3.2884413e-06 4.7915484e-05 
Loop time of 2.47671 on 104 procs for 213 steps with 288751 atoms

99.9% CPU use with 104 MPI tasks x 1 OpenMP threads

Minimization stats:
  Stopping criterion = energy tolerance
  Energy initial, next-to-last, final = 
     -1152449.13901336  -1152449.24925305  -1152449.24925305
  Force two-norm initial, final = 1.2470626 0.00015237119
  Force max component initial, final = 0.47764459 4.7915484e-05
  Final line search alpha, max atom move = 1.0000000 4.7915484e-05
  Iterations, force evaluations = 213 426

MPI task timing breakdown:
Section |  min time  |  avg time  |  max time  |%varavg| %total
---------------------------------------------------------------
Pair    | 0.63889    | 1.7942     | 2.3247     |  36.4 | 72.44
Neigh   | 1.0222e-05 | 0.0029311  | 0.0042502  |   2.2 |  0.12
Comm    | 0.03843    | 0.40814    | 1.2209     |  53.4 | 16.48
Output  | 0          | 0          | 0          |   0.0 |  0.00
Modify  | 2.524e-05  | 0.0035271  | 0.0075258  |   2.8 |  0.14
Other   |            | 0.2679     |            |       | 10.82

Nlocal:        2776.45 ave        3960 max           0 min
Histogram: 8 4 4 0 4 12 8 4 26 34
Nghost:        3879.11 ave        5428 max         232 min
Histogram: 8 0 8 0 16 0 8 8 16 40
Neighs:        79213.4 ave      115432 max           0 min
Histogram: 8 4 4 0 10 6 8 8 24 32

Total # of neighbors = 8238191
Ave neighs/atom = 28.530433
Neighbor list builds = 1
Dangerous builds = 0
The dot product: 5.19617992265132e-06
Setting atom values ...
  1 settings made for x
  1 settings made for y
  1 settings made for z
Setting up cg style minimization ...
  Unit style    : metal
  Current step  : 914
Per MPI rank memory allocation (min/avg/max) = 5.441 | 5.816 | 6.074 Mbytes
Step PotEng KinEng TotEng v_fx v_fy v_fz 
     914   -1152449.1            0   -1152449.1   0.17333045  -0.41613574  -0.07335927 
    1000   -1152449.4            0   -1152449.4 0.00015005616 0.00010355031 0.00044081833 
    1268   -1152449.4            0   -1152449.4 3.249244e-08 -1.1048246e-10 7.0951441e-08 
Loop time of 4.11285 on 104 procs for 354 steps with 288751 atoms

99.9% CPU use with 104 MPI tasks x 1 OpenMP threads

Minimization stats:
  Stopping criterion = energy tolerance
  Energy initial, next-to-last, final = 
     -1152449.09521965  -1152449.35095998  -1152449.35095998
  Force two-norm initial, final = 1.6472507 1.7686161e-06
  Force max component initial, final = 0.79279946 1.3173801e-07
  Final line search alpha, max atom move = 1.0000000 1.3173801e-07
  Iterations, force evaluations = 354 708

MPI task timing breakdown:
Section |  min time  |  avg time  |  max time  |%varavg| %total
---------------------------------------------------------------
Pair    | 1.0648     | 2.9709     | 3.8583     |  46.6 | 72.24
Neigh   | 2.9907e-05 | 0.0088376  | 0.012839   |   3.9 |  0.21
Comm    | 0.061964   | 0.67677    | 2.0306     |  68.4 | 16.46
Output  | 0.00015423 | 0.0001579  | 0.00029066 |   0.0 |  0.00
Modify  | 4.1608e-05 | 0.0058515  | 0.012477   |   3.6 |  0.14
Other   |            | 0.4503     |            |       | 10.95

Nlocal:        2776.45 ave        3959 max           0 min
Histogram: 8 4 4 0 4 12 8 2 28 34
Nghost:        3879.12 ave        5424 max         232 min
Histogram: 8 0 8 0 16 0 8 8 16 40
Neighs:        79213.4 ave      115401 max           0 min
Histogram: 8 4 4 0 10 6 8 8 24 32

Total # of neighbors = 8238191
Ave neighs/atom = 28.530433
Neighbor list builds = 3
Dangerous builds = 0
The dot product: 7.3109121632899e-09
Setting up cg style minimization ...
  Unit style    : metal
  Current step  : 1268
Per MPI rank memory allocation (min/avg/max) = 5.441 | 5.816 | 6.074 Mbytes
Step PotEng KinEng TotEng v_fx v_fy v_fz 
    1268   -1152449.4            0   -1152449.4  0.059793973  0.029724674  -0.02733647 
    1468   -1152449.4            0   -1152449.4 -6.1466786e-06 -1.3578321e-05 1.4575748e-06 
Loop time of 2.31925 on 104 procs for 200 steps with 288751 atoms

99.9% CPU use with 104 MPI tasks x 1 OpenMP threads

Minimization stats:
  Stopping criterion = energy tolerance
  Energy initial, next-to-last, final = 
     -1152449.35095998  -1152449.35157334  -1152449.35157334
  Force two-norm initial, final = 0.072153712 6.8865145e-05
  Force max component initial, final = 0.059793973 1.3578321e-05
  Final line search alpha, max atom move = 1.0000000 1.3578321e-05
  Iterations, force evaluations = 200 400

MPI task timing breakdown:
Section |  min time  |  avg time  |  max time  |%varavg| %total
---------------------------------------------------------------
Pair    | 0.59859    | 1.6847     | 2.1806     |  35.3 | 72.64
Neigh   | 0          | 0          | 0          |   0.0 |  0.00
Comm    | 0.034386   | 0.38482    | 1.1609     |  51.9 | 16.59
Output  | 0          | 0          | 0          |   0.0 |  0.00
Modify  | 2.194e-05  | 0.0021491  | 0.0054808  |   2.9 |  0.09
Other   |            | 0.2476     |            |       | 10.67

Nlocal:        2776.45 ave        3959 max           0 min
Histogram: 8 4 4 0 4 12 8 2 28 34
Nghost:        3879.01 ave        5424 max         232 min
Histogram: 8 0 8 0 16 0 8 8 16 40
Neighs:        79213.4 ave      115403 max           0 min
Histogram: 8 4 4 0 10 6 8 8 24 32

Total # of neighbors = 8238190
Ave neighs/atom = 28.530429
Neighbor list builds = 0
Dangerous builds = 0
