LAMMPS (29 Oct 2020)
OMP_NUM_THREADS environment is not set. Defaulting to 1 thread. (../comm.cpp:94)
  using 1 OpenMP thread(s) per MPI task
OMP_NUM_THREADS environment is not set. Defaulting to 1 thread. (../comm.cpp:94)
  using 1 OpenMP thread(s) per MPI task
Reading data file ...
  orthogonal box = (-122.39241 -121.13707 -37.090501) to (122.39241 121.13707 37.090501)
  13 by 4 by 2 MPI processor grid
  reading atoms ...
  288751 atoms
  read_data CPU = 0.386 seconds
199981 atoms in group inner
88770 atoms in group outer
1 atoms in group carbon
Neighbor list info ...
  update every 1 steps, delay 0 steps, check yes
  max neighbors/atom: 2000, page size: 100000
  master list distance cutoff = 5.6
  ghost atom cutoff = 5.6
  binsize = 2.8, bins = 88 87 27
  1 neighbor lists, perpetual/occasional/extra = 1 0 0
  (1) pair eam/alloy, perpetual
      attributes: half, newton on
      pair build: half/bin/atomonly/newton
      stencil: half/bin/3d/newton
      bin: standard
Setting up cg style minimization ...
  Unit style    : metal
  Current step  : 0
Per MPI rank memory allocation (min/avg/max) = 5.441 | 5.816 | 6.074 Mbytes
Step v_fx v_fy v_fz PotEng KinEng TotEng 
       0   -1.7589378  -0.80083199    2.6274711   -1152447.8            0   -1152447.8 
     161 -2.0378508e-05 6.3386535e-07 1.013305e-05   -1152449.5            0   -1152449.5 
Loop time of 1.91436 on 104 procs for 161 steps with 288751 atoms

99.8% CPU use with 104 MPI tasks x 1 OpenMP threads

Minimization stats:
  Stopping criterion = energy tolerance
  Energy initial, next-to-last, final = 
     -1152447.77267742  -1152449.45035286  -1152449.45035286
  Force two-norm initial, final = 10.255016 0.0001090943
  Force max component initial, final = 6.2575941 2.0378508e-05
  Final line search alpha, max atom move = 1.0000000 2.0378508e-05
  Iterations, force evaluations = 161 321

MPI task timing breakdown:
Section |  min time  |  avg time  |  max time  |%varavg| %total
---------------------------------------------------------------
Pair    | 0.50344    | 1.3576     | 1.7618     |  31.1 | 70.92
Neigh   | 3.1862e-05 | 0.0087929  | 0.012741   |   3.9 |  0.46
Comm    | 0.030873   | 0.30931    | 0.91049    |  45.3 | 16.16
Output  | 0          | 0          | 0          |   0.0 |  0.00
Modify  | 1.9505e-05 | 0.0017342  | 0.0044069  |   2.6 |  0.09
Other   |            | 0.2369     |            |       | 12.38

Nlocal:        2776.45 ave        3957 max           0 min
Histogram: 8 4 4 0 4 12 8 2 28 34
Nghost:        3879.03 ave        5424 max         232 min
Histogram: 8 0 8 0 16 0 8 8 16 40
Neighs:        79213.5 ave      115368 max           0 min
Histogram: 8 4 4 0 10 6 8 8 24 32

Total # of neighbors = 8238206
Ave neighs/atom = 28.530485
Neighbor list builds = 3
Dangerous builds = 0
Setting atom values ...
  1 settings made for x
  1 settings made for y
  1 settings made for z
Setting up cg style minimization ...
  Unit style    : metal
  Current step  : 161
Per MPI rank memory allocation (min/avg/max) = 5.441 | 5.816 | 6.074 Mbytes
Step PotEng KinEng TotEng v_fx v_fy v_fz 
     161   -1152449.4            0   -1152449.4  0.010885764 -0.014820055 -0.020175126 
     260   -1152449.5            0   -1152449.5 -6.8783712e-06 1.0888994e-05 1.7615921e-05 
Loop time of 1.17098 on 104 procs for 99 steps with 288751 atoms

99.9% CPU use with 104 MPI tasks x 1 OpenMP threads

Minimization stats:
  Stopping criterion = energy tolerance
  Energy initial, next-to-last, final = 
     -1152449.44955121   -1152449.4500815   -1152449.4500815
  Force two-norm initial, final = 0.10848842 0.00020851705
  Force max component initial, final = 0.048243433 1.8856523e-05
  Final line search alpha, max atom move = 1.0000000 1.8856523e-05
  Iterations, force evaluations = 99 198

MPI task timing breakdown:
Section |  min time  |  avg time  |  max time  |%varavg| %total
---------------------------------------------------------------
Pair    | 0.30144    | 0.83948    | 1.0906     |  24.7 | 71.69
Neigh   | 0          | 0          | 0          |   0.0 |  0.00
Comm    | 0.022104   | 0.18937    | 0.57433    |  36.1 | 16.17
Output  | 0          | 0          | 0          |   0.0 |  0.00
Modify  | 1.2031e-05 | 0.0016419  | 0.0034821  |   1.9 |  0.14
Other   |            | 0.1405     |            |       | 12.00

Nlocal:        2776.45 ave        3958 max           0 min
Histogram: 8 4 4 0 4 12 8 2 28 34
Nghost:        3879.03 ave        5424 max         232 min
Histogram: 8 0 8 0 16 0 8 8 16 40
Neighs:        79213.4 ave      115370 max           0 min
Histogram: 8 4 4 0 10 6 8 8 24 32

Total # of neighbors = 8238198
Ave neighs/atom = 28.530457
Neighbor list builds = 0
Dangerous builds = 0
Setting atom values ...
  1 settings made for x
  1 settings made for y
  1 settings made for z
Setting up cg style minimization ...
  Unit style    : metal
  Current step  : 260
Per MPI rank memory allocation (min/avg/max) = 5.441 | 5.816 | 6.074 Mbytes
Step PotEng KinEng TotEng v_fx v_fy v_fz 
     260   -1152449.4            0   -1152449.4  0.018352637 -0.022463702 -0.032460919 
     408   -1152449.4            0   -1152449.4 -3.6624589e-05 2.3734801e-05 -2.506814e-05 
Loop time of 1.7398 on 104 procs for 148 steps with 288751 atoms

99.9% CPU use with 104 MPI tasks x 1 OpenMP threads

Minimization stats:
  Stopping criterion = energy tolerance
  Energy initial, next-to-last, final = 
     -1152449.44705551  -1152449.44849475  -1152449.44849475
  Force two-norm initial, final = 0.17814299 0.00017506527
  Force max component initial, final = 0.077752716 3.6624589e-05
  Final line search alpha, max atom move = 1.0000000 3.6624589e-05
  Iterations, force evaluations = 148 296

MPI task timing breakdown:
Section |  min time  |  avg time  |  max time  |%varavg| %total
---------------------------------------------------------------
Pair    | 0.44881    | 1.2447     | 1.6192     |  30.1 | 71.54
Neigh   | 0          | 0          | 0          |   0.0 |  0.00
Comm    | 0.027018   | 0.2813     | 0.83828    |  44.2 | 16.17
Output  | 0          | 0          | 0          |   0.0 |  0.00
Modify  | 1.8799e-05 | 0.0024517  | 0.0052312  |   2.3 |  0.14
Other   |            | 0.2113     |            |       | 12.15

Nlocal:        2776.45 ave        3958 max           0 min
Histogram: 8 4 4 0 4 12 8 2 28 34
Nghost:        3879.03 ave        5424 max         232 min
Histogram: 8 0 8 0 16 0 8 8 16 40
Neighs:        79213.5 ave      115370 max           0 min
Histogram: 8 4 4 0 10 6 8 8 24 32

Total # of neighbors = 8238200
Ave neighs/atom = 28.530464
Neighbor list builds = 0
Dangerous builds = 0
The dot product: 6.15636072359846e-08
Setting atom values ...
  1 settings made for x
  1 settings made for y
  1 settings made for z
Setting up cg style minimization ...
  Unit style    : metal
  Current step  : 408
Per MPI rank memory allocation (min/avg/max) = 5.441 | 5.816 | 6.074 Mbytes
Step PotEng KinEng TotEng v_fx v_fy v_fz 
     408   -1152449.4            0   -1152449.4  0.018706827 -0.021285352 -0.031750296 
     588   -1152449.4            0   -1152449.4 5.0208545e-07 -3.0019759e-06 -1.4606576e-05 
Loop time of 2.1253 on 104 procs for 180 steps with 288751 atoms

99.9% CPU use with 104 MPI tasks x 1 OpenMP threads

Minimization stats:
  Stopping criterion = energy tolerance
  Energy initial, next-to-last, final = 
     -1152449.44403844  -1152449.44546645  -1152449.44546645
  Force two-norm initial, final = 0.17690826 8.8525195e-05
  Force max component initial, final = 0.075523779 1.4606576e-05
  Final line search alpha, max atom move = 1.0000000 1.4606576e-05
  Iterations, force evaluations = 180 360

MPI task timing breakdown:
Section |  min time  |  avg time  |  max time  |%varavg| %total
---------------------------------------------------------------
Pair    | 0.54751    | 1.5241     | 1.9902     |  33.3 | 71.71
Neigh   | 0          | 0          | 0          |   0.0 |  0.00
Comm    | 0.034585   | 0.34335    | 1.0223     |  48.8 | 16.16
Output  | 0          | 0          | 0          |   0.0 |  0.00
Modify  | 2.1437e-05 | 0.0029769  | 0.0063399  |   2.6 |  0.14
Other   |            | 0.2548     |            |       | 11.99

Nlocal:        2776.45 ave        3957 max           0 min
Histogram: 8 4 4 0 4 12 8 2 28 34
Nghost:        3879.03 ave        5424 max         232 min
Histogram: 8 0 8 0 16 0 8 8 16 40
Neighs:        79213.5 ave      115340 max           0 min
Histogram: 8 4 4 0 10 6 8 8 24 32

Total # of neighbors = 8238201
Ave neighs/atom = 28.530467
Neighbor list builds = 0
Dangerous builds = 0
The dot product: 2.27848416681959e-08
Setting atom values ...
  1 settings made for x
  1 settings made for y
  1 settings made for z
Setting up cg style minimization ...
  Unit style    : metal
  Current step  : 588
Per MPI rank memory allocation (min/avg/max) = 5.441 | 5.816 | 6.074 Mbytes
Step PotEng KinEng TotEng v_fx v_fy v_fz 
     588   -1152449.4            0   -1152449.4  0.019631567 -0.021091274 -0.030816985 
     711   -1152449.4            0   -1152449.4 -1.5248347e-06 5.5874849e-06 3.137238e-05 
Loop time of 1.43199 on 104 procs for 123 steps with 288751 atoms

99.9% CPU use with 104 MPI tasks x 1 OpenMP threads

Minimization stats:
  Stopping criterion = energy tolerance
  Energy initial, next-to-last, final = 
     -1152449.43953391  -1152449.44095407  -1152449.44095407
  Force two-norm initial, final = 0.17607059 0.00012721591
  Force max component initial, final = 0.073366274 3.1372380e-05
  Final line search alpha, max atom move = 1.0000000 3.1372380e-05
  Iterations, force evaluations = 123 246

MPI task timing breakdown:
Section |  min time  |  avg time  |  max time  |%varavg| %total
---------------------------------------------------------------
Pair    | 0.37402    | 1.0326     | 1.3435     |  27.3 | 72.11
Neigh   | 0          | 0          | 0          |   0.0 |  0.00
Comm    | 0.023766   | 0.23106    | 0.69307    |  40.5 | 16.14
Output  | 0          | 0          | 0          |   0.0 |  0.00
Modify  | 1.5894e-05 | 0.0020374  | 0.0043444  |   2.1 |  0.14
Other   |            | 0.1663     |            |       | 11.62

Nlocal:        2776.45 ave        3955 max           0 min
Histogram: 8 4 4 0 4 12 8 0 30 34
Nghost:        3879.03 ave        5424 max         232 min
Histogram: 8 0 8 0 16 0 8 8 16 40
Neighs:        79213.5 ave      115279 max           0 min
Histogram: 8 4 4 0 10 6 8 8 24 32

Total # of neighbors = 8238201
Ave neighs/atom = 28.530467
Neighbor list builds = 0
Dangerous builds = 0
The dot product: -4.94254490052796e-08
Setting atom values ...
  1 settings made for x
  1 settings made for y
  1 settings made for z
Setting up cg style minimization ...
  Unit style    : metal
  Current step  : 711
Per MPI rank memory allocation (min/avg/max) = 5.441 | 5.816 | 6.074 Mbytes
Step PotEng KinEng TotEng v_fx v_fy v_fz 
     711   -1152449.4            0   -1152449.4   0.02103732 -0.021657649 -0.030496653 
     813   -1152449.4            0   -1152449.4 -1.1994205e-05 5.4094449e-06 -4.7781689e-05 
Loop time of 1.19513 on 104 procs for 102 steps with 288751 atoms

99.9% CPU use with 104 MPI tasks x 1 OpenMP threads

Minimization stats:
  Stopping criterion = energy tolerance
  Energy initial, next-to-last, final = 
      -1152449.4335109  -1152449.43492285  -1152449.43492285
  Force two-norm initial, final = 0.1754356 0.00028262137
  Force max component initial, final = 0.072591057 4.7781689e-05
  Final line search alpha, max atom move = 1.0000000 4.7781689e-05
  Iterations, force evaluations = 102 204

MPI task timing breakdown:
Section |  min time  |  avg time  |  max time  |%varavg| %total
---------------------------------------------------------------
Pair    | 0.30775    | 0.86185    | 1.1186     |  25.1 | 72.11
Neigh   | 0          | 0          | 0          |   0.0 |  0.00
Comm    | 0.018007   | 0.19394    | 0.57931    |  36.6 | 16.23
Output  | 0          | 0          | 0          |   0.0 |  0.00
Modify  | 1.3093e-05 | 0.0016883  | 0.0036036  |   1.9 |  0.14
Other   |            | 0.1377     |            |       | 11.52

Nlocal:        2776.45 ave        3954 max           0 min
Histogram: 8 4 4 0 4 12 8 0 30 34
Nghost:        3879.03 ave        5424 max         232 min
Histogram: 8 0 8 0 16 0 8 8 16 40
Neighs:        79213.5 ave      115246 max           0 min
Histogram: 8 4 4 0 10 6 8 8 24 32

Total # of neighbors = 8238201
Ave neighs/atom = 28.530467
Neighbor list builds = 0
Dangerous builds = 0
The dot product: 8.21932730559198e-08
Setting atom values ...
  1 settings made for x
  1 settings made for y
  1 settings made for z
Setting up cg style minimization ...
  Unit style    : metal
  Current step  : 813
Per MPI rank memory allocation (min/avg/max) = 5.441 | 5.816 | 6.074 Mbytes
Step PotEng KinEng TotEng v_fx v_fy v_fz 
     813   -1152449.4            0   -1152449.4  0.023000725  -0.02287715 -0.031090808 
     930   -1152449.4            0   -1152449.4 -9.7204106e-06 1.083034e-05 2.7094829e-05 
Loop time of 1.40373 on 104 procs for 117 steps with 288751 atoms

99.8% CPU use with 104 MPI tasks x 1 OpenMP threads

Minimization stats:
  Stopping criterion = energy tolerance
  Energy initial, next-to-last, final = 
     -1152449.42594512  -1152449.42734824  -1152449.42734824
  Force two-norm initial, final = 0.17503069 0.00015890903
  Force max component initial, final = 0.073103512 2.7173563e-05
  Final line search alpha, max atom move = 1.0000000 2.7173563e-05
  Iterations, force evaluations = 117 234

MPI task timing breakdown:
Section |  min time  |  avg time  |  max time  |%varavg| %total
---------------------------------------------------------------
Pair    | 0.35531    | 0.98855    | 1.2921     |  27.0 | 70.42
Neigh   | 0          | 0          | 0          |   0.0 |  0.00
Comm    | 0.023101   | 0.22494    | 0.67207    |  38.9 | 16.02
Output  | 0          | 0          | 0          |   0.0 |  0.00
Modify  | 1.478e-05  | 0.0019358  | 0.0041004  |   2.1 |  0.14
Other   |            | 0.1883     |            |       | 13.41

Nlocal:        2776.45 ave        3952 max           0 min
Histogram: 8 4 4 0 4 12 8 0 30 34
Nghost:        3879.03 ave        5424 max         232 min
Histogram: 8 0 8 0 16 0 8 8 16 40
Neighs:        79213.5 ave      115177 max           0 min
Histogram: 8 4 4 0 10 6 8 8 24 32

Total # of neighbors = 8238203
Ave neighs/atom = 28.530474
Neighbor list builds = 0
Dangerous builds = 0
The dot product: -4.59338136174632e-08
Setting atom values ...
  1 settings made for x
  1 settings made for y
  1 settings made for z
Setting up cg style minimization ...
  Unit style    : metal
  Current step  : 930
Per MPI rank memory allocation (min/avg/max) = 5.441 | 5.816 | 6.074 Mbytes
Step PotEng KinEng TotEng v_fx v_fy v_fz 
     930   -1152449.4            0   -1152449.4  0.025738805 -0.024745097 -0.032553696 
    1000   -1152449.4            0   -1152449.4 -0.00013623093 0.00010221891 -0.00028091513 
    1077   -1152449.4            0   -1152449.4 -3.2629637e-06 3.5564037e-06 1.0737999e-05 
Loop time of 1.72085 on 104 procs for 147 steps with 288751 atoms

99.9% CPU use with 104 MPI tasks x 1 OpenMP threads

Minimization stats:
  Stopping criterion = energy tolerance
  Energy initial, next-to-last, final = 
     -1152449.41682338  -1152449.41821768  -1152449.41821768
  Force two-norm initial, final = 0.17478394 4.3040847e-05
  Force max component initial, final = 0.073784252 1.0737999e-05
  Final line search alpha, max atom move = 1.0000000 1.0737999e-05
  Iterations, force evaluations = 147 294

MPI task timing breakdown:
Section |  min time  |  avg time  |  max time  |%varavg| %total
---------------------------------------------------------------
Pair    | 0.44632    | 1.2394     | 1.6089     |  30.0 | 72.02
Neigh   | 0          | 0          | 0          |   0.0 |  0.00
Comm    | 0.030489   | 0.2782     | 0.83348    |  44.0 | 16.17
Output  | 0.00015856 | 0.00016105 | 0.0002688  |   0.0 |  0.01
Modify  | 1.962e-05  | 0.0024324  | 0.0051744  |   2.3 |  0.14
Other   |            | 0.2007     |            |       | 11.66

Nlocal:        2776.45 ave        3951 max           0 min
Histogram: 8 4 4 0 4 12 8 0 30 34
Nghost:        3879.03 ave        5424 max         232 min
Histogram: 8 0 8 0 16 0 8 8 16 40
Neighs:        79213.5 ave      115154 max           0 min
Histogram: 8 4 4 0 10 6 8 8 24 32

Total # of neighbors = 8238203
Ave neighs/atom = 28.530474
Neighbor list builds = 0
Dangerous builds = 0
The dot product: -2.31612175676803e-08
Setting atom values ...
  1 settings made for x
  1 settings made for y
  1 settings made for z
Setting up cg style minimization ...
  Unit style    : metal
  Current step  : 1077
Per MPI rank memory allocation (min/avg/max) = 5.441 | 5.816 | 6.074 Mbytes
Step PotEng KinEng TotEng v_fx v_fy v_fz 
    1077   -1152449.4            0   -1152449.4  0.029421843 -0.027227445 -0.035240946 
    1255   -1152449.4            0   -1152449.4 9.0905289e-06 -8.6344946e-06 -1.58712e-05 
Loop time of 2.06229 on 104 procs for 178 steps with 288751 atoms

99.9% CPU use with 104 MPI tasks x 1 OpenMP threads

Minimization stats:
  Stopping criterion = energy tolerance
  Energy initial, next-to-last, final = 
     -1152449.40614612  -1152449.40753537  -1152449.40753537
  Force two-norm initial, final = 0.17489364 7.1159457e-05
  Force max component initial, final = 0.074783017 1.5871200e-05
  Final line search alpha, max atom move = 1.0000000 1.5871200e-05
  Iterations, force evaluations = 178 356

MPI task timing breakdown:
Section |  min time  |  avg time  |  max time  |%varavg| %total
---------------------------------------------------------------
Pair    | 0.54084    | 1.4933     | 1.9369     |  32.9 | 72.41
Neigh   | 0          | 0          | 0          |   0.0 |  0.00
Comm    | 0.030885   | 0.33392    | 1.0099     |  48.9 | 16.19
Output  | 0          | 0          | 0          |   0.0 |  0.00
Modify  | 2.2519e-05 | 0.0029429  | 0.0062535  |   2.5 |  0.14
Other   |            | 0.2321     |            |       | 11.25

Nlocal:        2776.45 ave        3949 max           0 min
Histogram: 8 4 4 0 4 12 8 1 27 36
Nghost:        3879.03 ave        5424 max         232 min
Histogram: 8 0 8 0 16 0 8 8 16 40
Neighs:        79213.5 ave      115112 max           0 min
Histogram: 8 4 4 0 10 6 8 8 24 32

Total # of neighbors = 8238201
Ave neighs/atom = 28.530467
Neighbor list builds = 0
Dangerous builds = 0
The dot product: 5.60871001042116e-08
Setting atom values ...
  1 settings made for x
  1 settings made for y
  1 settings made for z
Setting up cg style minimization ...
  Unit style    : metal
  Current step  : 1255
Per MPI rank memory allocation (min/avg/max) = 5.441 | 5.816 | 6.074 Mbytes
Step PotEng KinEng TotEng v_fx v_fy v_fz 
    1255   -1152449.4            0   -1152449.4  0.034485864 -0.030411822 -0.039497846 
    1374   -1152449.4            0   -1152449.4 -1.530787e-05 1.3972305e-05 3.6887502e-05 
Loop time of 1.39109 on 104 procs for 119 steps with 288751 atoms

99.9% CPU use with 104 MPI tasks x 1 OpenMP threads

Minimization stats:
  Stopping criterion = energy tolerance
  Energy initial, next-to-last, final = 
     -1152449.39393817  -1152449.39533421  -1152449.39533421
  Force two-norm initial, final = 0.17559675 0.000179627
  Force max component initial, final = 0.076050779 3.6887502e-05
  Final line search alpha, max atom move = 1.0000000 3.6887502e-05
  Iterations, force evaluations = 119 238

MPI task timing breakdown:
Section |  min time  |  avg time  |  max time  |%varavg| %total
---------------------------------------------------------------
Pair    | 0.36012    | 1.0061     | 1.3127     |  27.0 | 72.32
Neigh   | 0          | 0          | 0          |   0.0 |  0.00
Comm    | 0.026291   | 0.22539    | 0.677      |  40.0 | 16.20
Output  | 0          | 0          | 0          |   0.0 |  0.00
Modify  | 1.5442e-05 | 0.0019646  | 0.0041881  |   2.1 |  0.14
Other   |            | 0.1576     |            |       | 11.33

Nlocal:        2776.45 ave        3947 max           0 min
Histogram: 8 4 4 0 4 12 8 2 26 36
Nghost:        3879.03 ave        5424 max         232 min
Histogram: 8 0 8 0 16 0 8 8 16 40
Neighs:        79213.4 ave      115004 max           0 min
Histogram: 8 4 4 0 10 6 8 8 24 32

Total # of neighbors = 8238197
Ave neighs/atom = 28.530454
Neighbor list builds = 0
Dangerous builds = 0
The dot product: -1.77750145917982e-07
Setting atom values ...
  1 settings made for x
  1 settings made for y
  1 settings made for z
Setting up cg style minimization ...
  Unit style    : metal
  Current step  : 1374
Per MPI rank memory allocation (min/avg/max) = 5.441 | 5.816 | 6.074 Mbytes
Step PotEng KinEng TotEng v_fx v_fy v_fz 
    1374   -1152449.4            0   -1152449.4  0.043159899 -0.035596794 -0.048409278 
    1526   -1152449.4            0   -1152449.4 -2.2589017e-05 1.8620109e-05 4.6593361e-06 
Loop time of 1.77185 on 104 procs for 152 steps with 288751 atoms

99.9% CPU use with 104 MPI tasks x 1 OpenMP threads

Minimization stats:
  Stopping criterion = energy tolerance
  Energy initial, next-to-last, final = 
     -1152449.38029066  -1152449.38176792  -1152449.38176792
  Force two-norm initial, final = 0.17861867 0.00018475338
  Force max component initial, final = 0.077635035 3.0146000e-05
  Final line search alpha, max atom move = 1.0000000 3.0146000e-05
  Iterations, force evaluations = 152 304

MPI task timing breakdown:
Section |  min time  |  avg time  |  max time  |%varavg| %total
---------------------------------------------------------------
Pair    | 0.45952    | 1.2785     | 1.6597     |  30.5 | 72.16
Neigh   | 0          | 0          | 0          |   0.0 |  0.00
Comm    | 0.02814    | 0.28633    | 0.86036    |  45.2 | 16.16
Output  | 0          | 0          | 0          |   0.0 |  0.00
Modify  | 1.9419e-05 | 0.0025171  | 0.0053309  |   2.4 |  0.14
Other   |            | 0.2045     |            |       | 11.54

Nlocal:        2776.45 ave        3945 max           0 min
Histogram: 8 4 4 0 4 12 8 2 26 36
Nghost:        3879.07 ave        5424 max         232 min
Histogram: 8 0 8 0 16 0 8 8 16 40
Neighs:        79213.4 ave      114941 max           0 min
Histogram: 8 4 4 0 10 6 8 8 22 34

Total # of neighbors = 8238198
Ave neighs/atom = 28.530457
Neighbor list builds = 0
Dangerous builds = 0
The dot product: -2.2143713919252e-07
Setting atom values ...
  1 settings made for x
  1 settings made for y
  1 settings made for z
Setting up cg style minimization ...
  Unit style    : metal
  Current step  : 1526
Per MPI rank memory allocation (min/avg/max) = 5.441 | 5.816 | 6.074 Mbytes
Step PotEng KinEng TotEng v_fx v_fy v_fz 
    1526   -1152449.4            0   -1152449.4  0.061441265 -0.044497539  -0.06787664 
    1709   -1152449.4            0   -1152449.4 3.676183e-06 -3.3736912e-06 1.3777892e-05 
Loop time of 2.13267 on 104 procs for 183 steps with 288751 atoms

99.9% CPU use with 104 MPI tasks x 1 OpenMP threads

Minimization stats:
  Stopping criterion = energy tolerance
  Energy initial, next-to-last, final = 
     -1152449.36559255  -1152449.36855042  -1152449.36855042
  Force two-norm initial, final = 0.1896109 0.00020566063
  Force max component initial, final = 0.079740764 3.4263687e-05
  Final line search alpha, max atom move = 1.0000000 3.4263687e-05
  Iterations, force evaluations = 183 366

MPI task timing breakdown:
Section |  min time  |  avg time  |  max time  |%varavg| %total
---------------------------------------------------------------
Pair    | 0.5534     | 1.5423     | 2.0006     |  33.5 | 72.32
Neigh   | 0          | 0          | 0          |   0.0 |  0.00
Comm    | 0.035926   | 0.34471    | 1.0474     |  49.5 | 16.16
Output  | 0          | 0          | 0          |   0.0 |  0.00
Modify  | 2.389e-05  | 0.0030236  | 0.0064032  |   2.6 |  0.14
Other   |            | 0.2426     |            |       | 11.38

Nlocal:        2776.45 ave        3942 max           0 min
Histogram: 8 4 4 0 4 12 8 2 26 36
Nghost:        3879.07 ave        5424 max         232 min
Histogram: 8 0 8 0 16 0 8 8 16 40
Neighs:        79213.4 ave      114855 max           0 min
Histogram: 8 4 4 0 10 6 8 8 22 34

Total # of neighbors = 8238194
Ave neighs/atom = 28.530443
Neighbor list builds = 0
Dangerous builds = 0
The dot product: -2.64016528819024e-07
Setting atom values ...
  1 settings made for x
  1 settings made for y
  1 settings made for z
Setting up cg style minimization ...
  Unit style    : metal
  Current step  : 1709
Per MPI rank memory allocation (min/avg/max) = 5.441 | 5.816 | 6.074 Mbytes
Step PotEng KinEng TotEng v_fx v_fy v_fz 
    1709   -1152449.4            0   -1152449.4   0.15859388 -0.054501154  -0.12924901 
    1897   -1152449.4            0   -1152449.4 8.119539e-06 -2.1592569e-05 8.3711952e-05 
Loop time of 2.18553 on 104 procs for 188 steps with 288751 atoms

99.9% CPU use with 104 MPI tasks x 1 OpenMP threads

Minimization stats:
  Stopping criterion = energy tolerance
  Energy initial, next-to-last, final = 
      -1152449.3546994  -1152449.36172785  -1152449.36172785
  Force two-norm initial, final = 0.25798615 0.00025168985
  Force max component initial, final = 0.15859388 8.3711952e-05
  Final line search alpha, max atom move = 1.0000000 8.3711952e-05
  Iterations, force evaluations = 188 376

MPI task timing breakdown:
Section |  min time  |  avg time  |  max time  |%varavg| %total
---------------------------------------------------------------
Pair    | 0.5745     | 1.5765     | 2.0464     |  33.7 | 72.13
Neigh   | 1.0111e-05 | 0.002954   | 0.0042838  |   2.2 |  0.14
Comm    | 0.039347   | 0.35309    | 1.0571     |  50.0 | 16.16
Output  | 0          | 0          | 0          |   0.0 |  0.00
Modify  | 2.3484e-05 | 0.0031047  | 0.0065999  |   2.6 |  0.14
Other   |            | 0.2499     |            |       | 11.43

Nlocal:        2776.45 ave        3944 max           0 min
Histogram: 8 4 4 0 4 12 8 2 26 36
Nghost:        3879.03 ave        5424 max         232 min
Histogram: 8 0 8 0 16 0 8 8 16 40
Neighs:        79213.4 ave      114916 max           0 min
Histogram: 8 4 4 0 10 6 8 8 22 34

Total # of neighbors = 8238197
Ave neighs/atom = 28.530454
Neighbor list builds = 1
Dangerous builds = 0
The dot product: -1.97170725689653e-06
Setting atom values ...
  1 settings made for x
  1 settings made for y
  1 settings made for z
Setting up cg style minimization ...
  Unit style    : metal
  Current step  : 1897
Per MPI rank memory allocation (min/avg/max) = 5.441 | 5.816 | 6.074 Mbytes
Step PotEng KinEng TotEng v_fx v_fy v_fz 
    1897   -1152449.3            0   -1152449.3   0.14256894 -0.013218675 -0.076711607 
    2000   -1152449.4            0   -1152449.4 -0.00011173961 2.7595882e-05 8.8211397e-06 
    2083   -1152449.4            0   -1152449.4 3.4084101e-06 2.1421083e-05 -6.6534908e-05 
Loop time of 2.1696 on 104 procs for 186 steps with 288751 atoms

99.9% CPU use with 104 MPI tasks x 1 OpenMP threads

Minimization stats:
  Stopping criterion = energy tolerance
  Energy initial, next-to-last, final = 
      -1152449.3498634  -1152449.35366773  -1152449.35366773
  Force two-norm initial, final = 0.21253341 0.00020083452
  Force max component initial, final = 0.14256894 6.6534908e-05
  Final line search alpha, max atom move = 1.0000000 6.6534908e-05
  Iterations, force evaluations = 186 372

MPI task timing breakdown:
Section |  min time  |  avg time  |  max time  |%varavg| %total
---------------------------------------------------------------
Pair    | 0.56173    | 1.5669     | 2.0314     |  33.7 | 72.22
Neigh   | 0          | 0          | 0          |   0.0 |  0.00
Comm    | 0.034304   | 0.34985    | 1.0575     |  50.0 | 16.13
Output  | 0.00010234 | 0.00010874 | 0.00023349 |   0.0 |  0.01
Modify  | 2.3239e-05 | 0.003071   | 0.0065152  |   2.6 |  0.14
Other   |            | 0.2496     |            |       | 11.51

Nlocal:        2776.45 ave        3945 max           0 min
Histogram: 8 4 4 0 4 12 8 1 27 36
Nghost:        3879.03 ave        5424 max         232 min
Histogram: 8 0 8 0 16 0 8 8 16 40
Neighs:        79213.5 ave      114939 max           0 min
Histogram: 8 4 4 0 10 6 8 8 22 34

Total # of neighbors = 8238202
Ave neighs/atom = 28.530471
Neighbor list builds = 0
Dangerous builds = 0
The dot product: 1.14696839559916e-06
Setting atom values ...
  1 settings made for x
  1 settings made for y
  1 settings made for z
Setting up cg style minimization ...
  Unit style    : metal
  Current step  : 2083
Per MPI rank memory allocation (min/avg/max) = 5.441 | 5.816 | 6.074 Mbytes
Step PotEng KinEng TotEng v_fx v_fy v_fz 
    2083   -1152449.3            0   -1152449.3  0.079164084 0.0034586665 -0.037022658 
    2216   -1152449.3            0   -1152449.3 3.2759645e-06 1.6135858e-05 -4.1596811e-05 
Loop time of 1.53576 on 104 procs for 133 steps with 288751 atoms

99.9% CPU use with 104 MPI tasks x 1 OpenMP threads

Minimization stats:
  Stopping criterion = energy tolerance
  Energy initial, next-to-last, final = 
     -1152449.34239064  -1152449.34472667  -1152449.34472667
  Force two-norm initial, final = 0.16274033 0.00012230074
  Force max component initial, final = 0.079462094 4.1596811e-05
  Final line search alpha, max atom move = 1.0000000 4.1596811e-05
  Iterations, force evaluations = 133 266

MPI task timing breakdown:
Section |  min time  |  avg time  |  max time  |%varavg| %total
---------------------------------------------------------------
Pair    | 0.40382    | 1.1165     | 1.4493     |  28.5 | 72.70
Neigh   | 0          | 0          | 0          |   0.0 |  0.00
Comm    | 0.024858   | 0.24867    | 0.75208    |  42.3 | 16.19
Output  | 0          | 0          | 0          |   0.0 |  0.00
Modify  | 1.6872e-05 | 0.0021967  | 0.004656   |   2.2 |  0.14
Other   |            | 0.1684     |            |       | 10.97

Nlocal:        2776.45 ave        3945 max           0 min
Histogram: 8 4 4 0 4 12 8 0 28 36
Nghost:        3879.07 ave        5424 max         232 min
Histogram: 8 0 8 0 16 0 8 8 16 40
Neighs:        79213.5 ave      114930 max           0 min
Histogram: 8 4 4 0 10 6 8 8 22 34

Total # of neighbors = 8238203
Ave neighs/atom = 28.530474
Neighbor list builds = 0
Dangerous builds = 0
The dot product: 6.1719043234123e-07
Setting atom values ...
  1 settings made for x
  1 settings made for y
  1 settings made for z
Setting up cg style minimization ...
  Unit style    : metal
  Current step  : 2216
Per MPI rank memory allocation (min/avg/max) = 5.441 | 5.816 | 6.074 Mbytes
Step PotEng KinEng TotEng v_fx v_fy v_fz 
    2216   -1152449.3            0   -1152449.3  0.036226435  0.010106584 -0.028709051 
    2443   -1152449.3            0   -1152449.3 2.2235599e-05 2.9358104e-05 -6.9010877e-05 
Loop time of 2.67192 on 104 procs for 227 steps with 288751 atoms

99.9% CPU use with 104 MPI tasks x 1 OpenMP threads

Minimization stats:
  Stopping criterion = energy tolerance
  Energy initial, next-to-last, final = 
     -1152449.33518138  -1152449.34516516  -1152449.34516516
  Force two-norm initial, final = 0.15180226 0.00024808958
  Force max component initial, final = 0.074142981 6.9010877e-05
  Final line search alpha, max atom move = 1.0000000 6.9010877e-05
  Iterations, force evaluations = 227 454

MPI task timing breakdown:
Section |  min time  |  avg time  |  max time  |%varavg| %total
---------------------------------------------------------------
Pair    | 0.69083    | 1.9126     | 2.4794     |  37.2 | 71.58
Neigh   | 1.0401e-05 | 0.0029543  | 0.0042818  |   2.2 |  0.11
Comm    | 0.042275   | 0.43139    | 1.2844     |  54.4 | 16.15
Output  | 0          | 0          | 0          |   0.0 |  0.00
Modify  | 2.8624e-05 | 0.0037496  | 0.0079332  |   2.9 |  0.14
Other   |            | 0.3212     |            |       | 12.02

Nlocal:        2776.45 ave        3948 max           0 min
Histogram: 8 4 4 0 4 12 8 0 28 36
Nghost:        3879.03 ave        5424 max         232 min
Histogram: 8 0 8 0 16 0 8 8 16 40
Neighs:        79213.5 ave      115042 max           0 min
Histogram: 8 4 4 0 10 6 8 8 24 32

Total # of neighbors = 8238202
Ave neighs/atom = 28.530471
Neighbor list builds = 1
Dangerous builds = 0
The dot product: 2.99538403257539e-06
Setting atom values ...
  1 settings made for x
  1 settings made for y
  1 settings made for z
Setting up cg style minimization ...
  Unit style    : metal
  Current step  : 2443
Per MPI rank memory allocation (min/avg/max) = 5.441 | 5.816 | 6.074 Mbytes
Step PotEng KinEng TotEng v_fx v_fy v_fz 
    2443   -1152449.3            0   -1152449.3 -0.0049558468 -0.021792475  0.036451944 
    2626   -1152449.3            0   -1152449.3 9.333847e-07 8.4947361e-07 -1.4815864e-06 
Loop time of 2.13815 on 104 procs for 183 steps with 288751 atoms

99.9% CPU use with 104 MPI tasks x 1 OpenMP threads

Minimization stats:
  Stopping criterion = energy tolerance
  Energy initial, next-to-last, final = 
     -1152449.34736089  -1152449.34836165  -1152449.34836165
  Force two-norm initial, final = 0.13176184 5.4580912e-06
  Force max component initial, final = 0.052521981 1.4815864e-06
  Final line search alpha, max atom move = 1.0000000 1.4815864e-06
  Iterations, force evaluations = 183 366

MPI task timing breakdown:
Section |  min time  |  avg time  |  max time  |%varavg| %total
---------------------------------------------------------------
Pair    | 0.55269    | 1.5355     | 2.0055     |  33.5 | 71.81
Neigh   | 0          | 0          | 0          |   0.0 |  0.00
Comm    | 0.031954   | 0.34514    | 1.0339     |  49.1 | 16.14
Output  | 0          | 0          | 0          |   0.0 |  0.00
Modify  | 2.3022e-05 | 0.0030196  | 0.0064114  |   2.6 |  0.14
Other   |            | 0.2545     |            |       | 11.90

Nlocal:        2776.45 ave        3961 max           0 min
Histogram: 8 4 4 0 6 10 8 2 28 34
Nghost:        3879.03 ave        5425 max         232 min
Histogram: 8 0 8 0 16 0 8 8 16 40
Neighs:        79213.4 ave      115460 max           0 min
Histogram: 8 4 4 0 10 6 8 8 24 32

Total # of neighbors = 8238191
Ave neighs/atom = 28.530433
Neighbor list builds = 0
Dangerous builds = 0
The dot product: -7.36699852528866e-09
Setting atom values ...
  1 settings made for x
  1 settings made for y
  1 settings made for z
Setting up cg style minimization ...
  Unit style    : metal
  Current step  : 2626
Per MPI rank memory allocation (min/avg/max) = 5.441 | 5.816 | 6.074 Mbytes
Step PotEng KinEng TotEng v_fx v_fy v_fz 
    2626   -1152449.3            0   -1152449.3 0.00086871618 -0.010941705  0.018500753 
    2857   -1152449.4            0   -1152449.4 3.7606112e-06 2.9639305e-06 -5.3674789e-06 
Loop time of 2.72471 on 104 procs for 231 steps with 288751 atoms

99.9% CPU use with 104 MPI tasks x 1 OpenMP threads

Minimization stats:
  Stopping criterion = energy tolerance
  Energy initial, next-to-last, final = 
      -1152449.3496541  -1152449.35055867  -1152449.35055867
  Force two-norm initial, final = 0.12504249 1.9181889e-05
  Force max component initial, final = 0.052991307 5.3674789e-06
  Final line search alpha, max atom move = 1.0000000 5.3674789e-06
  Iterations, force evaluations = 231 462

MPI task timing breakdown:
Section |  min time  |  avg time  |  max time  |%varavg| %total
---------------------------------------------------------------
Pair    | 0.70186    | 1.9535     | 2.5561     |  37.7 | 71.70
Neigh   | 0          | 0          | 0          |   0.0 |  0.00
Comm    | 0.057097   | 0.44057    | 1.3144     |  55.0 | 16.17
Output  | 0          | 0          | 0          |   0.0 |  0.00
Modify  | 2.9292e-05 | 0.0038104  | 0.0080874  |   2.9 |  0.14
Other   |            | 0.3268     |            |       | 11.99

Nlocal:        2776.45 ave        3961 max           0 min
Histogram: 8 4 4 0 6 10 8 2 28 34
Nghost:        3879.03 ave        5425 max         232 min
Histogram: 8 0 8 0 16 0 8 8 16 40
Neighs:        79213.4 ave      115461 max           0 min
Histogram: 8 4 4 0 10 6 8 8 24 32

Total # of neighbors = 8238193
Ave neighs/atom = 28.530440
Neighbor list builds = 0
Dangerous builds = 0
The dot product: -1.08912320624354e-10
Setting atom values ...
  1 settings made for x
  1 settings made for y
  1 settings made for z
Setting up cg style minimization ...
  Unit style    : metal
  Current step  : 2857
Per MPI rank memory allocation (min/avg/max) = 5.441 | 5.816 | 6.074 Mbytes
Step PotEng KinEng TotEng v_fx v_fy v_fz 
    2857   -1152449.4            0   -1152449.4 0.00057647982 -0.011998036  0.020335619 
    3000   -1152449.4            0   -1152449.4 6.3231207e-06 -4.9838593e-05 8.412531e-05 
    3040   -1152449.4            0   -1152449.4 -8.4036093e-06 1.1639206e-05 -1.9035074e-05 
Loop time of 2.16265 on 104 procs for 183 steps with 288751 atoms

99.9% CPU use with 104 MPI tasks x 1 OpenMP threads

Minimization stats:
  Stopping criterion = energy tolerance
  Energy initial, next-to-last, final = 
     -1152449.35063186  -1152449.35153372  -1152449.35153372
  Force two-norm initial, final = 0.12557667 0.0001161678
  Force max component initial, final = 0.05260934 1.9035074e-05
  Final line search alpha, max atom move = 1.0000000 1.9035074e-05
  Iterations, force evaluations = 183 366

MPI task timing breakdown:
Section |  min time  |  avg time  |  max time  |%varavg| %total
---------------------------------------------------------------
Pair    | 0.5588     | 1.5403     | 2.0041     |  33.4 | 71.22
Neigh   | 0          | 0          | 0          |   0.0 |  0.00
Comm    | 0.034835   | 0.34846    | 1.0644     |  49.5 | 16.11
Output  | 0.00015343 | 0.00016329 | 0.0003113  |   0.0 |  0.01
Modify  | 2.2924e-05 | 0.0030246  | 0.0064845  |   2.6 |  0.14
Other   |            | 0.2707     |            |       | 12.52

Nlocal:        2776.45 ave        3961 max           0 min
Histogram: 8 4 4 0 6 10 8 2 28 34
Nghost:        3879.03 ave        5428 max         232 min
Histogram: 8 0 8 0 16 0 8 8 16 40
Neighs:        79213.4 ave      115461 max           0 min
Histogram: 8 4 4 0 10 6 8 8 24 32

Total # of neighbors = 8238189
Ave neighs/atom = 28.530426
Neighbor list builds = 0
Dangerous builds = 0
The dot product: -1.33191959326314e-08
Setting atom values ...
  1 settings made for x
  1 settings made for y
  1 settings made for z
Setting up cg style minimization ...
  Unit style    : metal
  Current step  : 3040
Per MPI rank memory allocation (min/avg/max) = 5.441 | 5.816 | 6.074 Mbytes
Step PotEng KinEng TotEng v_fx v_fy v_fz 
    3040   -1152449.4            0   -1152449.4 0.00095907135 -0.011435818  0.019411285 
    3256   -1152449.4            0   -1152449.4 5.5792207e-06 1.8606306e-06 -3.6605032e-06 
Loop time of 2.53438 on 104 procs for 216 steps with 288751 atoms

99.9% CPU use with 104 MPI tasks x 1 OpenMP threads

Minimization stats:
  Stopping criterion = energy tolerance
  Energy initial, next-to-last, final = 
     -1152449.35029578  -1152449.35119053  -1152449.35119053
  Force two-norm initial, final = 0.1251026 3.9475103e-05
  Force max component initial, final = 0.052459178 5.5792207e-06
  Final line search alpha, max atom move = 1.0000000 5.5792207e-06
  Iterations, force evaluations = 216 432

MPI task timing breakdown:
Section |  min time  |  avg time  |  max time  |%varavg| %total
---------------------------------------------------------------
Pair    | 0.6571     | 1.8244     | 2.3891     |  36.4 | 71.99
Neigh   | 0          | 0          | 0          |   0.0 |  0.00
Comm    | 0.050959   | 0.40901    | 1.2254     |  53.7 | 16.14
Output  | 0          | 0          | 0          |   0.0 |  0.00
Modify  | 2.8316e-05 | 0.0035584  | 0.0075767  |   2.8 |  0.14
Other   |            | 0.2974     |            |       | 11.73

Nlocal:        2776.45 ave        3960 max           0 min
Histogram: 8 4 4 0 4 12 8 2 28 34
Nghost:        3879.03 ave        5424 max         232 min
Histogram: 8 0 8 0 16 0 8 8 16 40
Neighs:        79213.4 ave      115429 max           0 min
Histogram: 8 4 4 0 10 6 8 8 24 32

Total # of neighbors = 8238191
Ave neighs/atom = 28.530433
Neighbor list builds = 0
Dangerous builds = 0
The dot product: -8.16601323556139e-10
Setting atom values ...
  1 settings made for x
  1 settings made for y
  1 settings made for z
Setting up cg style minimization ...
  Unit style    : metal
  Current step  : 3256
Per MPI rank memory allocation (min/avg/max) = 5.441 | 5.816 | 6.074 Mbytes
Step PotEng KinEng TotEng v_fx v_fy v_fz 
    3256   -1152449.3            0   -1152449.3 0.0013300801 -0.010585977  0.017985708 
    3503   -1152449.3            0   -1152449.3 5.0540834e-07 -4.0300642e-07 6.4532945e-07 
Loop time of 2.85906 on 104 procs for 247 steps with 288751 atoms

99.9% CPU use with 104 MPI tasks x 1 OpenMP threads

Minimization stats:
  Stopping criterion = energy tolerance
  Energy initial, next-to-last, final = 
     -1152449.34861524  -1152449.34949776  -1152449.34949776
  Force two-norm initial, final = 0.12419487 1.0018791e-05
  Force max component initial, final = 0.052311317 1.5533527e-06
  Final line search alpha, max atom move = 1.0000000 1.5533527e-06
  Iterations, force evaluations = 247 494

MPI task timing breakdown:
Section |  min time  |  avg time  |  max time  |%varavg| %total
---------------------------------------------------------------
Pair    | 0.74505    | 2.0781     | 2.6964     |  39.0 | 72.69
Neigh   | 0          | 0          | 0          |   0.0 |  0.00
Comm    | 0.045294   | 0.46424    | 1.4024     |  58.0 | 16.24
Output  | 0          | 0          | 0          |   0.0 |  0.00
Modify  | 3.0804e-05 | 0.0040752  | 0.0087156  |   3.0 |  0.14
Other   |            | 0.3126     |            |       | 10.93

Nlocal:        2776.45 ave        3958 max           0 min
Histogram: 8 4 4 0 4 12 8 2 28 34
Nghost:        3879.03 ave        5424 max         232 min
Histogram: 8 0 8 0 16 0 8 8 16 40
Neighs:        79213.4 ave      115392 max           0 min
Histogram: 8 4 4 0 10 6 8 8 24 32

Total # of neighbors = 8238191
Ave neighs/atom = 28.530433
Neighbor list builds = 0
Dangerous builds = 0
The dot product: 5.00666318550449e-10
Setting atom values ...
  1 settings made for x
  1 settings made for y
  1 settings made for z
Setting up cg style minimization ...
  Unit style    : metal
  Current step  : 3503
Per MPI rank memory allocation (min/avg/max) = 5.441 | 5.816 | 6.074 Mbytes
Step PotEng KinEng TotEng v_fx v_fy v_fz 
    3503   -1152449.3            0   -1152449.3 0.0014746131 -0.009573097  0.016286907 
    3712   -1152449.3            0   -1152449.3 -1.0442748e-05 4.4232252e-06 -6.6909564e-06 
Loop time of 2.43011 on 104 procs for 209 steps with 288751 atoms

99.9% CPU use with 104 MPI tasks x 1 OpenMP threads

Minimization stats:
  Stopping criterion = energy tolerance
  Energy initial, next-to-last, final = 
     -1152449.34557964  -1152449.34644813  -1152449.34644813
  Force two-norm initial, final = 0.12319989 5.6636674e-05
  Force max component initial, final = 0.052191681 1.0442748e-05
  Final line search alpha, max atom move = 1.0000000 1.0442748e-05
  Iterations, force evaluations = 209 418

MPI task timing breakdown:
Section |  min time  |  avg time  |  max time  |%varavg| %total
---------------------------------------------------------------
Pair    | 0.63101    | 1.7563     | 2.2865     |  35.8 | 72.27
Neigh   | 0          | 0          | 0          |   0.0 |  0.00
Comm    | 0.040897   | 0.39228    | 1.1754     |  52.6 | 16.14
Output  | 0          | 0          | 0          |   0.0 |  0.00
Modify  | 2.6539e-05 | 0.0034398  | 0.0073119  |   2.8 |  0.14
Other   |            | 0.278      |            |       | 11.44

Nlocal:        2776.45 ave        3958 max           0 min
Histogram: 8 4 4 0 4 12 8 2 28 34
Nghost:        3879.03 ave        5424 max         232 min
Histogram: 8 0 8 0 16 0 8 8 16 40
Neighs:        79213.4 ave      115362 max           0 min
Histogram: 8 4 4 0 10 6 8 8 24 32

Total # of neighbors = 8238190
Ave neighs/atom = 28.530429
Neighbor list builds = 0
Dangerous builds = 0
The dot product: -6.24200164872818e-09
Setting atom values ...
  1 settings made for x
  1 settings made for y
  1 settings made for z
Setting up cg style minimization ...
  Unit style    : metal
  Current step  : 3712
Per MPI rank memory allocation (min/avg/max) = 5.441 | 5.816 | 6.074 Mbytes
Step PotEng KinEng TotEng v_fx v_fy v_fz 
    3712   -1152449.3            0   -1152449.3 0.0012974471 -0.0085335171   0.01455468 
    3893   -1152449.3            0   -1152449.3 -2.1725601e-05 -1.6529377e-05 3.0237665e-05 
Loop time of 2.09559 on 104 procs for 181 steps with 288751 atoms

99.9% CPU use with 104 MPI tasks x 1 OpenMP threads

Minimization stats:
  Stopping criterion = energy tolerance
  Energy initial, next-to-last, final = 
     -1152449.34118008  -1152449.34203593  -1152449.34203593
  Force two-norm initial, final = 0.1223986 0.00013668745
  Force max component initial, final = 0.052074009 4.2960995e-05
  Final line search alpha, max atom move = 1.0000000 4.2960995e-05
  Iterations, force evaluations = 181 362

MPI task timing breakdown:
Section |  min time  |  avg time  |  max time  |%varavg| %total
---------------------------------------------------------------
Pair    | 0.54871    | 1.5191     | 1.9754     |  33.2 | 72.49
Neigh   | 0          | 0          | 0          |   0.0 |  0.00
Comm    | 0.036277   | 0.33916    | 1.0286     |  49.4 | 16.18
Output  | 0          | 0          | 0          |   0.0 |  0.00
Modify  | 2.3093e-05 | 0.0029881  | 0.0063281  |   2.6 |  0.14
Other   |            | 0.2343     |            |       | 11.18

Nlocal:        2776.45 ave        3957 max           0 min
Histogram: 8 4 4 0 4 12 8 2 28 34
Nghost:        3879.03 ave        5424 max         232 min
Histogram: 8 0 8 0 16 0 8 8 16 40
Neighs:        79213.4 ave      115325 max           0 min
Histogram: 8 4 4 0 10 6 8 8 24 32

Total # of neighbors = 8238190
Ave neighs/atom = 28.530429
Neighbor list builds = 0
Dangerous builds = 0
The dot product: 8.1849220201682e-09
Setting atom values ...
  1 settings made for x
  1 settings made for y
  1 settings made for z
Setting up cg style minimization ...
  Unit style    : metal
  Current step  : 3893
Per MPI rank memory allocation (min/avg/max) = 5.441 | 5.816 | 6.074 Mbytes
Step PotEng KinEng TotEng v_fx v_fy v_fz 
    3893   -1152449.3            0   -1152449.3 0.00074873985 -0.0075580246  0.012950989 
    4000   -1152449.3            0   -1152449.3 9.3899646e-05 -6.9026981e-05 0.00011101383 
    4095   -1152449.3            0   -1152449.3 -1.1708286e-06 4.3445361e-06 -7.382741e-06 
Loop time of 2.33925 on 104 procs for 202 steps with 288751 atoms

99.9% CPU use with 104 MPI tasks x 1 OpenMP threads

Minimization stats:
  Stopping criterion = energy tolerance
  Energy initial, next-to-last, final = 
     -1152449.33540172   -1152449.3362504   -1152449.3362504
  Force two-norm initial, final = 0.12195032 7.3169894e-05
  Force max component initial, final = 0.051922568 1.3256828e-05
  Final line search alpha, max atom move = 1.0000000 1.3256828e-05
  Iterations, force evaluations = 202 404

MPI task timing breakdown:
Section |  min time  |  avg time  |  max time  |%varavg| %total
---------------------------------------------------------------
Pair    | 0.60858    | 1.7006     | 2.2048     |  35.2 | 72.70
Neigh   | 0          | 0          | 0          |   0.0 |  0.00
Comm    | 0.037152   | 0.37858    | 1.1473     |  52.1 | 16.18
Output  | 9.4399e-05 | 9.9159e-05 | 0.00023322 |   0.0 |  0.00
Modify  | 2.5086e-05 | 0.0033332  | 0.0070545  |   2.7 |  0.14
Other   |            | 0.2567     |            |       | 10.97

Nlocal:        2776.45 ave        3957 max           0 min
Histogram: 8 4 4 0 4 12 8 2 28 34
Nghost:        3879.03 ave        5424 max         232 min
Histogram: 8 0 8 0 16 0 8 8 16 40
Neighs:        79213.4 ave      115325 max           0 min
Histogram: 8 4 4 0 10 6 8 8 24 32

Total # of neighbors = 8238192
Ave neighs/atom = 28.530436
Neighbor list builds = 0
Dangerous builds = 0
The dot product: -3.0066366138515e-09
Setting atom values ...
  1 settings made for x
  1 settings made for y
  1 settings made for z
Setting up cg style minimization ...
  Unit style    : metal
  Current step  : 4095
Per MPI rank memory allocation (min/avg/max) = 5.441 | 5.816 | 6.074 Mbytes
Step PotEng KinEng TotEng v_fx v_fy v_fz 
    4095   -1152449.3            0   -1152449.3 -0.00016147953 -0.0065995762  0.011394831 
    4285   -1152449.3            0   -1152449.3 -5.3377376e-07 9.4338306e-07 -1.5827133e-06 
Loop time of 2.2066 on 104 procs for 190 steps with 288751 atoms

99.9% CPU use with 104 MPI tasks x 1 OpenMP threads

Minimization stats:
  Stopping criterion = energy tolerance
  Energy initial, next-to-last, final = 
     -1152449.32822553  -1152449.32907186  -1152449.32907186
  Force two-norm initial, final = 0.12186703 9.1206451e-05
  Force max component initial, final = 0.051788291 4.5377411e-06
  Final line search alpha, max atom move = 1.0000000 4.5377411e-06
  Iterations, force evaluations = 190 380

MPI task timing breakdown:
Section |  min time  |  avg time  |  max time  |%varavg| %total
---------------------------------------------------------------
Pair    | 0.57527    | 1.5932     | 2.0744     |  34.1 | 72.20
Neigh   | 0          | 0          | 0          |   0.0 |  0.00
Comm    | 0.033535   | 0.3573     | 1.0749     |  50.2 | 16.19
Output  | 0          | 0          | 0          |   0.0 |  0.00
Modify  | 2.4069e-05 | 0.0031325  | 0.0066497  |   2.6 |  0.14
Other   |            | 0.253      |            |       | 11.46

Nlocal:        2776.45 ave        3956 max           0 min
Histogram: 8 4 4 0 4 12 8 0 30 34
Nghost:        3879.01 ave        5424 max         232 min
Histogram: 8 0 8 0 16 0 8 8 16 40
Neighs:        79213.4 ave      115286 max           0 min
Histogram: 8 4 4 0 10 6 8 8 24 32

Total # of neighbors = 8238189
Ave neighs/atom = 28.530426
Neighbor list builds = 0
Dangerous builds = 0
The dot product: -5.90669237761432e-10
Setting atom values ...
  1 settings made for x
  1 settings made for y
  1 settings made for z
Setting up cg style minimization ...
  Unit style    : metal
  Current step  : 4285
Per MPI rank memory allocation (min/avg/max) = 5.441 | 5.816 | 6.074 Mbytes
Step PotEng KinEng TotEng v_fx v_fy v_fz 
    4285   -1152449.3            0   -1152449.3 -0.0014814394 -0.0057790791  0.010102661 
    4508   -1152449.3            0   -1152449.3 -5.1839012e-06 -1.7723359e-06 3.4888915e-06 
Loop time of 2.61053 on 104 procs for 223 steps with 288751 atoms

99.9% CPU use with 104 MPI tasks x 1 OpenMP threads

Minimization stats:
  Stopping criterion = energy tolerance
  Energy initial, next-to-last, final = 
     -1152449.31962137  -1152449.32047162  -1152449.32047162
  Force two-norm initial, final = 0.12215746 2.6351814e-05
  Force max component initial, final = 0.051618882 5.1839012e-06
  Final line search alpha, max atom move = 1.0000000 5.1839012e-06
  Iterations, force evaluations = 223 446

MPI task timing breakdown:
Section |  min time  |  avg time  |  max time  |%varavg| %total
---------------------------------------------------------------
Pair    | 0.67369    | 1.8897     | 2.4588     |  37.2 | 72.39
Neigh   | 0          | 0          | 0          |   0.0 |  0.00
Comm    | 0.047898   | 0.42134    | 1.267      |  54.9 | 16.14
Output  | 0          | 0          | 0          |   0.0 |  0.00
Modify  | 2.8048e-05 | 0.0036725  | 0.007823   |   2.9 |  0.14
Other   |            | 0.2958     |            |       | 11.33

Nlocal:        2776.45 ave        3955 max           0 min
Histogram: 8 4 4 0 4 12 8 0 30 34
Nghost:        3879.07 ave        5424 max         232 min
Histogram: 8 0 8 0 16 0 8 8 16 40
Neighs:        79213.3 ave      115268 max           0 min
Histogram: 8 4 4 0 10 6 8 8 24 32

Total # of neighbors = 8238188
Ave neighs/atom = 28.530422
Neighbor list builds = 0
Dangerous builds = 0
The dot product: 1.16541754544041e-09
Setting atom values ...
  1 settings made for x
  1 settings made for y
  1 settings made for z
Setting up cg style minimization ...
  Unit style    : metal
  Current step  : 4508
Per MPI rank memory allocation (min/avg/max) = 5.441 | 5.816 | 6.074 Mbytes
Step PotEng KinEng TotEng v_fx v_fy v_fz 
    4508   -1152449.3            0   -1152449.3 -0.0031705887 -0.0050600719 0.0090113754 
    4689   -1152449.3            0   -1152449.3 9.628508e-06 8.1672481e-06 -1.4918234e-05 
Loop time of 2.12174 on 104 procs for 181 steps with 288751 atoms

99.9% CPU use with 104 MPI tasks x 1 OpenMP threads

Minimization stats:
  Stopping criterion = energy tolerance
  Energy initial, next-to-last, final = 
     -1152449.30955823  -1152449.31041528  -1152449.31041528
  Force two-norm initial, final = 0.12270049 0.00012030546
  Force max component initial, final = 0.051454044 1.4918234e-05
  Final line search alpha, max atom move = 1.0000000 1.4918234e-05
  Iterations, force evaluations = 181 362

MPI task timing breakdown:
Section |  min time  |  avg time  |  max time  |%varavg| %total
---------------------------------------------------------------
Pair    | 0.54955    | 1.5192     | 1.9806     |  33.3 | 71.60
Neigh   | 0          | 0          | 0          |   0.0 |  0.00
Comm    | 0.032511   | 0.3422     | 1.019      |  48.8 | 16.13
Output  | 0          | 0          | 0          |   0.0 |  0.00
Modify  | 2.2819e-05 | 0.0030018  | 0.0063643  |   2.6 |  0.14
Other   |            | 0.2573     |            |       | 12.13

Nlocal:        2776.45 ave        3951 max           0 min
Histogram: 8 4 4 0 4 12 8 0 30 34
Nghost:        3879.07 ave        5424 max         232 min
Histogram: 8 0 8 0 16 0 8 8 16 40
Neighs:        79213.4 ave      115132 max           0 min
Histogram: 8 4 4 0 10 6 8 8 24 32

Total # of neighbors = 8238189
Ave neighs/atom = 28.530426
Neighbor list builds = 0
Dangerous builds = 0
The dot product: -5.9236111701863e-09
Setting atom values ...
  1 settings made for x
  1 settings made for y
  1 settings made for z
Setting up cg style minimization ...
  Unit style    : metal
  Current step  : 4689
Per MPI rank memory allocation (min/avg/max) = 5.441 | 5.816 | 6.074 Mbytes
Step PotEng KinEng TotEng v_fx v_fy v_fz 
    4689   -1152449.3            0   -1152449.3 -0.0051705097 -0.0045118964  0.008241322 
    4867   -1152449.3            0   -1152449.3 -1.3352723e-05 -9.8276586e-06 1.812539e-05 
Loop time of 2.11866 on 104 procs for 178 steps with 288751 atoms

99.9% CPU use with 104 MPI tasks x 1 OpenMP threads

Minimization stats:
  Stopping criterion = energy tolerance
  Energy initial, next-to-last, final = 
     -1152449.29800779  -1152449.29887099  -1152449.29887099
  Force two-norm initial, final = 0.12336369 0.00013672882
  Force max component initial, final = 0.051301796 1.8125390e-05
  Final line search alpha, max atom move = 1.0000000 1.8125390e-05
  Iterations, force evaluations = 178 356

MPI task timing breakdown:
Section |  min time  |  avg time  |  max time  |%varavg| %total
---------------------------------------------------------------
Pair    | 0.54871    | 1.5168     | 1.9748     |  33.0 | 71.59
Neigh   | 0          | 0          | 0          |   0.0 |  0.00
Comm    | 0.03764    | 0.34202    | 1.0125     |  48.1 | 16.14
Output  | 0          | 0          | 0          |   0.0 |  0.00
Modify  | 2.2417e-05 | 0.0029341  | 0.006254   |   2.6 |  0.14
Other   |            | 0.2569     |            |       | 12.13

Nlocal:        2776.45 ave        3949 max           0 min
Histogram: 8 4 4 0 4 12 8 0 28 36
Nghost:        3879.14 ave        5425 max         232 min
Histogram: 8 0 8 0 16 0 8 8 16 40
Neighs:        79213.4 ave      115074 max           0 min
Histogram: 8 4 4 0 10 6 8 8 24 32

Total # of neighbors = 8238189
Ave neighs/atom = 28.530426
Neighbor list builds = 0
Dangerous builds = 0
The dot product: 9.47511756935598e-09
Setting atom values ...
  1 settings made for x
  1 settings made for y
  1 settings made for z
Setting up cg style minimization ...
  Unit style    : metal
  Current step  : 4867
Per MPI rank memory allocation (min/avg/max) = 5.441 | 5.816 | 6.074 Mbytes
Step PotEng KinEng TotEng v_fx v_fy v_fz 
    4867   -1152449.3            0   -1152449.3 -0.0075136776 -0.004292806 0.0080746247 
    5000   -1152449.3            0   -1152449.3 5.6897476e-05 -4.9431727e-05 8.0842978e-05 
    5034   -1152449.3            0   -1152449.3 6.9115407e-06 3.1142919e-05 -5.4550918e-05 
Loop time of 1.93608 on 104 procs for 167 steps with 288751 atoms

99.9% CPU use with 104 MPI tasks x 1 OpenMP threads

Minimization stats:
  Stopping criterion = energy tolerance
  Energy initial, next-to-last, final = 
     -1152449.28495022  -1152449.28581541  -1152449.28581541
  Force two-norm initial, final = 0.12402862 0.0002205063
  Force max component initial, final = 0.051091466 5.4550918e-05
  Final line search alpha, max atom move = 1.0000000 5.4550918e-05
  Iterations, force evaluations = 167 334

MPI task timing breakdown:
Section |  min time  |  avg time  |  max time  |%varavg| %total
---------------------------------------------------------------
Pair    | 0.50672    | 1.4066     | 1.8202     |  32.0 | 72.65
Neigh   | 0          | 0          | 0          |   0.0 |  0.00
Comm    | 0.030926   | 0.31301    | 0.94425    |  47.7 | 16.17
Output  | 0.00014318 | 0.0001528  | 0.00028753 |   0.0 |  0.01
Modify  | 2.2538e-05 | 0.0027571  | 0.0058598  |   2.5 |  0.14
Other   |            | 0.2136     |            |       | 11.03

Nlocal:        2776.45 ave        3945 max           0 min
Histogram: 8 4 4 0 4 12 8 0 28 36
Nghost:        3879.14 ave        5425 max         232 min
Histogram: 8 0 8 0 16 0 8 8 16 40
Neighs:        79213.3 ave      114926 max           0 min
Histogram: 8 4 4 0 10 6 8 8 22 34

Total # of neighbors = 8238187
Ave neighs/atom = 28.530419
Neighbor list builds = 0
Dangerous builds = 0
The dot product: -2.40356494613917e-08
Setting atom values ...
  1 settings made for x
  1 settings made for y
  1 settings made for z
Setting up cg style minimization ...
  Unit style    : metal
  Current step  : 5034
Per MPI rank memory allocation (min/avg/max) = 5.441 | 5.816 | 6.074 Mbytes
Step PotEng KinEng TotEng v_fx v_fy v_fz 
    5034   -1152449.3            0   -1152449.3 -0.010048598 -0.0045175225 0.0087068908 
    5249   -1152449.3            0   -1152449.3 -5.3175701e-06 2.8537661e-06 -4.4922917e-06 
Loop time of 2.49452 on 104 procs for 215 steps with 288751 atoms

99.9% CPU use with 104 MPI tasks x 1 OpenMP threads

Minimization stats:
  Stopping criterion = energy tolerance
  Energy initial, next-to-last, final = 
     -1152449.27038333  -1152449.27124344  -1152449.27124344
  Force two-norm initial, final = 0.12457238 3.6621016e-05
  Force max component initial, final = 0.050957401 5.7225230e-06
  Final line search alpha, max atom move = 1.0000000 5.7225230e-06
  Iterations, force evaluations = 215 430

MPI task timing breakdown:
Section |  min time  |  avg time  |  max time  |%varavg| %total
---------------------------------------------------------------
Pair    | 0.65122    | 1.8104     | 2.3418     |  36.2 | 72.57
Neigh   | 0          | 0          | 0          |   0.0 |  0.00
Comm    | 0.043537   | 0.40278    | 1.2244     |  53.7 | 16.15
Output  | 0          | 0          | 0          |   0.0 |  0.00
Modify  | 2.7116e-05 | 0.003549   | 0.0075074  |   2.8 |  0.14
Other   |            | 0.2778     |            |       | 11.14

Nlocal:        2776.45 ave        3942 max           0 min
Histogram: 8 4 4 0 4 12 8 0 28 36
Nghost:        3879.14 ave        5425 max         232 min
Histogram: 8 0 8 0 16 0 8 8 16 40
Neighs:        79213.3 ave      114835 max           0 min
Histogram: 8 4 4 0 10 6 8 8 22 34

Total # of neighbors = 8238186
Ave neighs/atom = 28.530415
Neighbor list builds = 0
Dangerous builds = 0
The dot product: 1.08145910828856e-09
Setting atom values ...
  1 settings made for x
  1 settings made for y
  1 settings made for z
Setting up cg style minimization ...
  Unit style    : metal
  Current step  : 5249
Per MPI rank memory allocation (min/avg/max) = 5.441 | 5.816 | 6.074 Mbytes
Step PotEng KinEng TotEng v_fx v_fy v_fz 
    5249   -1152449.3            0   -1152449.3 -0.012739343 -0.0055461192  0.010773016 
    5441   -1152449.3            0   -1152449.3 -3.5071762e-06 -6.5467013e-06 1.1692324e-05 
Loop time of 2.21648 on 104 procs for 192 steps with 288751 atoms

99.9% CPU use with 104 MPI tasks x 1 OpenMP threads

Minimization stats:
  Stopping criterion = energy tolerance
  Energy initial, next-to-last, final = 
      -1152449.2543348  -1152449.25518153  -1152449.25518153
  Force two-norm initial, final = 0.12516153 9.2448413e-05
  Force max component initial, final = 0.050774963 1.7430536e-05
  Final line search alpha, max atom move = 1.0000000 1.7430536e-05
  Iterations, force evaluations = 192 384

MPI task timing breakdown:
Section |  min time  |  avg time  |  max time  |%varavg| %total
---------------------------------------------------------------
Pair    | 0.58537    | 1.6132     | 2.0879     |  34.2 | 72.78
Neigh   | 0          | 0          | 0          |   0.0 |  0.00
Comm    | 0.034072   | 0.35876    | 1.0866     |  51.1 | 16.19
Output  | 0          | 0          | 0          |   0.0 |  0.00
Modify  | 2.3759e-05 | 0.0031574  | 0.0067267  |   2.7 |  0.14
Other   |            | 0.2413     |            |       | 10.89

Nlocal:        2776.45 ave        3936 max           0 min
Histogram: 8 4 4 0 4 12 8 0 28 36
Nghost:        3879.14 ave        5425 max         232 min
Histogram: 8 0 8 0 16 0 8 8 16 40
Neighs:        79213.3 ave      114654 max           0 min
Histogram: 8 4 4 0 8 8 8 8 22 34

Total # of neighbors = 8238187
Ave neighs/atom = 28.530419
Neighbor list builds = 0
Dangerous builds = 0
The dot product: 1.50069059389765e-08
Setting atom values ...
  1 settings made for x
  1 settings made for y
  1 settings made for z
Setting up cg style minimization ...
  Unit style    : metal
  Current step  : 5441
Per MPI rank memory allocation (min/avg/max) = 5.441 | 5.816 | 6.074 Mbytes
Step PotEng KinEng TotEng v_fx v_fy v_fz 
    5441   -1152449.2            0   -1152449.2 -0.015664829 -0.007736895  0.014936336 
    5654   -1152449.2            0   -1152449.2 5.2568886e-06 3.6441908e-06 -6.8400415e-06 
Loop time of 2.46508 on 104 procs for 213 steps with 288751 atoms

99.9% CPU use with 104 MPI tasks x 1 OpenMP threads

Minimization stats:
  Stopping criterion = energy tolerance
  Energy initial, next-to-last, final = 
     -1152449.23689163  -1152449.23772809  -1152449.23772809
  Force two-norm initial, final = 0.12646297 3.8194731e-05
  Force max component initial, final = 0.0506768 9.0898201e-06
  Final line search alpha, max atom move = 1.0000000 9.0898201e-06
  Iterations, force evaluations = 213 426

MPI task timing breakdown:
Section |  min time  |  avg time  |  max time  |%varavg| %total
---------------------------------------------------------------
Pair    | 0.64688    | 1.7933     | 2.3217     |  36.0 | 72.75
Neigh   | 0          | 0          | 0          |   0.0 |  0.00
Comm    | 0.042314   | 0.39775    | 1.2014     |  53.4 | 16.14
Output  | 0          | 0          | 0          |   0.0 |  0.00
Modify  | 2.7304e-05 | 0.0035098  | 0.007434   |   2.8 |  0.14
Other   |            | 0.2705     |            |       | 10.97

Nlocal:        2776.45 ave        3930 max           0 min
Histogram: 8 4 4 0 4 12 8 0 26 38
Nghost:        3879.12 ave        5425 max         232 min
Histogram: 8 0 8 0 16 0 8 8 16 40
Neighs:        79213.3 ave      114476 max           0 min
Histogram: 8 4 4 0 8 8 8 8 20 36

Total # of neighbors = 8238185
Ave neighs/atom = 28.530412
Neighbor list builds = 0
Dangerous builds = 0
The dot product: -2.04577915261112e-08
Setting atom values ...
  1 settings made for x
  1 settings made for y
  1 settings made for z
Setting up cg style minimization ...
  Unit style    : metal
  Current step  : 5654
Per MPI rank memory allocation (min/avg/max) = 5.441 | 5.816 | 6.074 Mbytes
Step PotEng KinEng TotEng v_fx v_fy v_fz 
    5654   -1152449.2            0   -1152449.2 -0.018870932 -0.011866149  0.022654697 
    5914   -1152449.2            0   -1152449.2 -5.7588808e-07 6.2549728e-06 -1.0929397e-05 
Loop time of 2.97677 on 104 procs for 260 steps with 288751 atoms

99.9% CPU use with 104 MPI tasks x 1 OpenMP threads

Minimization stats:
  Stopping criterion = energy tolerance
  Energy initial, next-to-last, final = 
     -1152449.21829844  -1152449.24984729  -1152449.24984729
  Force two-norm initial, final = 0.13076143 7.0607255e-05
  Force max component initial, final = 0.05089032 1.0929397e-05
  Final line search alpha, max atom move = 1.0000000 1.0929397e-05
  Iterations, force evaluations = 260 518

MPI task timing breakdown:
Section |  min time  |  avg time  |  max time  |%varavg| %total
---------------------------------------------------------------
Pair    | 0.79128    | 2.1675     | 2.8001     |  39.5 | 72.81
Neigh   | 1.0552e-05 | 0.0029564  | 0.0042716  |   2.2 |  0.10
Comm    | 0.045012   | 0.48072    | 1.4571     |  59.1 | 16.15
Output  | 0          | 0          | 0          |   0.0 |  0.00
Modify  | 3.2389e-05 | 0.004265   | 0.0090595  |   3.1 |  0.14
Other   |            | 0.3213     |            |       | 10.79

Nlocal:        2776.45 ave        3930 max           0 min
Histogram: 8 4 4 0 4 12 8 0 26 38
Nghost:        3879.11 ave        5425 max         232 min
Histogram: 8 0 8 0 16 0 8 8 16 40
Neighs:        79213.3 ave      114471 max           0 min
Histogram: 8 4 4 0 8 8 8 8 20 36

Total # of neighbors = 8238182
Ave neighs/atom = 28.530402
Neighbor list builds = 1
Dangerous builds = 0
The dot product: -1.04099899896204e-06
Setting atom values ...
  1 settings made for x
  1 settings made for y
  1 settings made for z
Setting up cg style minimization ...
  Unit style    : metal
  Current step  : 5914
Per MPI rank memory allocation (min/avg/max) = 5.441 | 5.816 | 6.074 Mbytes
Step PotEng KinEng TotEng v_fx v_fy v_fz 
    5914   -1152449.2            0   -1152449.2 -0.044326985 -0.0072152502  0.023906461 
    6000   -1152449.2            0   -1152449.2 -0.00024133298 -0.000358558 0.0009051044 
    6139   -1152449.2            0   -1152449.2 9.2716759e-06 1.7253769e-06 -5.5251586e-06 
Loop time of 2.63084 on 104 procs for 225 steps with 288751 atoms

99.9% CPU use with 104 MPI tasks x 1 OpenMP threads

Minimization stats:
  Stopping criterion = energy tolerance
  Energy initial, next-to-last, final = 
     -1152449.24547948  -1152449.24943221  -1152449.24943221
  Force two-norm initial, final = 0.15133812 0.00010875874
  Force max component initial, final = 0.066569213 1.7441395e-05
  Final line search alpha, max atom move = 1.0000000 1.7441395e-05
  Iterations, force evaluations = 225 450

MPI task timing breakdown:
Section |  min time  |  avg time  |  max time  |%varavg| %total
---------------------------------------------------------------
Pair    | 0.67873    | 1.8984     | 2.4613     |  37.2 | 72.16
Neigh   | 0          | 0          | 0          |   0.0 |  0.00
Comm    | 0.05292    | 0.42467    | 1.2897     |  54.9 | 16.14
Output  | 9.4129e-05 | 0.00010063 | 0.00022997 |   0.0 |  0.00
Modify  | 2.8039e-05 | 0.0037107  | 0.0078753  |   2.9 |  0.14
Other   |            | 0.304      |            |       | 11.56

Nlocal:        2776.45 ave        3958 max           0 min
Histogram: 8 4 4 0 4 12 8 2 28 34
Nghost:        3879.03 ave        5424 max         232 min
Histogram: 8 0 8 0 16 0 8 8 16 40
Neighs:        79213.3 ave      115359 max           0 min
Histogram: 8 4 4 0 10 6 8 8 24 32

Total # of neighbors = 8238183
Ave neighs/atom = 28.530405
Neighbor list builds = 0
Dangerous builds = 0
The dot product: -6.293804988694e-07
Setting atom values ...
  1 settings made for x
  1 settings made for y
  1 settings made for z
Setting up cg style minimization ...
  Unit style    : metal
  Current step  : 6139
Per MPI rank memory allocation (min/avg/max) = 5.441 | 5.816 | 6.074 Mbytes
Step PotEng KinEng TotEng v_fx v_fy v_fz 
    6139   -1152449.3            0   -1152449.3 -0.039516201 0.0064343392 -0.0020319494 
    6351   -1152449.3            0   -1152449.3 -1.4151128e-06 3.2687553e-06 -8.2255196e-06 
Loop time of 2.46902 on 104 procs for 212 steps with 288751 atoms

99.9% CPU use with 104 MPI tasks x 1 OpenMP threads

Minimization stats:
  Stopping criterion = energy tolerance
  Energy initial, next-to-last, final = 
     -1152449.25060617  -1152449.25241263  -1152449.25241263
  Force two-norm initial, final = 0.15322558 4.0790721e-05
  Force max component initial, final = 0.068375316 1.1241943e-05
  Final line search alpha, max atom move = 1.0000000 1.1241943e-05
  Iterations, force evaluations = 212 424

MPI task timing breakdown:
Section |  min time  |  avg time  |  max time  |%varavg| %total
---------------------------------------------------------------
Pair    | 0.64133    | 1.7786     | 2.326      |  36.0 | 72.04
Neigh   | 0          | 0          | 0          |   0.0 |  0.00
Comm    | 0.038833   | 0.39876    | 1.1986     |  53.3 | 16.15
Output  | 0          | 0          | 0          |   0.0 |  0.00
Modify  | 2.6878e-05 | 0.0034962  | 0.0074371  |   2.8 |  0.14
Other   |            | 0.2881     |            |       | 11.67

Nlocal:        2776.45 ave        3961 max           0 min
Histogram: 8 4 4 0 6 10 8 2 28 34
Nghost:        3879.03 ave        5424 max         232 min
Histogram: 8 0 8 0 16 0 8 8 16 40
Neighs:        79213.3 ave      115468 max           0 min
Histogram: 8 4 4 0 10 6 8 8 24 32

Total # of neighbors = 8238186
Ave neighs/atom = 28.530415
Neighbor list builds = 0
Dangerous builds = 0
The dot product: -4.75009165549119e-08
Setting atom values ...
  1 settings made for x
  1 settings made for y
  1 settings made for z
Setting up cg style minimization ...
  Unit style    : metal
  Current step  : 6351
Per MPI rank memory allocation (min/avg/max) = 5.441 | 5.816 | 6.074 Mbytes
Step PotEng KinEng TotEng v_fx v_fy v_fz 
    6351   -1152449.3            0   -1152449.3 -0.050423209  0.012682129 -0.013453522 
    6439   -1152449.3            0   -1152449.3 1.2761248e-05 6.590968e-06 -2.3679662e-05 
Loop time of 1.02871 on 104 procs for 88 steps with 288751 atoms

99.9% CPU use with 104 MPI tasks x 1 OpenMP threads

Minimization stats:
  Stopping criterion = energy tolerance
  Energy initial, next-to-last, final = 
     -1152449.25447525  -1152449.25567167  -1152449.25567167
  Force two-norm initial, final = 0.15243029 0.00019189819
  Force max component initial, final = 0.068596607 2.3965013e-05
  Final line search alpha, max atom move = 1.0000000 2.3965013e-05
  Iterations, force evaluations = 88 176

MPI task timing breakdown:
Section |  min time  |  avg time  |  max time  |%varavg| %total
---------------------------------------------------------------
Pair    | 0.26679    | 0.7456     | 0.97153    |  23.3 | 72.48
Neigh   | 0          | 0          | 0          |   0.0 |  0.00
Comm    | 0.016136   | 0.16553    | 0.50108    |  34.6 | 16.09
Output  | 0          | 0          | 0          |   0.0 |  0.00
Modify  | 1.1031e-05 | 0.0014569  | 0.003124   |   1.8 |  0.14
Other   |            | 0.1161     |            |       | 11.29

Nlocal:        2776.45 ave        3961 max           0 min
Histogram: 8 4 4 0 6 10 8 2 28 34
Nghost:        3879.03 ave        5424 max         232 min
Histogram: 8 0 8 0 16 0 8 8 16 40
Neighs:        79213.3 ave      115468 max           0 min
Histogram: 8 4 4 0 10 6 8 8 24 32

Total # of neighbors = 8238182
Ave neighs/atom = 28.530402
Neighbor list builds = 0
Dangerous builds = 0
The dot product: -1.65538783039485e-07
Setting atom values ...
  1 settings made for x
  1 settings made for y
  1 settings made for z
Setting up cg style minimization ...
  Unit style    : metal
  Current step  : 6439
Per MPI rank memory allocation (min/avg/max) = 5.441 | 5.816 | 6.074 Mbytes
Step PotEng KinEng TotEng v_fx v_fy v_fz 
    6439   -1152449.3            0   -1152449.3 -0.057338251  0.017198854 -0.020839268 
    6670   -1152449.3            0   -1152449.3 -7.2935048e-06 -1.8904393e-05 5.6072739e-05 
Loop time of 2.67485 on 104 procs for 231 steps with 288751 atoms

99.9% CPU use with 104 MPI tasks x 1 OpenMP threads

Minimization stats:
  Stopping criterion = energy tolerance
  Energy initial, next-to-last, final = 
      -1152449.2570831  -1152449.29835227  -1152449.29835227
  Force two-norm initial, final = 0.15806068 0.00019916061
  Force max component initial, final = 0.06766561 5.6072739e-05
  Final line search alpha, max atom move = 1.0000000 5.6072739e-05
  Iterations, force evaluations = 231 461

MPI task timing breakdown:
Section |  min time  |  avg time  |  max time  |%varavg| %total
---------------------------------------------------------------
Pair    | 0.69989    | 1.9347     | 2.5158     |  37.5 | 72.33
Neigh   | 1.0416e-05 | 0.0029741  | 0.0043304  |   2.2 |  0.11
Comm    | 0.041635   | 0.43273    | 1.3056     |  55.7 | 16.18
Output  | 0          | 0          | 0          |   0.0 |  0.00
Modify  | 2.9513e-05 | 0.0037959  | 0.0080929  |   2.9 |  0.14
Other   |            | 0.3007     |            |       | 11.24

Nlocal:        2776.45 ave        3961 max           0 min
Histogram: 8 4 4 0 6 10 8 2 28 34
Nghost:        3879.03 ave        5424 max         232 min
Histogram: 8 0 8 0 16 0 8 8 16 40
Neighs:        79213.4 ave      115466 max           0 min
Histogram: 8 4 4 0 10 6 8 8 24 32

Total # of neighbors = 8238193
Ave neighs/atom = 28.530440
Neighbor list builds = 1
Dangerous builds = 0
The dot product: 2.16099812035313e-06
Setting atom values ...
  1 settings made for x
  1 settings made for y
  1 settings made for z
Setting up cg style minimization ...
  Unit style    : metal
  Current step  : 6670
Per MPI rank memory allocation (min/avg/max) = 5.441 | 5.816 | 6.074 Mbytes
Step PotEng KinEng TotEng v_fx v_fy v_fz 
    6670   -1152449.3            0   -1152449.3  0.063736098 -0.0040588746 -0.058337081 
    6868   -1152449.3            0   -1152449.3 2.4009084e-06 1.6445812e-05 -5.2921351e-05 
Loop time of 2.3128 on 104 procs for 198 steps with 288751 atoms

99.9% CPU use with 104 MPI tasks x 1 OpenMP threads

Minimization stats:
  Stopping criterion = energy tolerance
  Energy initial, next-to-last, final = 
     -1152449.30957014  -1152449.31181728  -1152449.31181728
  Force two-norm initial, final = 0.16189382 0.00014598878
  Force max component initial, final = 0.063736098 5.2921351e-05
  Final line search alpha, max atom move = 1.0000000 5.2921351e-05
  Iterations, force evaluations = 198 396

MPI task timing breakdown:
Section |  min time  |  avg time  |  max time  |%varavg| %total
---------------------------------------------------------------
Pair    | 0.59894    | 1.668      | 2.1829     |  34.9 | 72.12
Neigh   | 0          | 0          | 0          |   0.0 |  0.00
Comm    | 0.039908   | 0.37354    | 1.116      |  51.2 | 16.15
Output  | 0          | 0          | 0          |   0.0 |  0.00
Modify  | 2.513e-05  | 0.0032595  | 0.0069505  |   2.7 |  0.14
Other   |            | 0.268      |            |       | 11.59

Nlocal:        2776.45 ave        3960 max           0 min
Histogram: 8 4 4 0 4 12 8 4 26 34
Nghost:        3879.03 ave        5424 max         232 min
Histogram: 8 0 8 0 16 0 8 8 16 40
Neighs:        79213.4 ave      115435 max           0 min
Histogram: 8 4 4 0 10 6 8 8 24 32

Total # of neighbors = 8238197
Ave neighs/atom = 28.530454
Neighbor list builds = 0
Dangerous builds = 0
The dot product: 2.93327997308166e-07
Setting atom values ...
  1 settings made for x
  1 settings made for y
  1 settings made for z
Setting up cg style minimization ...
  Unit style    : metal
  Current step  : 6868
Per MPI rank memory allocation (min/avg/max) = 5.441 | 5.816 | 6.074 Mbytes
Step PotEng KinEng TotEng v_fx v_fy v_fz 
    6868   -1152449.3            0   -1152449.3 -0.064367084  0.030333234 -0.027267571 
    7000   -1152449.3            0   -1152449.3 -2.8992636e-05 1.9468067e-05 -2.9680134e-05 
    7070   -1152449.3            0   -1152449.3 -2.4505864e-06 4.3787068e-06 -1.0700028e-05 
Loop time of 2.34558 on 104 procs for 202 steps with 288751 atoms

99.9% CPU use with 104 MPI tasks x 1 OpenMP threads

Minimization stats:
  Stopping criterion = energy tolerance
  Energy initial, next-to-last, final = 
     -1152449.32106955  -1152449.32231408  -1152449.32231408
  Force two-norm initial, final = 0.16166736 6.1427513e-05
  Force max component initial, final = 0.064367084 1.0700028e-05
  Final line search alpha, max atom move = 1.0000000 1.0700028e-05
  Iterations, force evaluations = 202 404

MPI task timing breakdown:
Section |  min time  |  avg time  |  max time  |%varavg| %total
---------------------------------------------------------------
Pair    | 0.60754    | 1.6954     | 2.2063     |  35.3 | 72.28
Neigh   | 0          | 0          | 0          |   0.0 |  0.00
Comm    | 0.035361   | 0.38138    | 1.1468     |  52.0 | 16.26
Output  | 9.6058e-05 | 0.00010678 | 0.00024558 |   0.0 |  0.00
Modify  | 2.5271e-05 | 0.0033311  | 0.0071177  |   2.7 |  0.14
Other   |            | 0.2653     |            |       | 11.31

Nlocal:        2776.45 ave        3961 max           0 min
Histogram: 8 4 4 0 6 10 8 4 26 34
Nghost:        3879.07 ave        5424 max         232 min
Histogram: 8 0 8 0 16 0 8 8 16 40
Neighs:        79213.4 ave      115470 max           0 min
Histogram: 8 4 4 0 10 6 8 8 24 32

Total # of neighbors = 8238195
Ave neighs/atom = 28.530447
Neighbor list builds = 0
Dangerous builds = 0
The dot product: 3.80399589700837e-08
Setting atom values ...
  1 settings made for x
  1 settings made for y
  1 settings made for z
Setting up cg style minimization ...
  Unit style    : metal
  Current step  : 7070
Per MPI rank memory allocation (min/avg/max) = 5.441 | 5.816 | 6.074 Mbytes
Step PotEng KinEng TotEng v_fx v_fy v_fz 
    7070   -1152449.3            0   -1152449.3 -0.047044264  0.026550794 -0.031387749 
    7248   -1152449.3            0   -1152449.3 -2.8797223e-06 6.0933452e-06 -1.5205666e-05 
Loop time of 2.09325 on 104 procs for 178 steps with 288751 atoms

99.9% CPU use with 104 MPI tasks x 1 OpenMP threads

Minimization stats:
  Stopping criterion = energy tolerance
  Energy initial, next-to-last, final = 
      -1152449.3299956  -1152449.33118181  -1152449.33118181
  Force two-norm initial, final = 0.15665546 0.00013741754
  Force max component initial, final = 0.056545397 2.3196398e-05
  Final line search alpha, max atom move = 1.0000000 2.3196398e-05
  Iterations, force evaluations = 178 356

MPI task timing breakdown:
Section |  min time  |  avg time  |  max time  |%varavg| %total
---------------------------------------------------------------
Pair    | 0.5403     | 1.5047     | 1.9612     |  33.1 | 71.88
Neigh   | 0          | 0          | 0          |   0.0 |  0.00
Comm    | 0.033317   | 0.33953    | 1.0174     |  48.4 | 16.22
Output  | 0          | 0          | 0          |   0.0 |  0.00
Modify  | 2.2457e-05 | 0.0029416  | 0.0062822  |   2.6 |  0.14
Other   |            | 0.2461     |            |       | 11.76

Nlocal:        2776.45 ave        3961 max           0 min
Histogram: 8 4 4 0 6 10 8 4 26 34
Nghost:        3879.05 ave        5424 max         232 min
Histogram: 8 0 8 0 16 0 8 8 16 40
Neighs:        79213.4 ave      115469 max           0 min
Histogram: 8 4 4 0 10 6 8 8 24 32

Total # of neighbors = 8238197
Ave neighs/atom = 28.530454
Neighbor list builds = 0
Dangerous builds = 0
The dot product: 4.15990222064243e-08
Setting atom values ...
  1 settings made for x
  1 settings made for y
  1 settings made for z
Setting up cg style minimization ...
  Unit style    : metal
  Current step  : 7248
Per MPI rank memory allocation (min/avg/max) = 5.441 | 5.816 | 6.074 Mbytes
Step PotEng KinEng TotEng v_fx v_fy v_fz 
    7248   -1152449.3            0   -1152449.3 -0.051129191  0.028060524 -0.030897329 
    7405   -1152449.3            0   -1152449.3 2.3113855e-05 -1.1683471e-05 1.101585e-05 
[...]
Step PotEng KinEng TotEng v_fx v_fy v_fz 
    2990   -1152449.3            0   -1152449.3 0.00048402713  -0.01127221  0.019098002 
    3000   -1152449.4            0   -1152449.4 0.0015377629 0.00037455338 -0.00077233623 
    3175   -1152449.4            0   -1152449.4 2.1306177e-05 6.3356755e-06 -1.2647144e-05 
Loop time of 2.17206 on 104 procs for 185 steps with 288751 atoms

99.9% CPU use with 104 MPI tasks x 1 OpenMP threads

Minimization stats:
  Stopping criterion = energy tolerance
  Energy initial, next-to-last, final = 
     -1152449.34997235  -1152449.35087635  -1152449.35087635
  Force two-norm initial, final = 0.12520291 0.00010337787
  Force max component initial, final = 0.052880682 3.0370472e-05
  Final line search alpha, max atom move = 1.0000000 3.0370472e-05
  Iterations, force evaluations = 185 370

MPI task timing breakdown:
Section |  min time  |  avg time  |  max time  |%varavg| %total
---------------------------------------------------------------
Pair    | 0.55414    | 1.564      | 2.0442     |  33.9 | 72.01
Neigh   | 0          | 0          | 0          |   0.0 |  0.00
Comm    | 0.034339   | 0.35697    | 1.0819     |  49.0 | 16.43
Output  | 9.4169e-05 | 0.00010385 | 0.00020324 |   0.0 |  0.00
Modify  | 2.3011e-05 | 0.0030492  | 0.0065309  |   2.6 |  0.14
Other   |            | 0.2479     |            |       | 11.41

Nlocal:        2776.45 ave        3961 max           0 min
Histogram: 8 4 4 0 6 10 8 2 28 34
Nghost:        3879.03 ave        5425 max         232 min
Histogram: 8 0 8 0 16 0 8 8 16 40
Neighs:        79213.4 ave      115461 max           0 min
Histogram: 8 4 4 0 10 6 8 8 24 32

Total # of neighbors = 8238193
Ave neighs/atom = 28.530440
Neighbor list builds = 0
Dangerous builds = 0
The dot product: -7.94247142911448e-10
Setting atom values ...
  1 settings made for x
  1 settings made for y
  1 settings made for z
Setting up cg style minimization ...
  Unit style    : metal
  Current step  : 3175
Per MPI rank memory allocation (min/avg/max) = 5.441 | 5.816 | 6.074 Mbytes
Step PotEng KinEng TotEng v_fx v_fy v_fz 
    3175   -1152449.4            0   -1152449.4 0.00068395902 -0.011912623  0.020195955 
    3394   -1152449.4            0   -1152449.4 7.0747514e-06 -2.8275092e-06 4.1841912e-06 
Loop time of 2.57582 on 104 procs for 219 steps with 288751 atoms

99.9% CPU use with 104 MPI tasks x 1 OpenMP threads

Minimization stats:
  Stopping criterion = energy tolerance
  Energy initial, next-to-last, final = 
     -1152449.35067202   -1152449.3515729   -1152449.3515729
  Force two-norm initial, final = 0.12553168 3.4127122e-05
  Force max component initial, final = 0.052558842 7.1054191e-06
  Final line search alpha, max atom move = 1.0000000 7.1054191e-06
  Iterations, force evaluations = 219 438

MPI task timing breakdown:
Section |  min time  |  avg time  |  max time  |%varavg| %total
---------------------------------------------------------------
Pair    | 0.65465    | 1.844      | 2.4193     |  37.0 | 71.59
Neigh   | 0          | 0          | 0          |   0.0 |  0.00
Comm    | 0.049172   | 0.41918    | 1.2321     |  53.2 | 16.27
Output  | 0          | 0          | 0          |   0.0 |  0.00
Modify  | 2.6254e-05 | 0.0036071  | 0.0077073  |   2.8 |  0.14
Other   |            | 0.3091     |            |       | 12.00

Nlocal:        2776.45 ave        3960 max           0 min
Histogram: 8 4 4 0 4 12 8 2 28 34
Nghost:        3879.03 ave        5429 max         232 min
Histogram: 8 0 8 0 16 0 8 8 16 40
Neighs:        79213.4 ave      115429 max           0 min
Histogram: 8 4 4 0 10 6 8 8 24 32

Total # of neighbors = 8238189
Ave neighs/atom = 28.530426
Neighbor list builds = 0
Dangerous builds = 0
The dot product: 3.94643168378847e-09
Setting atom values ...
  1 settings made for x
  1 settings made for y
  1 settings made for z
Setting up cg style minimization ...
  Unit style    : metal
  Current step  : 3394
Per MPI rank memory allocation (min/avg/max) = 5.441 | 5.816 | 6.074 Mbytes
Step PotEng KinEng TotEng v_fx v_fy v_fz 
    3394   -1152449.4            0   -1152449.4   0.00105984 -0.011288732  0.019163921 
    3585   -1152449.4            0   -1152449.4 4.2259462e-06 -2.5235146e-06 3.9353788e-06 
Loop time of 2.24136 on 104 procs for 191 steps with 288751 atoms

99.9% CPU use with 104 MPI tasks x 1 OpenMP threads

Minimization stats:
  Stopping criterion = energy tolerance
  Energy initial, next-to-last, final = 
     -1152449.35004835  -1152449.35094073  -1152449.35094073
  Force two-norm initial, final = 0.12494413 9.2526607e-05
  Force max component initial, final = 0.052403918 1.1286424e-05
  Final line search alpha, max atom move = 1.0000000 1.1286424e-05
  Iterations, force evaluations = 191 382

MPI task timing breakdown:
Section |  min time  |  avg time  |  max time  |%varavg| %total
---------------------------------------------------------------
Pair    | 0.57189    | 1.6206     | 2.1146     |  34.6 | 72.31
Neigh   | 0          | 0          | 0          |   0.0 |  0.00
Comm    | 0.036129   | 0.36711    | 1.1345     |  50.7 | 16.38
Output  | 0          | 0          | 0          |   0.0 |  0.00
Modify  | 2.2794e-05 | 0.0031504  | 0.0067342  |   2.6 |  0.14
Other   |            | 0.2505     |            |       | 11.17

Nlocal:        2776.45 ave        3960 max           0 min
Histogram: 8 4 4 0 4 12 8 2 28 34
Nghost:        3879.03 ave        5424 max         232 min
Histogram: 8 0 8 0 16 0 8 8 16 40
Neighs:        79213.4 ave      115429 max           0 min
Histogram: 8 4 4 0 10 6 8 8 24 32

Total # of neighbors = 8238192
Ave neighs/atom = 28.530436
Neighbor list builds = 0
Dangerous builds = 0
The dot product: 3.45536304444214e-09
Setting atom values ...
  1 settings made for x
  1 settings made for y
  1 settings made for z
Setting up cg style minimization ...
  Unit style    : metal
  Current step  : 3585
Per MPI rank memory allocation (min/avg/max) = 5.441 | 5.816 | 6.074 Mbytes
Step PotEng KinEng TotEng v_fx v_fy v_fz 
    3585   -1152449.3            0   -1152449.3 0.0013843775 -0.010379593  0.017639833 
    3852   -1152449.3            0   -1152449.3 -4.2333436e-08 9.6138004e-08 -1.6083499e-07 
Loop time of 3.10146 on 104 procs for 267 steps with 288751 atoms

99.9% CPU use with 104 MPI tasks x 1 OpenMP threads

Minimization stats:
  Stopping criterion = energy tolerance
  Energy initial, next-to-last, final = 
     -1152449.34807684  -1152449.34895646  -1152449.34895646
  Force two-norm initial, final = 0.12398069 3.3753763e-06
  Force max component initial, final = 0.052274057 6.2410543e-07
  Final line search alpha, max atom move = 1.0000000 6.2410543e-07
  Iterations, force evaluations = 267 534

MPI task timing breakdown:
Section |  min time  |  avg time  |  max time  |%varavg| %total
---------------------------------------------------------------
Pair    | 0.80053    | 2.2457     | 2.9164     |  40.6 | 72.41
Neigh   | 0          | 0          | 0          |   0.0 |  0.00
Comm    | 0.0512     | 0.50508    | 1.5385     |  59.9 | 16.29
Output  | 0          | 0          | 0          |   0.0 |  0.00
Modify  | 3.1426e-05 | 0.0043933  | 0.0094067  |   3.1 |  0.14
Other   |            | 0.3463     |            |       | 11.17

Nlocal:        2776.45 ave        3958 max           0 min
Histogram: 8 4 4 0 4 12 8 2 28 34
Nghost:        3879.03 ave        5424 max         232 min
Histogram: 8 0 8 0 16 0 8 8 16 40
Neighs:        79213.4 ave      115392 max           0 min
Histogram: 8 4 4 0 10 6 8 8 24 32

Total # of neighbors = 8238191
Ave neighs/atom = 28.530433
Neighbor list builds = 0
Dangerous builds = 0
The dot product: -9.83971294903631e-11
Setting up cg style minimization ...
  Unit style    : metal
  Current step  : 3852
Per MPI rank memory allocation (min/avg/max) = 5.441 | 5.816 | 6.074 Mbytes
Step PotEng KinEng TotEng v_fx v_fy v_fz 
    3852   -1152449.3            0   -1152449.3 0.0057962701   0.11482365  0.067109176 
    4000   -1152449.4            0   -1152449.4 -6.6480871e-05 -4.5834019e-05 0.00015661531 
    4038   -1152449.4            0   -1152449.4 -3.8656504e-05 -1.0486594e-05 4.8208311e-05 
Loop time of 2.15956 on 104 procs for 186 steps with 288751 atoms

99.9% CPU use with 104 MPI tasks x 1 OpenMP threads

Minimization stats:
  Stopping criterion = energy tolerance
  Energy initial, next-to-last, final = 
     -1152449.34895646  -1152449.35157341  -1152449.35157341
  Force two-norm initial, final = 0.13312291 0.00022890564
  Force max component initial, final = 0.11482365 5.5307566e-05
  Final line search alpha, max atom move = 1.0000000 5.5307566e-05
  Iterations, force evaluations = 186 372

MPI task timing breakdown:
Section |  min time  |  avg time  |  max time  |%varavg| %total
---------------------------------------------------------------
Pair    | 0.55575    | 1.5718     | 2.0343     |  33.9 | 72.78
Neigh   | 0          | 0          | 0          |   0.0 |  0.00
Comm    | 0.038606   | 0.35009    | 1.0568     |  50.3 | 16.21
Output  | 0.00010616 | 0.00010994 | 0.00033229 |   0.0 |  0.01
Modify  | 2.0546e-05 | 0.0019988  | 0.0051185  |   2.8 |  0.09
Other   |            | 0.2356     |            |       | 10.91

Nlocal:        2776.45 ave        3958 max           0 min
Histogram: 8 4 4 0 4 12 8 2 28 34
Nghost:        3879.03 ave        5424 max         232 min
Histogram: 8 0 8 0 16 0 8 8 16 40
Neighs:        79213.4 ave      115362 max           0 min
Histogram: 8 4 4 0 10 6 8 8 24 32

Total # of neighbors = 8238190
Ave neighs/atom = 28.530429
Neighbor list builds = 0
Dangerous builds = 0
OMP_NUM_THREADS environment is not set. Defaulting to 1 thread. (../comm.cpp:94)
  using 1 OpenMP thread(s) per MPI task
Reading data file ...
  orthogonal box = (-122.39241 -121.13707 -37.090501) to (122.39241 121.13707 37.090501)
  13 by 4 by 2 MPI processor grid
  reading atoms ...
  288751 atoms
  read_data CPU = 0.343 seconds
199981 atoms in group inner
88770 atoms in group outer
1 atoms in group carbon
Neighbor list info ...
  update every 1 steps, delay 0 steps, check yes
  max neighbors/atom: 2000, page size: 100000
  master list distance cutoff = 5.6
  ghost atom cutoff = 5.6
  binsize = 2.8, bins = 88 87 27
  1 neighbor lists, perpetual/occasional/extra = 1 0 0
  (1) pair eam/alloy, perpetual
      attributes: half, newton on
      pair build: half/bin/atomonly/newton
      stencil: half/bin/3d/newton
      bin: standard
Setting up cg style minimization ...
  Unit style    : metal
  Current step  : 0
Per MPI rank memory allocation (min/avg/max) = 5.441 | 5.816 | 6.074 Mbytes
Step v_fx v_fy v_fz PotEng KinEng TotEng 
       0   -1.7589378  -0.80083199    2.6274711   -1152447.8            0   -1152447.8 
     161 -2.0378508e-05 6.3386535e-07 1.013305e-05   -1152449.5            0   -1152449.5 
Loop time of 1.88281 on 104 procs for 161 steps with 288751 atoms

99.9% CPU use with 104 MPI tasks x 1 OpenMP threads

Minimization stats:
  Stopping criterion = energy tolerance
  Energy initial, next-to-last, final = 
     -1152447.77267742  -1152449.45035286  -1152449.45035286
  Force two-norm initial, final = 10.255016 0.0001090943
  Force max component initial, final = 6.2575941 2.0378508e-05
  Final line search alpha, max atom move = 1.0000000 2.0378508e-05
  Iterations, force evaluations = 161 321

MPI task timing breakdown:
Section |  min time  |  avg time  |  max time  |%varavg| %total
---------------------------------------------------------------
Pair    | 0.49102    | 1.354      | 1.7655     |  31.3 | 71.91
Neigh   | 3.018e-05  | 0.0088963  | 0.012933   |   3.9 |  0.47
Comm    | 0.029057   | 0.30704    | 0.91616    |  46.1 | 16.31
Output  | 0          | 0          | 0          |   0.0 |  0.00
Modify  | 1.7496e-05 | 0.0017244  | 0.0044259  |   2.6 |  0.09
Other   |            | 0.2112     |            |       | 11.21

Nlocal:        2776.45 ave        3957 max           0 min
Histogram: 8 4 4 0 4 12 8 2 28 34
Nghost:        3879.03 ave        5424 max         232 min
Histogram: 8 0 8 0 16 0 8 8 16 40
Neighs:        79213.5 ave      115368 max           0 min
Histogram: 8 4 4 0 10 6 8 8 24 32

Total # of neighbors = 8238206
Ave neighs/atom = 28.530485
Neighbor list builds = 3
Dangerous builds = 0
Setting atom values ...
  1 settings made for x
  1 settings made for y
  1 settings made for z
Setting up cg style minimization ...
  Unit style    : metal
  Current step  : 161
Per MPI rank memory allocation (min/avg/max) = 5.441 | 5.816 | 6.074 Mbytes
Step PotEng KinEng TotEng v_fx v_fy v_fz 
     161   -1152449.5            0   -1152449.5 0.0035982939 0.0062295833 -0.00079241679 
     304   -1152449.5            0   -1152449.5 -6.7493592e-06 1.1131127e-06 -1.3348768e-06 
Loop time of 1.67119 on 104 procs for 143 steps with 288751 atoms

99.9% CPU use with 104 MPI tasks x 1 OpenMP threads

Minimization stats:
  Stopping criterion = energy tolerance
  Energy initial, next-to-last, final = 
     -1152449.45007348  -1152449.45025956  -1152449.45025956
  Force two-norm initial, final = 0.062526566 8.0954972e-05
  Force max component initial, final = 0.028142342 6.7493592e-06
  Final line search alpha, max atom move = 1.0000000 6.7493592e-06
  Iterations, force evaluations = 143 286

MPI task timing breakdown:
Section |  min time  |  avg time  |  max time  |%varavg| %total
---------------------------------------------------------------
Pair    | 0.42665    | 1.2018     | 1.5771     |  29.8 | 71.91
Neigh   | 0          | 0          | 0          |   0.0 |  0.00
Comm    | 0.026568   | 0.2745     | 0.82513    |  43.1 | 16.43
Output  | 0          | 0          | 0          |   0.0 |  0.00
Modify  | 1.672e-05  | 0.0023553  | 0.0050618  |   2.3 |  0.14
Other   |            | 0.1925     |            |       | 11.52

Nlocal:        2776.45 ave        3958 max           0 min
Histogram: 8 4 4 0 4 12 8 2 28 34
Nghost:        3879.03 ave        5424 max         232 min
Histogram: 8 0 8 0 16 0 8 8 16 40
Neighs:        79213.4 ave      115370 max           0 min
Histogram: 8 4 4 0 10 6 8 8 24 32

Total # of neighbors = 8238197
Ave neighs/atom = 28.530454
Neighbor list builds = 0
Dangerous builds = 0
Setting atom values ...
  1 settings made for x
  1 settings made for y
  1 settings made for z
Setting up cg style minimization ...
  Unit style    : metal
  Current step  : 304
Per MPI rank memory allocation (min/avg/max) = 5.441 | 5.816 | 6.074 Mbytes
Step PotEng KinEng TotEng v_fx v_fy v_fz 
     304   -1152449.4            0   -1152449.4  0.012670222  0.026369326 -0.0038794604 
     516   -1152449.4            0   -1152449.4 1.9587118e-06 8.0307591e-07 1.5081672e-07 
Loop time of 2.4855 on 104 procs for 212 steps with 288751 atoms

99.9% CPU use with 104 MPI tasks x 1 OpenMP threads

Minimization stats:
  Stopping criterion = energy tolerance
  Energy initial, next-to-last, final = 
     -1152449.44650359  -1152449.44860209  -1152449.44860209
  Force two-norm initial, final = 0.21204932 3.9442500e-05
  Force max component initial, final = 0.098139736 2.9642436e-06
  Final line search alpha, max atom move = 1.0000000 2.9642436e-06
  Iterations, force evaluations = 212 424

MPI task timing breakdown:
Section |  min time  |  avg time  |  max time  |%varavg| %total
---------------------------------------------------------------
Pair    | 0.63557    | 1.7863     | 2.3284     |  36.3 | 71.87
Neigh   | 0          | 0          | 0          |   0.0 |  0.00
Comm    | 0.0412     | 0.40983    | 1.2286     |  52.6 | 16.49
Output  | 0          | 0          | 0          |   0.0 |  0.00
Modify  | 2.4489e-05 | 0.0034902  | 0.0074946  |   2.8 |  0.14
Other   |            | 0.2859     |            |       | 11.50

Nlocal:        2776.45 ave        3958 max           0 min
Histogram: 8 4 4 0 4 12 8 2 28 34
Nghost:        3879.03 ave        5424 max         232 min
Histogram: 8 0 8 0 16 0 8 8 16 40
Neighs:        79213.4 ave      115370 max           0 min
Histogram: 8 4 4 0 10 6 8 8 24 32

Total # of neighbors = 8238198
Ave neighs/atom = 28.530457
Neighbor list builds = 0
Dangerous builds = 0
The dot product: 4.78197973635039e-10
Setting atom values ...
  1 settings made for x
  1 settings made for y
  1 settings made for z
Setting up cg style minimization ...
  Unit style    : metal
  Current step  : 516
Per MPI rank memory allocation (min/avg/max) = 5.441 | 5.816 | 6.074 Mbytes
Step PotEng KinEng TotEng v_fx v_fy v_fz 
     516   -1152449.4            0   -1152449.4  0.014427042  0.039273718 -0.0078844186 
     790   -1152449.4            0   -1152449.4 3.8278476e-07 -2.3980175e-10 6.740481e-08 
Loop time of 3.22614 on 104 procs for 274 steps with 288751 atoms

99.9% CPU use with 104 MPI tasks x 1 OpenMP threads

Minimization stats:
  Stopping criterion = energy tolerance
  Energy initial, next-to-last, final = 
     -1152449.44296502  -1152449.44504154  -1152449.44504154
  Force two-norm initial, final = 0.21302525 1.7206407e-06
  Force max component initial, final = 0.099091769 3.8278476e-07
  Final line search alpha, max atom move = 1.0000000 3.8278476e-07
  Iterations, force evaluations = 274 548

MPI task timing breakdown:
Section |  min time  |  avg time  |  max time  |%varavg| %total
---------------------------------------------------------------
Pair    | 0.81709    | 2.3007     | 3.043      |  41.2 | 71.31
Neigh   | 0          | 0          | 0          |   0.0 |  0.00
Comm    | 0.058352   | 0.52661    | 1.572      |  59.3 | 16.32
Output  | 0          | 0          | 0          |   0.0 |  0.00
Modify  | 3.171e-05  | 0.0045063  | 0.0096146  |   3.2 |  0.14
Other   |            | 0.3944     |            |       | 12.22

Nlocal:        2776.45 ave        3958 max           0 min
Histogram: 8 4 4 0 4 12 8 2 28 34
Nghost:        3879.07 ave        5425 max         232 min
Histogram: 8 0 8 0 16 0 8 8 16 40
Neighs:        79213.4 ave      115370 max           0 min
Histogram: 8 4 4 0 10 6 8 8 24 32

Total # of neighbors = 8238198
Ave neighs/atom = 28.530457
Neighbor list builds = 0
Dangerous builds = 0
The dot product: 4.83257889208019e-11
Setting up cg style minimization ...
  Unit style    : metal
  Current step  : 790
Per MPI rank memory allocation (min/avg/max) = 5.441 | 5.816 | 6.074 Mbytes
Step PotEng KinEng TotEng v_fx v_fy v_fz 
     790   -1152449.4            0   -1152449.4  0.037228326 -0.056158095  -0.21161326 
    1000   -1152449.5            0   -1152449.5 -9.7199401e-06 1.7989512e-06 -2.7639726e-05 
    1012   -1152449.5            0   -1152449.5 2.9981125e-06 -2.8011628e-07 -1.4928911e-05 
Loop time of 2.59924 on 104 procs for 222 steps with 288751 atoms

99.9% CPU use with 104 MPI tasks x 1 OpenMP threads

Minimization stats:
  Stopping criterion = energy tolerance
  Energy initial, next-to-last, final = 
     -1152449.44504154  -1152449.45035286  -1152449.45035286
  Force two-norm initial, final = 0.22208073 6.8979617e-05
  Force max component initial, final = 0.21161326 1.4928911e-05
  Final line search alpha, max atom move = 1.0000000 1.4928911e-05
  Iterations, force evaluations = 222 444

MPI task timing breakdown:
Section |  min time  |  avg time  |  max time  |%varavg| %total
---------------------------------------------------------------
Pair    | 0.66402    | 1.8685     | 2.448      |  37.2 | 71.89
Neigh   | 0          | 0          | 0          |   0.0 |  0.00
Comm    | 0.040483   | 0.43035    | 1.3027     |  54.1 | 16.56
Output  | 0.00010706 | 0.00011093 | 0.00030529 |   0.0 |  0.00
Modify  | 2.4246e-05 | 0.0023759  | 0.0060735  |   3.1 |  0.09
Other   |            | 0.2979     |            |       | 11.46

Nlocal:        2776.45 ave        3959 max           0 min
Histogram: 8 4 4 0 4 12 8 2 28 34
Nghost:        3879.14 ave        5424 max         232 min
Histogram: 8 0 8 0 16 0 8 8 16 40
Neighs:        79213.4 ave      115400 max           0 min
Histogram: 8 4 4 0 10 6 8 8 24 32

Total # of neighbors = 8238193
Ave neighs/atom = 28.530440
Neighbor list builds = 0
Dangerous builds = 0
