LAMMPS (29 Oct 2020)
OMP_NUM_THREADS environment is not set. Defaulting to 1 thread. (../comm.cpp:94)
  using 1 OpenMP thread(s) per MPI task
OMP_NUM_THREADS environment is not set. Defaulting to 1 thread. (../comm.cpp:94)
  using 1 OpenMP thread(s) per MPI task
Reading data file ...
  orthogonal box = (-122.39241 -121.13707 -37.090501) to (122.39241 121.13707 37.090501)
  13 by 4 by 2 MPI processor grid
  reading atoms ...
  288751 atoms
  read_data CPU = 0.386 seconds
199981 atoms in group inner
88770 atoms in group outer
1 atoms in group carbon
Neighbor list info ...
  update every 1 steps, delay 0 steps, check yes
  max neighbors/atom: 2000, page size: 100000
  master list distance cutoff = 5.6
  ghost atom cutoff = 5.6
  binsize = 2.8, bins = 88 87 27
  1 neighbor lists, perpetual/occasional/extra = 1 0 0
  (1) pair eam/alloy, perpetual
      attributes: half, newton on
      pair build: half/bin/atomonly/newton
      stencil: half/bin/3d/newton
      bin: standard
Setting up cg style minimization ...
  Unit style    : metal
  Current step  : 0
Per MPI rank memory allocation (min/avg/max) = 5.441 | 5.816 | 6.074 Mbytes
Step v_fx v_fy v_fz PotEng KinEng TotEng 
       0    26.467294   -0.8276313    -7.851745   -1152441.8            0   -1152441.8 
     259 -1.1568445e-05   8.7205e-07 1.3596874e-05     -1152449            0     -1152449 
Loop time of 3.10785 on 104 procs for 259 steps with 288751 atoms

99.8% CPU use with 104 MPI tasks x 1 OpenMP threads

Minimization stats:
  Stopping criterion = energy tolerance
  Energy initial, next-to-last, final = 
      -1152441.7982693    -1152448.972189    -1152448.972189
  Force two-norm initial, final = 45.255373 0.00010582941
  Force max component initial, final = 34.095263 2.2452947e-05
  Final line search alpha, max atom move = 1.0000000 2.2452947e-05
  Iterations, force evaluations = 259 514

MPI task timing breakdown:
Section |  min time  |  avg time  |  max time  |%varavg| %total
---------------------------------------------------------------
Pair    | 0.81447    | 2.1794     | 2.8193     |  39.0 | 70.13
Neigh   | 9.2965e-05 | 0.026319   | 0.038433   |   6.7 |  0.85
Comm    | 0.061728   | 0.50061    | 1.4533     |  56.9 | 16.11
Output  | 0          | 0          | 0          |   0.0 |  0.00
Modify  | 3.2154e-05 | 0.0027783  | 0.0070539  |   3.3 |  0.09
Other   |            | 0.3987     |            |       | 12.83

Nlocal:        2776.45 ave        3954 max           0 min
Histogram: 8 4 4 0 4 12 8 0 30 34
Nghost:        3879.11 ave        5424 max         232 min
Histogram: 8 0 8 0 16 0 8 8 16 40
Neighs:        79213.6 ave      115255 max           0 min
Histogram: 8 4 4 0 10 6 8 8 24 32

Total # of neighbors = 8238217
Ave neighs/atom = 28.530523
Neighbor list builds = 9
Dangerous builds = 0
Setting atom values ...
  1 settings made for x
  1 settings made for y
  1 settings made for z
Setting up cg style minimization ...
  Unit style    : metal
  Current step  : 259
Per MPI rank memory allocation (min/avg/max) = 5.441 | 5.816 | 6.074 Mbytes
Step PotEng KinEng TotEng v_fx v_fy v_fz 
     259     -1152449            0     -1152449 -0.010924704 -0.0092052078 0.0093171509 
     376     -1152449            0     -1152449 5.5545298e-05 -1.292001e-06 -8.851469e-05 
Loop time of 1.38643 on 104 procs for 117 steps with 288751 atoms

99.9% CPU use with 104 MPI tasks x 1 OpenMP threads

Minimization stats:
  Stopping criterion = energy tolerance
  Energy initial, next-to-last, final = 
     -1152448.97163399  -1152448.97204191  -1152448.97204191
  Force two-norm initial, final = 0.085327726 0.00026618214
  Force max component initial, final = 0.041543503 8.8514690e-05
  Final line search alpha, max atom move = 1.0000000 8.8514690e-05
  Iterations, force evaluations = 117 234

MPI task timing breakdown:
Section |  min time  |  avg time  |  max time  |%varavg| %total
---------------------------------------------------------------
Pair    | 0.35558    | 0.99314    | 1.2837     |  26.9 | 71.63
Neigh   | 0          | 0          | 0          |   0.0 |  0.00
Comm    | 0.022484   | 0.22505    | 0.67081    |  39.2 | 16.23
Output  | 0          | 0          | 0          |   0.0 |  0.00
Modify  | 1.498e-05  | 0.001939   | 0.0041303  |   2.1 |  0.14
Other   |            | 0.1663     |            |       | 12.00

Nlocal:        2776.45 ave        3952 max           0 min
Histogram: 8 4 4 0 4 12 8 1 29 34
Nghost:        3879.16 ave        5425 max         232 min
Histogram: 8 0 8 0 16 0 8 8 16 40
Neighs:        79213.5 ave      115181 max           0 min
Histogram: 8 4 4 0 10 6 8 8 24 32

Total # of neighbors = 8238206
Ave neighs/atom = 28.530485
Neighbor list builds = 0
Dangerous builds = 0
Setting atom values ...
  1 settings made for x
  1 settings made for y
  1 settings made for z
Setting up cg style minimization ...
  Unit style    : metal
  Current step  : 376
Per MPI rank memory allocation (min/avg/max) = 5.441 | 5.816 | 6.074 Mbytes
Step PotEng KinEng TotEng v_fx v_fy v_fz 
     376     -1152449            0     -1152449 -0.0013223088  -0.01528515 -0.0055218179 
     605     -1152449            0     -1152449 1.3984739e-06 2.522865e-07 -1.207484e-06 
Loop time of 2.69118 on 104 procs for 229 steps with 288751 atoms

99.9% CPU use with 104 MPI tasks x 1 OpenMP threads

Minimization stats:
  Stopping criterion = energy tolerance
  Energy initial, next-to-last, final = 
     -1152448.96966226  -1152448.97118968  -1152448.97118968
  Force two-norm initial, final = 0.15061698 4.2307708e-05
  Force max component initial, final = 0.083418953 1.1001246e-05
  Final line search alpha, max atom move = 1.0000000 1.1001246e-05
  Iterations, force evaluations = 229 458

MPI task timing breakdown:
Section |  min time  |  avg time  |  max time  |%varavg| %total
---------------------------------------------------------------
Pair    | 0.68688    | 1.9253     | 2.5038     |  37.7 | 71.54
Neigh   | 0          | 0          | 0          |   0.0 |  0.00
Comm    | 0.047029   | 0.43639    | 1.2902     |  54.5 | 16.22
Output  | 0          | 0          | 0          |   0.0 |  0.00
Modify  | 2.9091e-05 | 0.0037827  | 0.0080195  |   2.9 |  0.14
Other   |            | 0.3257     |            |       | 12.10

Nlocal:        2776.45 ave        3952 max           0 min
Histogram: 8 4 4 0 4 12 8 1 29 34
Nghost:        3879.16 ave        5425 max         232 min
Histogram: 8 0 8 0 16 0 8 8 16 40
Neighs:        79213.5 ave      115174 max           0 min
Histogram: 8 4 4 0 10 6 8 8 24 32

Total # of neighbors = 8238203
Ave neighs/atom = 28.530474
Neighbor list builds = 0
Dangerous builds = 0
The dot product: -8.08493185994336e-09
Setting atom values ...
  1 settings made for x
  1 settings made for y
  1 settings made for z
Setting up cg style minimization ...
  Unit style    : metal
  Current step  : 605
Per MPI rank memory allocation (min/avg/max) = 5.441 | 5.816 | 6.074 Mbytes
Step PotEng KinEng TotEng v_fx v_fy v_fz 
     605     -1152449            0     -1152449  0.016772154 -0.0096583065 -0.013359762 
     833     -1152449            0     -1152449 -1.8447055e-05 8.1114943e-07 1.2699067e-05 
Loop time of 2.69041 on 104 procs for 228 steps with 288751 atoms

99.9% CPU use with 104 MPI tasks x 1 OpenMP threads

Minimization stats:
  Stopping criterion = energy tolerance
  Energy initial, next-to-last, final = 
     -1152448.96792442  -1152448.97023384  -1152448.97023384
  Force two-norm initial, final = 0.15780067 0.0001300235
  Force max component initial, final = 0.087005304 1.8447055e-05
  Final line search alpha, max atom move = 1.0000000 1.8447055e-05
  Iterations, force evaluations = 228 456

MPI task timing breakdown:
Section |  min time  |  avg time  |  max time  |%varavg| %total
---------------------------------------------------------------
Pair    | 0.68715    | 1.9301     | 2.5057     |  37.6 | 71.74
Neigh   | 0          | 0          | 0          |   0.0 |  0.00
Comm    | 0.047811   | 0.44092    | 1.2955     |  54.5 | 16.39
Output  | 0          | 0          | 0          |   0.0 |  0.00
Modify  | 2.8436e-05 | 0.0037679  | 0.0079945  |   2.9 |  0.14
Other   |            | 0.3156     |            |       | 11.73

Nlocal:        2776.45 ave        3952 max           0 min
Histogram: 8 4 4 0 4 12 8 1 29 34
Nghost:        3879.20 ave        5425 max         232 min
Histogram: 8 0 8 0 16 0 8 8 16 40
Neighs:        79213.5 ave      115170 max           0 min
Histogram: 8 4 4 0 10 6 8 8 24 32

Total # of neighbors = 8238200
Ave neighs/atom = 28.530464
Neighbor list builds = 0
Dangerous builds = 0
The dot product: 2.1233283676313e-07
Setting atom values ...
  1 settings made for x
  1 settings made for y
  1 settings made for z
Setting up cg style minimization ...
  Unit style    : metal
  Current step  : 833
Per MPI rank memory allocation (min/avg/max) = 5.441 | 5.816 | 6.074 Mbytes
Step PotEng KinEng TotEng v_fx v_fy v_fz 
     833     -1152449            0     -1152449  0.031829112 -0.0059766221 -0.014321236 
    1000     -1152449            0     -1152449 -4.9147699e-05 1.0982478e-05 2.2069537e-05 
    1049     -1152449            0     -1152449 1.7979825e-05 1.3978904e-06 -8.2097626e-06 
Loop time of 2.55286 on 104 procs for 216 steps with 288751 atoms

99.9% CPU use with 104 MPI tasks x 1 OpenMP threads

Minimization stats:
  Stopping criterion = energy tolerance
  Energy initial, next-to-last, final = 
     -1152448.96696843   -1152448.9691415   -1152448.9691415
  Force two-norm initial, final = 0.17187227 0.00010522056
  Force max component initial, final = 0.088823716 1.7979825e-05
  Final line search alpha, max atom move = 1.0000000 1.7979825e-05
  Iterations, force evaluations = 216 432

MPI task timing breakdown:
Section |  min time  |  avg time  |  max time  |%varavg| %total
---------------------------------------------------------------
Pair    | 0.64901    | 1.8172     | 2.3628     |  36.5 | 71.18
Neigh   | 0          | 0          | 0          |   0.0 |  0.00
Comm    | 0.043503   | 0.41354    | 1.2164     |  52.7 | 16.20
Output  | 0.00030629 | 0.00031467 | 0.00046347 |   0.0 |  0.01
Modify  | 2.7789e-05 | 0.0035685  | 0.0075722  |   2.8 |  0.14
Other   |            | 0.3182     |            |       | 12.46

Nlocal:        2776.45 ave        3951 max           0 min
Histogram: 8 4 4 0 4 12 8 1 29 34
Nghost:        3879.18 ave        5425 max         232 min
Histogram: 8 0 8 0 16 0 8 8 16 40
Neighs:        79213.5 ave      115132 max           0 min
Histogram: 8 4 4 0 10 6 8 8 24 32

Total # of neighbors = 8238207
Ave neighs/atom = 28.530488
Neighbor list builds = 0
Dangerous builds = 0
The dot product: -1.23326754228823e-07
Setting atom values ...
  1 settings made for x
  1 settings made for y
  1 settings made for z
Setting up cg style minimization ...
  Unit style    : metal
  Current step  : 1049
Per MPI rank memory allocation (min/avg/max) = 5.441 | 5.816 | 6.074 Mbytes
Step PotEng KinEng TotEng v_fx v_fy v_fz 
    1049     -1152449            0     -1152449  0.039025091 -0.0054683647 -0.013332553 
    1391   -1152449.2            0   -1152449.2 -1.3350453e-05 -7.8378071e-08 4.7107894e-06 
Loop time of 4.02559 on 104 procs for 342 steps with 288751 atoms

99.9% CPU use with 104 MPI tasks x 1 OpenMP threads

Minimization stats:
  Stopping criterion = energy tolerance
  Energy initial, next-to-last, final = 
     -1152448.96519814  -1152449.19726431  -1152449.19726431
  Force two-norm initial, final = 0.17917562 4.7516529e-05
  Force max component initial, final = 0.087040642 1.3489723e-05
  Final line search alpha, max atom move = 1.0000000 1.3489723e-05
  Iterations, force evaluations = 342 684

MPI task timing breakdown:
Section |  min time  |  avg time  |  max time  |%varavg| %total
---------------------------------------------------------------
Pair    | 1.0458     | 2.8915     | 3.7405     |  45.6 | 71.83
Neigh   | 4.1165e-05 | 0.011697   | 0.016882   |   4.5 |  0.29
Comm    | 0.068134   | 0.65205    | 1.932      |  67.0 | 16.20
Output  | 0          | 0          | 0          |   0.0 |  0.00
Modify  | 4.348e-05  | 0.00565    | 0.012029   |   3.5 |  0.14
Other   |            | 0.4647     |            |       | 11.54

Nlocal:        2776.45 ave        3943 max           0 min
Histogram: 8 4 4 0 4 12 8 2 24 38
Nghost:        3879.01 ave        5426 max         232 min
Histogram: 8 0 8 0 16 0 8 8 16 40
Neighs:        79214.2 ave      114793 max           0 min
Histogram: 8 4 4 0 10 6 8 8 22 34

Total # of neighbors = 8238273
Ave neighs/atom = 28.530717
Neighbor list builds = 4
Dangerous builds = 0
The dot product: 4.27227686932655e-07
Setting atom values ...
  1 settings made for x
  1 settings made for y
  1 settings made for z
Setting up cg style minimization ...
  Unit style    : metal
  Current step  : 1391
Per MPI rank memory allocation (min/avg/max) = 5.441 | 5.816 | 6.074 Mbytes
Step PotEng KinEng TotEng v_fx v_fy v_fz 
    1391   -1152449.2            0   -1152449.2  0.074000935 -0.010778308 -0.00077646878 
    1564   -1152449.2            0   -1152449.2 2.4804592e-06 2.7542254e-06 -3.7761812e-07 
Loop time of 2.01586 on 104 procs for 173 steps with 288751 atoms

99.9% CPU use with 104 MPI tasks x 1 OpenMP threads

Minimization stats:
  Stopping criterion = energy tolerance
  Energy initial, next-to-last, final = 
     -1152449.19649229  -1152449.19918532  -1152449.19918532
  Force two-norm initial, final = 0.20779241 0.00020157917
  Force max component initial, final = 0.082335135 4.5635841e-05
  Final line search alpha, max atom move = 1.0000000 4.5635841e-05
  Iterations, force evaluations = 173 346

MPI task timing breakdown:
Section |  min time  |  avg time  |  max time  |%varavg| %total
---------------------------------------------------------------
Pair    | 0.51934    | 1.452      | 1.8888     |  32.6 | 72.03
Neigh   | 0          | 0          | 0          |   0.0 |  0.00
Comm    | 0.032952   | 0.32715    | 0.97198    |  47.6 | 16.23
Output  | 0          | 0          | 0          |   0.0 |  0.00
Modify  | 2.1802e-05 | 0.0028681  | 0.0061019  |   2.5 |  0.14
Other   |            | 0.2338     |            |       | 11.60

Nlocal:        2776.45 ave        3944 max           0 min
Histogram: 8 4 4 0 4 12 8 2 24 38
Nghost:        3879.38 ave        5429 max         232 min
Histogram: 8 0 8 0 16 0 8 8 16 40
Neighs:        79214.7 ave      114892 max           0 min
Histogram: 8 4 4 0 10 6 8 8 22 34

Total # of neighbors = 8238332
Ave neighs/atom = 28.530921
Neighbor list builds = 0
Dangerous builds = 0
The dot product: 6.7028330153122e-09
Setting atom values ...
  1 settings made for x
  1 settings made for y
  1 settings made for z
Setting up cg style minimization ...
  Unit style    : metal
  Current step  : 1564
Per MPI rank memory allocation (min/avg/max) = 5.441 | 5.816 | 6.074 Mbytes
Step PotEng KinEng TotEng v_fx v_fy v_fz 
    1564   -1152449.2            0   -1152449.2   0.03848347 -0.0049846778 -0.0035351672 
    1758   -1152449.2            0   -1152449.2 -9.3667492e-06 -3.1364204e-06 1.1521642e-06 
Loop time of 2.27359 on 104 procs for 194 steps with 288751 atoms

99.9% CPU use with 104 MPI tasks x 1 OpenMP threads

Minimization stats:
  Stopping criterion = energy tolerance
  Energy initial, next-to-last, final = 
     -1152449.19779803  -1152449.20004444  -1152449.20004444
  Force two-norm initial, final = 0.19515148 0.00012819983
  Force max component initial, final = 0.085649917 2.6018968e-05
  Final line search alpha, max atom move = 1.0000000 2.6018968e-05
  Iterations, force evaluations = 194 388

MPI task timing breakdown:
Section |  min time  |  avg time  |  max time  |%varavg| %total
---------------------------------------------------------------
Pair    | 0.58481    | 1.6383     | 2.122      |  34.6 | 72.06
Neigh   | 0          | 0          | 0          |   0.0 |  0.00
Comm    | 0.036118   | 0.36883    | 1.0969     |  50.7 | 16.22
Output  | 0          | 0          | 0          |   0.0 |  0.00
Modify  | 2.4547e-05 | 0.0032092  | 0.0068625  |   2.7 |  0.14
Other   |            | 0.2633     |            |       | 11.58

Nlocal:        2776.45 ave        3943 max           0 min
Histogram: 8 4 4 0 4 12 8 2 24 38
Nghost:        3879.36 ave        5429 max         232 min
Histogram: 8 0 8 0 16 0 8 8 16 40
Neighs:        79214.7 ave      114856 max           0 min
Histogram: 8 4 4 0 10 6 8 8 22 34

Total # of neighbors = 8238326
Ave neighs/atom = 28.530900
Neighbor list builds = 0
Dangerous builds = 0
The dot product: -1.12959946186006e-08
Setting atom values ...
  1 settings made for x
  1 settings made for y
  1 settings made for z
Setting up cg style minimization ...
  Unit style    : metal
  Current step  : 1758
Per MPI rank memory allocation (min/avg/max) = 5.441 | 5.816 | 6.074 Mbytes
Step PotEng KinEng TotEng v_fx v_fy v_fz 
    1758   -1152449.2            0   -1152449.2  0.044328924 -0.001561364 -0.0049739889 
    2000   -1152449.4            0   -1152449.4 -0.00033473562 0.00086225417 -7.2801913e-06 
    2286   -1152449.4            0   -1152449.4 -5.8579369e-07 2.0578664e-07  5.59678e-08 
Loop time of 6.16358 on 104 procs for 528 steps with 288751 atoms

99.9% CPU use with 104 MPI tasks x 1 OpenMP threads

Minimization stats:
  Stopping criterion = energy tolerance
  Energy initial, next-to-last, final = 
     -1152449.19750538  -1152449.40224183  -1152449.40224183
  Force two-norm initial, final = 0.19664318 7.3875505e-06
  Force max component initial, final = 0.086149368 1.7905904e-06
  Final line search alpha, max atom move = 1.0000000 1.7905904e-06
  Iterations, force evaluations = 528 1056

MPI task timing breakdown:
Section |  min time  |  avg time  |  max time  |%varavg| %total
---------------------------------------------------------------
Pair    | 1.6237     | 4.4377     | 5.7389     |  56.3 | 72.00
Neigh   | 0.00011327 | 0.029276   | 0.04242    |   7.1 |  0.47
Comm    | 0.11114    | 0.9949     | 2.9775     |  83.5 | 16.14
Output  | 0.00028431 | 0.0002872  | 0.0004535  |   0.0 |  0.00
Modify  | 6.4739e-05 | 0.0087101  | 0.0185     |   4.4 |  0.14
Other   |            | 0.6927     |            |       | 11.24

Nlocal:        2776.45 ave        3945 max           0 min
Histogram: 8 4 4 0 4 12 8 3 23 38
Nghost:        3879.58 ave        5429 max         232 min
Histogram: 8 0 8 0 16 0 8 8 16 40
Neighs:        79213.2 ave      114808 max           0 min
Histogram: 8 4 4 0 10 6 8 8 21 35

Total # of neighbors = 8238174
Ave neighs/atom = 28.530374
Neighbor list builds = 10
Dangerous builds = 0
The dot product: -4.25072035800194e-08
Setting atom values ...
  1 settings made for x
  1 settings made for y
  1 settings made for z
Setting up cg style minimization ...
  Unit style    : metal
  Current step  : 2286
Per MPI rank memory allocation (min/avg/max) = 5.441 | 5.816 | 6.074 Mbytes
Step PotEng KinEng TotEng v_fx v_fy v_fz 
    2286   -1152449.4            0   -1152449.4  -0.19344157  0.014335423   0.11257123 
    2498   -1152449.4            0   -1152449.4 -3.7651773e-05 3.265742e-06 2.190311e-05 
Loop time of 2.49148 on 104 procs for 212 steps with 288751 atoms

99.9% CPU use with 104 MPI tasks x 1 OpenMP threads

Minimization stats:
  Stopping criterion = energy tolerance
  Energy initial, next-to-last, final = 
      -1152449.4105929   -1152449.4190667   -1152449.4190667
  Force two-norm initial, final = 0.29664107 0.00015498929
  Force max component initial, final = 0.19344157 3.7651773e-05
  Final line search alpha, max atom move = 1.0000000 3.7651773e-05
  Iterations, force evaluations = 212 424

MPI task timing breakdown:
Section |  min time  |  avg time  |  max time  |%varavg| %total
---------------------------------------------------------------
Pair    | 0.63784    | 1.7921     | 2.3217     |  36.1 | 71.93
Neigh   | 0          | 0          | 0          |   0.0 |  0.00
Comm    | 0.042975   | 0.40657    | 1.2091     |  53.0 | 16.32
Output  | 0          | 0          | 0          |   0.0 |  0.00
Modify  | 2.6579e-05 | 0.0035028  | 0.007439   |   2.8 |  0.14
Other   |            | 0.2893     |            |       | 11.61

Nlocal:        2776.45 ave        3945 max           0 min
Histogram: 8 4 4 0 4 12 8 4 22 38
Nghost:        3879.53 ave        5429 max         232 min
Histogram: 8 0 8 0 16 0 8 8 16 40
Neighs:        79213.4 ave      114781 max           0 min
Histogram: 8 4 4 0 10 6 8 8 20 36

Total # of neighbors = 8238195
Ave neighs/atom = 28.530447
Neighbor list builds = 0
Dangerous builds = 0
The dot product: 2.52061502375244e-06
Setting atom values ...
  1 settings made for x
  1 settings made for y
  1 settings made for z
Setting up cg style minimization ...
  Unit style    : metal
  Current step  : 2498
Per MPI rank memory allocation (min/avg/max) = 5.441 | 5.816 | 6.074 Mbytes
Step PotEng KinEng TotEng v_fx v_fy v_fz 
    2498   -1152449.4            0   -1152449.4   0.15184729 -0.012518796 -0.036740299 
    2698   -1152449.4            0   -1152449.4 3.6508468e-05 -2.1092502e-06 -8.8521828e-06 
Loop time of 2.33138 on 104 procs for 200 steps with 288751 atoms

99.9% CPU use with 104 MPI tasks x 1 OpenMP threads

Minimization stats:
  Stopping criterion = energy tolerance
  Energy initial, next-to-last, final = 
     -1152449.42464921  -1152449.42910424  -1152449.42910424
  Force two-norm initial, final = 0.25633842 0.00012915706
  Force max component initial, final = 0.15184729 3.6508468e-05
  Final line search alpha, max atom move = 1.0000000 3.6508468e-05
  Iterations, force evaluations = 200 400

MPI task timing breakdown:
Section |  min time  |  avg time  |  max time  |%varavg| %total
---------------------------------------------------------------
Pair    | 0.59989    | 1.6815     | 2.1727     |  35.1 | 72.13
Neigh   | 0          | 0          | 0          |   0.0 |  0.00
Comm    | 0.038715   | 0.3774     | 1.1335     |  51.7 | 16.19
Output  | 0          | 0          | 0          |   0.0 |  0.00
Modify  | 2.5439e-05 | 0.0033017  | 0.0070079  |   2.7 |  0.14
Other   |            | 0.2692     |            |       | 11.54

Nlocal:        2776.45 ave        3945 max           0 min
Histogram: 8 4 4 0 4 12 8 4 22 38
Nghost:        3879.59 ave        5428 max         232 min
Histogram: 8 0 8 0 16 0 8 8 16 40
Neighs:        79213.5 ave      114786 max           0 min
Histogram: 8 4 4 0 10 6 8 8 20 36

Total # of neighbors = 8238199
Ave neighs/atom = 28.530461
Neighbor list builds = 0
Dangerous builds = 0
The dot product: 1.29452853435561e-06
Setting atom values ...
  1 settings made for x
  1 settings made for y
  1 settings made for z
Setting up cg style minimization ...
  Unit style    : metal
  Current step  : 2698
Per MPI rank memory allocation (min/avg/max) = 5.441 | 5.816 | 6.074 Mbytes
Step PotEng KinEng TotEng v_fx v_fy v_fz 
    2698   -1152449.4            0   -1152449.4 -0.025356183  -0.00777323  0.010665012 
    2843   -1152449.4            0   -1152449.4 7.7300406e-06 -1.8494692e-06 -3.1601919e-06 
Loop time of 1.68945 on 104 procs for 145 steps with 288751 atoms

99.9% CPU use with 104 MPI tasks x 1 OpenMP threads

Minimization stats:
  Stopping criterion = energy tolerance
  Energy initial, next-to-last, final = 
     -1152449.43306979  -1152449.43527258  -1152449.43527258
  Force two-norm initial, final = 0.20060838 0.00021834488
  Force max component initial, final = 0.10409729 1.4740851e-05
  Final line search alpha, max atom move = 1.0000000 1.4740851e-05
  Iterations, force evaluations = 145 290

MPI task timing breakdown:
Section |  min time  |  avg time  |  max time  |%varavg| %total
---------------------------------------------------------------
Pair    | 0.43618    | 1.2236     | 1.5841     |  29.9 | 72.42
Neigh   | 0          | 0          | 0          |   0.0 |  0.00
Comm    | 0.027079   | 0.27608    | 0.82868    |  43.7 | 16.34
Output  | 0          | 0          | 0          |   0.0 |  0.00
Modify  | 1.8357e-05 | 0.0023945  | 0.005072   |   2.3 |  0.14
Other   |            | 0.1874     |            |       | 11.09

Nlocal:        2776.45 ave        3945 max           0 min
Histogram: 8 4 4 0 4 12 8 4 22 38
Nghost:        3879.57 ave        5428 max         232 min
Histogram: 8 0 8 0 16 0 8 8 16 40
Neighs:        79213.5 ave      114788 max           0 min
Histogram: 8 4 4 0 10 6 8 8 20 36

Total # of neighbors = 8238199
Ave neighs/atom = 28.530461
Neighbor list builds = 0
Dangerous builds = 0
The dot product: -9.20989288163368e-08
Setting atom values ...
  1 settings made for x
  1 settings made for y
  1 settings made for z
Setting up cg style minimization ...
  Unit style    : metal
  Current step  : 2843
Per MPI rank memory allocation (min/avg/max) = 5.441 | 5.816 | 6.074 Mbytes
Step PotEng KinEng TotEng v_fx v_fy v_fz 
    2843   -1152449.4            0   -1152449.4   0.03746894 -0.0014257872 -0.013481317 
    3000   -1152449.4            0   -1152449.4 9.577449e-06 9.3369386e-06 -3.5677046e-06 
    3043   -1152449.4            0   -1152449.4 2.7816591e-05 2.5832341e-07 -1.0024928e-05 
Loop time of 2.35157 on 104 procs for 200 steps with 288751 atoms

99.9% CPU use with 104 MPI tasks x 1 OpenMP threads

Minimization stats:
  Stopping criterion = energy tolerance
  Energy initial, next-to-last, final = 
     -1152449.43732623  -1152449.43929836  -1152449.43929836
  Force two-norm initial, final = 0.20395409 8.4933002e-05
  Force max component initial, final = 0.10181018 2.7816591e-05
  Final line search alpha, max atom move = 1.0000000 2.7816591e-05
  Iterations, force evaluations = 200 400

MPI task timing breakdown:
Section |  min time  |  avg time  |  max time  |%varavg| %total
---------------------------------------------------------------
Pair    | 0.59996    | 1.6822     | 2.1904     |  35.2 | 71.54
Neigh   | 0          | 0          | 0          |   0.0 |  0.00
Comm    | 0.03774    | 0.38045    | 1.1241     |  51.1 | 16.18
Output  | 0.00025995 | 0.00026888 | 0.00041958 |   0.0 |  0.01
Modify  | 2.5058e-05 | 0.0033006  | 0.0070258  |   2.7 |  0.14
Other   |            | 0.2853     |            |       | 12.13

Nlocal:        2776.45 ave        3945 max           0 min
Histogram: 8 4 4 0 4 12 8 4 22 38
Nghost:        3879.53 ave        5428 max         232 min
Histogram: 8 0 8 0 16 0 8 8 16 40
Neighs:        79213.4 ave      114806 max           0 min
Histogram: 8 4 4 0 10 6 8 8 20 36

Total # of neighbors = 8238197
Ave neighs/atom = 28.530454
Neighbor list builds = 0
Dangerous builds = 0
The dot product: 1.06870881755605e-07
Setting atom values ...
  1 settings made for x
  1 settings made for y
  1 settings made for z
Setting up cg style minimization ...
  Unit style    : metal
  Current step  : 3043
Per MPI rank memory allocation (min/avg/max) = 5.441 | 5.816 | 6.074 Mbytes
Step PotEng KinEng TotEng v_fx v_fy v_fz 
    3043   -1152449.4            0   -1152449.4  0.027937032 -0.00040312889 -0.010491342 
    3223   -1152449.4            0   -1152449.4 4.2198493e-05 -4.6756048e-07 -1.5848839e-05 
Loop time of 2.08594 on 104 procs for 180 steps with 288751 atoms

99.9% CPU use with 104 MPI tasks x 1 OpenMP threads

Minimization stats:
  Stopping criterion = energy tolerance
  Energy initial, next-to-last, final = 
     -1152449.43942215  -1152449.44136937  -1152449.44136937
  Force two-norm initial, final = 0.20192143 0.00013731471
  Force max component initial, final = 0.10029447 4.3702448e-05
  Final line search alpha, max atom move = 1.0000000 4.3702448e-05
  Iterations, force evaluations = 180 360

MPI task timing breakdown:
Section |  min time  |  avg time  |  max time  |%varavg| %total
---------------------------------------------------------------
Pair    | 0.54167    | 1.5183     | 1.9634     |  33.3 | 72.79
Neigh   | 0          | 0          | 0          |   0.0 |  0.00
Comm    | 0.034702   | 0.33857    | 1.0104     |  49.2 | 16.23
Output  | 0          | 0          | 0          |   0.0 |  0.00
Modify  | 2.2364e-05 | 0.0029728  | 0.0063221  |   2.6 |  0.14
Other   |            | 0.2261     |            |       | 10.84

Nlocal:        2776.45 ave        3945 max           0 min
Histogram: 8 4 4 0 4 12 8 4 22 38
Nghost:        3879.53 ave        5428 max         232 min
Histogram: 8 0 8 0 16 0 8 8 16 40
Neighs:        79213.4 ave      114803 max           0 min
Histogram: 8 4 4 0 10 6 8 8 20 36

Total # of neighbors = 8238198
Ave neighs/atom = 28.530457
Neighbor list builds = 0
Dangerous builds = 0
The dot product: 4.61808009066847e-08
Setting atom values ...
  1 settings made for x
  1 settings made for y
  1 settings made for z
Setting up cg style minimization ...
  Unit style    : metal
  Current step  : 3223
Per MPI rank memory allocation (min/avg/max) = 5.441 | 5.816 | 6.074 Mbytes
Step PotEng KinEng TotEng v_fx v_fy v_fz 
    3223   -1152449.4            0   -1152449.4  0.032661366 0.0020006193 -0.012431368 
    3390   -1152449.4            0   -1152449.4 -1.4018051e-05 -7.2909145e-07 5.3337841e-06 
Loop time of 1.93217 on 104 procs for 167 steps with 288751 atoms

99.9% CPU use with 104 MPI tasks x 1 OpenMP threads

Minimization stats:
  Stopping criterion = energy tolerance
  Energy initial, next-to-last, final = 
     -1152449.43947708  -1152449.44144089  -1152449.44144089
  Force two-norm initial, final = 0.20281872 0.00016898641
  Force max component initial, final = 0.09851218 1.5431512e-05
  Final line search alpha, max atom move = 1.0000000 1.5431512e-05
  Iterations, force evaluations = 167 334

MPI task timing breakdown:
Section |  min time  |  avg time  |  max time  |%varavg| %total
---------------------------------------------------------------
Pair    | 0.50009    | 1.3999     | 1.8152     |  32.0 | 72.45
Neigh   | 0          | 0          | 0          |   0.0 |  0.00
Comm    | 0.034012   | 0.31287    | 0.94337    |  47.3 | 16.19
Output  | 0          | 0          | 0          |   0.0 |  0.00
Modify  | 2.0939e-05 | 0.0027605  | 0.00584    |   2.5 |  0.14
Other   |            | 0.2166     |            |       | 11.21

Nlocal:        2776.45 ave        3945 max           0 min
Histogram: 8 4 4 0 4 12 8 3 23 38
Nghost:        3879.53 ave        5428 max         232 min
Histogram: 8 0 8 0 16 0 8 8 16 40
Neighs:        79213.4 ave      114803 max           0 min
Histogram: 8 4 4 0 10 6 8 8 20 36

Total # of neighbors = 8238198
Ave neighs/atom = 28.530457
Neighbor list builds = 0
Dangerous builds = 0
The dot product: -2.94285034302676e-08
Setting atom values ...
  1 settings made for x
  1 settings made for y
  1 settings made for z
Setting up cg style minimization ...
  Unit style    : metal
  Current step  : 3390
Per MPI rank memory allocation (min/avg/max) = 5.441 | 5.816 | 6.074 Mbytes
Step PotEng KinEng TotEng v_fx v_fy v_fz 
    3390   -1152449.4            0   -1152449.4  0.034738715 0.00091324033 -0.013461187 
    3628   -1152449.4            0   -1152449.4 1.6220574e-06 1.2979291e-07 -6.2976192e-07 
Loop time of 2.76923 on 104 procs for 238 steps with 288751 atoms

99.9% CPU use with 104 MPI tasks x 1 OpenMP threads

Minimization stats:
  Stopping criterion = energy tolerance
  Energy initial, next-to-last, final = 
     -1152449.43753174   -1152449.4394931   -1152449.4394931
  Force two-norm initial, final = 0.20300132 1.2889945e-05
  Force max component initial, final = 0.09663305 2.6272017e-06
  Final line search alpha, max atom move = 1.0000000 2.6272017e-06
  Iterations, force evaluations = 238 476

MPI task timing breakdown:
Section |  min time  |  avg time  |  max time  |%varavg| %total
---------------------------------------------------------------
Pair    | 0.72082    | 2.0079     | 2.5908     |  38.2 | 72.51
Neigh   | 0          | 0          | 0          |   0.0 |  0.00
Comm    | 0.04581    | 0.44926    | 1.3351     |  56.6 | 16.22
Output  | 0          | 0          | 0          |   0.0 |  0.00
Modify  | 2.9801e-05 | 0.003924   | 0.0083199  |   2.9 |  0.14
Other   |            | 0.3082     |            |       | 11.13

Nlocal:        2776.45 ave        3945 max           0 min
Histogram: 8 4 4 0 4 12 8 3 23 38
Nghost:        3879.50 ave        5428 max         232 min
Histogram: 8 0 8 0 16 0 8 8 16 40
Neighs:        79213.5 ave      114803 max           0 min
Histogram: 8 4 4 0 10 6 8 8 21 35

Total # of neighbors = 8238199
Ave neighs/atom = 28.530461
Neighbor list builds = 0
Dangerous builds = 0
The dot product: 4.33924719002792e-09
Setting atom values ...
  1 settings made for x
  1 settings made for y
  1 settings made for z
Setting up cg style minimization ...
  Unit style    : metal
  Current step  : 3628
Per MPI rank memory allocation (min/avg/max) = 5.441 | 5.816 | 6.074 Mbytes
Step PotEng KinEng TotEng v_fx v_fy v_fz 
    3628   -1152449.4            0   -1152449.4  0.035472349 -0.00019865959 -0.014043718 
    3863   -1152449.4            0   -1152449.4 -9.5435273e-07 -5.7515442e-09 3.7798647e-07 
Loop time of 2.72419 on 104 procs for 235 steps with 288751 atoms

99.9% CPU use with 104 MPI tasks x 1 OpenMP threads

Minimization stats:
  Stopping criterion = energy tolerance
  Energy initial, next-to-last, final = 
     -1152449.43358116   -1152449.4355332   -1152449.4355332
  Force two-norm initial, final = 0.20278174 1.4625936e-05
  Force max component initial, final = 0.097707622 1.6766409e-06
  Final line search alpha, max atom move = 1.0000000 1.6766409e-06
  Iterations, force evaluations = 235 470

MPI task timing breakdown:
Section |  min time  |  avg time  |  max time  |%varavg| %total
---------------------------------------------------------------
Pair    | 0.70606    | 1.9722     | 2.5587     |  38.0 | 72.40
Neigh   | 0          | 0          | 0          |   0.0 |  0.00
Comm    | 0.046806   | 0.44132    | 1.3216     |  56.0 | 16.20
Output  | 0          | 0          | 0          |   0.0 |  0.00
Modify  | 2.8906e-05 | 0.0038806  | 0.0081979  |   2.9 |  0.14
Other   |            | 0.3067     |            |       | 11.26

Nlocal:        2776.45 ave        3945 max           0 min
Histogram: 8 4 4 0 4 12 8 2 24 38
Nghost:        3879.51 ave        5428 max         232 min
Histogram: 8 0 8 0 16 0 8 8 16 40
Neighs:        79213.5 ave      114785 max           0 min
Histogram: 8 4 4 0 10 6 8 8 22 34

Total # of neighbors = 8238199
Ave neighs/atom = 28.530461
Neighbor list builds = 0
Dangerous builds = 0
The dot product: -2.8142764367015e-09
Setting atom values ...
  1 settings made for x
  1 settings made for y
  1 settings made for z
Setting up cg style minimization ...
  Unit style    : metal
  Current step  : 3863
Per MPI rank memory allocation (min/avg/max) = 5.441 | 5.816 | 6.074 Mbytes
Step PotEng KinEng TotEng v_fx v_fy v_fz 
    3863   -1152449.4            0   -1152449.4  0.035476933 -0.001268569 -0.014358324 
    4000   -1152449.4            0   -1152449.4 -4.6346667e-05 2.1222155e-06 1.8751479e-05 
    4027   -1152449.4            0   -1152449.4 7.1786457e-05 4.5487359e-06 -2.914657e-05 
Loop time of 1.93155 on 104 procs for 164 steps with 288751 atoms

99.9% CPU use with 104 MPI tasks x 1 OpenMP threads

Minimization stats:
  Stopping criterion = energy tolerance
  Energy initial, next-to-last, final = 
     -1152449.42761937  -1152449.42956198  -1152449.42956198
  Force two-norm initial, final = 0.20234628 0.00022228898
  Force max component initial, final = 0.10012962 7.1786457e-05
  Final line search alpha, max atom move = 1.0000000 7.1786457e-05
  Iterations, force evaluations = 164 328

MPI task timing breakdown:
Section |  min time  |  avg time  |  max time  |%varavg| %total
---------------------------------------------------------------
Pair    | 0.49318    | 1.3918     | 1.7951     |  31.8 | 72.06
Neigh   | 0          | 0          | 0          |   0.0 |  0.00
Comm    | 0.028709   | 0.31467    | 0.93709    |  46.9 | 16.29
Output  | 0.00016095 | 0.0001721  | 0.00030521 |   0.0 |  0.01
Modify  | 2.0474e-05 | 0.0027111  | 0.0058077  |   2.5 |  0.14
Other   |            | 0.2222     |            |       | 11.50

Nlocal:        2776.45 ave        3945 max           0 min
Histogram: 8 4 4 0 4 12 8 2 24 38
Nghost:        3879.55 ave        5428 max         232 min
Histogram: 8 0 8 0 16 0 8 8 16 40
Neighs:        79213.5 ave      114767 max           0 min
Histogram: 8 4 4 0 10 6 8 8 22 34

Total # of neighbors = 8238200
Ave neighs/atom = 28.530464
Neighbor list builds = 0
Dangerous builds = 0
The dot product: 2.19070600791607e-07
Setting atom values ...
  1 settings made for x
  1 settings made for y
  1 settings made for z
Setting up cg style minimization ...
  Unit style    : metal
  Current step  : 4027
Per MPI rank memory allocation (min/avg/max) = 5.441 | 5.816 | 6.074 Mbytes
Step PotEng KinEng TotEng v_fx v_fy v_fz 
    4027   -1152449.4            0   -1152449.4  0.035256492 -0.0026723487 -0.014572609 
    4199   -1152449.4            0   -1152449.4 1.7806071e-05 4.0217756e-07 -7.3814291e-06 
Loop time of 1.98442 on 104 procs for 172 steps with 288751 atoms

99.9% CPU use with 104 MPI tasks x 1 OpenMP threads

Minimization stats:
  Stopping criterion = energy tolerance
  Energy initial, next-to-last, final = 
      -1152449.4196533  -1152449.42158551  -1152449.42158551
  Force two-norm initial, final = 0.20187828 0.00015046244
  Force max component initial, final = 0.1025246 1.7806071e-05
  Final line search alpha, max atom move = 1.0000000 1.7806071e-05
  Iterations, force evaluations = 172 344

MPI task timing breakdown:
Section |  min time  |  avg time  |  max time  |%varavg| %total
---------------------------------------------------------------
Pair    | 0.51414    | 1.4443     | 1.8682     |  32.6 | 72.78
Neigh   | 0          | 0          | 0          |   0.0 |  0.00
Comm    | 0.032895   | 0.3231     | 0.97121    |  48.2 | 16.28
Output  | 0          | 0          | 0          |   0.0 |  0.00
Modify  | 2.1286e-05 | 0.0028341  | 0.0060265  |   2.5 |  0.14
Other   |            | 0.2142     |            |       | 10.79

Nlocal:        2776.45 ave        3945 max           0 min
Histogram: 8 4 4 0 4 12 8 2 24 38
Nghost:        3879.51 ave        5427 max         232 min
Histogram: 8 0 8 0 16 0 8 8 16 40
Neighs:        79213.5 ave      114764 max           0 min
Histogram: 8 4 4 0 10 6 8 8 22 34

Total # of neighbors = 8238206
Ave neighs/atom = 28.530485
Neighbor list builds = 0
Dangerous builds = 0
The dot product: 5.52245448765423e-08
Setting atom values ...
  1 settings made for x
  1 settings made for y
  1 settings made for z
Setting up cg style minimization ...
  Unit style    : metal
  Current step  : 4199
Per MPI rank memory allocation (min/avg/max) = 5.441 | 5.816 | 6.074 Mbytes
Step PotEng KinEng TotEng v_fx v_fy v_fz 
    4199   -1152449.4            0   -1152449.4  0.034597511 -0.0044678664  -0.01458362 
    4346   -1152449.4            0   -1152449.4 -5.3625037e-05 -1.941151e-06 2.270658e-05 
Loop time of 1.71323 on 104 procs for 147 steps with 288751 atoms

99.9% CPU use with 104 MPI tasks x 1 OpenMP threads

Minimization stats:
  Stopping criterion = energy tolerance
  Energy initial, next-to-last, final = 
      -1152449.4096945  -1152449.41161456  -1152449.41161456
  Force two-norm initial, final = 0.20132825 0.00029173395
  Force max component initial, final = 0.10491158 5.3625037e-05
  Final line search alpha, max atom move = 1.0000000 5.3625037e-05
  Iterations, force evaluations = 147 294

MPI task timing breakdown:
Section |  min time  |  avg time  |  max time  |%varavg| %total
---------------------------------------------------------------
Pair    | 0.44064    | 1.2405     | 1.603      |  30.1 | 72.41
Neigh   | 0          | 0          | 0          |   0.0 |  0.00
Comm    | 0.02506    | 0.2793     | 0.83444    |  44.4 | 16.30
Output  | 0          | 0          | 0          |   0.0 |  0.00
Modify  | 1.886e-05  | 0.0024348  | 0.0051788  |   2.3 |  0.14
Other   |            | 0.1909     |            |       | 11.15

Nlocal:        2776.45 ave        3945 max           0 min
Histogram: 8 4 4 0 4 12 8 2 24 38
Nghost:        3879.50 ave        5427 max         232 min
Histogram: 8 0 8 0 16 0 8 8 16 40
Neighs:        79213.6 ave      114768 max           0 min
Histogram: 8 4 4 0 10 6 8 8 22 34

Total # of neighbors = 8238210
Ave neighs/atom = 28.530499
Neighbor list builds = 0
Dangerous builds = 0
The dot product: -1.67904306683084e-07
Setting atom values ...
  1 settings made for x
  1 settings made for y
  1 settings made for z
Setting up cg style minimization ...
  Unit style    : metal
  Current step  : 4346
Per MPI rank memory allocation (min/avg/max) = 5.441 | 5.816 | 6.074 Mbytes
Step PotEng KinEng TotEng v_fx v_fy v_fz 
    4346   -1152449.4            0   -1152449.4  0.033665548 -0.0066631971 -0.014454299 
    4538   -1152449.4            0   -1152449.4 4.5676334e-06 -2.7383594e-07 -1.9678057e-06 
Loop time of 2.23805 on 104 procs for 192 steps with 288751 atoms

99.9% CPU use with 104 MPI tasks x 1 OpenMP threads

Minimization stats:
  Stopping criterion = energy tolerance
  Energy initial, next-to-last, final = 
     -1152449.39775716  -1152449.39966487  -1152449.39966487
  Force two-norm initial, final = 0.20078818 9.7660008e-05
  Force max component initial, final = 0.1072848 1.0754189e-05
  Final line search alpha, max atom move = 1.0000000 1.0754189e-05
  Iterations, force evaluations = 192 384

MPI task timing breakdown:
Section |  min time  |  avg time  |  max time  |%varavg| %total
---------------------------------------------------------------
Pair    | 0.57778    | 1.6172     | 2.0959     |  34.5 | 72.26
Neigh   | 0          | 0          | 0          |   0.0 |  0.00
Comm    | 0.036567   | 0.3636     | 1.0904     |  50.7 | 16.25
Output  | 0          | 0          | 0          |   0.0 |  0.00
Modify  | 2.3601e-05 | 0.0031703  | 0.0067388  |   2.7 |  0.14
Other   |            | 0.2541     |            |       | 11.35

Nlocal:        2776.45 ave        3945 max           0 min
Histogram: 8 4 4 0 4 12 8 2 24 38
Nghost:        3879.38 ave        5426 max         232 min
Histogram: 8 0 8 0 16 0 8 8 16 40
Neighs:        79213.6 ave      114772 max           0 min
Histogram: 8 4 4 0 10 6 8 8 22 34

Total # of neighbors = 8238213
Ave neighs/atom = 28.530509
Neighbor list builds = 0
Dangerous builds = 0
The dot product: 1.42475684666385e-08
Setting atom values ...
  1 settings made for x
  1 settings made for y
  1 settings made for z
Setting up cg style minimization ...
  Unit style    : metal
  Current step  : 4538
Per MPI rank memory allocation (min/avg/max) = 5.441 | 5.816 | 6.074 Mbytes
Step PotEng KinEng TotEng v_fx v_fy v_fz 
    4538   -1152449.4            0   -1152449.4  0.032506134 -0.0093001645 -0.014195061 
    4728   -1152449.4            0   -1152449.4 1.4715432e-05 7.1769277e-07 -6.4724373e-06 
Loop time of 2.20669 on 104 procs for 190 steps with 288751 atoms

99.9% CPU use with 104 MPI tasks x 1 OpenMP threads

Minimization stats:
  Stopping criterion = energy tolerance
  Energy initial, next-to-last, final = 
     -1152449.38386226  -1152449.38575795  -1152449.38575795
  Force two-norm initial, final = 0.20034064 0.00011510338
  Force max component initial, final = 0.10955255 2.5410052e-05
  Final line search alpha, max atom move = 1.0000000 2.5410052e-05
  Iterations, force evaluations = 190 380

MPI task timing breakdown:
Section |  min time  |  avg time  |  max time  |%varavg| %total
---------------------------------------------------------------
Pair    | 0.56939    | 1.5993     | 2.0681     |  34.1 | 72.48
Neigh   | 0          | 0          | 0          |   0.0 |  0.00
Comm    | 0.033187   | 0.35603    | 1.0699     |  50.4 | 16.13
Output  | 0          | 0          | 0          |   0.0 |  0.00
Modify  | 2.3655e-05 | 0.0031428  | 0.0066403  |   2.6 |  0.14
Other   |            | 0.2482     |            |       | 11.25

Nlocal:        2776.45 ave        3945 max           0 min
Histogram: 8 4 4 0 4 12 8 2 24 38
Nghost:        3879.38 ave        5427 max         232 min
Histogram: 8 0 8 0 16 0 8 8 16 40
Neighs:        79213.6 ave      114774 max           0 min
Histogram: 8 4 4 0 10 6 8 8 22 34

Total # of neighbors = 8238211
Ave neighs/atom = 28.530502
Neighbor list builds = 0
Dangerous builds = 0
The dot product: 4.43035666192554e-08
Setting atom values ...
  1 settings made for x
  1 settings made for y
  1 settings made for z
Setting up cg style minimization ...
  Unit style    : metal
  Current step  : 4728
Per MPI rank memory allocation (min/avg/max) = 5.441 | 5.816 | 6.074 Mbytes
Step PotEng KinEng TotEng v_fx v_fy v_fz 
    4728   -1152449.4            0   -1152449.4  0.031044859 -0.012436376 -0.013776555 
    4913   -1152449.4            0   -1152449.4 -3.4733599e-05 -2.413369e-07 1.5522923e-05 
Loop time of 2.14671 on 104 procs for 185 steps with 288751 atoms

99.9% CPU use with 104 MPI tasks x 1 OpenMP threads

Minimization stats:
  Stopping criterion = energy tolerance
  Energy initial, next-to-last, final = 
     -1152449.36803771  -1152449.36992042  -1152449.36992042
  Force two-norm initial, final = 0.19998405 0.00013191878
  Force max component initial, final = 0.11178007 3.4733599e-05
  Final line search alpha, max atom move = 1.0000000 3.4733599e-05
  Iterations, force evaluations = 185 370

MPI task timing breakdown:
Section |  min time  |  avg time  |  max time  |%varavg| %total
---------------------------------------------------------------
Pair    | 0.55334    | 1.5519     | 2.0105     |  33.7 | 72.29
Neigh   | 0          | 0          | 0          |   0.0 |  0.00
Comm    | 0.035255   | 0.34771    | 1.0436     |  49.5 | 16.20
Output  | 0          | 0          | 0          |   0.0 |  0.00
Modify  | 2.2882e-05 | 0.0030581  | 0.0064787  |   2.6 |  0.14
Other   |            | 0.2441     |            |       | 11.37

Nlocal:        2776.45 ave        3945 max           0 min
Histogram: 8 4 4 0 4 12 8 2 24 38
Nghost:        3879.41 ave        5427 max         232 min
Histogram: 8 0 8 0 16 0 8 8 16 40
Neighs:        79213.6 ave      114775 max           0 min
Histogram: 8 4 4 0 10 6 8 8 22 34

Total # of neighbors = 8238211
Ave neighs/atom = 28.530502
Neighbor list builds = 0
Dangerous builds = 0
The dot product: -1.0068001362686e-07
Setting atom values ...
  1 settings made for x
  1 settings made for y
  1 settings made for z
Setting up cg style minimization ...
  Unit style    : metal
  Current step  : 4913
Per MPI rank memory allocation (min/avg/max) = 5.441 | 5.816 | 6.074 Mbytes
Step PotEng KinEng TotEng v_fx v_fy v_fz 
    4913   -1152449.4            0   -1152449.4  0.030072689 -0.015156479  -0.01356353 
    5000   -1152449.4            0   -1152449.4 -0.00013373793 -4.0396131e-06 6.0699756e-05 
    5087   -1152449.4            0   -1152449.4 5.0572921e-05 -1.0856957e-07 -2.294486e-05 
Loop time of 2.01829 on 104 procs for 174 steps with 288751 atoms

99.9% CPU use with 104 MPI tasks x 1 OpenMP threads

Minimization stats:
  Stopping criterion = energy tolerance
  Energy initial, next-to-last, final = 
     -1152449.35031872  -1152449.35218214  -1152449.35218214
  Force two-norm initial, final = 0.19977496 0.00016861567
  Force max component initial, final = 0.11397075 5.0572921e-05
  Final line search alpha, max atom move = 1.0000000 5.0572921e-05
  Iterations, force evaluations = 174 348

MPI task timing breakdown:
Section |  min time  |  avg time  |  max time  |%varavg| %total
---------------------------------------------------------------
Pair    | 0.52282    | 1.4687     | 1.8974     |  32.8 | 72.77
Neigh   | 0          | 0          | 0          |   0.0 |  0.00
Comm    | 0.032662   | 0.32919    | 0.98742    |  48.3 | 16.31
Output  | 0.00023661 | 0.00023921 | 0.00035626 |   0.0 |  0.01
Modify  | 2.1596e-05 | 0.0028761  | 0.0060947  |   2.5 |  0.14
Other   |            | 0.2173     |            |       | 10.76

Nlocal:        2776.45 ave        3945 max           0 min
Histogram: 8 4 4 0 4 12 8 2 24 38
Nghost:        3879.43 ave        5427 max         232 min
Histogram: 8 0 8 0 16 0 8 8 16 40
Neighs:        79213.6 ave      114774 max           0 min
Histogram: 8 4 4 0 10 6 8 8 22 34

Total # of neighbors = 8238213
Ave neighs/atom = 28.530509
Neighbor list builds = 0
Dangerous builds = 0
The dot product: 1.47307289416125e-07
Setting atom values ...
  1 settings made for x
  1 settings made for y
  1 settings made for z
Setting up cg style minimization ...
  Unit style    : metal
  Current step  : 5087
Per MPI rank memory allocation (min/avg/max) = 5.441 | 5.816 | 6.074 Mbytes
Step PotEng KinEng TotEng v_fx v_fy v_fz 
    5087   -1152449.3            0   -1152449.3  0.029502731 -0.018763864 -0.013537044 
    5243   -1152449.3            0   -1152449.3 2.0991424e-05 -1.3706322e-06 -9.6592747e-06 
Loop time of 1.81119 on 104 procs for 156 steps with 288751 atoms

99.9% CPU use with 104 MPI tasks x 1 OpenMP threads

Minimization stats:
  Stopping criterion = energy tolerance
  Energy initial, next-to-last, final = 
     -1152449.33076043  -1152449.33259918  -1152449.33259918
  Force two-norm initial, final = 0.19990836 0.00023989325
  Force max component initial, final = 0.11611725 4.5286707e-05
  Final line search alpha, max atom move = 1.0000000 4.5286707e-05
  Iterations, force evaluations = 156 312

MPI task timing breakdown:
Section |  min time  |  avg time  |  max time  |%varavg| %total
---------------------------------------------------------------
Pair    | 0.46878    | 1.3094     | 1.6976     |  30.9 | 72.30
Neigh   | 0          | 0          | 0          |   0.0 |  0.00
Comm    | 0.035485   | 0.29371    | 0.88172    |  45.6 | 16.22
Output  | 0          | 0          | 0          |   0.0 |  0.00
Modify  | 1.906e-05  | 0.0025764  | 0.0054547  |   2.4 |  0.14
Other   |            | 0.2055     |            |       | 11.34

Nlocal:        2776.45 ave        3945 max           0 min
Histogram: 8 4 4 0 4 12 8 2 24 38
Nghost:        3879.47 ave        5427 max         232 min
Histogram: 8 0 8 0 16 0 8 8 16 40
Neighs:        79213.6 ave      114774 max           0 min
Histogram: 8 4 4 0 10 6 8 8 22 34

Total # of neighbors = 8238215
Ave neighs/atom = 28.530516
Neighbor list builds = 0
Dangerous builds = 0
The dot product: 6.7741976891941e-08
Setting atom values ...
  1 settings made for x
  1 settings made for y
  1 settings made for z
Setting up cg style minimization ...
  Unit style    : metal
  Current step  : 5243
Per MPI rank memory allocation (min/avg/max) = 5.441 | 5.816 | 6.074 Mbytes
Step PotEng KinEng TotEng v_fx v_fy v_fz 
    5243   -1152449.3            0   -1152449.3  0.028332816 -0.024879246 -0.013287813 
    5482   -1152449.3            0   -1152449.3 1.442658e-07 -1.0501663e-07 -6.7611389e-08 
Loop time of 2.77328 on 104 procs for 239 steps with 288751 atoms

99.9% CPU use with 104 MPI tasks x 1 OpenMP threads

Minimization stats:
  Stopping criterion = energy tolerance
  Energy initial, next-to-last, final = 
     -1152449.30944833  -1152449.31129491  -1152449.31129491
  Force two-norm initial, final = 0.2007318 1.0042679e-05
  Force max component initial, final = 0.1183214 6.0940800e-07
  Final line search alpha, max atom move = 1.0000000 6.0940800e-07
  Iterations, force evaluations = 239 478

MPI task timing breakdown:
Section |  min time  |  avg time  |  max time  |%varavg| %total
---------------------------------------------------------------
Pair    | 0.71886    | 2.0228     | 2.6059     |  38.4 | 72.94
Neigh   | 0          | 0          | 0          |   0.0 |  0.00
Comm    | 0.047882   | 0.45181    | 1.3527     |  57.0 | 16.29
Output  | 0          | 0          | 0          |   0.0 |  0.00
Modify  | 2.9516e-05 | 0.0039543  | 0.0084254  |   3.0 |  0.14
Other   |            | 0.2948     |            |       | 10.63

Nlocal:        2776.45 ave        3945 max           0 min
Histogram: 8 4 4 0 4 12 8 2 24 38
Nghost:        3879.47 ave        5427 max         232 min
Histogram: 8 0 8 0 16 0 8 8 16 40
Neighs:        79213.6 ave      114764 max           0 min
Histogram: 8 4 4 0 10 6 8 8 22 34

Total # of neighbors = 8238216
Ave neighs/atom = 28.530519
Neighbor list builds = 0
Dangerous builds = 0
The dot product: 1.18218805519094e-09
Setting atom values ...
  1 settings made for x
  1 settings made for y
  1 settings made for z
Setting up cg style minimization ...
  Unit style    : metal
  Current step  : 5482
Per MPI rank memory allocation (min/avg/max) = 5.441 | 5.816 | 6.074 Mbytes
Step PotEng KinEng TotEng v_fx v_fy v_fz 
    5482   -1152449.3            0   -1152449.3  0.020614997 -0.051624499 -0.010776009 
    5697   -1152449.3            0   -1152449.3 2.371308e-05 -1.4108831e-06 -1.1193011e-05 
Loop time of 2.49388 on 104 procs for 215 steps with 288751 atoms

99.9% CPU use with 104 MPI tasks x 1 OpenMP threads

Minimization stats:
  Stopping criterion = energy tolerance
  Energy initial, next-to-last, final = 
      -1152449.2866614  -1152449.29366381  -1152449.29366381
  Force two-norm initial, final = 0.2058358 9.3463010e-05
  Force max component initial, final = 0.12020901 2.4844110e-05
  Final line search alpha, max atom move = 1.0000000 2.4844110e-05
  Iterations, force evaluations = 215 430

MPI task timing breakdown:
Section |  min time  |  avg time  |  max time  |%varavg| %total
---------------------------------------------------------------
Pair    | 0.65052    | 1.8068     | 2.3388     |  36.3 | 72.45
Neigh   | 1.0345e-05 | 0.0029499  | 0.0042799  |   2.2 |  0.12
Comm    | 0.044653   | 0.40493    | 1.209      |  53.6 | 16.24
Output  | 0          | 0          | 0          |   0.0 |  0.00
Modify  | 2.7566e-05 | 0.0035468  | 0.0075087  |   2.8 |  0.14
Other   |            | 0.2756     |            |       | 11.05

Nlocal:        2776.45 ave        3946 max           0 min
Histogram: 8 4 4 0 4 12 8 2 24 38
Nghost:        3879.49 ave        5427 max         232 min
Histogram: 8 0 8 0 16 0 8 8 16 40
Neighs:        79213.7 ave      114786 max           0 min
Histogram: 8 4 4 0 10 6 8 8 22 34

Total # of neighbors = 8238222
Ave neighs/atom = 28.530540
Neighbor list builds = 1
Dangerous builds = 0
The dot product: -2.80888960379175e-07
Setting atom values ...
  1 settings made for x
  1 settings made for y
  1 settings made for z
Setting up cg style minimization ...
  Unit style    : metal
  Current step  : 5697
Per MPI rank memory allocation (min/avg/max) = 5.441 | 5.816 | 6.074 Mbytes
Step PotEng KinEng TotEng v_fx v_fy v_fz 
    5697   -1152449.3            0   -1152449.3 -0.036134779   -0.2241419 -0.030637713 
    5954   -1152449.3            0   -1152449.3 -2.2345673e-06 1.4296059e-06 1.2700785e-06 
Loop time of 2.98639 on 104 procs for 257 steps with 288751 atoms

99.9% CPU use with 104 MPI tasks x 1 OpenMP threads

Minimization stats:
  Stopping criterion = energy tolerance
  Energy initial, next-to-last, final = 
     -1152449.27185334  -1152449.33808166  -1152449.33808166
  Force two-norm initial, final = 0.29766448 6.6222065e-05
  Force max component initial, final = 0.2241419 1.2808134e-05
  Final line search alpha, max atom move = 1.0000000 1.2808134e-05
  Iterations, force evaluations = 257 514

MPI task timing breakdown:
Section |  min time  |  avg time  |  max time  |%varavg| %total
---------------------------------------------------------------
Pair    | 0.77769    | 2.1659     | 2.808      |  39.5 | 72.53
Neigh   | 2.0336e-05 | 0.0058931  | 0.0085435  |   3.2 |  0.20
Comm    | 0.045055   | 0.49084    | 1.4537     |  58.0 | 16.44
Output  | 0          | 0          | 0          |   0.0 |  0.00
Modify  | 3.2193e-05 | 0.0042433  | 0.0090376  |   3.1 |  0.14
Other   |            | 0.3195     |            |       | 10.70

Nlocal:        2776.45 ave        3946 max           0 min
Histogram: 8 4 4 0 4 12 8 2 24 38
Nghost:        3879.47 ave        5427 max         232 min
Histogram: 8 0 8 0 16 0 8 8 16 40
Neighs:        79213.5 ave      114791 max           0 min
Histogram: 8 4 4 0 10 6 8 8 22 34

Total # of neighbors = 8238206
Ave neighs/atom = 28.530485
Neighbor list builds = 2
Dangerous builds = 0
The dot product: -1.52974466524751e-07
Setting atom values ...
  1 settings made for x
  1 settings made for y
  1 settings made for z
Setting up cg style minimization ...
  Unit style    : metal
  Current step  : 5954
Per MPI rank memory allocation (min/avg/max) = 5.441 | 5.816 | 6.074 Mbytes
Step PotEng KinEng TotEng v_fx v_fy v_fz 
    5954   -1152449.3            0   -1152449.3 -0.044607872   -0.1151734 -0.064721499 
    6000   -1152449.3            0   -1152449.3 -0.00012985599 -0.00028981855 -0.00015800857 
    6173   -1152449.3            0   -1152449.3 -5.5378285e-06 -1.1321782e-06 7.6978703e-07 
Loop time of 2.56593 on 104 procs for 219 steps with 288751 atoms

99.9% CPU use with 104 MPI tasks x 1 OpenMP threads

Minimization stats:
  Stopping criterion = energy tolerance
  Energy initial, next-to-last, final = 
     -1152449.33241082  -1152449.33458162  -1152449.33458162
  Force two-norm initial, final = 0.2005279 3.2170086e-05
  Force max component initial, final = 0.1151734 5.5378285e-06
  Final line search alpha, max atom move = 1.0000000 5.5378285e-06
  Iterations, force evaluations = 219 438

MPI task timing breakdown:
Section |  min time  |  avg time  |  max time  |%varavg| %total
---------------------------------------------------------------
Pair    | 0.65796    | 1.8423     | 2.3903     |  36.7 | 71.80
Neigh   | 0          | 0          | 0          |   0.0 |  0.00
Comm    | 0.041104   | 0.41518    | 1.2396     |  54.0 | 16.18
Output  | 0.00015228 | 0.00016055 | 0.00026621 |   0.0 |  0.01
Modify  | 2.7011e-05 | 0.0036195  | 0.0076624  |   2.8 |  0.14
Other   |            | 0.3047     |            |       | 11.87

Nlocal:        2776.45 ave        3947 max           0 min
Histogram: 8 4 4 0 4 12 8 3 23 38
Nghost:        3879.51 ave        5428 max         232 min
Histogram: 8 0 8 0 16 0 8 8 16 40
Neighs:        79213.3 ave      114832 max           0 min
Histogram: 8 4 4 0 10 6 8 8 21 35

Total # of neighbors = 8238187
Ave neighs/atom = 28.530419
Neighbor list builds = 0
Dangerous builds = 0
The dot product: 6.56985821488839e-08
Setting atom values ...
  1 settings made for x
  1 settings made for y
  1 settings made for z
Setting up cg style minimization ...
  Unit style    : metal
  Current step  : 6173
Per MPI rank memory allocation (min/avg/max) = 5.441 | 5.816 | 6.074 Mbytes
Step PotEng KinEng TotEng v_fx v_fy v_fz 
    6173   -1152449.3            0   -1152449.3 -0.010511132 -0.055165725 -0.036498523 
    6373   -1152449.3            0   -1152449.3 1.3186076e-05 -9.3133689e-06 -1.0072334e-05 
Loop time of 2.33323 on 104 procs for 200 steps with 288751 atoms

99.9% CPU use with 104 MPI tasks x 1 OpenMP threads

Minimization stats:
  Stopping criterion = energy tolerance
  Energy initial, next-to-last, final = 
     -1152449.32775683  -1152449.32892494  -1152449.32892494
  Force two-norm initial, final = 0.15564929 7.1579895e-05
  Force max component initial, final = 0.061002334 1.8355890e-05
  Final line search alpha, max atom move = 1.0000000 1.8355890e-05
  Iterations, force evaluations = 200 400

MPI task timing breakdown:
Section |  min time  |  avg time  |  max time  |%varavg| %total
---------------------------------------------------------------
Pair    | 0.60005    | 1.6858     | 2.1766     |  35.0 | 72.25
Neigh   | 0          | 0          | 0          |   0.0 |  0.00
Comm    | 0.038213   | 0.37895    | 1.1467     |  51.8 | 16.24
Output  | 0          | 0          | 0          |   0.0 |  0.00
Modify  | 2.5477e-05 | 0.0033059  | 0.0070088  |   2.7 |  0.14
Other   |            | 0.2652     |            |       | 11.37

Nlocal:        2776.45 ave        3946 max           0 min
Histogram: 8 4 4 0 4 12 8 2 24 38
Nghost:        3879.51 ave        5428 max         232 min
Histogram: 8 0 8 0 16 0 8 8 16 40
Neighs:        79213.3 ave      114804 max           0 min
Histogram: 8 4 4 0 10 6 8 8 22 34

Total # of neighbors = 8238187
Ave neighs/atom = 28.530419
Neighbor list builds = 0
Dangerous builds = 0
The dot product: 3.82996866228098e-08
Setting atom values ...
  1 settings made for x
  1 settings made for y
  1 settings made for z
Setting up cg style minimization ...
  Unit style    : metal
  Current step  : 6373
Per MPI rank memory allocation (min/avg/max) = 5.441 | 5.816 | 6.074 Mbytes
Step PotEng KinEng TotEng v_fx v_fy v_fz 
    6373   -1152449.3            0   -1152449.3 -0.0077351711 -0.049671936 -0.033872762 
    6562   -1152449.3            0   -1152449.3 -1.4048058e-06 -3.8999092e-06 -2.4527494e-06 
Loop time of 2.18774 on 104 procs for 189 steps with 288751 atoms

99.9% CPU use with 104 MPI tasks x 1 OpenMP threads

Minimization stats:
  Stopping criterion = energy tolerance
  Energy initial, next-to-last, final = 
     -1152449.32065512  -1152449.32177299  -1152449.32177299
  Force two-norm initial, final = 0.15157053 0.00010006393
  Force max component initial, final = 0.059088947 6.8852883e-06
  Final line search alpha, max atom move = 1.0000000 6.8852883e-06
  Iterations, force evaluations = 189 378

MPI task timing breakdown:
Section |  min time  |  avg time  |  max time  |%varavg| %total
---------------------------------------------------------------
Pair    | 0.56653    | 1.5863     | 2.0504     |  34.1 | 72.51
Neigh   | 0          | 0          | 0          |   0.0 |  0.00
Comm    | 0.037972   | 0.35387    | 1.0742     |  50.5 | 16.17
Output  | 0          | 0          | 0          |   0.0 |  0.00
Modify  | 2.3413e-05 | 0.0031171  | 0.0066108  |   2.6 |  0.14
Other   |            | 0.2444     |            |       | 11.17

Nlocal:        2776.45 ave        3946 max           0 min
Histogram: 8 4 4 0 4 12 8 2 24 38
Nghost:        3879.55 ave        5428 max         232 min
Histogram: 8 0 8 0 16 0 8 8 16 40
Neighs:        79213.3 ave      114788 max           0 min
Histogram: 8 4 4 0 10 6 8 8 22 34

Total # of neighbors = 8238188
Ave neighs/atom = 28.530422
Neighbor list builds = 0
Dangerous builds = 0
The dot product: 1.80342275503277e-08
Setting atom values ...
  1 settings made for x
  1 settings made for y
  1 settings made for z
Setting up cg style minimization ...
  Unit style    : metal
  Current step  : 6562
Per MPI rank memory allocation (min/avg/max) = 5.441 | 5.816 | 6.074 Mbytes
Step PotEng KinEng TotEng v_fx v_fy v_fz 
    6562   -1152449.3            0   -1152449.3 -0.0071779621 -0.048189058 -0.033346248 
    6739   -1152449.3            0   -1152449.3 3.5231041e-05 1.2318905e-05 -9.5275579e-08 
Loop time of 2.04562 on 104 procs for 177 steps with 288751 atoms

99.9% CPU use with 104 MPI tasks x 1 OpenMP threads

Minimization stats:
  Stopping criterion = energy tolerance
  Energy initial, next-to-last, final = 
     -1152449.31201824  -1152449.31311571  -1152449.31311571
  Force two-norm initial, final = 0.14985195 0.00014896949
  Force max component initial, final = 0.057130955 3.5231041e-05
  Final line search alpha, max atom move = 1.0000000 3.5231041e-05
  Iterations, force evaluations = 177 354

MPI task timing breakdown:
Section |  min time  |  avg time  |  max time  |%varavg| %total
---------------------------------------------------------------
Pair    | 0.53155    | 1.4912     | 1.9281     |  32.9 | 72.90
Neigh   | 0          | 0          | 0          |   0.0 |  0.00
Comm    | 0.032197   | 0.33255    | 1.0015     |  48.8 | 16.26
Output  | 0          | 0          | 0          |   0.0 |  0.00
Modify  | 2.239e-05  | 0.0029241  | 0.0061951  |   2.5 |  0.14
Other   |            | 0.2189     |            |       | 10.70

Nlocal:        2776.45 ave        3946 max           0 min
Histogram: 8 4 4 0 4 12 8 2 24 38
Nghost:        3879.54 ave        5428 max         232 min
Histogram: 8 0 8 0 16 0 8 8 16 40
Neighs:        79213.4 ave      114787 max           0 min
Histogram: 8 4 4 0 10 6 8 8 22 34

Total # of neighbors = 8238189
Ave neighs/atom = 28.530426
Neighbor list builds = 0
Dangerous builds = 0
The dot product: -6.85826908075348e-08
Setting atom values ...
  1 settings made for x
  1 settings made for y
  1 settings made for z
Setting up cg style minimization ...
  Unit style    : metal
  Current step  : 6739
Per MPI rank memory allocation (min/avg/max) = 5.441 | 5.816 | 6.074 Mbytes
Step PotEng KinEng TotEng v_fx v_fy v_fz 
    6739   -1152449.3            0   -1152449.3 -0.0063380639 -0.046979515 -0.033040677 
    6926   -1152449.3            0   -1152449.3 1.4233825e-06 2.1379582e-05 1.541209e-05 
Loop time of 2.18922 on 104 procs for 187 steps with 288751 atoms

99.9% CPU use with 104 MPI tasks x 1 OpenMP threads

Minimization stats:
  Stopping criterion = energy tolerance
  Energy initial, next-to-last, final = 
     -1152449.30184724  -1152449.30293029  -1152449.30293029
  Force two-norm initial, final = 0.14852349 0.00011428516
  Force max component initial, final = 0.055163447 2.1379582e-05
  Final line search alpha, max atom move = 1.0000000 2.1379582e-05
  Iterations, force evaluations = 187 374

MPI task timing breakdown:
Section |  min time  |  avg time  |  max time  |%varavg| %total
---------------------------------------------------------------
Pair    | 0.56248    | 1.5692     | 2.0377     |  33.9 | 71.68
Neigh   | 0          | 0          | 0          |   0.0 |  0.00
Comm    | 0.039294   | 0.35476    | 1.0547     |  49.3 | 16.20
Output  | 0          | 0          | 0          |   0.0 |  0.00
Modify  | 2.3179e-05 | 0.0030885  | 0.0065427  |   2.6 |  0.14
Other   |            | 0.2622     |            |       | 11.98

Nlocal:        2776.45 ave        3946 max           0 min
Histogram: 8 4 4 0 4 12 8 2 24 38
Nghost:        3879.51 ave        5428 max         232 min
Histogram: 8 0 8 0 16 0 8 8 16 40
Neighs:        79213.4 ave      114793 max           0 min
Histogram: 8 4 4 0 10 6 8 8 22 34

Total # of neighbors = 8238189
Ave neighs/atom = 28.530426
Neighbor list builds = 0
Dangerous builds = 0
The dot product: -8.78219578480792e-08
Setting atom values ...
  1 settings made for x
  1 settings made for y
  1 settings made for z
Setting up cg style minimization ...
  Unit style    : metal
  Current step  : 6926
Per MPI rank memory allocation (min/avg/max) = 5.441 | 5.816 | 6.074 Mbytes
Step PotEng KinEng TotEng v_fx v_fy v_fz 
    6926   -1152449.3            0   -1152449.3 -0.0051570808 -0.045796885 -0.032803253 
    7000   -1152449.3            0   -1152449.3 3.623926e-05 -8.3664835e-05 -7.1644375e-05 
    7077   -1152449.3            0   -1152449.3 -7.6998042e-05 2.9454866e-05 4.170784e-05 
Loop time of 1.75418 on 104 procs for 151 steps with 288751 atoms

99.9% CPU use with 104 MPI tasks x 1 OpenMP threads

Minimization stats:
  Stopping criterion = energy tolerance
  Energy initial, next-to-last, final = 
     -1152449.29012133  -1152449.29119163  -1152449.29119163
  Force two-norm initial, final = 0.14743122 0.00030602095
  Force max component initial, final = 0.053206263 7.6998042e-05
  Final line search alpha, max atom move = 1.0000000 7.6998042e-05
  Iterations, force evaluations = 151 302

MPI task timing breakdown:
Section |  min time  |  avg time  |  max time  |%varavg| %total
---------------------------------------------------------------
Pair    | 0.45272    | 1.2765     | 1.6521     |  30.6 | 72.77
Neigh   | 0          | 0          | 0          |   0.0 |  0.00
Comm    | 0.029208   | 0.28733    | 0.85895    |  45.1 | 16.38
Output  | 0.00015215 | 0.0001555  | 0.0002628  |   0.0 |  0.01
Modify  | 1.9024e-05 | 0.0024956  | 0.0053104  |   2.4 |  0.14
Other   |            | 0.1877     |            |       | 10.70

Nlocal:        2776.45 ave        3946 max           0 min
Histogram: 8 4 4 0 4 12 8 2 24 38
Nghost:        3879.47 ave        5427 max         232 min
Histogram: 8 0 8 0 16 0 8 8 16 40
Neighs:        79213.4 ave      114793 max           0 min
Histogram: 8 4 4 0 10 6 8 8 22 34

Total # of neighbors = 8238190
Ave neighs/atom = 28.530429
Neighbor list builds = 0
Dangerous builds = 0
The dot product: -1.01454958409851e-07
Setting atom values ...
  1 settings made for x
  1 settings made for y
  1 settings made for z
Setting up cg style minimization ...
  Unit style    : metal
  Current step  : 7077
Per MPI rank memory allocation (min/avg/max) = 5.441 | 5.816 | 6.074 Mbytes
Step PotEng KinEng TotEng v_fx v_fy v_fz 
    7077   -1152449.3            0   -1152449.3 -0.0036082902 -0.044726654 -0.032711822 
    7256   -1152449.3            0   -1152449.3 -5.0772151e-06 -1.8389175e-05 -1.2528467e-05 
Loop time of 2.07233 on 104 procs for 179 steps with 288751 atoms

99.9% CPU use with 104 MPI tasks x 1 OpenMP threads

Minimization stats:
  Stopping criterion = energy tolerance
  Energy initial, next-to-last, final = 
     -1152449.27681796  -1152449.27787778  -1152449.27787778
  Force two-norm initial, final = 0.14656998 0.0001451792
  Force max component initial, final = 0.051222718 2.3111713e-05
  Final line search alpha, max atom move = 1.0000000 2.3111713e-05
  Iterations, force evaluations = 179 358

MPI task timing breakdown:
Section |  min time  |  avg time  |  max time  |%varavg| %total
---------------------------------------------------------------
Pair    | 0.53633    | 1.5013     | 1.9427     |  33.2 | 72.44
Neigh   | 0          | 0          | 0          |   0.0 |  0.00
Comm    | 0.033559   | 0.33696    | 1.0079     |  48.8 | 16.26
Output  | 0          | 0          | 0          |   0.0 |  0.00
Modify  | 2.2294e-05 | 0.0029577  | 0.0062614  |   2.6 |  0.14
Other   |            | 0.2312     |            |       | 11.15

Nlocal:        2776.45 ave        3946 max           0 min
Histogram: 8 4 4 0 4 12 8 2 24 38
Nghost:        3879.47 ave        5427 max         232 min
Histogram: 8 0 8 0 16 0 8 8 16 40
Neighs:        79213.4 ave      114795 max           0 min
Histogram: 8 4 4 0 10 6 8 8 22 34

Total # of neighbors = 8238189
Ave neighs/atom = 28.530426
Neighbor list builds = 0
Dangerous builds = 0
The dot product: 7.17740188545668e-08
Setting atom values ...
  1 settings made for x
  1 settings made for y
  1 settings made for z
Setting up cg style minimization ...
  Unit style    : metal
  Current step  : 7256
Per MPI rank memory allocation (min/avg/max) = 5.441 | 5.816 | 6.074 Mbytes
Step PotEng KinEng TotEng v_fx v_fy v_fz 
    7256   -1152449.3            0   -1152449.3 -0.0015783773 -0.043897854 -0.032894162 
    7456   -1152449.3            0   -1152449.3 2.6068972e-05 -9.6174707e-06 -1.3972131e-05 
Loop time of 2.33095 on 104 procs for 200 steps with 288751 atoms

99.9% CPU use with 104 MPI tasks x 1 OpenMP threads

Minimization stats:
  Stopping criterion = energy tolerance
  Energy initial, next-to-last, final = 
     -1152449.26192255  -1152449.26297181  -1152449.26297181
  Force two-norm initial, final = 0.14602555 9.1317820e-05
  Force max component initial, final = 0.049231967 2.6068972e-05
  Final line search alpha, max atom move = 1.0000000 2.6068972e-05
  Iterations, force evaluations = 200 400

MPI task timing breakdown:
Section |  min time  |  avg time  |  max time  |%varavg| %total
---------------------------------------------------------------
Pair    | 0.59956    | 1.6895     | 2.1825     |  35.2 | 72.48
Neigh   | 0          | 0          | 0          |   0.0 |  0.00
Comm    | 0.036666   | 0.38138    | 1.1367     |  51.7 | 16.36
Output  | 0          | 0          | 0          |   0.0 |  0.00
Modify  | 2.4992e-05 | 0.0033009  | 0.007015   |   2.7 |  0.14
Other   |            | 0.2567     |            |       | 11.01

Nlocal:        2776.45 ave        3946 max           0 min
Histogram: 8 4 4 0 4 12 8 2 24 38
Nghost:        3879.43 ave        5427 max         232 min
Histogram: 8 0 8 0 16 0 8 8 16 40
Neighs:        79213.4 ave      114797 max           0 min
Histogram: 8 4 4 0 10 6 8 8 22 34

Total # of neighbors = 8238189
Ave neighs/atom = 28.530426
Neighbor list builds = 0
Dangerous builds = 0
The dot product: 4.00119921560098e-08
Setting atom values ...
  1 settings made for x
  1 settings made for y
  1 settings made for z
Setting up cg style minimization ...
  Unit style    : metal
  Current step  : 7456
Per MPI rank memory allocation (min/avg/max) = 5.441 | 5.816 | 6.074 Mbytes
Step PotEng KinEng TotEng v_fx v_fy v_fz 
    7456   -1152449.2            0   -1152449.2 0.00063867489 -0.043410145 -0.033365766 
    7663   -1152449.2            0   -1152449.2 1.4467977e-05 -1.4629599e-06 -4.8272058e-06 
Loop time of 2.39764 on 104 procs for 207 steps with 288751 atoms

99.9% CPU use with 104 MPI tasks x 1 OpenMP threads

Minimization stats:
  Stopping criterion = energy tolerance
  Energy initial, next-to-last, final = 
     -1152449.24542463  -1152449.24646074  -1152449.24646074
  Force two-norm initial, final = 0.14570184 7.2111338e-05
  Force max component initial, final = 0.047207552 1.4467977e-05
  Final line search alpha, max atom move = 1.0000000 1.4467977e-05
  Iterations, force evaluations = 207 414

MPI task timing breakdown:
Section |  min time  |  avg time  |  max time  |%varavg| %total
---------------------------------------------------------------
Pair    | 0.62448    | 1.7385     | 2.2552     |  35.6 | 72.51
Neigh   | 0          | 0          | 0          |   0.0 |  0.00
Comm    | 0.040949   | 0.38963    | 1.1659     |  52.5 | 16.25
Output  | 0          | 0          | 0          |   0.0 |  0.00
Modify  | 2.5765e-05 | 0.0034181  | 0.0072463  |   2.8 |  0.14
Other   |            | 0.2661     |            |       | 11.10

Nlocal:        2776.45 ave        3946 max           0 min
Histogram: 8 4 4 0 4 12 8 2 24 38
Nghost:        3879.42 ave        5427 max         232 min
Histogram: 8 0 8 0 16 0 8 8 16 40
Neighs:        79213.3 ave      114797 max           0 min
Histogram: 8 4 4 0 10 6 8 8 22 34

Total # of neighbors = 8238188
Ave neighs/atom = 28.530422
Neighbor list builds = 0
Dangerous builds = 0
The dot product: 9.55169208472444e-09
Setting atom values ...
  1 settings made for x
  1 settings made for y
  1 settings made for z
Setting up cg style minimization ...
  Unit style    : metal
  Current step  : 7663
Per MPI rank memory allocation (min/avg/max) = 5.441 | 5.816 | 6.074 Mbytes
Step PotEng KinEng TotEng v_fx v_fy v_fz 
    7663   -1152449.2            0   -1152449.2 0.0030716514 -0.043607491 -0.034413391 
    7853   -1152449.2            0   -1152449.2 2.3861435e-05 -2.1074385e-05 -2.237606e-05 
Loop time of 2.19987 on 104 procs for 190 steps with 288751 atoms

99.9% CPU use with 104 MPI tasks x 1 OpenMP threads

Minimization stats:
  Stopping criterion = energy tolerance
  Energy initial, next-to-last, final = 
      -1152449.2273185  -1152449.22833993  -1152449.22833993
  Force two-norm initial, final = 0.14576786 0.00013304281
  Force max component initial, final = 0.048063899 3.5869109e-05
  Final line search alpha, max atom move = 1.0000000 3.5869109e-05
  Iterations, force evaluations = 190 380

MPI task timing breakdown:
Section |  min time  |  avg time  |  max time  |%varavg| %total
---------------------------------------------------------------
Pair    | 0.56868    | 1.601      | 2.069      |  34.1 | 72.78
Neigh   | 0          | 0          | 0          |   0.0 |  0.00
Comm    | 0.032428   | 0.35728    | 1.0723     |  50.5 | 16.24
Output  | 0          | 0          | 0          |   0.0 |  0.00
Modify  | 2.3998e-05 | 0.0031363  | 0.0066533  |   2.6 |  0.14
Other   |            | 0.2385     |            |       | 10.84

Nlocal:        2776.45 ave        3946 max           0 min
Histogram: 8 4 4 0 4 12 8 2 24 38
Nghost:        3879.41 ave        5427 max         232 min
Histogram: 8 0 8 0 16 0 8 8 16 40
Neighs:        79213.4 ave      114798 max           0 min
Histogram: 8 4 4 0 10 6 8 8 22 34

Total # of neighbors = 8238189
Ave neighs/atom = 28.530426
Neighbor list builds = 0
Dangerous builds = 0
The dot product: 9.70508010456289e-08
Setting atom values ...
  1 settings made for x
  1 settings made for y
  1 settings made for z
Setting up cg style minimization ...
  Unit style    : metal
  Current step  : 7853
Per MPI rank memory allocation (min/avg/max) = 5.441 | 5.816 | 6.074 Mbytes
Step PotEng KinEng TotEng v_fx v_fy v_fz 
    7853   -1152449.2            0   -1152449.2 0.0058208106 -0.044864732 -0.036379841 
    8000   -1152449.2            0   -1152449.2 -2.8466351e-05 -4.1079737e-05 -2.4609747e-05 
    8064   -1152449.2            0   -1152449.2 1.1875963e-05 3.931755e-06 -6.634645e-10 
Loop time of 2.44408 on 104 procs for 211 steps with 288751 atoms

99.9% CPU use with 104 MPI tasks x 1 OpenMP threads

Minimization stats:
  Stopping criterion = energy tolerance
  Energy initial, next-to-last, final = 
     -1152449.20761856   -1152449.2086253   -1152449.2086253
  Force two-norm initial, final = 0.14647871 6.7336063e-05
  Force max component initial, final = 0.051308037 1.1875963e-05
  Final line search alpha, max atom move = 1.0000000 1.1875963e-05
  Iterations, force evaluations = 211 422

MPI task timing breakdown:
Section |  min time  |  avg time  |  max time  |%varavg| %total
---------------------------------------------------------------
Pair    | 0.6317     | 1.774      | 2.303      |  36.1 | 72.58
Neigh   | 0          | 0          | 0          |   0.0 |  0.00
Comm    | 0.042151   | 0.39659    | 1.1952     |  53.1 | 16.23
Output  | 0.00014866 | 0.00016047 | 0.00029138 |   0.0 |  0.01
Modify  | 2.5804e-05 | 0.0034787  | 0.0073891  |   2.8 |  0.14
Other   |            | 0.2698     |            |       | 11.04

Nlocal:        2776.45 ave        3945 max           0 min
Histogram: 8 4 4 0 4 12 8 2 24 38
Nghost:        3879.43 ave        5427 max         232 min
Histogram: 8 0 8 0 16 0 8 8 16 40
Neighs:        79213.4 ave      114768 max           0 min
Histogram: 8 4 4 0 10 6 8 8 22 34

Total # of neighbors = 8238190
Ave neighs/atom = 28.530429
Neighbor list builds = 0
Dangerous builds = 0
The dot product: -8.99578299938697e-09
Setting atom values ...
  1 settings made for x
  1 settings made for y
  1 settings made for z
Setting up cg style minimization ...
  Unit style    : metal
  Current step  : 8064
Per MPI rank memory allocation (min/avg/max) = 5.441 | 5.816 | 6.074 Mbytes
Step PotEng KinEng TotEng v_fx v_fy v_fz 
    8064   -1152449.2            0   -1152449.2 0.0088159389  -0.04762891 -0.039641837 
    8241   -1152449.2            0   -1152449.2 -4.6117886e-05 2.7496783e-05 3.3495557e-05 
Loop time of 2.04703 on 104 procs for 177 steps with 288751 atoms

99.9% CPU use with 104 MPI tasks x 1 OpenMP threads

Minimization stats:
  Stopping criterion = energy tolerance
  Energy initial, next-to-last, final = 
     -1152449.18637372  -1152449.18737063  -1152449.18737063
  Force two-norm initial, final = 0.14814524 0.00020851247
  Force max component initial, final = 0.054514381 6.0094732e-05
  Final line search alpha, max atom move = 1.0000000 6.0094732e-05
  Iterations, force evaluations = 177 354

MPI task timing breakdown:
Section |  min time  |  avg time  |  max time  |%varavg| %total
---------------------------------------------------------------
Pair    | 0.53239    | 1.4944     | 1.9284     |  33.0 | 73.00
Neigh   | 0          | 0          | 0          |   0.0 |  0.00
Comm    | 0.032928   | 0.33385    | 1.0139     |  49.0 | 16.31
Output  | 0          | 0          | 0          |   0.0 |  0.00
Modify  | 2.2166e-05 | 0.0029254  | 0.0062185  |   2.6 |  0.14
Other   |            | 0.2159     |            |       | 10.55

Nlocal:        2776.45 ave        3945 max           0 min
Histogram: 8 4 4 0 4 12 8 2 24 38
Nghost:        3879.45 ave        5427 max         232 min
Histogram: 8 0 8 0 16 0 8 8 16 40
Neighs:        79213.4 ave      114768 max           0 min
Histogram: 8 4 4 0 10 6 8 8 22 34

Total # of neighbors = 8238194
Ave neighs/atom = 28.530443
Neighbor list builds = 0
Dangerous builds = 0
The dot product: -2.11241440223268e-07
Setting atom values ...
  1 settings made for x
  1 settings made for y
  1 settings made for z
Setting up cg style minimization ...
  Unit style    : metal
  Current step  : 8241
Per MPI rank memory allocation (min/avg/max) = 5.441 | 5.816 | 6.074 Mbytes
Step PotEng KinEng TotEng v_fx v_fy v_fz 
    8241   -1152449.2            0   -1152449.2  0.012062253  -0.05302521 -0.045187184 
[...]

Nlocal:        2776.45 ave        3961 max           0 min
Histogram: 8 4 4 0 6 10 8 2 28 34
Nghost:        3879.03 ave        5424 max         232 min
Histogram: 8 0 8 0 16 0 8 8 16 40
Neighs:        79213.5 ave      115455 max           0 min
Histogram: 8 4 4 0 10 6 8 8 24 32

Total # of neighbors = 8238201
Ave neighs/atom = 28.530467
Neighbor list builds = 0
Dangerous builds = 0
The dot product: 9.80403559995528e-08
Setting atom values ...
  1 settings made for x
  1 settings made for y
  1 settings made for z
Setting up cg style minimization ...
  Unit style    : metal
  Current step  : 10983
Per MPI rank memory allocation (min/avg/max) = 5.441 | 5.816 | 6.074 Mbytes
Step PotEng KinEng TotEng v_fx v_fy v_fz 
   10983   -1152449.4            0   -1152449.4 -0.022253046  0.025409828  0.041889912 
   11000   -1152449.4            0   -1152449.4 0.00052292555 9.5973836e-05 -0.00017534229 
   11183   -1152449.4            0   -1152449.4 -7.8663896e-06 1.5809404e-05 2.277722e-05 
Loop time of 2.35224 on 104 procs for 200 steps with 288751 atoms

99.9% CPU use with 104 MPI tasks x 1 OpenMP threads

Minimization stats:
  Stopping criterion = energy tolerance
  Energy initial, next-to-last, final = 
     -1152449.44373889  -1152449.44525761  -1152449.44525761
  Force two-norm initial, final = 0.17868551 9.4287225e-05
  Force max component initial, final = 0.079735308 2.2777220e-05
  Final line search alpha, max atom move = 1.0000000 2.2777220e-05
  Iterations, force evaluations = 200 400

MPI task timing breakdown:
Section |  min time  |  avg time  |  max time  |%varavg| %total
---------------------------------------------------------------
Pair    | 0.61943    | 1.6854     | 2.1955     |  34.9 | 71.65
Neigh   | 0          | 0          | 0          |   0.0 |  0.00
Comm    | 0.035923   | 0.38239    | 1.1281     |  50.9 | 16.26
Output  | 0.00015943 | 0.00016609 | 0.00025353 |   0.0 |  0.01
Modify  | 2.4666e-05 | 0.0033095  | 0.0070401  |   2.7 |  0.14
Other   |            | 0.281      |            |       | 11.95

Nlocal:        2776.45 ave        3961 max           0 min
Histogram: 8 4 4 0 6 10 8 2 28 34
Nghost:        3879.11 ave        5424 max         232 min
Histogram: 8 0 8 0 16 0 8 8 16 40
Neighs:        79213.4 ave      115453 max           0 min
Histogram: 8 4 4 0 10 6 8 8 24 32

Total # of neighbors = 8238198
Ave neighs/atom = 28.530457
Neighbor list builds = 0
Dangerous builds = 0
The dot product: 1.07986845917037e-07
Setting atom values ...
  1 settings made for x
  1 settings made for y
  1 settings made for z
Setting up cg style minimization ...
  Unit style    : metal
  Current step  : 11183
Per MPI rank memory allocation (min/avg/max) = 5.441 | 5.816 | 6.074 Mbytes
Step PotEng KinEng TotEng v_fx v_fy v_fz 
   11183   -1152449.4            0   -1152449.4 -0.024788054  0.022862306  0.040506794 
   11385   -1152449.4            0   -1152449.4 -1.1935844e-05 3.5851271e-06 1.0791391e-05 
Loop time of 2.3928 on 104 procs for 202 steps with 288751 atoms

99.9% CPU use with 104 MPI tasks x 1 OpenMP threads

Minimization stats:
  Stopping criterion = energy tolerance
  Energy initial, next-to-last, final = 
     -1152449.43883307  -1152449.44030949  -1152449.44030949
  Force two-norm initial, final = 0.17634415 8.5216154e-05
  Force max component initial, final = 0.078640084 1.1935844e-05
  Final line search alpha, max atom move = 1.0000000 1.1935844e-05
  Iterations, force evaluations = 202 404

MPI task timing breakdown:
Section |  min time  |  avg time  |  max time  |%varavg| %total
---------------------------------------------------------------
Pair    | 0.6136     | 1.7082     | 2.2372     |  35.3 | 71.39
Neigh   | 0          | 0          | 0          |   0.0 |  0.00
Comm    | 0.034553   | 0.39559    | 1.1701     |  50.9 | 16.53
Output  | 0          | 0          | 0          |   0.0 |  0.00
Modify  | 2.5197e-05 | 0.0033341  | 0.0071615  |   2.7 |  0.14
Other   |            | 0.2857     |            |       | 11.94

Nlocal:        2776.45 ave        3961 max           0 min
Histogram: 8 4 4 0 6 10 8 2 28 34
Nghost:        3879.09 ave        5424 max         232 min
Histogram: 8 0 8 0 16 0 8 8 16 40
Neighs:        79213.5 ave      115453 max           0 min
Histogram: 8 4 4 0 10 6 8 8 24 32

Total # of neighbors = 8238202
Ave neighs/atom = 28.530471
Neighbor list builds = 0
Dangerous builds = 0
The dot product: 4.38941193761937e-08
Setting atom values ...
  1 settings made for x
  1 settings made for y
  1 settings made for z
Setting up cg style minimization ...
  Unit style    : metal
  Current step  : 11385
Per MPI rank memory allocation (min/avg/max) = 5.441 | 5.816 | 6.074 Mbytes
Step PotEng KinEng TotEng v_fx v_fy v_fz 
   11385   -1152449.4            0   -1152449.4 -0.028054884  0.019702517  0.038778414 
   11596   -1152449.4            0   -1152449.4 -3.3889441e-07 -1.4214862e-05 -1.6581631e-05 
Loop time of 2.45027 on 104 procs for 211 steps with 288751 atoms

99.9% CPU use with 104 MPI tasks x 1 OpenMP threads

Minimization stats:
  Stopping criterion = energy tolerance
  Energy initial, next-to-last, final = 
     -1152449.43228462   -1152449.4337123   -1152449.4337123
  Force two-norm initial, final = 0.17386238 5.7677640e-05
  Force max component initial, final = 0.077750562 1.6581631e-05
  Final line search alpha, max atom move = 1.0000000 1.6581631e-05
  Iterations, force evaluations = 211 422

MPI task timing breakdown:
Section |  min time  |  avg time  |  max time  |%varavg| %total
---------------------------------------------------------------
Pair    | 0.63858    | 1.7704     | 2.3098     |  35.9 | 72.25
Neigh   | 0          | 0          | 0          |   0.0 |  0.00
Comm    | 0.036736   | 0.39905    | 1.1885     |  52.5 | 16.29
Output  | 0          | 0          | 0          |   0.0 |  0.00
Modify  | 2.5937e-05 | 0.0034822  | 0.0073985  |   2.8 |  0.14
Other   |            | 0.2774     |            |       | 11.32

Nlocal:        2776.45 ave        3961 max           0 min
Histogram: 8 4 4 0 6 10 8 2 28 34
Nghost:        3879.09 ave        5424 max         232 min
Histogram: 8 0 8 0 16 0 8 8 16 40
Neighs:        79213.5 ave      115443 max           0 min
Histogram: 8 4 4 0 10 6 8 8 24 32

Total # of neighbors = 8238206
Ave neighs/atom = 28.530485
Neighbor list builds = 0
Dangerous builds = 0
The dot product: -7.08780004441733e-08
Setting atom values ...
  1 settings made for x
  1 settings made for y
  1 settings made for z
Setting up cg style minimization ...
  Unit style    : metal
  Current step  : 11596
Per MPI rank memory allocation (min/avg/max) = 5.441 | 5.816 | 6.074 Mbytes
Step PotEng KinEng TotEng v_fx v_fy v_fz 
   11596   -1152449.4            0   -1152449.4 -0.032024983  0.015951508  0.036716544 
   11821   -1152449.4            0   -1152449.4 -3.0275521e-06 -2.178965e-06 -8.983327e-07 
Loop time of 2.63636 on 104 procs for 225 steps with 288751 atoms

99.9% CPU use with 104 MPI tasks x 1 OpenMP threads

Minimization stats:
  Stopping criterion = energy tolerance
  Energy initial, next-to-last, final = 
     -1152449.42413874  -1152449.42551466  -1152449.42551466
  Force two-norm initial, final = 0.17160246 2.7462633e-05
  Force max component initial, final = 0.078303646 3.0275521e-06
  Final line search alpha, max atom move = 1.0000000 3.0275521e-06
  Iterations, force evaluations = 225 450

MPI task timing breakdown:
Section |  min time  |  avg time  |  max time  |%varavg| %total
---------------------------------------------------------------
Pair    | 0.68091    | 1.8963     | 2.4813     |  37.4 | 71.93
Neigh   | 0          | 0          | 0          |   0.0 |  0.00
Comm    | 0.038771   | 0.4382     | 1.2955     |  53.6 | 16.62
Output  | 0          | 0          | 0          |   0.0 |  0.00
Modify  | 2.8171e-05 | 0.0037201  | 0.00847    |   2.9 |  0.14
Other   |            | 0.2982     |            |       | 11.31

Nlocal:        2776.45 ave        3960 max           0 min
Histogram: 8 4 4 0 4 12 8 2 28 34
Nghost:        3879.11 ave        5424 max         232 min
Histogram: 8 0 8 0 16 0 8 8 16 40
Neighs:        79213.5 ave      115420 max           0 min
Histogram: 8 4 4 0 10 6 8 8 24 32

Total # of neighbors = 8238209
Ave neighs/atom = 28.530495
Neighbor list builds = 0
Dangerous builds = 0
The dot product: -1.47374175384105e-09
Setting atom values ...
  1 settings made for x
  1 settings made for y
  1 settings made for z
Setting up cg style minimization ...
  Unit style    : metal
  Current step  : 11821
Per MPI rank memory allocation (min/avg/max) = 5.441 | 5.816 | 6.074 Mbytes
Step PotEng KinEng TotEng v_fx v_fy v_fz 
   11821   -1152449.4            0   -1152449.4 -0.038055163  0.010461616  0.033723944 
   12000   -1152449.4            0   -1152449.4 -2.1100058e-05 -3.1546627e-05 -2.573797e-05 
   12006   -1152449.4            0   -1152449.4 -1.0423526e-05 -3.2123132e-06 2.0056602e-06 
Loop time of 2.18167 on 104 procs for 185 steps with 288751 atoms

99.9% CPU use with 104 MPI tasks x 1 OpenMP threads

Minimization stats:
  Stopping criterion = energy tolerance
  Energy initial, next-to-last, final = 
     -1152449.41449659  -1152449.41582103  -1152449.41582103
  Force two-norm initial, final = 0.16992812 0.00011722059
  Force max component initial, final = 0.078724296 1.5082690e-05
  Final line search alpha, max atom move = 1.0000000 1.5082690e-05
  Iterations, force evaluations = 185 370

MPI task timing breakdown:
Section |  min time  |  avg time  |  max time  |%varavg| %total
---------------------------------------------------------------
Pair    | 0.56254    | 1.5563     | 2.0456     |  33.7 | 71.34
Neigh   | 0          | 0          | 0          |   0.0 |  0.00
Comm    | 0.033502   | 0.35601    | 1.0437     |  48.6 | 16.32
Output  | 0.00019251 | 0.0002035  | 0.00036864 |   0.0 |  0.01
Modify  | 2.3523e-05 | 0.0030542  | 0.0064983  |   2.6 |  0.14
Other   |            | 0.2661     |            |       | 12.20

Nlocal:        2776.45 ave        3960 max           0 min
Histogram: 8 4 4 0 4 12 8 4 26 34
Nghost:        3879.10 ave        5424 max         232 min
Histogram: 8 0 8 0 16 0 8 8 16 40
Neighs:        79213.5 ave      115419 max           0 min
Histogram: 8 4 4 0 10 6 8 8 24 32

Total # of neighbors = 8238208
Ave neighs/atom = 28.530492
Neighbor list builds = 0
Dangerous builds = 0
The dot product: 2.70187053736981e-08
Setting atom values ...
  1 settings made for x
  1 settings made for y
  1 settings made for z
Setting up cg style minimization ...
  Unit style    : metal
  Current step  : 12006
Per MPI rank memory allocation (min/avg/max) = 5.441 | 5.816 | 6.074 Mbytes
Step PotEng KinEng TotEng v_fx v_fy v_fz 
   12006   -1152449.4            0   -1152449.4 -0.046607218 0.0027557891  0.029526252 
   12176   -1152449.4            0   -1152449.4 1.4013151e-05 8.2046346e-06 1.9035872e-06 
Loop time of 1.99839 on 104 procs for 170 steps with 288751 atoms

99.9% CPU use with 104 MPI tasks x 1 OpenMP threads

Minimization stats:
  Stopping criterion = energy tolerance
  Energy initial, next-to-last, final = 
     -1152449.40361119  -1152449.40498453  -1152449.40498453
  Force two-norm initial, final = 0.17081181 0.00012688289
  Force max component initial, final = 0.078889501 2.3135738e-05
  Final line search alpha, max atom move = 1.0000000 2.3135738e-05
  Iterations, force evaluations = 170 340

MPI task timing breakdown:
Section |  min time  |  avg time  |  max time  |%varavg| %total
---------------------------------------------------------------
Pair    | 0.51382    | 1.4357     | 1.8776     |  32.6 | 71.84
Neigh   | 0          | 0          | 0          |   0.0 |  0.00
Comm    | 0.03033    | 0.33012    | 0.96355    |  46.5 | 16.52
Output  | 0          | 0          | 0          |   0.0 |  0.00
Modify  | 2.12e-05   | 0.0028082  | 0.0060208  |   2.5 |  0.14
Other   |            | 0.2297     |            |       | 11.50

Nlocal:        2776.45 ave        3960 max           0 min
Histogram: 8 4 4 0 4 12 8 4 26 34
Nghost:        3879.09 ave        5424 max         232 min
Histogram: 8 0 8 0 16 0 8 8 16 40
Neighs:        79213.5 ave      115428 max           0 min
Histogram: 8 4 4 0 10 6 8 8 24 32

Total # of neighbors = 8238209
Ave neighs/atom = 28.530495
Neighbor list builds = 0
Dangerous builds = 0
The dot product: -8.91773511205108e-08
Setting atom values ...
  1 settings made for x
  1 settings made for y
  1 settings made for z
Setting up cg style minimization ...
  Unit style    : metal
  Current step  : 12176
Per MPI rank memory allocation (min/avg/max) = 5.441 | 5.816 | 6.074 Mbytes
Step PotEng KinEng TotEng v_fx v_fy v_fz 
   12176   -1152449.4            0   -1152449.4 -0.056337915 -0.0060005784  0.024944185 
   12324   -1152449.4            0   -1152449.4 -1.2689786e-05 1.1567456e-05 2.1046535e-05 
Loop time of 1.73187 on 104 procs for 148 steps with 288751 atoms

99.9% CPU use with 104 MPI tasks x 1 OpenMP threads

Minimization stats:
  Stopping criterion = energy tolerance
  Energy initial, next-to-last, final = 
     -1152449.39220951  -1152449.39410838  -1152449.39410838
  Force two-norm initial, final = 0.17520823 0.00019098571
  Force max component initial, final = 0.078265345 2.1046535e-05
  Final line search alpha, max atom move = 1.0000000 2.1046535e-05
  Iterations, force evaluations = 148 296

MPI task timing breakdown:
Section |  min time  |  avg time  |  max time  |%varavg| %total
---------------------------------------------------------------
Pair    | 0.44807    | 1.2441     | 1.6316     |  30.2 | 71.84
Neigh   | 0          | 0          | 0          |   0.0 |  0.00
Comm    | 0.027303   | 0.28327    | 0.83636    |  43.8 | 16.36
Output  | 0          | 0          | 0          |   0.0 |  0.00
Modify  | 1.842e-05  | 0.0024479  | 0.0052062  |   2.3 |  0.14
Other   |            | 0.2021     |            |       | 11.67

Nlocal:        2776.45 ave        3960 max           0 min
Histogram: 8 4 4 0 4 12 8 4 26 34
Nghost:        3879.11 ave        5425 max         232 min
Histogram: 8 0 8 0 16 0 8 8 16 40
Neighs:        79213.6 ave      115429 max           0 min
Histogram: 8 4 4 0 10 6 8 8 24 32

Total # of neighbors = 8238210
Ave neighs/atom = 28.530499
Neighbor list builds = 0
Dangerous builds = 0
The dot product: 1.22717004190541e-07
Setting atom values ...
  1 settings made for x
  1 settings made for y
  1 settings made for z
Setting up cg style minimization ...
  Unit style    : metal
  Current step  : 12324
Per MPI rank memory allocation (min/avg/max) = 5.441 | 5.816 | 6.074 Mbytes
Step PotEng KinEng TotEng v_fx v_fy v_fz 
   12324   -1152449.4            0   -1152449.4 -0.062210219 -0.011187089  0.023181327 
   12467   -1152449.4            0   -1152449.4 9.2281766e-07 -3.6942941e-05 -4.4403827e-05 
Loop time of 1.66899 on 104 procs for 143 steps with 288751 atoms

99.9% CPU use with 104 MPI tasks x 1 OpenMP threads

Minimization stats:
  Stopping criterion = energy tolerance
  Energy initial, next-to-last, final = 
     -1152449.38214725  -1152449.38413569  -1152449.38413569
  Force two-norm initial, final = 0.17565351 0.00019127321
  Force max component initial, final = 0.075680861 4.4403827e-05
  Final line search alpha, max atom move = 1.0000000 4.4403827e-05
  Iterations, force evaluations = 143 286

MPI task timing breakdown:
Section |  min time  |  avg time  |  max time  |%varavg| %total
---------------------------------------------------------------
Pair    | 0.43474    | 1.2084     | 1.5732     |  29.8 | 72.40
Neigh   | 0          | 0          | 0          |   0.0 |  0.00
Comm    | 0.026538   | 0.27468    | 0.80941    |  43.4 | 16.46
Output  | 0          | 0          | 0          |   0.0 |  0.00
Modify  | 1.8502e-05 | 0.002361   | 0.0050493  |   2.3 |  0.14
Other   |            | 0.1836     |            |       | 11.00

Nlocal:        2776.45 ave        3960 max           0 min
Histogram: 8 4 4 0 4 12 8 4 26 34
Nghost:        3879.09 ave        5424 max         232 min
Histogram: 8 0 8 0 16 0 8 8 16 40
Neighs:        79213.5 ave      115428 max           0 min
Histogram: 8 4 4 0 10 6 8 8 24 32

Total # of neighbors = 8238208
Ave neighs/atom = 28.530492
Neighbor list builds = 0
Dangerous builds = 0
The dot product: 2.53766073471686e-07
Setting atom values ...
  1 settings made for x
  1 settings made for y
  1 settings made for z
Setting up cg style minimization ...
  Unit style    : metal
  Current step  : 12467
Per MPI rank memory allocation (min/avg/max) = 5.441 | 5.816 | 6.074 Mbytes
Step PotEng KinEng TotEng v_fx v_fy v_fz 
   12467   -1152449.4            0   -1152449.4 -0.059159225 -0.010186073   0.02367595 
   12538   -1152449.4            0   -1152449.4 1.1678238e-05 -3.4264525e-05 -4.7476109e-05 
Loop time of 0.837107 on 104 procs for 71 steps with 288751 atoms

99.9% CPU use with 104 MPI tasks x 1 OpenMP threads

Minimization stats:
  Stopping criterion = energy tolerance
  Energy initial, next-to-last, final = 
     -1152449.37269873  -1152449.37431893  -1152449.37431893
  Force two-norm initial, final = 0.17036407 0.00018069399
  Force max component initial, final = 0.072667663 4.7476109e-05
  Final line search alpha, max atom move = 1.0000000 4.7476109e-05
  Iterations, force evaluations = 71 142

MPI task timing breakdown:
Section |  min time  |  avg time  |  max time  |%varavg| %total
---------------------------------------------------------------
Pair    | 0.2156     | 0.59906    | 0.78341    |  20.9 | 71.56
Neigh   | 0          | 0          | 0          |   0.0 |  0.00
Comm    | 0.01263    | 0.13638    | 0.40343    |  30.3 | 16.29
Output  | 0          | 0          | 0          |   0.0 |  0.00
Modify  | 9.3799e-06 | 0.0011786  | 0.0025337  |   1.6 |  0.14
Other   |            | 0.1005     |            |       | 12.00

Nlocal:        2776.45 ave        3960 max           0 min
Histogram: 8 4 4 0 4 12 8 4 26 34
Nghost:        3879.09 ave        5424 max         232 min
Histogram: 8 0 8 0 16 0 8 8 16 40
Neighs:        79213.5 ave      115428 max           0 min
Histogram: 8 4 4 0 10 6 8 8 24 32

Total # of neighbors = 8238207
Ave neighs/atom = 28.530488
Neighbor list builds = 0
Dangerous builds = 0
The dot product: -2.37549067330818e-12
Setting up cg style minimization ...
  Unit style    : metal
  Current step  : 12538
Per MPI rank memory allocation (min/avg/max) = 5.441 | 5.816 | 6.074 Mbytes
Step PotEng KinEng TotEng v_fx v_fy v_fz 
   12538   -1152449.4            0   -1152449.4   0.18093728  -0.35384772    0.2998116 
   12762   -1152449.5            0   -1152449.5 1.0889664e-05 1.5323701e-05 9.3302126e-05 
Loop time of 2.63571 on 104 procs for 224 steps with 288751 atoms

99.9% CPU use with 104 MPI tasks x 1 OpenMP threads

Minimization stats:
  Stopping criterion = energy tolerance
  Energy initial, next-to-last, final = 
     -1152449.37431893  -1152449.45035257  -1152449.45035257
  Force two-norm initial, final = 0.49782882 0.00025581291
  Force max component initial, final = 0.35384772 9.3302126e-05
  Final line search alpha, max atom move = 1.0000000 9.3302126e-05
  Iterations, force evaluations = 224 448

MPI task timing breakdown:
Section |  min time  |  avg time  |  max time  |%varavg| %total
---------------------------------------------------------------
Pair    | 0.68255    | 1.8897     | 2.4848     |  37.2 | 71.70
Neigh   | 1.0098e-05 | 0.0029366  | 0.0042862  |   2.2 |  0.11
Comm    | 0.03856    | 0.43863    | 1.2904     |  53.8 | 16.64
Output  | 0          | 0          | 0          |   0.0 |  0.00
Modify  | 2.6081e-05 | 0.0024082  | 0.0061754  |   3.1 |  0.09
Other   |            | 0.302      |            |       | 11.46

Nlocal:        2776.45 ave        3960 max           0 min
Histogram: 8 4 4 0 4 12 8 4 26 34
Nghost:        3879.09 ave        5424 max         232 min
Histogram: 8 0 8 0 16 0 8 8 16 40
Neighs:        79213.5 ave      115428 max           0 min
Histogram: 8 4 4 0 10 6 8 8 24 32

Total # of neighbors = 8238205
Ave neighs/atom = 28.530481
Neighbor list builds = 1
Dangerous builds = 0
