LAMMPS (29 Oct 2020)
OMP_NUM_THREADS environment is not set. Defaulting to 1 thread. (../comm.cpp:94)
  using 1 OpenMP thread(s) per MPI task
OMP_NUM_THREADS environment is not set. Defaulting to 1 thread. (../comm.cpp:94)
  using 1 OpenMP thread(s) per MPI task
Reading data file ...
  orthogonal box = (-122.39241 -121.13707 -37.090501) to (122.39241 121.13707 37.090501)
  13 by 4 by 2 MPI processor grid
  reading atoms ...
  288751 atoms
  read_data CPU = 0.371 seconds
199981 atoms in group inner
88770 atoms in group outer
1 atoms in group carbon
Neighbor list info ...
  update every 1 steps, delay 0 steps, check yes
  max neighbors/atom: 2000, page size: 100000
  master list distance cutoff = 5.6
  ghost atom cutoff = 5.6
  binsize = 2.8, bins = 88 87 27
  1 neighbor lists, perpetual/occasional/extra = 1 0 0
  (1) pair eam/alloy, perpetual
      attributes: half, newton on
      pair build: half/bin/atomonly/newton
      stencil: half/bin/3d/newton
      bin: standard
Setting up cg style minimization ...
  Unit style    : metal
  Current step  : 0
Per MPI rank memory allocation (min/avg/max) = 5.441 | 5.816 | 6.074 Mbytes
Step v_fx v_fy v_fz PotEng KinEng TotEng 
       0  -0.38712207  -0.48950456   0.53494742   -1152447.8            0   -1152447.8 
     216 -9.4196267e-07 -2.7990341e-07 -7.060518e-09   -1152449.5            0   -1152449.5 
Loop time of 2.55898 on 104 procs for 216 steps with 288751 atoms

99.8% CPU use with 104 MPI tasks x 1 OpenMP threads

Minimization stats:
  Stopping criterion = energy tolerance
  Energy initial, next-to-last, final = 
     -1152447.84512493  -1152449.45035286  -1152449.45035286
  Force two-norm initial, final = 9.8085574 1.1625869e-05
  Force max component initial, final = 5.2817615 2.2465413e-06
  Final line search alpha, max atom move = 1.0000000 2.2465413e-06
  Iterations, force evaluations = 216 431

MPI task timing breakdown:
Section |  min time  |  avg time  |  max time  |%varavg| %total
---------------------------------------------------------------
Pair    | 0.66415    | 1.8179     | 2.3629     |  36.2 | 71.04
Neigh   | 2.1344e-05 | 0.0058836  | 0.0084478  |   3.2 |  0.23
Comm    | 0.046723   | 0.41455    | 1.2276     |  52.6 | 16.20
Output  | 0          | 0          | 0          |   0.0 |  0.00
Modify  | 2.5716e-05 | 0.0023248  | 0.005967   |   3.0 |  0.09
Other   |            | 0.3183     |            |       | 12.44

Nlocal:        2776.45 ave        3956 max           0 min
Histogram: 8 4 4 0 4 12 8 0 30 34
Nghost:        3879.03 ave        5424 max         232 min
Histogram: 8 0 8 0 16 0 8 8 16 40
Neighs:        79213.7 ave      115314 max           0 min
Histogram: 8 4 4 0 10 6 8 8 24 32

Total # of neighbors = 8238222
Ave neighs/atom = 28.530540
Neighbor list builds = 2
Dangerous builds = 0
Setting atom values ...
  1 settings made for x
  1 settings made for y
  1 settings made for z
Setting up cg style minimization ...
  Unit style    : metal
  Current step  : 216
Per MPI rank memory allocation (min/avg/max) = 5.441 | 5.816 | 6.074 Mbytes
Step PotEng KinEng TotEng v_fx v_fy v_fz 
     216   -1152449.4            0   -1152449.4  0.018417381 -0.024200294 -0.031345204 
     432   -1152449.4            0   -1152449.4 1.976821e-06 -5.0102107e-06 -1.1067534e-05 
Loop time of 2.56333 on 104 procs for 216 steps with 288751 atoms

99.9% CPU use with 104 MPI tasks x 1 OpenMP threads

Minimization stats:
  Stopping criterion = energy tolerance
  Energy initial, next-to-last, final = 
     -1152449.44837877  -1152449.44960855  -1152449.44960855
  Force two-norm initial, final = 0.16197526 3.4040855e-05
  Force max component initial, final = 0.070786068 1.1067534e-05
  Final line search alpha, max atom move = 1.0000000 1.1067534e-05
  Iterations, force evaluations = 216 432

MPI task timing breakdown:
Section |  min time  |  avg time  |  max time  |%varavg| %total
---------------------------------------------------------------
Pair    | 0.66175    | 1.8324     | 2.3785     |  36.6 | 71.49
Neigh   | 0          | 0          | 0          |   0.0 |  0.00
Comm    | 0.043673   | 0.41486    | 1.235      |  53.3 | 16.18
Output  | 0          | 0          | 0          |   0.0 |  0.00
Modify  | 2.5702e-05 | 0.0035582  | 0.0076427  |   2.8 |  0.14
Other   |            | 0.3125     |            |       | 12.19

Nlocal:        2776.45 ave        3960 max           0 min
Histogram: 8 4 4 0 4 12 8 2 28 34
Nghost:        3879.03 ave        5424 max         232 min
Histogram: 8 0 8 0 16 0 8 8 16 40
Neighs:        79213.4 ave      115435 max           0 min
Histogram: 8 4 4 0 10 6 8 8 24 32

Total # of neighbors = 8238197
Ave neighs/atom = 28.530454
Neighbor list builds = 0
Dangerous builds = 0
Setting atom values ...
  1 settings made for x
  1 settings made for y
  1 settings made for z
Setting up cg style minimization ...
  Unit style    : metal
  Current step  : 432
Per MPI rank memory allocation (min/avg/max) = 5.441 | 5.816 | 6.074 Mbytes
Step PotEng KinEng TotEng v_fx v_fy v_fz 
     432   -1152449.4            0   -1152449.4  0.031155768 -0.033904998 -0.050316567 
     560   -1152449.4            0   -1152449.4 -5.8845332e-06 -9.3490651e-06 -6.840451e-05 
Loop time of 1.49234 on 104 procs for 128 steps with 288751 atoms

99.9% CPU use with 104 MPI tasks x 1 OpenMP threads

Minimization stats:
  Stopping criterion = energy tolerance
  Energy initial, next-to-last, final = 
     -1152449.44224996  -1152449.44541252  -1152449.44541252
  Force two-norm initial, final = 0.26114526 0.00018393373
  Force max component initial, final = 0.11643579 6.8404510e-05
  Final line search alpha, max atom move = 1.0000000 6.8404510e-05
  Iterations, force evaluations = 128 256

MPI task timing breakdown:
Section |  min time  |  avg time  |  max time  |%varavg| %total
---------------------------------------------------------------
Pair    | 0.38857    | 1.0773     | 1.4017     |  28.0 | 72.19
Neigh   | 0          | 0          | 0          |   0.0 |  0.00
Comm    | 0.022323   | 0.24269    | 0.72559    |  41.2 | 16.26
Output  | 0          | 0          | 0          |   0.0 |  0.00
Modify  | 1.6002e-05 | 0.0021224  | 0.0045123  |   2.2 |  0.14
Other   |            | 0.1702     |            |       | 11.41

Nlocal:        2776.45 ave        3959 max           0 min
Histogram: 8 4 4 0 4 12 8 2 28 34
Nghost:        3879.03 ave        5424 max         232 min
Histogram: 8 0 8 0 16 0 8 8 16 40
Neighs:        79213.5 ave      115404 max           0 min
Histogram: 8 4 4 0 10 6 8 8 24 32

Total # of neighbors = 8238200
Ave neighs/atom = 28.530464
Neighbor list builds = 0
Dangerous builds = 0
The dot product: 5.70198162034719e-06
The cos of the angle between the force vector and the displacement vector: 0.0822906460464847
The angle: 85.2797556448229
Setting atom values ...
  1 settings made for x
  1 settings made for y
  1 settings made for z
Setting up cg style minimization ...
  Unit style    : metal
  Current step  : 560
Per MPI rank memory allocation (min/avg/max) = 5.441 | 5.816 | 6.074 Mbytes
Step PotEng KinEng TotEng v_fx v_fy v_fz 
     560   -1152449.4            0   -1152449.4  0.030821979 -0.028178728 -0.044273947 
     686   -1152449.4            0   -1152449.4 1.8653943e-05 -1.4866681e-05 -4.3683256e-06 
Loop time of 1.48301 on 104 procs for 126 steps with 288751 atoms

99.9% CPU use with 104 MPI tasks x 1 OpenMP threads

Minimization stats:
  Stopping criterion = energy tolerance
  Energy initial, next-to-last, final = 
     -1152449.43504889  -1152449.43813573  -1152449.43813573
  Force two-norm initial, final = 0.25600324 0.00014913582
  Force max component initial, final = 0.11342709 3.0924064e-05
  Final line search alpha, max atom move = 1.0000000 3.0924064e-05
  Iterations, force evaluations = 126 252

MPI task timing breakdown:
Section |  min time  |  avg time  |  max time  |%varavg| %total
---------------------------------------------------------------
Pair    | 0.38537    | 1.0665     | 1.3859     |  27.7 | 71.91
Neigh   | 0          | 0          | 0          |   0.0 |  0.00
Comm    | 0.027988   | 0.24044    | 0.72874    |  41.0 | 16.21
Output  | 0          | 0          | 0          |   0.0 |  0.00
Modify  | 1.5555e-05 | 0.002082   | 0.0045069  |   2.2 |  0.14
Other   |            | 0.174      |            |       | 11.73

Nlocal:        2776.45 ave        3958 max           0 min
Histogram: 8 4 4 0 4 12 8 2 28 34
Nghost:        3879.03 ave        5424 max         232 min
Histogram: 8 0 8 0 16 0 8 8 16 40
Neighs:        79213.5 ave      115370 max           0 min
Histogram: 8 4 4 0 10 6 8 8 24 32

Total # of neighbors = 8238203
Ave neighs/atom = 28.530474
Neighbor list builds = 0
Dangerous builds = 0
The dot product: -1.87809863636395e-07
The cos of the angle between the force vector and the displacement vector: -0.00774468677425729
The angle: 90.4437423018478
Setting atom values ...
  1 settings made for x
  1 settings made for y
  1 settings made for z
Setting up cg style minimization ...
  Unit style    : metal
  Current step  : 686
Per MPI rank memory allocation (min/avg/max) = 5.441 | 5.816 | 6.074 Mbytes
Step PotEng KinEng TotEng v_fx v_fy v_fz 
     686   -1152449.4            0   -1152449.4  0.030014287 -0.024749274 -0.033195767 
     821   -1152449.4            0   -1152449.4 4.5495103e-07 9.8168939e-07 8.0086033e-05 
Loop time of 1.5857 on 104 procs for 135 steps with 288751 atoms

99.9% CPU use with 104 MPI tasks x 1 OpenMP threads

Minimization stats:
  Stopping criterion = energy tolerance
  Energy initial, next-to-last, final = 
     -1152449.42472952  -1152449.42777293  -1152449.42777293
  Force two-norm initial, final = 0.25217681 0.00023191111
  Force max component initial, final = 0.10940599 8.0086033e-05
  Final line search alpha, max atom move = 1.0000000 8.0086033e-05
  Iterations, force evaluations = 135 270

MPI task timing breakdown:
Section |  min time  |  avg time  |  max time  |%varavg| %total
---------------------------------------------------------------
Pair    | 0.40867    | 1.1344     | 1.4755     |  28.8 | 71.54
Neigh   | 0          | 0          | 0          |   0.0 |  0.00
Comm    | 0.02532    | 0.2566     | 0.76123    |  41.9 | 16.18
Output  | 0          | 0          | 0          |   0.0 |  0.00
Modify  | 1.6537e-05 | 0.0022284  | 0.0047902  |   2.2 |  0.14
Other   |            | 0.1925     |            |       | 12.14

Nlocal:        2776.45 ave        3957 max           0 min
Histogram: 8 4 4 0 4 12 8 2 28 34
Nghost:        3879.03 ave        5424 max         232 min
Histogram: 8 0 8 0 16 0 8 8 16 40
Neighs:        79213.5 ave      115335 max           0 min
Histogram: 8 4 4 0 10 6 8 8 24 32

Total # of neighbors = 8238201
Ave neighs/atom = 28.530467
Neighbor list builds = 0
Dangerous builds = 0
The dot product: -3.53276093951907e-06
The cos of the angle between the force vector and the displacement vector: -0.0441080478373813
The angle: 92.5280251564853
Setting atom values ...
  1 settings made for x
  1 settings made for y
  1 settings made for z
Setting up cg style minimization ...
  Unit style    : metal
  Current step  : 821
Per MPI rank memory allocation (min/avg/max) = 5.441 | 5.816 | 6.074 Mbytes
Step PotEng KinEng TotEng v_fx v_fy v_fz 
     821   -1152449.4            0   -1152449.4  0.028817302 -0.023397747 -0.021963455 
    1000   -1152449.4            0   -1152449.4 1.5151368e-05 -1.3316853e-05 1.3404977e-05 
    1003   -1152449.4            0   -1152449.4 2.1073453e-05 -1.606028e-05 -4.1875374e-05 
Loop time of 2.12988 on 104 procs for 182 steps with 288751 atoms

99.9% CPU use with 104 MPI tasks x 1 OpenMP threads

Minimization stats:
  Stopping criterion = energy tolerance
  Energy initial, next-to-last, final = 
     -1152449.41117604  -1152449.41420159  -1152449.41420159
  Force two-norm initial, final = 0.25040283 0.00015922543
  Force max component initial, final = 0.1125157 4.1875374e-05
  Final line search alpha, max atom move = 1.0000000 4.1875374e-05
  Iterations, force evaluations = 182 364

MPI task timing breakdown:
Section |  min time  |  avg time  |  max time  |%varavg| %total
---------------------------------------------------------------
Pair    | 0.55291    | 1.5362     | 1.9993     |  33.4 | 72.12
Neigh   | 0          | 0          | 0          |   0.0 |  0.00
Comm    | 0.032144   | 0.34568    | 1.0391     |  49.2 | 16.23
Output  | 0.00015902 | 0.00016938 | 0.0003276  |   0.0 |  0.01
Modify  | 2.3532e-05 | 0.0030015  | 0.0064381  |   2.6 |  0.14
Other   |            | 0.2449     |            |       | 11.50

Nlocal:        2776.45 ave        3956 max           0 min
Histogram: 8 4 4 0 4 12 8 2 28 34
Nghost:        3879.03 ave        5424 max         232 min
Histogram: 8 0 8 0 16 0 8 8 16 40
Neighs:        79213.5 ave      115296 max           0 min
Histogram: 8 4 4 0 10 6 8 8 24 32

Total # of neighbors = 8238203
Ave neighs/atom = 28.530474
Neighbor list builds = 0
Dangerous builds = 0
The dot product: 7.18482638598182e-07
The cos of the angle between the force vector and the displacement vector: 0.0144990690489812
The angle: 89.1692354272537
Setting atom values ...
  1 settings made for x
  1 settings made for y
  1 settings made for z
Setting up cg style minimization ...
  Unit style    : metal
  Current step  : 1003
Per MPI rank memory allocation (min/avg/max) = 5.441 | 5.816 | 6.074 Mbytes
Step PotEng KinEng TotEng v_fx v_fy v_fz 
    1003   -1152449.4            0   -1152449.4  0.027908761 -0.023494427 -0.012847135 
    1205   -1152449.4            0   -1152449.4 8.1971832e-06 -5.3316469e-06 -2.2904935e-05 
Loop time of 2.33652 on 104 procs for 202 steps with 288751 atoms

99.9% CPU use with 104 MPI tasks x 1 OpenMP threads

Minimization stats:
  Stopping criterion = energy tolerance
  Energy initial, next-to-last, final = 
     -1152449.39431076  -1152449.39733532  -1152449.39733532
  Force two-norm initial, final = 0.24989396 8.3943340e-05
  Force max component initial, final = 0.11438211 2.2904935e-05
  Final line search alpha, max atom move = 1.0000000 2.2904935e-05
  Iterations, force evaluations = 202 404

MPI task timing breakdown:
Section |  min time  |  avg time  |  max time  |%varavg| %total
---------------------------------------------------------------
Pair    | 0.61382    | 1.6918     | 2.1948     |  35.0 | 72.41
Neigh   | 0          | 0          | 0          |   0.0 |  0.00
Comm    | 0.037559   | 0.37773    | 1.1411     |  52.3 | 16.17
Output  | 0          | 0          | 0          |   0.0 |  0.00
Modify  | 2.4127e-05 | 0.0033279  | 0.0071434  |   2.7 |  0.14
Other   |            | 0.2636     |            |       | 11.28

Nlocal:        2776.45 ave        3950 max           0 min
Histogram: 8 4 4 0 4 12 8 2 26 36
Nghost:        3879.03 ave        5424 max         232 min
Histogram: 8 0 8 0 16 0 8 8 16 40
Neighs:        79213.5 ave      115116 max           0 min
Histogram: 8 4 4 0 10 6 8 8 24 32

Total # of neighbors = 8238202
Ave neighs/atom = 28.530471
Neighbor list builds = 0
Dangerous builds = 0
The dot product: 3.10657847725273e-07
The cos of the angle between the force vector and the displacement vector: 0.0124737410230806
The angle: 89.2852887496653
Setting atom values ...
  1 settings made for x
  1 settings made for y
  1 settings made for z
Setting up cg style minimization ...
  Unit style    : metal
  Current step  : 1205
Per MPI rank memory allocation (min/avg/max) = 5.441 | 5.816 | 6.074 Mbytes
Step PotEng KinEng TotEng v_fx v_fy v_fz 
    1205   -1152449.4            0   -1152449.4  0.028116184 -0.025034685 -0.0052790522 
    1396   -1152449.4            0   -1152449.4 1.8434252e-06 1.7000593e-06 -3.0231462e-05 
Loop time of 2.28139 on 104 procs for 191 steps with 288751 atoms

99.8% CPU use with 104 MPI tasks x 1 OpenMP threads

Minimization stats:
  Stopping criterion = energy tolerance
  Energy initial, next-to-last, final = 
     -1152449.37408195  -1152449.37711063  -1152449.37711063
  Force two-norm initial, final = 0.25002516 0.00010385321
  Force max component initial, final = 0.11578147 3.0231462e-05
  Final line search alpha, max atom move = 1.0000000 3.0231462e-05
  Iterations, force evaluations = 191 382

MPI task timing breakdown:
Section |  min time  |  avg time  |  max time  |%varavg| %total
---------------------------------------------------------------
Pair    | 0.59841    | 1.6186     | 2.09       |  33.8 | 70.95
Neigh   | 0          | 0          | 0          |   0.0 |  0.00
Comm    | 0.040424   | 0.36767    | 1.1155     |  50.6 | 16.12
Output  | 0          | 0          | 0          |   0.0 |  0.00
Modify  | 2.5167e-05 | 0.003145   | 0.0067243  |   2.6 |  0.14
Other   |            | 0.292      |            |       | 12.80

Nlocal:        2776.45 ave        3946 max           0 min
Histogram: 8 4 4 0 4 12 8 2 26 36
Nghost:        3879.03 ave        5424 max         232 min
Histogram: 8 0 8 0 16 0 8 8 16 40
Neighs:        79213.5 ave      114968 max           0 min
Histogram: 8 4 4 0 10 6 8 8 24 32

Total # of neighbors = 8238203
Ave neighs/atom = 28.530474
Neighbor list builds = 0
Dangerous builds = 0
The dot product: 4.44372431416764e-07
The cos of the angle between the force vector and the displacement vector: 0.0146486963834833
The angle: 89.1606615018875
Setting atom values ...
  1 settings made for x
  1 settings made for y
  1 settings made for z
Setting up cg style minimization ...
  Unit style    : metal
  Current step  : 1396
Per MPI rank memory allocation (min/avg/max) = 5.441 | 5.816 | 6.074 Mbytes
Step PotEng KinEng TotEng v_fx v_fy v_fz 
    1396   -1152449.4            0   -1152449.4  0.030225975 -0.028510895 0.0018037451 
    1536   -1152449.4            0   -1152449.4 -1.4136782e-05 1.2850633e-05 2.7821869e-06 
Loop time of 1.63201 on 104 procs for 140 steps with 288751 atoms

99.9% CPU use with 104 MPI tasks x 1 OpenMP threads

Minimization stats:
  Stopping criterion = energy tolerance
  Energy initial, next-to-last, final = 
      -1152449.3504443  -1152449.35346684  -1152449.35346684
  Force two-norm initial, final = 0.25070696 0.00025472174
  Force max component initial, final = 0.11708547 6.0548377e-05
  Final line search alpha, max atom move = 1.0000000 6.0548377e-05
  Iterations, force evaluations = 140 280

MPI task timing breakdown:
Section |  min time  |  avg time  |  max time  |%varavg| %total
---------------------------------------------------------------
Pair    | 0.42317    | 1.1772     | 1.5285     |  29.4 | 72.13
Neigh   | 0          | 0          | 0          |   0.0 |  0.00
Comm    | 0.027222   | 0.26469    | 0.79264    |  43.2 | 16.22
Output  | 0          | 0          | 0          |   0.0 |  0.00
Modify  | 1.6989e-05 | 0.0023124  | 0.0049481  |   2.3 |  0.14
Other   |            | 0.1878     |            |       | 11.50

Nlocal:        2776.45 ave        3941 max           0 min
Histogram: 8 4 4 0 4 12 8 2 26 36
Nghost:        3879.03 ave        5424 max         232 min
Histogram: 8 0 8 0 16 0 8 8 16 40
Neighs:        79213.5 ave      114837 max           0 min
Histogram: 8 4 4 0 10 6 8 8 22 34

Total # of neighbors = 8238204
Ave neighs/atom = 28.530478
Neighbor list builds = 0
Dangerous builds = 0
The dot product: 1.06464341414156e-07
The cos of the angle between the force vector and the displacement vector: 0.0055145260939373
The angle: 89.6840393273948
Setting atom values ...
  1 settings made for x
  1 settings made for y
  1 settings made for z
Setting up cg style minimization ...
  Unit style    : metal
  Current step  : 1536
Per MPI rank memory allocation (min/avg/max) = 5.441 | 5.816 | 6.074 Mbytes
Step PotEng KinEng TotEng v_fx v_fy v_fz 
    1536   -1152449.3            0   -1152449.3  0.034578791 -0.034206821 0.0095212723 
    1757   -1152449.3            0   -1152449.3 4.0082959e-06 -1.8859081e-06 -1.2964926e-05 
Loop time of 2.57184 on 104 procs for 221 steps with 288751 atoms

99.9% CPU use with 104 MPI tasks x 1 OpenMP threads

Minimization stats:
  Stopping criterion = energy tolerance
  Energy initial, next-to-last, final = 
     -1152449.32332028  -1152449.32634157  -1152449.32634157
  Force two-norm initial, final = 0.25242098 4.5621671e-05
  Force max component initial, final = 0.11869271 1.2964926e-05
  Final line search alpha, max atom move = 1.0000000 1.2964926e-05
  Iterations, force evaluations = 221 442

MPI task timing breakdown:
Section |  min time  |  avg time  |  max time  |%varavg| %total
---------------------------------------------------------------
Pair    | 0.66717    | 1.8658     | 2.4148     |  36.8 | 72.55
Neigh   | 0          | 0          | 0          |   0.0 |  0.00
Comm    | 0.047436   | 0.41609    | 1.2613     |  54.7 | 16.18
Output  | 0          | 0          | 0          |   0.0 |  0.00
Modify  | 2.8562e-05 | 0.0036508  | 0.0077905  |   2.9 |  0.14
Other   |            | 0.2863     |            |       | 11.13

Nlocal:        2776.45 ave        3937 max           0 min
Histogram: 8 4 4 0 4 12 8 0 28 36
Nghost:        3879.03 ave        5424 max         232 min
Histogram: 8 0 8 0 16 0 8 8 16 40
Neighs:        79213.5 ave      114703 max           0 min
Histogram: 8 4 4 0 9 7 8 8 22 34

Total # of neighbors = 8238202
Ave neighs/atom = 28.530471
Neighbor list builds = 0
Dangerous builds = 0
The dot product: 4.45353927832872e-08
The cos of the angle between the force vector and the displacement vector: 0.00325056471865049
The angle: 89.8137560326052
Setting atom values ...
  1 settings made for x
  1 settings made for y
  1 settings made for z
Setting up cg style minimization ...
  Unit style    : metal
  Current step  : 1757
Per MPI rank memory allocation (min/avg/max) = 5.441 | 5.816 | 6.074 Mbytes
Step PotEng KinEng TotEng v_fx v_fy v_fz 
    1757   -1152449.3            0   -1152449.3  0.043217155 -0.043874389  0.020389926 
    1907   -1152449.3            0   -1152449.3 -5.0456716e-06 3.2135877e-06 1.0251088e-05 
Loop time of 1.75881 on 104 procs for 150 steps with 288751 atoms

99.9% CPU use with 104 MPI tasks x 1 OpenMP threads

Minimization stats:
  Stopping criterion = energy tolerance
  Energy initial, next-to-last, final = 
     -1152449.29267494  -1152449.29741786  -1152449.29741786
  Force two-norm initial, final = 0.25654946 8.6892631e-05
  Force max component initial, final = 0.12101405 1.0251088e-05
  Final line search alpha, max atom move = 1.0000000 1.0251088e-05
  Iterations, force evaluations = 150 304

MPI task timing breakdown:
Section |  min time  |  avg time  |  max time  |%varavg| %total
---------------------------------------------------------------
Pair    | 0.46659    | 1.2799     | 1.6555     |  30.4 | 72.77
Neigh   | 1.0251e-05 | 0.0029586  | 0.0042669  |   2.2 |  0.17
Comm    | 0.027783   | 0.28542    | 0.86194    |  45.3 | 16.23
Output  | 0          | 0          | 0          |   0.0 |  0.00
Modify  | 1.833e-05  | 0.0025059  | 0.0053638  |   2.4 |  0.14
Other   |            | 0.188      |            |       | 10.69

Nlocal:        2776.45 ave        3931 max           0 min
Histogram: 8 4 4 0 4 12 8 0 26 38
Nghost:        3879.03 ave        5424 max         232 min
Histogram: 8 0 8 0 16 0 8 8 16 40
Neighs:        79213.4 ave      114512 max           0 min
Histogram: 8 4 4 0 8 8 8 8 20 36

Total # of neighbors = 8238192
Ave neighs/atom = 28.530436
Neighbor list builds = 1
Dangerous builds = 0
The dot product: 5.80370662969929e-07
The cos of the angle between the force vector and the displacement vector: 0.0488984449271436
The angle: 87.1972077835486
Setting atom values ...
  1 settings made for x
  1 settings made for y
  1 settings made for z
Setting up cg style minimization ...
  Unit style    : metal
  Current step  : 1907
Per MPI rank memory allocation (min/avg/max) = 5.441 | 5.816 | 6.074 Mbytes
Step PotEng KinEng TotEng v_fx v_fy v_fz 
    1907   -1152449.3            0   -1152449.3   0.27093814  -0.13287557    0.2139815 
    2000   -1152449.3            0   -1152449.3 -0.00048037911 0.0003291619 0.00056591311 
    2131   -1152449.3            0   -1152449.3 4.7770092e-05 -3.2535701e-05 -5.4285831e-05 
Loop time of 2.59534 on 104 procs for 224 steps with 288751 atoms

99.9% CPU use with 104 MPI tasks x 1 OpenMP threads

Minimization stats:
  Stopping criterion = energy tolerance
  Energy initial, next-to-last, final = 
      -1152449.2661144  -1152449.34781666  -1152449.34781666
  Force two-norm initial, final = 0.43814317 0.00026389159
  Force max component initial, final = 0.27093814 5.4285831e-05
  Final line search alpha, max atom move = 1.0000000 5.4285831e-05
  Iterations, force evaluations = 224 448

MPI task timing breakdown:
Section |  min time  |  avg time  |  max time  |%varavg| %total
---------------------------------------------------------------
Pair    | 0.68802    | 1.8907     | 2.4322     |  36.8 | 72.85
Neigh   | 2.0041e-05 | 0.0058336  | 0.0084736  |   3.2 |  0.22
Comm    | 0.041593   | 0.42132    | 1.2792     |  55.2 | 16.23
Output  | 0.00014407 | 0.00014767 | 0.00028131 |   0.0 |  0.01
Modify  | 2.7328e-05 | 0.0036887  | 0.0078898  |   2.9 |  0.14
Other   |            | 0.2737     |            |       | 10.55

Nlocal:        2776.45 ave        3930 max           0 min
Histogram: 8 4 4 0 4 12 8 0 26 38
Nghost:        3879.03 ave        5424 max         232 min
Histogram: 8 0 8 0 16 0 8 8 16 40
Neighs:        79213.4 ave      114497 max           0 min
Histogram: 8 4 4 0 8 8 8 8 20 36

Total # of neighbors = 8238191
Ave neighs/atom = 28.530433
Neighbor list builds = 2
Dangerous builds = 0
The dot product: 2.61623790234133e-06
The cos of the angle between the force vector and the displacement vector: 0.0329942349006271
The angle: 88.1092264305507
Setting atom values ...
  1 settings made for x
  1 settings made for y
  1 settings made for z
Setting up cg style minimization ...
  Unit style    : metal
  Current step  : 2131
Per MPI rank memory allocation (min/avg/max) = 5.441 | 5.816 | 6.074 Mbytes
Step PotEng KinEng TotEng v_fx v_fy v_fz 
    2131   -1152449.3            0   -1152449.3  0.092239761  0.017838459  0.032608394 
    2338   -1152449.3            0   -1152449.3 -1.4339237e-05 7.201564e-06 1.3230636e-05 
Loop time of 2.40305 on 104 procs for 207 steps with 288751 atoms

99.9% CPU use with 104 MPI tasks x 1 OpenMP threads

Minimization stats:
  Stopping criterion = energy tolerance
  Energy initial, next-to-last, final = 
      -1152449.3402431  -1152449.34320782  -1152449.34320782
  Force two-norm initial, final = 0.20850606 0.0001088615
  Force max component initial, final = 0.092239761 1.4339237e-05
  Final line search alpha, max atom move = 1.0000000 1.4339237e-05
  Iterations, force evaluations = 207 414

MPI task timing breakdown:
Section |  min time  |  avg time  |  max time  |%varavg| %total
---------------------------------------------------------------
Pair    | 0.62543    | 1.7337     | 2.2635     |  35.6 | 72.15
Neigh   | 0          | 0          | 0          |   0.0 |  0.00
Comm    | 0.038513   | 0.38968    | 1.165      |  52.2 | 16.22
Output  | 0          | 0          | 0          |   0.0 |  0.00
Modify  | 2.5476e-05 | 0.0034126  | 0.0073515  |   2.8 |  0.14
Other   |            | 0.2763     |            |       | 11.50

Nlocal:        2776.45 ave        3958 max           0 min
Histogram: 8 4 4 0 4 12 8 2 28 34
Nghost:        3879.05 ave        5424 max         232 min
Histogram: 8 0 8 0 16 0 8 8 16 40
Neighs:        79213.4 ave      115373 max           0 min
Histogram: 8 4 4 0 10 6 8 8 24 32

Total # of neighbors = 8238194
Ave neighs/atom = 28.530443
Neighbor list builds = 0
Dangerous builds = 0
The dot product: -1.639893266655e-07
The cos of the angle between the force vector and the displacement vector: -0.00788514143242788
The angle: 90.4517900067327
Setting atom values ...
  1 settings made for x
  1 settings made for y
  1 settings made for z
Setting up cg style minimization ...
  Unit style    : metal
  Current step  : 2338
Per MPI rank memory allocation (min/avg/max) = 5.441 | 5.816 | 6.074 Mbytes
Step PotEng KinEng TotEng v_fx v_fy v_fz 
    2338   -1152449.3            0   -1152449.3 0.0089064643 -0.0071115551 -0.012993248 
    2520   -1152449.3            0   -1152449.3 -4.0327121e-05 2.9135668e-05 5.3522094e-05 
Loop time of 2.11689 on 104 procs for 182 steps with 288751 atoms

99.9% CPU use with 104 MPI tasks x 1 OpenMP threads

Minimization stats:
  Stopping criterion = energy tolerance
  Energy initial, next-to-last, final = 
     -1152449.33260143  -1152449.33451821  -1152449.33451821
  Force two-norm initial, final = 0.18240746 0.00019731266
  Force max component initial, final = 0.079017072 5.3522094e-05
  Final line search alpha, max atom move = 1.0000000 5.3522094e-05
  Iterations, force evaluations = 182 364

MPI task timing breakdown:
Section |  min time  |  avg time  |  max time  |%varavg| %total
---------------------------------------------------------------
Pair    | 0.55029    | 1.5318     | 2.0008     |  33.4 | 72.36
Neigh   | 0          | 0          | 0          |   0.0 |  0.00
Comm    | 0.032709   | 0.34284    | 1.0357     |  49.4 | 16.20
Output  | 0          | 0          | 0          |   0.0 |  0.00
Modify  | 2.2757e-05 | 0.0029969  | 0.006471   |   2.6 |  0.14
Other   |            | 0.2393     |            |       | 11.30

Nlocal:        2776.45 ave        3957 max           0 min
Histogram: 8 4 4 0 4 12 8 2 28 34
Nghost:        3879.05 ave        5424 max         232 min
Histogram: 8 0 8 0 16 0 8 8 16 40
Neighs:        79213.4 ave      115343 max           0 min
Histogram: 8 4 4 0 10 6 8 8 24 32

Total # of neighbors = 8238191
Ave neighs/atom = 28.530433
Neighbor list builds = 0
Dangerous builds = 0
The dot product: -4.05664267076004e-08
The cos of the angle between the force vector and the displacement vector: -0.000555143342576233
The angle: 90.0318073721883
Setting atom values ...
  1 settings made for x
  1 settings made for y
  1 settings made for z
Setting up cg style minimization ...
  Unit style    : metal
  Current step  : 2520
Per MPI rank memory allocation (min/avg/max) = 5.441 | 5.816 | 6.074 Mbytes
Step PotEng KinEng TotEng v_fx v_fy v_fz 
    2520   -1152449.3            0   -1152449.3 0.0027239761 -0.008293832 -0.014543638 
    2720   -1152449.3            0   -1152449.3 -1.067288e-05 1.3798769e-05 2.4698398e-05 
Loop time of 2.35725 on 104 procs for 200 steps with 288751 atoms

99.9% CPU use with 104 MPI tasks x 1 OpenMP threads

Minimization stats:
  Stopping criterion = energy tolerance
  Energy initial, next-to-last, final = 
     -1152449.32075886  -1152449.32266643  -1152449.32266643
  Force two-norm initial, final = 0.18279359 0.00011738184
  Force max component initial, final = 0.078178075 2.4698398e-05
  Final line search alpha, max atom move = 1.0000000 2.4698398e-05
  Iterations, force evaluations = 200 400

MPI task timing breakdown:
Section |  min time  |  avg time  |  max time  |%varavg| %total
---------------------------------------------------------------
Pair    | 0.60402    | 1.6806     | 2.1834     |  35.0 | 71.30
Neigh   | 0          | 0          | 0          |   0.0 |  0.00
Comm    | 0.036416   | 0.38207    | 1.1315     |  51.5 | 16.21
Output  | 0          | 0          | 0          |   0.0 |  0.00
Modify  | 2.5113e-05 | 0.0032973  | 0.0070363  |   2.7 |  0.14
Other   |            | 0.2913     |            |       | 12.36

Nlocal:        2776.45 ave        3950 max           0 min
Histogram: 8 4 4 0 4 12 8 1 27 36
Nghost:        3879.05 ave        5425 max         232 min
Histogram: 8 0 8 0 16 0 8 8 16 40
Neighs:        79213.3 ave      115168 max           0 min
Histogram: 8 4 4 0 10 6 8 8 24 32

Total # of neighbors = 8238188
Ave neighs/atom = 28.530422
Neighbor list builds = 0
Dangerous builds = 0
The dot product: -1.77284656109937e-08
The cos of the angle between the force vector and the displacement vector: -0.000586300578054591
The angle: 90.0335925505731
Setting atom values ...
  1 settings made for x
  1 settings made for y
  1 settings made for z
Setting up cg style minimization ...
  Unit style    : metal
  Current step  : 2720
Per MPI rank memory allocation (min/avg/max) = 5.441 | 5.816 | 6.074 Mbytes
Step PotEng KinEng TotEng v_fx v_fy v_fz 
    2720   -1152449.3            0   -1152449.3 0.0053210251 -0.0071271139 -0.012759305 
    2916   -1152449.3            0   -1152449.3 -2.3204803e-05 1.9113515e-05 3.4955323e-05 
Loop time of 2.28887 on 104 procs for 196 steps with 288751 atoms

99.9% CPU use with 104 MPI tasks x 1 OpenMP threads

Minimization stats:
  Stopping criterion = energy tolerance
  Energy initial, next-to-last, final = 
     -1152449.30562925  -1152449.30755712  -1152449.30755712
  Force two-norm initial, final = 0.18399091 0.00013149628
  Force max component initial, final = 0.077707991 3.4955323e-05
  Final line search alpha, max atom move = 1.0000000 3.4955323e-05
  Iterations, force evaluations = 196 392

MPI task timing breakdown:
Section |  min time  |  avg time  |  max time  |%varavg| %total
---------------------------------------------------------------
Pair    | 0.593      | 1.6517     | 2.153      |  34.7 | 72.16
Neigh   | 0          | 0          | 0          |   0.0 |  0.00
Comm    | 0.034285   | 0.37169    | 1.1161     |  50.9 | 16.24
Output  | 0          | 0          | 0          |   0.0 |  0.00
Modify  | 2.3677e-05 | 0.0032299  | 0.0069371  |   2.7 |  0.14
Other   |            | 0.2623     |            |       | 11.46

Nlocal:        2776.45 ave        3947 max           0 min
Histogram: 8 4 4 0 4 12 8 2 26 36
Nghost:        3879.08 ave        5425 max         232 min
Histogram: 8 0 8 0 16 0 8 8 16 40
Neighs:        79213.4 ave      115007 max           0 min
Histogram: 8 4 4 0 10 6 8 8 24 32

Total # of neighbors = 8238189
Ave neighs/atom = 28.530426
Neighbor list builds = 0
Dangerous builds = 0
The dot product: -3.77541553492805e-08
The cos of the angle between the force vector and the displacement vector: -0.000818874696570986
The angle: 90.0469180693069
Setting atom values ...
  1 settings made for x
  1 settings made for y
  1 settings made for z
Setting up cg style minimization ...
  Unit style    : metal
  Current step  : 2916
Per MPI rank memory allocation (min/avg/max) = 5.441 | 5.816 | 6.074 Mbytes
Step PotEng KinEng TotEng v_fx v_fy v_fz 
    2916   -1152449.3            0   -1152449.3 0.0099480529 -0.0062613034 -0.011671824 
    3000   -1152449.3            0   -1152449.3 0.00015373976 -4.6525183e-05 -9.3403639e-05 
    3103   -1152449.3            0   -1152449.3 2.8709566e-05 -2.74466e-05 -4.9917894e-05 
Loop time of 2.15381 on 104 procs for 187 steps with 288751 atoms

99.9% CPU use with 104 MPI tasks x 1 OpenMP threads

Minimization stats:
  Stopping criterion = energy tolerance
  Energy initial, next-to-last, final = 
     -1152449.28714228  -1152449.28908602  -1152449.28908602
  Force two-norm initial, final = 0.1855188 0.00016453512
  Force max component initial, final = 0.077295046 4.9917894e-05
  Final line search alpha, max atom move = 1.0000000 4.9917894e-05
  Iterations, force evaluations = 187 374

MPI task timing breakdown:
Section |  min time  |  avg time  |  max time  |%varavg| %total
---------------------------------------------------------------
Pair    | 0.56655    | 1.5655     | 2.0306     |  33.7 | 72.68
Neigh   | 0          | 0          | 0          |   0.0 |  0.00
Comm    | 0.034351   | 0.34778    | 1.057      |  50.4 | 16.15
Output  | 0.00010199 | 0.00010988 | 0.0002396  |   0.0 |  0.01
Modify  | 2.4309e-05 | 0.0030837  | 0.0065846  |   2.6 |  0.14
Other   |            | 0.2374     |            |       | 11.02

Nlocal:        2776.45 ave        3944 max           0 min
Histogram: 8 4 4 0 4 12 8 2 26 36
Nghost:        3879.06 ave        5424 max         232 min
Histogram: 8 0 8 0 16 0 8 8 16 40
Neighs:        79213.3 ave      114912 max           0 min
Histogram: 8 4 4 0 10 6 8 8 22 34

Total # of neighbors = 8238188
Ave neighs/atom = 28.530422
Neighbor list builds = 0
Dangerous builds = 0
The dot product: 7.17933118780215e-08
The cos of the angle between the force vector and the displacement vector: 0.00112543755564267
The angle: 89.9355171643436
Setting atom values ...
  1 settings made for x
  1 settings made for y
  1 settings made for z
Setting up cg style minimization ...
  Unit style    : metal
  Current step  : 3103
Per MPI rank memory allocation (min/avg/max) = 5.441 | 5.816 | 6.074 Mbytes
Step PotEng KinEng TotEng v_fx v_fy v_fz 
    3103   -1152449.3            0   -1152449.3  0.015606911 -0.0067758485 -0.013089633 
    3311   -1152449.3            0   -1152449.3 1.756186e-05 -5.5539989e-06 -1.1138312e-05 
Loop time of 2.41295 on 104 procs for 208 steps with 288751 atoms

99.9% CPU use with 104 MPI tasks x 1 OpenMP threads

Minimization stats:
  Stopping criterion = energy tolerance
  Energy initial, next-to-last, final = 
     -1152449.26527633  -1152449.26720667  -1152449.26720667
  Force two-norm initial, final = 0.1868984 8.5631168e-05
  Force max component initial, final = 0.076794075 2.1890036e-05
  Final line search alpha, max atom move = 1.0000000 2.1890036e-05
  Iterations, force evaluations = 208 416

MPI task timing breakdown:
Section |  min time  |  avg time  |  max time  |%varavg| %total
---------------------------------------------------------------
Pair    | 0.63238    | 1.7581     | 2.2773     |  35.7 | 72.86
Neigh   | 0          | 0          | 0          |   0.0 |  0.00
Comm    | 0.042683   | 0.39082    | 1.1878     |  53.2 | 16.20
Output  | 0          | 0          | 0          |   0.0 |  0.00
Modify  | 2.5068e-05 | 0.0034284  | 0.0073802  |   2.8 |  0.14
Other   |            | 0.2606     |            |       | 10.80

Nlocal:        2776.45 ave        3940 max           0 min
Histogram: 8 4 4 0 4 12 8 2 26 36
Nghost:        3879.08 ave        5424 max         232 min
Histogram: 8 0 8 0 16 0 8 8 16 40
Neighs:        79213.3 ave      114790 max           0 min
Histogram: 8 4 4 0 10 6 8 8 22 34

Total # of neighbors = 8238186
Ave neighs/atom = 28.530415
Neighbor list builds = 0
Dangerous builds = 0
The dot product: 4.44908320038489e-08
The cos of the angle between the force vector and the displacement vector: 0.00206693272452511
The angle: 89.8815733940232
Setting atom values ...
  1 settings made for x
  1 settings made for y
  1 settings made for z
Setting up cg style minimization ...
  Unit style    : metal
  Current step  : 3311
Per MPI rank memory allocation (min/avg/max) = 5.441 | 5.816 | 6.074 Mbytes
Step PotEng KinEng TotEng v_fx v_fy v_fz 
    3311   -1152449.2            0   -1152449.2  0.021725252 -0.0096807135 -0.018776646 
    3487   -1152449.2            0   -1152449.2 -4.0846816e-06 -2.8015773e-05 -4.8360783e-05 
Loop time of 2.03451 on 104 procs for 176 steps with 288751 atoms

99.9% CPU use with 104 MPI tasks x 1 OpenMP threads

Minimization stats:
  Stopping criterion = energy tolerance
  Energy initial, next-to-last, final = 
     -1152449.24014623  -1152449.24202945  -1152449.24202945
  Force two-norm initial, final = 0.18869574 0.00023440227
  Force max component initial, final = 0.076462905 4.8360783e-05
  Final line search alpha, max atom move = 1.0000000 4.8360783e-05
  Iterations, force evaluations = 176 352

MPI task timing breakdown:
Section |  min time  |  avg time  |  max time  |%varavg| %total
---------------------------------------------------------------
Pair    | 0.53212    | 1.4773     | 1.9165     |  32.8 | 72.61
Neigh   | 0          | 0          | 0          |   0.0 |  0.00
Comm    | 0.033779   | 0.32979    | 1.0006     |  48.8 | 16.21
Output  | 0          | 0          | 0          |   0.0 |  0.00
Modify  | 2.1212e-05 | 0.0028999  | 0.0061904  |   2.5 |  0.14
Other   |            | 0.2245     |            |       | 11.04

Nlocal:        2776.45 ave        3930 max           0 min
Histogram: 8 4 4 0 4 12 8 0 26 38
Nghost:        3879.10 ave        5424 max         232 min
Histogram: 8 0 8 0 16 0 8 8 16 40
Neighs:        79213.3 ave      114519 max           0 min
Histogram: 8 4 4 0 8 8 8 8 20 36

Total # of neighbors = 8238187
Ave neighs/atom = 28.530419
Neighbor list builds = 0
Dangerous builds = 0
The dot product: 1.60449467866661e-07
The cos of the angle between the force vector and the displacement vector: 0.00286319149423603
The angle: 89.8359509873003
Setting atom values ...
  1 settings made for x
  1 settings made for y
  1 settings made for z
Setting up cg style minimization ...
  Unit style    : metal
  Current step  : 3487
Per MPI rank memory allocation (min/avg/max) = 5.441 | 5.816 | 6.074 Mbytes
Step PotEng KinEng TotEng v_fx v_fy v_fz 
    3487   -1152449.2            0   -1152449.2  0.028563148  -0.01704966 -0.032565625 
    3733   -1152449.2            0   -1152449.2 -1.5115135e-05 9.4265044e-06 1.7941004e-05 
Loop time of 2.83955 on 104 procs for 246 steps with 288751 atoms

99.9% CPU use with 104 MPI tasks x 1 OpenMP threads

Minimization stats:
  Stopping criterion = energy tolerance
  Energy initial, next-to-last, final = 
     -1152449.21225121  -1152449.24901079  -1152449.24901079
  Force two-norm initial, final = 0.19623043 0.00013713695
  Force max component initial, final = 0.077293137 2.7197710e-05
  Final line search alpha, max atom move = 1.0000000 2.7197710e-05
  Iterations, force evaluations = 246 491

MPI task timing breakdown:
Section |  min time  |  avg time  |  max time  |%varavg| %total
---------------------------------------------------------------
Pair    | 0.74384    | 2.0704     | 2.6773     |  38.7 | 72.91
Neigh   | 1.0279e-05 | 0.0029637  | 0.004292   |   2.2 |  0.10
Comm    | 0.05945    | 0.46027    | 1.4071     |  57.8 | 16.21
Output  | 0          | 0          | 0          |   0.0 |  0.00
Modify  | 2.9625e-05 | 0.004046   | 0.0086438  |   3.0 |  0.14
Other   |            | 0.3018     |            |       | 10.63

Nlocal:        2776.45 ave        3930 max           0 min
Histogram: 8 4 4 0 4 12 8 0 26 38
Nghost:        3879.11 ave        5424 max         232 min
Histogram: 8 0 8 0 16 0 8 8 16 40
Neighs:        79213.3 ave      114518 max           0 min
Histogram: 8 4 4 0 8 8 8 8 20 36

Total # of neighbors = 8238188
Ave neighs/atom = 28.530422
Neighbor list builds = 1
Dangerous builds = 0
The dot product: -2.85423332949043e-06
The cos of the angle between the force vector and the displacement vector: -0.112893537214893
The angle: 96.4821423637797
Setting atom values ...
  1 settings made for x
  1 settings made for y
  1 settings made for z
Setting up cg style minimization ...
  Unit style    : metal
  Current step  : 3733
Per MPI rank memory allocation (min/avg/max) = 5.441 | 5.816 | 6.074 Mbytes
Step PotEng KinEng TotEng v_fx v_fy v_fz 
    3733   -1152449.2            0   -1152449.2  0.074954228 -0.0060621097 -0.026778717 
    3966   -1152449.3            0   -1152449.3 4.4015637e-07 7.2427248e-07 1.7054609e-06 
Loop time of 2.71858 on 104 procs for 233 steps with 288751 atoms

99.9% CPU use with 104 MPI tasks x 1 OpenMP threads

Minimization stats:
  Stopping criterion = energy tolerance
  Energy initial, next-to-last, final = 
     -1152449.24210451  -1152449.25176331  -1152449.25176331
  Force two-norm initial, final = 0.2326757 7.6348340e-05
  Force max component initial, final = 0.10072021 5.7428386e-06
  Final line search alpha, max atom move = 1.0000000 5.7428386e-06
  Iterations, force evaluations = 233 466

MPI task timing breakdown:
Section |  min time  |  avg time  |  max time  |%varavg| %total
---------------------------------------------------------------
Pair    | 0.70979    | 1.9639     | 2.5551     |  37.8 | 72.24
Neigh   | 1.0207e-05 | 0.0029664  | 0.0043051  |   2.2 |  0.11
Comm    | 0.041016   | 0.44012    | 1.3303     |  56.2 | 16.19
Output  | 0          | 0          | 0          |   0.0 |  0.00
Modify  | 2.7789e-05 | 0.0038332  | 0.0082198  |   2.9 |  0.14
Other   |            | 0.3078     |            |       | 11.32

Nlocal:        2776.45 ave        3955 max           0 min
Histogram: 8 4 4 0 4 12 8 0 30 34
Nghost:        3879.07 ave        5424 max         232 min
Histogram: 8 0 8 0 16 0 8 8 16 40
Neighs:        79213.2 ave      115279 max           0 min
Histogram: 8 4 4 0 10 6 8 8 24 32

Total # of neighbors = 8238178
Ave neighs/atom = 28.530388
Neighbor list builds = 1
Dangerous builds = 0
The dot product: -3.61512816550219e-08
The cos of the angle between the force vector and the displacement vector: -0.0189825954266156
The angle: 91.0876879315374
Setting atom values ...
  1 settings made for x
  1 settings made for y
  1 settings made for z
Setting up cg style minimization ...
  Unit style    : metal
  Current step  : 3966
Per MPI rank memory allocation (min/avg/max) = 5.441 | 5.816 | 6.074 Mbytes
Step PotEng KinEng TotEng v_fx v_fy v_fz 
    3966   -1152449.3            0   -1152449.3  0.063404695  0.019399554  0.025901262 
    4000   -1152449.3            0   -1152449.3 -9.7392606e-05 3.6236447e-05 0.00014314374 
    4149   -1152449.3            0   -1152449.3 2.6224404e-06 -4.3225409e-06 -1.3125666e-05 
Loop time of 2.12347 on 104 procs for 183 steps with 288751 atoms

99.9% CPU use with 104 MPI tasks x 1 OpenMP threads

Minimization stats:
  Stopping criterion = energy tolerance
  Energy initial, next-to-last, final = 
     -1152449.25407054  -1152449.25660306  -1152449.25660306
  Force two-norm initial, final = 0.22598523 7.2760954e-05
  Force max component initial, final = 0.10358739 1.3125666e-05
  Final line search alpha, max atom move = 1.0000000 1.3125666e-05
  Iterations, force evaluations = 183 366

MPI task timing breakdown:
Section |  min time  |  avg time  |  max time  |%varavg| %total
---------------------------------------------------------------
Pair    | 0.55312    | 1.538      | 2.006      |  33.4 | 72.43
Neigh   | 0          | 0          | 0          |   0.0 |  0.00
Comm    | 0.038142   | 0.34266    | 1.0346     |  49.5 | 16.14
Output  | 9.8136e-05 | 0.0001065  | 0.0002016  |   0.0 |  0.01
Modify  | 2.2431e-05 | 0.0030145  | 0.0064679  |   2.6 |  0.14
Other   |            | 0.2397     |            |       | 11.29

Nlocal:        2776.45 ave        3958 max           0 min
Histogram: 8 4 4 0 4 12 8 2 28 34
Nghost:        3879.03 ave        5424 max         232 min
Histogram: 8 0 8 0 16 0 8 8 16 40
Neighs:        79213.3 ave      115374 max           0 min
Histogram: 8 4 4 0 10 6 8 8 24 32

Total # of neighbors = 8238183
Ave neighs/atom = 28.530405
Neighbor list builds = 0
Dangerous builds = 0
The dot product: 6.93162839419949e-08
The cos of the angle between the force vector and the displacement vector: 0.00492802712777058
The angle: 89.7176437013867
Setting atom values ...
  1 settings made for x
  1 settings made for y
  1 settings made for z
Setting up cg style minimization ...
  Unit style    : metal
  Current step  : 4149
Per MPI rank memory allocation (min/avg/max) = 5.441 | 5.816 | 6.074 Mbytes
Step PotEng KinEng TotEng v_fx v_fy v_fz 
    4149   -1152449.3            0   -1152449.3  0.097645393   0.02926774  0.033922355 
    4396   -1152449.3            0   -1152449.3 1.1029205e-06 -8.0890431e-06 -2.3094229e-05 
Loop time of 2.8634 on 104 procs for 247 steps with 288751 atoms

99.9% CPU use with 104 MPI tasks x 1 OpenMP threads

Minimization stats:
  Stopping criterion = energy tolerance
  Energy initial, next-to-last, final = 
     -1152449.25716335  -1152449.30825107  -1152449.30825107
  Force two-norm initial, final = 0.24646857 6.8045246e-05
  Force max component initial, final = 0.10131114 2.3094229e-05
  Final line search alpha, max atom move = 1.0000000 2.3094229e-05
  Iterations, force evaluations = 247 494

MPI task timing breakdown:
Section |  min time  |  avg time  |  max time  |%varavg| %total
---------------------------------------------------------------
Pair    | 0.74784    | 2.0693     | 2.6948     |  38.8 | 72.27
Neigh   | 1.0179e-05 | 0.0029585  | 0.0043103  |   2.2 |  0.10
Comm    | 0.044201   | 0.46339    | 1.4053     |  57.6 | 16.18
Output  | 0          | 0          | 0          |   0.0 |  0.00
Modify  | 2.9714e-05 | 0.0040704  | 0.008697   |   3.0 |  0.14
Other   |            | 0.3237     |            |       | 11.31

Nlocal:        2776.45 ave        3958 max           0 min
Histogram: 8 4 4 0 4 12 8 2 28 34
Nghost:        3879.03 ave        5424 max         232 min
Histogram: 8 0 8 0 16 0 8 8 16 40
Neighs:        79213.3 ave      115377 max           0 min
Histogram: 8 4 4 0 10 6 8 8 24 32

Total # of neighbors = 8238185
Ave neighs/atom = 28.530412
Neighbor list builds = 1
Dangerous builds = 0
The dot product: 7.79287364204031e-07
The cos of the angle between the force vector and the displacement vector: 0.0318144737010681
The angle: 88.1768572890085
Setting atom values ...
  1 settings made for x
  1 settings made for y
  1 settings made for z
Setting up cg style minimization ...
  Unit style    : metal
  Current step  : 4396
Per MPI rank memory allocation (min/avg/max) = 5.441 | 5.816 | 6.074 Mbytes
Step PotEng KinEng TotEng v_fx v_fy v_fz 
    4396   -1152449.3            0   -1152449.3 -0.021505085  0.015595401   0.07086087 
    4611   -1152449.3            0   -1152449.3 -9.243899e-06 -3.1510576e-06 5.9485849e-07 
Loop time of 2.51684 on 104 procs for 215 steps with 288751 atoms

99.9% CPU use with 104 MPI tasks x 1 OpenMP threads

Minimization stats:
  Stopping criterion = energy tolerance
  Energy initial, next-to-last, final = 
     -1152449.32167284  -1152449.32493533  -1152449.32493533
  Force two-norm initial, final = 0.22380421 8.8561143e-05
  Force max component initial, final = 0.085988807 1.8825103e-05
  Final line search alpha, max atom move = 1.0000000 1.8825103e-05
  Iterations, force evaluations = 215 430

MPI task timing breakdown:
Section |  min time  |  avg time  |  max time  |%varavg| %total
---------------------------------------------------------------
Pair    | 0.65074    | 1.8151     | 2.3631     |  36.3 | 72.12
Neigh   | 0          | 0          | 0          |   0.0 |  0.00
Comm    | 0.039126   | 0.40922    | 1.2177     |  53.5 | 16.26
Output  | 0          | 0          | 0          |   0.0 |  0.00
Modify  | 2.561e-05  | 0.0035338  | 0.0075963  |   2.8 |  0.14
Other   |            | 0.289      |            |       | 11.48

Nlocal:        2776.45 ave        3960 max           0 min
Histogram: 8 4 4 0 4 12 8 4 26 34
Nghost:        3879.11 ave        5424 max         232 min
Histogram: 8 0 8 0 16 0 8 8 16 40
Neighs:        79213.5 ave      115436 max           0 min
Histogram: 8 4 4 0 10 6 8 8 24 32

Total # of neighbors = 8238200
Ave neighs/atom = 28.530464
Neighbor list builds = 0
Dangerous builds = 0
The dot product: 2.11890722544548e-07
The cos of the angle between the force vector and the displacement vector: 0.0216561780105326
The angle: 88.7590953914026
Setting atom values ...
  1 settings made for x
  1 settings made for y
  1 settings made for z
Setting up cg style minimization ...
  Unit style    : metal
  Current step  : 4611
Per MPI rank memory allocation (min/avg/max) = 5.441 | 5.816 | 6.074 Mbytes
Step PotEng KinEng TotEng v_fx v_fy v_fz 
    4611   -1152449.3            0   -1152449.3  0.087758192  0.044619291  0.044530448 
    4853   -1152449.3            0   -1152449.3 2.3565084e-07 9.3381897e-07 2.5317166e-06 
Loop time of 2.82335 on 104 procs for 242 steps with 288751 atoms

99.9% CPU use with 104 MPI tasks x 1 OpenMP threads

Minimization stats:
  Stopping criterion = energy tolerance
  Energy initial, next-to-last, final = 
     -1152449.33418693  -1152449.33698504  -1152449.33698504
  Force two-norm initial, final = 0.2426802 1.8501370e-05
  Force max component initial, final = 0.087758192 2.5317166e-06
  Final line search alpha, max atom move = 1.0000000 2.5317166e-06
  Iterations, force evaluations = 242 484

MPI task timing breakdown:
Section |  min time  |  avg time  |  max time  |%varavg| %total
---------------------------------------------------------------
Pair    | 0.73416    | 2.0314     | 2.6513     |  38.5 | 71.95
Neigh   | 0          | 0          | 0          |   0.0 |  0.00
Comm    | 0.043994   | 0.45778    | 1.3647     |  56.3 | 16.21
Output  | 0          | 0          | 0          |   0.0 |  0.00
Modify  | 2.8926e-05 | 0.0039887  | 0.0085498  |   3.0 |  0.14
Other   |            | 0.3302     |            |       | 11.69

Nlocal:        2776.45 ave        3959 max           0 min
Histogram: 8 4 4 0 4 12 8 4 26 34
Nghost:        3879.09 ave        5424 max         232 min
Histogram: 8 0 8 0 16 0 8 8 16 40
Neighs:        79213.4 ave      115409 max           0 min
Histogram: 8 4 4 0 10 6 8 8 24 32

Total # of neighbors = 8238197
Ave neighs/atom = 28.530454
Neighbor list builds = 0
Dangerous builds = 0
The dot product: 1.25152110348828e-08
The cos of the angle between the force vector and the displacement vector: 0.00462034945350148
The angle: 89.7352725345492
Setting atom values ...
  1 settings made for x
  1 settings made for y
  1 settings made for z
Setting up cg style minimization ...
  Unit style    : metal
  Current step  : 4853
Per MPI rank memory allocation (min/avg/max) = 5.441 | 5.816 | 6.074 Mbytes
Step PotEng KinEng TotEng v_fx v_fy v_fz 
    4853   -1152449.3            0   -1152449.3  0.076478724  0.042008949  0.045019389 
    5000   -1152449.3            0   -1152449.3 1.6252613e-05 -1.4692798e-05 -5.9506361e-05 
    5098   -1152449.3            0   -1152449.3 -1.1557813e-06 -7.2000024e-07 -9.2933749e-07 
Loop time of 2.85931 on 104 procs for 245 steps with 288751 atoms

99.9% CPU use with 104 MPI tasks x 1 OpenMP threads

Minimization stats:
  Stopping criterion = energy tolerance
  Energy initial, next-to-last, final = 
     -1152449.34265185    -1152449.345412    -1152449.345412
  Force two-norm initial, final = 0.23875984 1.7677324e-05
  Force max component initial, final = 0.087037941 2.8450798e-06
  Final line search alpha, max atom move = 1.0000000 2.8450798e-06
  Iterations, force evaluations = 245 490

MPI task timing breakdown:
Section |  min time  |  avg time  |  max time  |%varavg| %total
---------------------------------------------------------------
Pair    | 0.74123    | 2.0711     | 2.7033     |  38.8 | 72.43
Neigh   | 0          | 0          | 0          |   0.0 |  0.00
Comm    | 0.045599   | 0.46614    | 1.401      |  57.0 | 16.30
Output  | 0.00010381 | 0.00010698 | 0.00025533 |   0.0 |  0.00
Modify  | 2.9466e-05 | 0.0040376  | 0.0086832  |   3.0 |  0.14
Other   |            | 0.318      |            |       | 11.12

Nlocal:        2776.45 ave        3958 max           0 min
Histogram: 8 4 4 0 4 12 8 2 28 34
Nghost:        3879.01 ave        5424 max         232 min
Histogram: 8 0 8 0 16 0 8 8 16 40
Neighs:        79213.4 ave      115382 max           0 min
Histogram: 8 4 4 0 10 6 8 8 24 32

Total # of neighbors = 8238195
Ave neighs/atom = 28.530447
Neighbor list builds = 0
Dangerous builds = 0
The dot product: -1.08622062244108e-08
The cos of the angle between the force vector and the displacement vector: -0.00658872527967689
The angle: 90.3775088822888
Setting atom values ...
  1 settings made for x
  1 settings made for y
  1 settings made for z
Setting up cg style minimization ...
  Unit style    : metal
  Current step  : 5098
Per MPI rank memory allocation (min/avg/max) = 5.441 | 5.816 | 6.074 Mbytes
Step PotEng KinEng TotEng v_fx v_fy v_fz 
    5098   -1152449.3            0   -1152449.3  0.077381381  0.041815372  0.041443937 
    5270   -1152449.4            0   -1152449.4 2.5539727e-05 2.0722922e-05 3.3648027e-05 
Loop time of 2.01762 on 104 procs for 172 steps with 288751 atoms

99.9% CPU use with 104 MPI tasks x 1 OpenMP threads

Minimization stats:
  Stopping criterion = energy tolerance
  Energy initial, next-to-last, final = 
     -1152449.34747621  -1152449.35024876  -1152449.35024876
  Force two-norm initial, final = 0.23807735 0.00028757778
  Force max component initial, final = 0.090533806 3.3648027e-05
  Final line search alpha, max atom move = 1.0000000 3.3648027e-05
  Iterations, force evaluations = 172 344

MPI task timing breakdown:
Section |  min time  |  avg time  |  max time  |%varavg| %total
---------------------------------------------------------------
Pair    | 0.52707    | 1.4484     | 1.8817     |  32.2 | 71.79
Neigh   | 0          | 0          | 0          |   0.0 |  0.00
Comm    | 0.03771    | 0.32627    | 0.97484    |  47.6 | 16.17
Output  | 0          | 0          | 0          |   0.0 |  0.00
Modify  | 2.2378e-05 | 0.0028423  | 0.0060714  |   2.5 |  0.14
Other   |            | 0.2401     |            |       | 11.90

Nlocal:        2776.45 ave        3958 max           0 min
Histogram: 8 4 4 0 4 12 8 2 28 34
Nghost:        3879.01 ave        5424 max         232 min
Histogram: 8 0 8 0 16 0 8 8 16 40
Neighs:        79213.4 ave      115379 max           0 min
Histogram: 8 4 4 0 10 6 8 8 24 32

Total # of neighbors = 8238189
Ave neighs/atom = 28.530426
Neighbor list builds = 0
Dangerous builds = 0
The dot product: 2.93551931559362e-07
The cos of the angle between the force vector and the displacement vector: 0.00623886038503952
The angle: 89.6425373119979
Setting atom values ...
  1 settings made for x
  1 settings made for y
  1 settings made for z
Setting up cg style minimization ...
  Unit style    : metal
  Current step  : 5270
Per MPI rank memory allocation (min/avg/max) = 5.441 | 5.816 | 6.074 Mbytes
Step PotEng KinEng TotEng v_fx v_fy v_fz 
    5270   -1152449.3            0   -1152449.3  0.076213262  0.040797412  0.037680606 
    5463   -1152449.4            0   -1152449.4 1.1291654e-07 -6.4804992e-06 -1.8574926e-05 
Loop time of 2.25377 on 104 procs for 193 steps with 288751 atoms

99.9% CPU use with 104 MPI tasks x 1 OpenMP threads

Minimization stats:
  Stopping criterion = energy tolerance
  Energy initial, next-to-last, final = 
     -1152449.34878676  -1152449.35154481  -1152449.35154481
  Force two-norm initial, final = 0.23619386 0.00012626419
  Force max component initial, final = 0.093802185 2.0905717e-05
  Final line search alpha, max atom move = 1.0000000 2.0905717e-05
  Iterations, force evaluations = 193 386

MPI task timing breakdown:
Section |  min time  |  avg time  |  max time  |%varavg| %total
---------------------------------------------------------------
Pair    | 0.58392    | 1.6302     | 2.123      |  34.3 | 72.33
Neigh   | 0          | 0          | 0          |   0.0 |  0.00
Comm    | 0.048709   | 0.36633    | 1.1111     |  50.8 | 16.25
Output  | 0          | 0          | 0          |   0.0 |  0.00
Modify  | 2.3459e-05 | 0.0031765  | 0.0068357  |   2.7 |  0.14
Other   |            | 0.254      |            |       | 11.27

Nlocal:        2776.45 ave        3958 max           0 min
Histogram: 8 4 4 0 4 12 8 2 28 34
Nghost:        3879.03 ave        5424 max         232 min
Histogram: 8 0 8 0 16 0 8 8 16 40
Neighs:        79213.4 ave      115380 max           0 min
Histogram: 8 4 4 0 10 6 8 8 24 32

Total # of neighbors = 8238191
Ave neighs/atom = 28.530433
Neighbor list builds = 0
Dangerous builds = 0
The dot product: -6.9954610555156e-08
The cos of the angle between the force vector and the displacement vector: -0.00355582042686048
The angle: 90.2037339324973
Setting atom values ...
  1 settings made for x
  1 settings made for y
  1 settings made for z
Setting up cg style minimization ...
  Unit style    : metal
  Current step  : 5463
Per MPI rank memory allocation (min/avg/max) = 5.441 | 5.816 | 6.074 Mbytes
Step PotEng KinEng TotEng v_fx v_fy v_fz 
    5463   -1152449.3            0   -1152449.3  0.076190461  0.040746202  0.035659903 
    5643   -1152449.3            0   -1152449.3 4.6280717e-06 1.3803463e-05 3.4045202e-05 
Loop time of 2.08807 on 104 procs for 180 steps with 288751 atoms

99.9% CPU use with 104 MPI tasks x 1 OpenMP threads

Minimization stats:
  Stopping criterion = energy tolerance
  Energy initial, next-to-last, final = 
     -1152449.34669716  -1152449.34944337  -1152449.34944337
  Force two-norm initial, final = 0.23495981 0.00018971169
  Force max component initial, final = 0.096922511 3.4045202e-05
  Final line search alpha, max atom move = 1.0000000 3.4045202e-05
  Iterations, force evaluations = 180 360

MPI task timing breakdown:
Section |  min time  |  avg time  |  max time  |%varavg| %total
---------------------------------------------------------------
Pair    | 0.54448    | 1.513      | 1.9708     |  33.3 | 72.46
Neigh   | 0          | 0          | 0          |   0.0 |  0.00
Comm    | 0.032591   | 0.33892    | 1.024      |  49.4 | 16.23
Output  | 0          | 0          | 0          |   0.0 |  0.00
Modify  | 2.151e-05  | 0.0029649  | 0.0063857  |   2.6 |  0.14
Other   |            | 0.2332     |            |       | 11.17

Nlocal:        2776.45 ave        3956 max           0 min
Histogram: 8 4 4 0 4 12 8 0 30 34
Nghost:        3879.05 ave        5424 max         232 min
Histogram: 8 0 8 0 16 0 8 8 16 40
Neighs:        79213.4 ave      115325 max           0 min
Histogram: 8 4 4 0 10 6 8 8 24 32

Total # of neighbors = 8238195
Ave neighs/atom = 28.530447
Neighbor list builds = 0
Dangerous builds = 0
The dot product: 1.61222901898615e-07
The cos of the angle between the force vector and the displacement vector: 0.00435414804616924
The angle: 89.7505249052916
Setting atom values ...
  1 settings made for x
  1 settings made for y
  1 settings made for z
Setting up cg style minimization ...
  Unit style    : metal
  Current step  : 5643
Per MPI rank memory allocation (min/avg/max) = 5.441 | 5.816 | 6.074 Mbytes
Step PotEng KinEng TotEng v_fx v_fy v_fz 
    5643   -1152449.3            0   -1152449.3  0.080064717  0.044007708  0.038759832 
    5843   -1152449.3            0   -1152449.3 4.3602186e-06 6.4574284e-06 1.3399112e-05 
Loop time of 2.31639 on 104 procs for 200 steps with 288751 atoms

99.9% CPU use with 104 MPI tasks x 1 OpenMP threads

Minimization stats:
  Stopping criterion = energy tolerance
  Energy initial, next-to-last, final = 
     -1152449.34156233  -1152449.34440142  -1152449.34440142
  Force two-norm initial, final = 0.23668809 7.9860446e-05
  Force max component initial, final = 0.099835916 1.8635687e-05
  Final line search alpha, max atom move = 1.0000000 1.8635687e-05
  Iterations, force evaluations = 200 400

MPI task timing breakdown:
Section |  min time  |  avg time  |  max time  |%varavg| %total
---------------------------------------------------------------
Pair    | 0.60365    | 1.6866     | 2.1894     |  35.1 | 72.81
Neigh   | 0          | 0          | 0          |   0.0 |  0.00
Comm    | 0.036224   | 0.37658    | 1.1439     |  52.1 | 16.26
Output  | 0          | 0          | 0          |   0.0 |  0.00
Modify  | 2.4112e-05 | 0.0032904  | 0.0070435  |   2.7 |  0.14
Other   |            | 0.2499     |            |       | 10.79

Nlocal:        2776.45 ave        3954 max           0 min
Histogram: 8 4 4 0 4 12 8 0 30 34
Nghost:        3879.05 ave        5424 max         232 min
Histogram: 8 0 8 0 16 0 8 8 16 40
Neighs:        79213.4 ave      115267 max           0 min
Histogram: 8 4 4 0 10 6 8 8 24 32

Total # of neighbors = 8238194
Ave neighs/atom = 28.530443
Neighbor list builds = 0
Dangerous builds = 0
The dot product: 1.16569119879846e-07
The cos of the angle between the force vector and the displacement vector: 0.0075206493888136
The angle: 89.5690944687432
Setting atom values ...
  1 settings made for x
  1 settings made for y
  1 settings made for z
Setting up cg style minimization ...
  Unit style    : metal
  Current step  : 5843
Per MPI rank memory allocation (min/avg/max) = 5.441 | 5.816 | 6.074 Mbytes
Step PotEng KinEng TotEng v_fx v_fy v_fz 
    5843   -1152449.3            0   -1152449.3  0.092599942  0.054948687   0.05257946 
    6000   -1152449.4            0   -1152449.4 0.00015179513 0.00027668982 0.00059553673 
    6168   -1152449.4            0   -1152449.4 3.5975397e-07 6.4147697e-08 -2.0330712e-07 
Loop time of 3.76269 on 104 procs for 325 steps with 288751 atoms

99.9% CPU use with 104 MPI tasks x 1 OpenMP threads

Minimization stats:
  Stopping criterion = energy tolerance
  Energy initial, next-to-last, final = 
     -1152449.33459365  -1152449.37013167  -1152449.37013167
  Force two-norm initial, final = 0.24969053 7.8374012e-06
  Force max component initial, final = 0.10262361 1.6812045e-06
  Final line search alpha, max atom move = 1.0000000 1.6812045e-06
  Iterations, force evaluations = 325 650

MPI task timing breakdown:
Section |  min time  |  avg time  |  max time  |%varavg| %total
---------------------------------------------------------------
Pair    | 0.98218    | 2.7267     | 3.5451     |  44.6 | 72.47
Neigh   | 1.0275e-05 | 0.0029563  | 0.0043189  |   2.2 |  0.08
Comm    | 0.056858   | 0.60867    | 1.8526     |  66.5 | 16.18
Output  | 9.7911e-05 | 0.00010628 | 0.0002602  |   0.0 |  0.00
Modify  | 3.8509e-05 | 0.005359   | 0.011468   |   3.5 |  0.14
Other   |            | 0.4189     |            |       | 11.13

Nlocal:        2776.45 ave        3954 max           0 min
Histogram: 8 4 4 0 4 12 8 0 30 34
Nghost:        3879.05 ave        5429 max         232 min
Histogram: 8 0 8 0 16 0 8 8 16 40
Neighs:        79213.4 ave      115279 max           0 min
Histogram: 8 4 4 0 10 6 8 8 24 32

Total # of neighbors = 8238192
Ave neighs/atom = 28.530436
Neighbor list builds = 1
Dangerous builds = 0
The dot product: 2.76559850688745e-08
The cos of the angle between the force vector and the displacement vector: 0.0661347096629302
The angle: 86.2079925767954
Setting atom values ...
  1 settings made for x
  1 settings made for y
  1 settings made for z
Setting up cg style minimization ...
  Unit style    : metal
  Current step  : 6168
Per MPI rank memory allocation (min/avg/max) = 5.441 | 5.816 | 6.074 Mbytes
Step PotEng KinEng TotEng v_fx v_fy v_fz 
    6168   -1152449.4            0   -1152449.4  0.015415759 -0.0049087263 -0.027534985 
    6301   -1152449.4            0   -1152449.4 1.4058908e-05 3.3680752e-05 5.3593996e-05 
Loop time of 1.55673 on 104 procs for 133 steps with 288751 atoms

99.9% CPU use with 104 MPI tasks x 1 OpenMP threads

Minimization stats:
  Stopping criterion = energy tolerance
  Energy initial, next-to-last, final = 
     -1152449.38286446  -1152449.38590841  -1152449.38590841
  Force two-norm initial, final = 0.22707845 0.00018764825
  Force max component initial, final = 0.098330806 5.3593996e-05
  Final line search alpha, max atom move = 1.0000000 5.3593996e-05
  Iterations, force evaluations = 133 266

MPI task timing breakdown:
Section |  min time  |  avg time  |  max time  |%varavg| %total
---------------------------------------------------------------
Pair    | 0.4018     | 1.123      | 1.465      |  28.7 | 72.14
Neigh   | 0          | 0          | 0          |   0.0 |  0.00
Comm    | 0.026443   | 0.25185    | 0.75585    |  42.2 | 16.18
Output  | 0          | 0          | 0          |   0.0 |  0.00
Modify  | 1.6157e-05 | 0.0021949  | 0.0047156  |   2.2 |  0.14
Other   |            | 0.1797     |            |       | 11.54

Nlocal:        2776.45 ave        3960 max           0 min
Histogram: 8 4 4 0 4 12 8 4 26 34
Nghost:        3879.09 ave        5424 max         232 min
Histogram: 8 0 8 0 16 0 8 8 16 40
Neighs:        79213.5 ave      115435 max           0 min
Histogram: 8 4 4 0 10 6 8 8 24 32

Total # of neighbors = 8238203
Ave neighs/atom = 28.530474
Neighbor list builds = 0
Dangerous builds = 0
The dot product: -3.99141791652063e-07
The cos of the angle between the force vector and the displacement vector: -0.00615569553397636
The angle: 90.3526976015259
Setting atom values ...
  1 settings made for x
  1 settings made for y
  1 settings made for z
Setting up cg style minimization ...
  Unit style    : metal
  Current step  : 6301
Per MPI rank memory allocation (min/avg/max) = 5.441 | 5.816 | 6.074 Mbytes
Step PotEng KinEng TotEng v_fx v_fy v_fz 
    6301   -1152449.4            0   -1152449.4  0.072785996  0.044174574  0.010475982 
    6512   -1152449.4            0   -1152449.4 -3.0285763e-06 8.5159263e-06 2.1220135e-05 
Loop time of 2.52278 on 104 procs for 211 steps with 288751 atoms

99.8% CPU use with 104 MPI tasks x 1 OpenMP threads

Minimization stats:
  Stopping criterion = energy tolerance
  Energy initial, next-to-last, final = 
     -1152449.39726793  -1152449.40154616  -1152449.40154616
  Force two-norm initial, final = 0.24514112 6.4000561e-05
  Force max component initial, final = 0.10087426 2.1220135e-05
  Final line search alpha, max atom move = 1.0000000 2.1220135e-05
  Iterations, force evaluations = 211 422

MPI task timing breakdown:
Section |  min time  |  avg time  |  max time  |%varavg| %total
---------------------------------------------------------------
Pair    | 0.63862    | 1.7783     | 2.3141     |  35.9 | 70.49
Neigh   | 0          | 0          | 0          |   0.0 |  0.00
Comm    | 0.043333   | 0.40415    | 1.2037     |  52.8 | 16.02
Output  | 0          | 0          | 0          |   0.0 |  0.00
Modify  | 2.5555e-05 | 0.0034737  | 0.0074833  |   2.8 |  0.14
Other   |            | 0.3368     |            |       | 13.35

Nlocal:        2776.45 ave        3958 max           0 min
Histogram: 8 4 4 0 4 12 8 4 26 34
Nghost:        3879.07 ave        5424 max         232 min
Histogram: 8 0 8 0 16 0 8 8 16 40
Neighs:        79213.5 ave      115383 max           0 min
Histogram: 8 4 4 0 10 6 8 8 24 32

Total # of neighbors = 8238207
Ave neighs/atom = 28.530488
Neighbor list builds = 0
Dangerous builds = 0
The dot product: 2.54874193126353e-07
The cos of the angle between the force vector and the displacement vector: 0.0110503283959149
The angle: 89.3668499346012
Setting atom values ...
  1 settings made for x
  1 settings made for y
  1 settings made for z
Setting up cg style minimization ...
  Unit style    : metal
  Current step  : 6512
Per MPI rank memory allocation (min/avg/max) = 5.441 | 5.816 | 6.074 Mbytes
Step PotEng KinEng TotEng v_fx v_fy v_fz 
    6512   -1152449.4            0   -1152449.4  0.048095971  0.022695732 -0.0099380303 
    6656   -1152449.4            0   -1152449.4 -1.54423e-06 8.6850129e-06 1.9204907e-05 
Loop time of 1.68205 on 104 procs for 144 steps with 288751 atoms

99.9% CPU use with 104 MPI tasks x 1 OpenMP threads

Minimization stats:
  Stopping criterion = energy tolerance
  Energy initial, next-to-last, final = 
     -1152449.41465315  -1152449.41744478  -1152449.41744478
  Force two-norm initial, final = 0.23519859 0.00021249868
  Force max component initial, final = 0.098690823 4.3553421e-05
  Final line search alpha, max atom move = 1.0000000 4.3553421e-05
  Iterations, force evaluations = 144 288

MPI task timing breakdown:
Section |  min time  |  avg time  |  max time  |%varavg| %total
---------------------------------------------------------------
Pair    | 0.43595    | 1.218      | 1.5903     |  29.8 | 72.41
Neigh   | 0          | 0          | 0          |   0.0 |  0.00
Comm    | 0.027736   | 0.27395    | 0.81845    |  43.9 | 16.29
Output  | 0          | 0          | 0          |   0.0 |  0.00
Modify  | 1.7758e-05 | 0.0023667  | 0.0050674  |   2.3 |  0.14
Other   |            | 0.1877     |            |       | 11.16

Nlocal:        2776.45 ave        3959 max           0 min
Histogram: 8 4 4 0 4 12 8 4 26 34
Nghost:        3879.11 ave        5424 max         232 min
Histogram: 8 0 8 0 16 0 8 8 16 40
Neighs:        79213.5 ave      115406 max           0 min
Histogram: 8 4 4 0 10 6 8 8 24 32

Total # of neighbors = 8238204
Ave neighs/atom = 28.530478
Neighbor list builds = 0
Dangerous builds = 0
The dot product: 1.88435602980872e-08
The cos of the angle between the force vector and the displacement vector: 0.000891626380784251
The angle: 89.9489135647095
Setting atom values ...
  1 settings made for x
  1 settings made for y
  1 settings made for z
Setting up cg style minimization ...
  Unit style    : metal
  Current step  : 6656
Per MPI rank memory allocation (min/avg/max) = 5.441 | 5.816 | 6.074 Mbytes
Step PotEng KinEng TotEng v_fx v_fy v_fz 
    6656   -1152449.4            0   -1152449.4  0.039169271 0.0074115814 -0.030641766 
    6860   -1152449.4            0   -1152449.4 1.7808477e-06 -1.7555093e-06 -5.5769317e-06 
Loop time of 2.36685 on 104 procs for 204 steps with 288751 atoms

99.9% CPU use with 104 MPI tasks x 1 OpenMP threads

Minimization stats:
  Stopping criterion = energy tolerance
  Energy initial, next-to-last, final = 
     -1152449.42804392  -1152449.43073583  -1152449.43073583
  Force two-norm initial, final = 0.23443593 8.7024209e-05
  Force max component initial, final = 0.099228164 5.5769317e-06
  Final line search alpha, max atom move = 1.0000000 5.5769317e-06
  Iterations, force evaluations = 204 408

MPI task timing breakdown:
Section |  min time  |  avg time  |  max time  |%varavg| %total
---------------------------------------------------------------
Pair    | 0.61791    | 1.7122     | 2.2314     |  35.3 | 72.34
Neigh   | 0          | 0          | 0          |   0.0 |  0.00
Comm    | 0.038509   | 0.38415    | 1.15       |  52.0 | 16.23
Output  | 0          | 0          | 0          |   0.0 |  0.00
Modify  | 2.5409e-05 | 0.0033698  | 0.007245   |   2.7 |  0.14
Other   |            | 0.2671     |            |       | 11.29

Nlocal:        2776.45 ave        3959 max           0 min
Histogram: 8 4 4 0 4 12 8 4 26 34
Nghost:        3879.09 ave        5424 max         232 min
Histogram: 8 0 8 0 16 0 8 8 16 40
Neighs:        79213.5 ave      115406 max           0 min
Histogram: 8 4 4 0 10 6 8 8 24 32

Total # of neighbors = 8238203
Ave neighs/atom = 28.530474
Neighbor list builds = 0
Dangerous builds = 0
The dot product: 1.16093102726511e-08
The cos of the angle between the force vector and the displacement vector: 0.00189945815770207
The angle: 89.8911689987591
Setting atom values ...
  1 settings made for x
  1 settings made for y
  1 settings made for z
Setting up cg style minimization ...
  Unit style    : metal
  Current step  : 6860
Per MPI rank memory allocation (min/avg/max) = 5.441 | 5.816 | 6.074 Mbytes
Step PotEng KinEng TotEng v_fx v_fy v_fz 
    6860   -1152449.4            0   -1152449.4  0.031608182  -0.00194897 -0.040849194 
    7000   -1152449.4            0   -1152449.4 1.8713326e-05 -1.7705087e-05 -5.742153e-05 
    7069   -1152449.4            0   -1152449.4 -7.2880803e-07 -3.7044588e-06 -6.5874284e-06 
Loop time of 2.43541 on 104 procs for 209 steps with 288751 atoms

99.9% CPU use with 104 MPI tasks x 1 OpenMP threads

Minimization stats:
  Stopping criterion = energy tolerance
  Energy initial, next-to-last, final = 
     -1152449.43783835  -1152449.44068877  -1152449.44068877
  Force two-norm initial, final = 0.24016561 7.6735077e-05
  Force max component initial, final = 0.10106983 1.4564978e-05
  Final line search alpha, max atom move = 1.0000000 1.4564978e-05
  Iterations, force evaluations = 209 418

MPI task timing breakdown:
Section |  min time  |  avg time  |  max time  |%varavg| %total
---------------------------------------------------------------
Pair    | 0.63227    | 1.7659     | 2.3033     |  35.8 | 72.51
Neigh   | 0          | 0          | 0          |   0.0 |  0.00
Comm    | 0.037626   | 0.39583    | 1.2001     |  52.9 | 16.25
Output  | 0.00010116 | 0.00011137 | 0.00025782 |   0.0 |  0.00
Modify  | 2.5246e-05 | 0.0034385  | 0.0073847  |   2.8 |  0.14
Other   |            | 0.2701     |            |       | 11.09

Nlocal:        2776.45 ave        3958 max           0 min
Histogram: 8 4 4 0 4 12 8 2 28 34
Nghost:        3879.09 ave        5424 max         232 min
Histogram: 8 0 8 0 16 0 8 8 16 40
Neighs:        79213.5 ave      115384 max           0 min
Histogram: 8 4 4 0 10 6 8 8 24 32

Total # of neighbors = 8238207
Ave neighs/atom = 28.530488
Neighbor list builds = 0
Dangerous builds = 0
The dot product: 1.83143216923919e-08
The cos of the angle between the force vector and the displacement vector: 0.00241211078821507
The angle: 89.8617960980989
Setting atom values ...
  1 settings made for x
  1 settings made for y
  1 settings made for z
Setting up cg style minimization ...
  Unit style    : metal
  Current step  : 7069
Per MPI rank memory allocation (min/avg/max) = 5.441 | 5.816 | 6.074 Mbytes
Step PotEng KinEng TotEng v_fx v_fy v_fz 
    7069   -1152449.4            0   -1152449.4  0.026547238 -0.0080854306 -0.047572909 
    7253   -1152449.4            0   -1152449.4 -2.0730924e-05 -3.1053081e-05 -3.8413882e-05 
Loop time of 2.1325 on 104 procs for 184 steps with 288751 atoms

99.9% CPU use with 104 MPI tasks x 1 OpenMP threads

Minimization stats:
  Stopping criterion = energy tolerance
  Energy initial, next-to-last, final = 
     -1152449.44416734  -1152449.44715086  -1152449.44715086
  Force two-norm initial, final = 0.24580155 0.00017229446
  Force max component initial, final = 0.10501585 3.8413882e-05
  Final line search alpha, max atom move = 1.0000000 3.8413882e-05
  Iterations, force evaluations = 184 368

MPI task timing breakdown:
Section |  min time  |  avg time  |  max time  |%varavg| %total
---------------------------------------------------------------
Pair    | 0.5532     | 1.5452     | 2.0097     |  33.6 | 72.46
Neigh   | 0          | 0          | 0          |   0.0 |  0.00
Comm    | 0.033416   | 0.34516    | 1.0505     |  50.2 | 16.19
Output  | 0          | 0          | 0          |   0.0 |  0.00
Modify  | 2.1941e-05 | 0.0030321  | 0.0064607  |   2.6 |  0.14
Other   |            | 0.2392     |            |       | 11.21

Nlocal:        2776.45 ave        3957 max           0 min
Histogram: 8 4 4 0 4 12 8 2 28 34
Nghost:        3879.09 ave        5424 max         232 min
Histogram: 8 0 8 0 16 0 8 8 16 40
Neighs:        79213.5 ave      115346 max           0 min
Histogram: 8 4 4 0 10 6 8 8 24 32

Total # of neighbors = 8238206
Ave neighs/atom = 28.530485
Neighbor list builds = 0
Dangerous builds = 0
The dot product: 1.54946871216129e-07
The cos of the angle between the force vector and the displacement vector: 0.00289244571225614
The angle: 89.8342748371339
Setting atom values ...
  1 settings made for x
  1 settings made for y
  1 settings made for z
Setting up cg style minimization ...
  Unit style    : metal
  Current step  : 7253
Per MPI rank memory allocation (min/avg/max) = 5.441 | 5.816 | 6.074 Mbytes
Step PotEng KinEng TotEng v_fx v_fy v_fz 
    7253   -1152449.4            0   -1152449.4  0.023577558 -0.011500858 -0.051370364 
    7437   -1152449.5            0   -1152449.5 -1.2500257e-05 -8.4158868e-06 -2.3724982e-06 
Loop time of 2.13643 on 104 procs for 184 steps with 288751 atoms

99.9% CPU use with 104 MPI tasks x 1 OpenMP threads

Minimization stats:
  Stopping criterion = energy tolerance
  Energy initial, next-to-last, final = 
     -1152449.44705423  -1152449.45012398  -1152449.45012398
  Force two-norm initial, final = 0.24968336 0.00017188373
  Force max component initial, final = 0.10886678 2.9852673e-05
  Final line search alpha, max atom move = 1.0000000 2.9852673e-05
  Iterations, force evaluations = 184 368

MPI task timing breakdown:
Section |  min time  |  avg time  |  max time  |%varavg| %total
---------------------------------------------------------------
Pair    | 0.55661    | 1.5501     | 2.0189     |  33.6 | 72.56
Neigh   | 0          | 0          | 0          |   0.0 |  0.00
Comm    | 0.039577   | 0.3455     | 1.0489     |  49.8 | 16.17
Output  | 0          | 0          | 0          |   0.0 |  0.00
Modify  | 2.249e-05  | 0.0030332  | 0.0065097  |   2.6 |  0.14
Other   |            | 0.2378     |            |       | 11.13

Nlocal:        2776.45 ave        3957 max           0 min
Histogram: 8 4 4 0 4 12 8 2 28 34
Nghost:        3879.05 ave        5424 max         232 min
Histogram: 8 0 8 0 16 0 8 8 16 40
Neighs:        79213.5 ave      115345 max           0 min
Histogram: 8 4 4 0 10 6 8 8 24 32

Total # of neighbors = 8238199
Ave neighs/atom = 28.530461
Neighbor list builds = 0
Dangerous builds = 0
The dot product: 3.0698271957059e-08
The cos of the angle between the force vector and the displacement vector: 0.00201235338311458
[...]
     -1152448.39102188  -1152448.39605655  -1152448.39605655
  Force two-norm initial, final = 0.38627914 0.00020958102
  Force max component initial, final = 0.36135786 7.7485271e-05
  Final line search alpha, max atom move = 1.0000000 7.7485271e-05
  Iterations, force evaluations = 195 390

MPI task timing breakdown:
Section |  min time  |  avg time  |  max time  |%varavg| %total
---------------------------------------------------------------
Pair    | 0.59722    | 1.6387     | 2.1307     |  34.4 | 72.46
Neigh   | 0          | 0          | 0          |   0.0 |  0.00
Comm    | 0.034697   | 0.36745    | 1.1223     |  51.2 | 16.25
Output  | 0.00015189 | 0.00015467 | 0.00033183 |   0.0 |  0.01
Modify  | 2.3062e-05 | 0.0032117  | 0.0068227  |   2.7 |  0.14
Other   |            | 0.2519     |            |       | 11.14

Nlocal:        2776.45 ave        3961 max           0 min
Histogram: 8 4 4 0 6 10 8 2 28 34
Nghost:        3879.00 ave        5424 max         232 min
Histogram: 8 0 8 0 16 0 8 8 16 40
Neighs:        79213.1 ave      115480 max           0 min
Histogram: 8 4 4 0 10 6 8 8 24 32

Total # of neighbors = 8238166
Ave neighs/atom = 28.530346
Neighbor list builds = 0
Dangerous builds = 0
The dot product: -3.52234123418929e-08
The cos of the angle between the force vector and the displacement vector: -0.00162571103976893
The angle: 90.0931464223163
Setting atom values ...
  1 settings made for x
  1 settings made for y
  1 settings made for z
Setting up cg style minimization ...
  Unit style    : metal
  Current step  : 6016
Per MPI rank memory allocation (min/avg/max) = 5.441 | 5.816 | 6.074 Mbytes
Step PotEng KinEng TotEng v_fx v_fy v_fz 
    6016   -1152448.3            0   -1152448.3  0.032520489 -0.0052334738  0.032168537 
    6213   -1152448.3            0   -1152448.3 6.3388259e-06 3.3469208e-06 -2.3891695e-05 
Loop time of 2.28366 on 104 procs for 197 steps with 288751 atoms

99.9% CPU use with 104 MPI tasks x 1 OpenMP threads

Minimization stats:
  Stopping criterion = energy tolerance
  Energy initial, next-to-last, final = 
      -1152448.3104623  -1152448.31555416  -1152448.31555416
  Force two-norm initial, final = 0.39978194 0.00010306492
  Force max component initial, final = 0.37627916 2.3891695e-05
  Final line search alpha, max atom move = 1.0000000 2.3891695e-05
  Iterations, force evaluations = 197 394

MPI task timing breakdown:
Section |  min time  |  avg time  |  max time  |%varavg| %total
---------------------------------------------------------------
Pair    | 0.60348    | 1.6594     | 2.1552     |  34.7 | 72.67
Neigh   | 0          | 0          | 0          |   0.0 |  0.00
Comm    | 0.033825   | 0.37393    | 1.1292     |  51.7 | 16.37
Output  | 0          | 0          | 0          |   0.0 |  0.00
Modify  | 2.4655e-05 | 0.0032524  | 0.0069853  |   2.7 |  0.14
Other   |            | 0.2471     |            |       | 10.82

Nlocal:        2776.45 ave        3961 max           0 min
Histogram: 8 4 4 0 6 10 8 2 28 34
Nghost:        3879.00 ave        5424 max         232 min
Histogram: 8 0 8 0 16 0 8 8 16 40
Neighs:        79213.1 ave      115477 max           0 min
Histogram: 8 4 4 0 10 6 8 8 24 32

Total # of neighbors = 8238162
Ave neighs/atom = 28.530332
Neighbor list builds = 0
Dangerous builds = 0
The dot product: 4.12542449138244e-08
The cos of the angle between the force vector and the displacement vector: 0.00165388437713392
The angle: 89.905239362187
Setting atom values ...
  1 settings made for x
  1 settings made for y
  1 settings made for z
Setting up cg style minimization ...
  Unit style    : metal
  Current step  : 6213
Per MPI rank memory allocation (min/avg/max) = 5.441 | 5.816 | 6.074 Mbytes
Step PotEng KinEng TotEng v_fx v_fy v_fz 
    6213   -1152448.2            0   -1152448.2  0.067445581 -0.0084153053  0.046857551 
    6434   -1152448.2            0   -1152448.2 -3.8722603e-06 -2.0095414e-06 1.4528959e-05 
Loop time of 2.57146 on 104 procs for 221 steps with 288751 atoms

99.9% CPU use with 104 MPI tasks x 1 OpenMP threads

Minimization stats:
  Stopping criterion = energy tolerance
  Energy initial, next-to-last, final = 
      -1152448.2256535  -1152448.23552576  -1152448.23552576
  Force two-norm initial, final = 0.42296019 6.4460286e-05
  Force max component initial, final = 0.39605221 1.4528959e-05
  Final line search alpha, max atom move = 1.0000000 1.4528959e-05
  Iterations, force evaluations = 221 442

MPI task timing breakdown:
Section |  min time  |  avg time  |  max time  |%varavg| %total
---------------------------------------------------------------
Pair    | 0.68144    | 1.8577     | 2.4203     |  36.5 | 72.24
Neigh   | 1.027e-05  | 0.0029627  | 0.0042953  |   2.2 |  0.12
Comm    | 0.040843   | 0.41712    | 1.2619     |  54.2 | 16.22
Output  | 0          | 0          | 0          |   0.0 |  0.00
Modify  | 2.6916e-05 | 0.0036355  | 0.0077681  |   2.8 |  0.14
Other   |            | 0.2901     |            |       | 11.28

Nlocal:        2776.45 ave        3961 max           0 min
Histogram: 8 4 4 0 6 10 8 2 28 34
Nghost:        3879.02 ave        5424 max         232 min
Histogram: 8 0 8 0 16 0 8 8 16 40
Neighs:        79213.2 ave      115481 max           0 min
Histogram: 8 4 4 0 10 6 8 8 24 32

Total # of neighbors = 8238169
Ave neighs/atom = 28.530357
Neighbor list builds = 1
Dangerous builds = 0
The dot product: -2.29147408403845e-07
The cos of the angle between the force vector and the displacement vector: -0.0151054840861032
The angle: 90.8655134026111
Setting atom values ...
  1 settings made for x
  1 settings made for y
  1 settings made for z
Setting up cg style minimization ...
  Unit style    : metal
  Current step  : 6434
Per MPI rank memory allocation (min/avg/max) = 5.441 | 5.816 | 6.074 Mbytes
Step PotEng KinEng TotEng v_fx v_fy v_fz 
    6434   -1152448.1            0   -1152448.1   0.40144492 -0.066110113  0.099478956 
    6687   -1152448.3            0   -1152448.3 -1.3540864e-05 -1.3043977e-06 1.9325612e-05 
Loop time of 2.97309 on 104 procs for 253 steps with 288751 atoms

99.9% CPU use with 104 MPI tasks x 1 OpenMP threads

Minimization stats:
  Stopping criterion = energy tolerance
  Energy initial, next-to-last, final = 
      -1152448.1492146  -1152448.32560163  -1152448.32560163
  Force two-norm initial, final = 0.59156143 0.00016545659
  Force max component initial, final = 0.40144492 3.2031938e-05
  Final line search alpha, max atom move = 1.0000000 3.2031938e-05
  Iterations, force evaluations = 253 504

MPI task timing breakdown:
Section |  min time  |  avg time  |  max time  |%varavg| %total
---------------------------------------------------------------
Pair    | 0.78386    | 2.1223     | 2.7954     |  38.9 | 71.38
Neigh   | 4.0143e-05 | 0.01182    | 0.017095   |   4.5 |  0.40
Comm    | 0.045196   | 0.48515    | 1.4393     |  57.1 | 16.32
Output  | 0          | 0          | 0          |   0.0 |  0.00
Modify  | 2.9609e-05 | 0.0041473  | 0.0088566  |   3.0 |  0.14
Other   |            | 0.3496     |            |       | 11.76

Nlocal:        2776.45 ave        3961 max           0 min
Histogram: 8 4 4 0 6 10 8 2 28 34
Nghost:        3879.00 ave        5424 max         232 min
Histogram: 8 0 8 0 16 0 8 8 16 40
Neighs:        79213.2 ave      115480 max           0 min
Histogram: 8 4 4 0 10 6 8 8 24 32

Total # of neighbors = 8238172
Ave neighs/atom = 28.530367
Neighbor list builds = 4
Dangerous builds = 0
The dot product: -4.38016525747124e-06
The cos of the angle between the force vector and the displacement vector: -0.185338235258847
The angle: 100.680852883504
Setting atom values ...
  1 settings made for x
  1 settings made for y
  1 settings made for z
Setting up cg style minimization ...
  Unit style    : metal
  Current step  : 6687
Per MPI rank memory allocation (min/avg/max) = 5.441 | 5.816 | 6.074 Mbytes
Step PotEng KinEng TotEng v_fx v_fy v_fz 
    6687   -1152448.3            0   -1152448.3    0.6515592  -0.37592045  0.044729098 
    6987   -1152448.7            0   -1152448.7 -6.9265307e-06 4.5673372e-06 -3.3562883e-06 
Loop time of 3.50054 on 104 procs for 300 steps with 288751 atoms

99.9% CPU use with 104 MPI tasks x 1 OpenMP threads

Minimization stats:
  Stopping criterion = energy tolerance
  Energy initial, next-to-last, final = 
     -1152448.27966094  -1152448.72276477  -1152448.72276477
  Force two-norm initial, final = 0.79473472 6.6517813e-05
  Force max component initial, final = 0.6515592 1.9991119e-05
  Final line search alpha, max atom move = 1.0000000 1.9991119e-05
  Iterations, force evaluations = 300 599

MPI task timing breakdown:
Section |  min time  |  avg time  |  max time  |%varavg| %total
---------------------------------------------------------------
Pair    | 0.93977    | 2.5288     | 3.2682     |  42.1 | 72.24
Neigh   | 5.9966e-05 | 0.017756   | 0.025665   |   5.5 |  0.51
Comm    | 0.056361   | 0.56371    | 1.7267     |  63.8 | 16.10
Output  | 0          | 0          | 0          |   0.0 |  0.00
Modify  | 3.6322e-05 | 0.0049268  | 0.010479   |   3.3 |  0.14
Other   |            | 0.3853     |            |       | 11.01

Nlocal:        2776.45 ave        3958 max           0 min
Histogram: 8 4 4 0 4 12 8 4 26 34
Nghost:        3879.07 ave        5425 max         232 min
Histogram: 8 0 8 0 16 0 8 8 16 40
Neighs:        79213.6 ave      115368 max           0 min
Histogram: 8 4 4 0 10 6 8 8 24 32

Total # of neighbors = 8238218
Ave neighs/atom = 28.530526
Neighbor list builds = 6
Dangerous builds = 0
The dot product: -2.07505882358486e-06
The cos of the angle between the force vector and the displacement vector: -0.231850773713603
The angle: 103.406059056151
Setting atom values ...
  1 settings made for x
  1 settings made for y
  1 settings made for z
Setting up cg style minimization ...
  Unit style    : metal
  Current step  : 6987
Per MPI rank memory allocation (min/avg/max) = 5.441 | 5.816 | 6.074 Mbytes
Step PotEng KinEng TotEng v_fx v_fy v_fz 
    6987   -1152448.7            0   -1152448.7  0.045008637   0.17579068  -0.21002231 
    7000   -1152448.7            0   -1152448.7 0.00014978788 0.00088761663 -0.0010090219 
    7250   -1152448.7            0   -1152448.7 5.7503329e-06 -1.1030009e-05 7.4847448e-06 
Loop time of 3.0519 on 104 procs for 263 steps with 288751 atoms

99.9% CPU use with 104 MPI tasks x 1 OpenMP threads

Minimization stats:
  Stopping criterion = energy tolerance
  Energy initial, next-to-last, final = 
     -1152448.73431634  -1152448.74476633  -1152448.74476633
  Force two-norm initial, final = 0.34147517 4.7218653e-05
  Force max component initial, final = 0.21002231 1.3547365e-05
  Final line search alpha, max atom move = 1.0000000 1.3547365e-05
  Iterations, force evaluations = 263 526

MPI task timing breakdown:
Section |  min time  |  avg time  |  max time  |%varavg| %total
---------------------------------------------------------------
Pair    | 0.80304    | 2.2142     | 2.8787     |  40.2 | 72.55
Neigh   | 0          | 0          | 0          |   0.0 |  0.00
Comm    | 0.045103   | 0.51589    | 1.5506     |  58.8 | 16.90
Output  | 9.405e-05  | 9.974e-05  | 0.00018388 |   0.0 |  0.00
Modify  | 3.1451e-05 | 0.0043189  | 0.0091786  |   3.1 |  0.14
Other   |            | 0.3174     |            |       | 10.40

Nlocal:        2776.45 ave        3944 max           0 min
Histogram: 8 4 4 0 4 12 8 2 26 36
Nghost:        3879.09 ave        5424 max         232 min
Histogram: 8 0 8 0 16 0 8 8 16 40
Neighs:        79213.4 ave      114952 max           0 min
Histogram: 8 4 4 0 10 6 8 8 24 32

Total # of neighbors = 8238192
Ave neighs/atom = 28.530436
Neighbor list builds = 0
Dangerous builds = 0
The dot product: -4.49882865800995e-07
The cos of the angle between the force vector and the displacement vector: -0.0309896637983362
The angle: 91.7758612656917
Setting atom values ...
  1 settings made for x
  1 settings made for y
  1 settings made for z
Setting up cg style minimization ...
  Unit style    : metal
  Current step  : 7250
Per MPI rank memory allocation (min/avg/max) = 5.441 | 5.816 | 6.074 Mbytes
Step PotEng KinEng TotEng v_fx v_fy v_fz 
    7250   -1152448.8            0   -1152448.8 -0.026182872 -0.014657276  0.035834877 
    7465   -1152448.8            0   -1152448.8 -5.4482527e-06 6.9260332e-06 -3.822373e-06 
Loop time of 2.47975 on 104 procs for 215 steps with 288751 atoms

99.9% CPU use with 104 MPI tasks x 1 OpenMP threads

Minimization stats:
  Stopping criterion = energy tolerance
  Energy initial, next-to-last, final = 
     -1152448.75214196  -1152448.75506802  -1152448.75506802
  Force two-norm initial, final = 0.20641631 8.1777092e-05
  Force max component initial, final = 0.090581897 2.1901124e-05
  Final line search alpha, max atom move = 1.0000000 2.1901124e-05
  Iterations, force evaluations = 215 430

MPI task timing breakdown:
Section |  min time  |  avg time  |  max time  |%varavg| %total
---------------------------------------------------------------
Pair    | 0.65861    | 1.8043     | 2.3453     |  36.1 | 72.76
Neigh   | 0          | 0          | 0          |   0.0 |  0.00
Comm    | 0.037231   | 0.4017     | 1.2235     |  53.9 | 16.20
Output  | 0          | 0          | 0          |   0.0 |  0.00
Modify  | 2.5896e-05 | 0.0035296  | 0.00754    |   2.8 |  0.14
Other   |            | 0.2703     |            |       | 10.90

Nlocal:        2776.45 ave        3949 max           0 min
Histogram: 8 4 4 0 4 12 8 0 28 36
Nghost:        3879.13 ave        5425 max         232 min
Histogram: 8 0 8 0 16 0 8 8 16 40
Neighs:        79213.4 ave      115058 max           0 min
Histogram: 8 4 4 0 10 6 8 8 24 32

Total # of neighbors = 8238194
Ave neighs/atom = 28.530443
Neighbor list builds = 0
Dangerous builds = 0
The dot product: -3.69547772511702e-09
The cos of the angle between the force vector and the displacement vector: -0.000384728727477916
The angle: 90.022043332886
Setting atom values ...
  1 settings made for x
  1 settings made for y
  1 settings made for z
Setting up cg style minimization ...
  Unit style    : metal
  Current step  : 7465
Per MPI rank memory allocation (min/avg/max) = 5.441 | 5.816 | 6.074 Mbytes
Step PotEng KinEng TotEng v_fx v_fy v_fz 
    7465   -1152448.8            0   -1152448.8  -0.01569304 -0.0063506341  0.018222168 
    7722   -1152448.8            0   -1152448.8 6.7293258e-07 -1.9489217e-06 1.6859832e-06 
Loop time of 3.00438 on 104 procs for 257 steps with 288751 atoms

99.9% CPU use with 104 MPI tasks x 1 OpenMP threads

Minimization stats:
  Stopping criterion = energy tolerance
  Energy initial, next-to-last, final = 
     -1152448.76083504  -1152448.76341129  -1152448.76341129
  Force two-norm initial, final = 0.20356273 1.1526702e-05
  Force max component initial, final = 0.090239013 2.5613543e-06
  Final line search alpha, max atom move = 1.0000000 2.5613543e-06
  Iterations, force evaluations = 257 514

MPI task timing breakdown:
Section |  min time  |  avg time  |  max time  |%varavg| %total
---------------------------------------------------------------
Pair    | 0.78569    | 2.1676     | 2.8125     |  39.6 | 72.15
Neigh   | 0          | 0          | 0          |   0.0 |  0.00
Comm    | 0.047354   | 0.49481    | 1.5044     |  58.8 | 16.47
Output  | 0          | 0          | 0          |   0.0 |  0.00
Modify  | 3.1598e-05 | 0.0042308  | 0.0091035  |   3.1 |  0.14
Other   |            | 0.3378     |            |       | 11.24

Nlocal:        2776.45 ave        3949 max           0 min
Histogram: 8 4 4 0 4 12 8 0 28 36
Nghost:        3879.12 ave        5424 max         232 min
Histogram: 8 0 8 0 16 0 8 8 16 40
Neighs:        79213.4 ave      115050 max           0 min
Histogram: 8 4 4 0 10 6 8 8 24 32

Total # of neighbors = 8238196
Ave neighs/atom = 28.530450
Neighbor list builds = 0
Dangerous builds = 0
The dot product: 5.87747922460726e-09
The cos of the angle between the force vector and the displacement vector: 0.00220676203252876
The angle: 89.8735617465246
Setting atom values ...
  1 settings made for x
  1 settings made for y
  1 settings made for z
Setting up cg style minimization ...
  Unit style    : metal
  Current step  : 7722
Per MPI rank memory allocation (min/avg/max) = 5.441 | 5.816 | 6.074 Mbytes
Step PotEng KinEng TotEng v_fx v_fy v_fz 
    7722   -1152448.8            0   -1152448.8 -0.015640563 -0.0082399782  0.020014888 
    8000   -1152448.8            0   -1152448.8 -1.0130604e-06 1.9286197e-06 -1.4160975e-06 
    8055   -1152448.8            0   -1152448.8 -1.1219791e-08 -7.3709315e-08 8.9043874e-08 
Loop time of 3.84658 on 104 procs for 333 steps with 288751 atoms

99.9% CPU use with 104 MPI tasks x 1 OpenMP threads

Minimization stats:
  Stopping criterion = energy tolerance
  Energy initial, next-to-last, final = 
     -1152448.76730061  -1152448.76987498  -1152448.76987498
  Force two-norm initial, final = 0.20505057 1.4277935e-06
  Force max component initial, final = 0.091281383 3.4887737e-07
  Final line search alpha, max atom move = 1.0000000 3.4887737e-07
  Iterations, force evaluations = 333 666

MPI task timing breakdown:
Section |  min time  |  avg time  |  max time  |%varavg| %total
---------------------------------------------------------------
Pair    | 1.019      | 2.7929     | 3.6302     |  44.9 | 72.61
Neigh   | 0          | 0          | 0          |   0.0 |  0.00
Comm    | 0.057916   | 0.62127    | 1.8843     |  66.9 | 16.15
Output  | 0.00010507 | 0.00011388 | 0.00029519 |   0.0 |  0.00
Modify  | 3.9551e-05 | 0.0054736  | 0.011663   |   3.5 |  0.14
Other   |            | 0.4268     |            |       | 11.10

Nlocal:        2776.45 ave        3949 max           0 min
Histogram: 8 4 4 0 4 12 8 0 28 36
Nghost:        3879.09 ave        5424 max         232 min
Histogram: 8 0 8 0 16 0 8 8 16 40
Neighs:        79213.4 ave      115069 max           0 min
Histogram: 8 4 4 0 10 6 8 8 24 32

Total # of neighbors = 8238193
Ave neighs/atom = 28.530440
Neighbor list builds = 0
Dangerous builds = 0
The dot product: 4.89967615206256e-10
The cos of the angle between the force vector and the displacement vector: 0.00421888308099545
The angle: 89.7582750881201
Setting up cg style minimization ...
  Unit style    : metal
  Current step  : 8055
Per MPI rank memory allocation (min/avg/max) = 5.441 | 5.816 | 6.074 Mbytes
Step PotEng KinEng TotEng v_fx v_fy v_fz 
    8055   -1152448.8            0   -1152448.8  0.078850558   0.12420765   0.11275297 
    8332   -1152448.8            0   -1152448.8 5.5667536e-07 -1.0207699e-06 5.7907414e-07 
Loop time of 3.23173 on 104 procs for 277 steps with 288751 atoms

99.9% CPU use with 104 MPI tasks x 1 OpenMP threads

Minimization stats:
  Stopping criterion = energy tolerance
  Energy initial, next-to-last, final = 
     -1152448.76987498  -1152448.77903518  -1152448.77903518
  Force two-norm initial, final = 0.18535961 1.9410473e-05
  Force max component initial, final = 0.12420765 3.5989949e-06
  Final line search alpha, max atom move = 1.0000000 3.5989949e-06
  Iterations, force evaluations = 277 554

MPI task timing breakdown:
Section |  min time  |  avg time  |  max time  |%varavg| %total
---------------------------------------------------------------
Pair    | 0.85246    | 2.3359     | 3.0546     |  41.1 | 72.28
Neigh   | 1.0097e-05 | 0.0029538  | 0.0042951  |   2.2 |  0.09
Comm    | 0.047388   | 0.53276    | 1.6203     |  60.9 | 16.49
Output  | 0          | 0          | 0          |   0.0 |  0.00
Modify  | 2.9765e-05 | 0.0029626  | 0.0076127  |   3.4 |  0.09
Other   |            | 0.3571     |            |       | 11.05

Nlocal:        2776.45 ave        3950 max           0 min
Histogram: 8 4 4 0 4 12 8 0 28 36
Nghost:        3879.07 ave        5424 max         232 min
Histogram: 8 0 8 0 16 0 8 8 16 40
Neighs:        79213.4 ave      115088 max           0 min
Histogram: 8 4 4 0 10 6 8 8 24 32

Total # of neighbors = 8238190
Ave neighs/atom = 28.530429
Neighbor list builds = 1
Dangerous builds = 0
