LAMMPS (29 Oct 2020)
OMP_NUM_THREADS environment is not set. Defaulting to 1 thread. (../comm.cpp:94)
  using 1 OpenMP thread(s) per MPI task
OMP_NUM_THREADS environment is not set. Defaulting to 1 thread. (../comm.cpp:94)
  using 1 OpenMP thread(s) per MPI task
Reading data file ...
  orthogonal box = (-122.39241 -121.13707 -37.090501) to (122.39241 121.13707 37.090501)
  13 by 4 by 2 MPI processor grid
  reading atoms ...
  288751 atoms
  read_data CPU = 0.404 seconds
199981 atoms in group inner
88770 atoms in group outer
1 atoms in group carbon
Neighbor list info ...
  update every 1 steps, delay 0 steps, check yes
  max neighbors/atom: 2000, page size: 100000
  master list distance cutoff = 5.6
  ghost atom cutoff = 5.6
  binsize = 2.8, bins = 88 87 27
  1 neighbor lists, perpetual/occasional/extra = 1 0 0
  (1) pair eam/alloy, perpetual
      attributes: half, newton on
      pair build: half/bin/atomonly/newton
      stencil: half/bin/3d/newton
      bin: standard
Setting up cg style minimization ...
  Unit style    : metal
  Current step  : 0
Per MPI rank memory allocation (min/avg/max) = 5.441 | 5.816 | 6.074 Mbytes
Step v_fx v_fy v_fz PotEng KinEng TotEng 
       0   0.52246523  0.076168991    0.3587139   -1152447.8            0   -1152447.8 
     147 5.7548805e-06 -4.7598112e-06 5.8046106e-05   -1152449.5            0   -1152449.5 
Loop time of 1.73604 on 104 procs for 147 steps with 288751 atoms

99.8% CPU use with 104 MPI tasks x 1 OpenMP threads

Minimization stats:
  Stopping criterion = energy tolerance
  Energy initial, next-to-last, final = 
     -1152447.84837678  -1152449.45035258  -1152449.45035258
  Force two-norm initial, final = 9.7559446 0.00022608549
  Force max component initial, final = 4.4142020 5.8046106e-05
  Final line search alpha, max atom move = 1.0000000 5.8046106e-05
  Iterations, force evaluations = 147 293

MPI task timing breakdown:
Section |  min time  |  avg time  |  max time  |%varavg| %total
---------------------------------------------------------------
Pair    | 0.46111    | 1.2379     | 1.6011     |  29.5 | 71.30
Neigh   | 2.2967e-05 | 0.0058792  | 0.008533   |   3.2 |  0.34
Comm    | 0.033447   | 0.28002    | 0.83664    |  44.0 | 16.13
Output  | 0          | 0          | 0          |   0.0 |  0.00
Modify  | 1.7044e-05 | 0.001584   | 0.0040802  |   2.5 |  0.09
Other   |            | 0.2107     |            |       | 12.14

Nlocal:        2776.45 ave        3961 max           0 min
Histogram: 8 4 4 0 6 10 8 2 28 34
Nghost:        3879.03 ave        5424 max         232 min
Histogram: 8 0 8 0 16 0 8 8 16 40
Neighs:        79213.4 ave      115455 max           0 min
Histogram: 8 4 4 0 10 6 8 8 24 32

Total # of neighbors = 8238197
Ave neighs/atom = 28.530454
Neighbor list builds = 2
Dangerous builds = 1
Setting atom values ...
  1 settings made for x
  1 settings made for y
  1 settings made for z
Setting up cg style minimization ...
  Unit style    : metal
  Current step  : 147
Per MPI rank memory allocation (min/avg/max) = 5.441 | 5.816 | 6.074 Mbytes
Step PotEng KinEng TotEng v_fx v_fy v_fz 
     147   -1152449.4            0   -1152449.4  0.015496137 0.0058750346 -0.019359842 
     328   -1152449.5            0   -1152449.5 -2.0827549e-06 -7.6765751e-06 -3.2894013e-06 
Loop time of 2.12154 on 104 procs for 181 steps with 288751 atoms

99.9% CPU use with 104 MPI tasks x 1 OpenMP threads

Minimization stats:
  Stopping criterion = energy tolerance
  Energy initial, next-to-last, final = 
     -1152449.44949225  -1152449.45006462  -1152449.45006462
  Force two-norm initial, final = 0.11244256 7.4351613e-05
  Force max component initial, final = 0.050065993 7.6765751e-06
  Final line search alpha, max atom move = 1.0000000 7.6765751e-06
  Iterations, force evaluations = 181 362

MPI task timing breakdown:
Section |  min time  |  avg time  |  max time  |%varavg| %total
---------------------------------------------------------------
Pair    | 0.55483    | 1.5288     | 1.9845     |  33.3 | 72.06
Neigh   | 0          | 0          | 0          |   0.0 |  0.00
Comm    | 0.037746   | 0.34609    | 1.0426     |  49.4 | 16.31
Output  | 0          | 0          | 0          |   0.0 |  0.00
Modify  | 2.3575e-05 | 0.002994   | 0.0064532  |   2.6 |  0.14
Other   |            | 0.2436     |            |       | 11.48

Nlocal:        2776.45 ave        3955 max           0 min
Histogram: 8 4 4 0 4 12 8 0 30 34
Nghost:        3879.03 ave        5424 max         232 min
Histogram: 8 0 8 0 16 0 8 8 16 40
Neighs:        79213.4 ave      115305 max           0 min
Histogram: 8 4 4 0 10 6 8 8 24 32

Total # of neighbors = 8238197
Ave neighs/atom = 28.530454
Neighbor list builds = 0
Dangerous builds = 0
Setting atom values ...
  1 settings made for x
  1 settings made for y
  1 settings made for z
Setting up cg style minimization ...
  Unit style    : metal
  Current step  : 328
Per MPI rank memory allocation (min/avg/max) = 5.441 | 5.816 | 6.074 Mbytes
Step PotEng KinEng TotEng v_fx v_fy v_fz 
     328   -1152449.4            0   -1152449.4  0.027305574 0.0091054172 -0.042675326 
     548   -1152449.4            0   -1152449.4 1.511168e-06 1.4792255e-06 -1.1985523e-06 
Loop time of 2.5398 on 104 procs for 220 steps with 288751 atoms

99.9% CPU use with 104 MPI tasks x 1 OpenMP threads

Minimization stats:
  Stopping criterion = energy tolerance
  Energy initial, next-to-last, final = 
     -1152449.44631813  -1152449.44814986  -1152449.44814986
  Force two-norm initial, final = 0.20347881 2.9647660e-05
  Force max component initial, final = 0.09034408 2.9439131e-06
  Final line search alpha, max atom move = 1.0000000 2.9439131e-06
  Iterations, force evaluations = 220 440

MPI task timing breakdown:
Section |  min time  |  avg time  |  max time  |%varavg| %total
---------------------------------------------------------------
Pair    | 0.6754     | 1.8459     | 2.3961     |  36.5 | 72.68
Neigh   | 0          | 0          | 0          |   0.0 |  0.00
Comm    | 0.040331   | 0.41107    | 1.249      |  54.7 | 16.19
Output  | 0          | 0          | 0          |   0.0 |  0.00
Modify  | 2.9393e-05 | 0.0036211  | 0.0078444  |   2.8 |  0.14
Other   |            | 0.2792     |            |       | 10.99

Nlocal:        2776.45 ave        3956 max           0 min
Histogram: 8 4 4 0 4 12 8 0 30 34
Nghost:        3879.03 ave        5424 max         232 min
Histogram: 8 0 8 0 16 0 8 8 16 40
Neighs:        79213.4 ave      115329 max           0 min
Histogram: 8 4 4 0 10 6 8 8 24 32

Total # of neighbors = 8238197
Ave neighs/atom = 28.530454
Neighbor list builds = 0
Dangerous builds = 0
The dot product: 2.39827722466618e-09
Setting atom values ...
  1 settings made for x
  1 settings made for y
  1 settings made for z
Setting up cg style minimization ...
  Unit style    : metal
  Current step  : 548
Per MPI rank memory allocation (min/avg/max) = 5.441 | 5.816 | 6.074 Mbytes
Step PotEng KinEng TotEng v_fx v_fy v_fz 
     548   -1152449.4            0   -1152449.4  0.027345035  0.011834039 -0.052151643 
     674   -1152449.4            0   -1152449.4 1.8071757e-06 -2.0506058e-06 -8.3501239e-06 
Loop time of 1.48 on 104 procs for 126 steps with 288751 atoms

99.9% CPU use with 104 MPI tasks x 1 OpenMP threads

Minimization stats:
  Stopping criterion = energy tolerance
  Energy initial, next-to-last, final = 
      -1152449.4428838  -1152449.44468939  -1152449.44468939
  Force two-norm initial, final = 0.20381726 0.0001104642
  Force max component initial, final = 0.089333509 8.3501239e-06
  Final line search alpha, max atom move = 1.0000000 8.3501239e-06
  Iterations, force evaluations = 126 252

MPI task timing breakdown:
Section |  min time  |  avg time  |  max time  |%varavg| %total
---------------------------------------------------------------
Pair    | 0.38798    | 1.0679     | 1.3915     |  27.8 | 72.16
Neigh   | 0          | 0          | 0          |   0.0 |  0.00
Comm    | 0.022708   | 0.2441     | 0.73287    |  41.0 | 16.49
Output  | 0          | 0          | 0          |   0.0 |  0.00
Modify  | 1.4848e-05 | 0.0020868  | 0.0044522  |   2.1 |  0.14
Other   |            | 0.1659     |            |       | 11.21

Nlocal:        2776.45 ave        3956 max           0 min
Histogram: 8 4 4 0 4 12 8 0 30 34
Nghost:        3879.03 ave        5424 max         232 min
Histogram: 8 0 8 0 16 0 8 8 16 40
Neighs:        79213.4 ave      115331 max           0 min
Histogram: 8 4 4 0 10 6 8 8 24 32

Total # of neighbors = 8238196
Ave neighs/atom = 28.530450
Neighbor list builds = 0
Dangerous builds = 0
The dot product: 4.88345158069498e-08
Setting atom values ...
  1 settings made for x
  1 settings made for y
  1 settings made for z
Setting up cg style minimization ...
  Unit style    : metal
  Current step  : 674
Per MPI rank memory allocation (min/avg/max) = 5.441 | 5.816 | 6.074 Mbytes
Step PotEng KinEng TotEng v_fx v_fy v_fz 
     674   -1152449.4            0   -1152449.4  0.026395459  0.020388581 -0.054867203 
     810   -1152449.4            0   -1152449.4 7.9870931e-09 -1.2259393e-06 -3.3864062e-06 
Loop time of 1.5694 on 104 procs for 136 steps with 288751 atoms

99.9% CPU use with 104 MPI tasks x 1 OpenMP threads

Minimization stats:
  Stopping criterion = energy tolerance
  Energy initial, next-to-last, final = 
      -1152449.4381284  -1152449.43991167  -1152449.43991167
  Force two-norm initial, final = 0.20176469 7.3185162e-05
  Force max component initial, final = 0.085710607 4.5709370e-06
  Final line search alpha, max atom move = 1.0000000 4.5709370e-06
  Iterations, force evaluations = 136 272

MPI task timing breakdown:
Section |  min time  |  avg time  |  max time  |%varavg| %total
---------------------------------------------------------------
Pair    | 0.41769    | 1.1409     | 1.4804     |  28.6 | 72.70
Neigh   | 0          | 0          | 0          |   0.0 |  0.00
Comm    | 0.025124   | 0.25328    | 0.77167    |  43.1 | 16.14
Output  | 0          | 0          | 0          |   0.0 |  0.00
Modify  | 1.8623e-05 | 0.0022451  | 0.0048297  |   2.2 |  0.14
Other   |            | 0.1729     |            |       | 11.02

Nlocal:        2776.45 ave        3956 max           0 min
Histogram: 8 4 4 0 4 12 8 0 30 34
Nghost:        3879.03 ave        5424 max         232 min
Histogram: 8 0 8 0 16 0 8 8 16 40
Neighs:        79213.5 ave      115333 max           0 min
Histogram: 8 4 4 0 10 6 8 8 24 32

Total # of neighbors = 8238201
Ave neighs/atom = 28.530467
Neighbor list builds = 0
Dangerous builds = 0
The dot product: 2.1226659479346e-08
Setting atom values ...
  1 settings made for x
  1 settings made for y
  1 settings made for z
Setting up cg style minimization ...
  Unit style    : metal
  Current step  : 810
Per MPI rank memory allocation (min/avg/max) = 5.441 | 5.816 | 6.074 Mbytes
Step PotEng KinEng TotEng v_fx v_fy v_fz 
     810   -1152449.4            0   -1152449.4   0.02357744  0.027351918 -0.051201595 
     986   -1152449.4            0   -1152449.4 5.9808537e-06 3.0847601e-07 -4.603258e-05 
Loop time of 2.04449 on 104 procs for 176 steps with 288751 atoms

99.9% CPU use with 104 MPI tasks x 1 OpenMP threads

Minimization stats:
  Stopping criterion = energy tolerance
  Energy initial, next-to-last, final = 
      -1152449.4320632  -1152449.43379949  -1152449.43379949
  Force two-norm initial, final = 0.1975615 0.00013866991
  Force max component initial, final = 0.080803939 4.6032580e-05
  Final line search alpha, max atom move = 1.0000000 4.6032580e-05
  Iterations, force evaluations = 176 352

MPI task timing breakdown:
Section |  min time  |  avg time  |  max time  |%varavg| %total
---------------------------------------------------------------
Pair    | 0.53906    | 1.4836     | 1.9256     |  32.8 | 72.57
Neigh   | 0          | 0          | 0          |   0.0 |  0.00
Comm    | 0.031194   | 0.3318     | 1.0012     |  48.8 | 16.23
Output  | 0          | 0          | 0          |   0.0 |  0.00
Modify  | 2.082e-05  | 0.002901   | 0.0062036  |   2.5 |  0.14
Other   |            | 0.2262     |            |       | 11.06

Nlocal:        2776.45 ave        3956 max           0 min
Histogram: 8 4 4 0 4 12 8 0 30 34
Nghost:        3879.03 ave        5424 max         232 min
Histogram: 8 0 8 0 16 0 8 8 16 40
Neighs:        79213.4 ave      115332 max           0 min
Histogram: 8 4 4 0 10 6 8 8 24 32

Total # of neighbors = 8238198
Ave neighs/atom = 28.530457
Neighbor list builds = 0
Dangerous builds = 0
The dot product: 3.07031455493754e-07
Setting atom values ...
  1 settings made for x
  1 settings made for y
  1 settings made for z
Setting up cg style minimization ...
  Unit style    : metal
  Current step  : 986
Per MPI rank memory allocation (min/avg/max) = 5.441 | 5.816 | 6.074 Mbytes
Step PotEng KinEng TotEng v_fx v_fy v_fz 
     986   -1152449.4            0   -1152449.4  0.020011213  0.030475348 -0.044669014 
    1000   -1152449.4            0   -1152449.4 0.00023847853 0.00035665462 -0.00062574978 
    1178   -1152449.4            0   -1152449.4 1.4624619e-06 1.9784526e-06 -6.8244441e-06 
Loop time of 2.23755 on 104 procs for 192 steps with 288751 atoms

99.9% CPU use with 104 MPI tasks x 1 OpenMP threads

Minimization stats:
  Stopping criterion = energy tolerance
  Energy initial, next-to-last, final = 
     -1152449.42462893  -1152449.42630942  -1152449.42630942
  Force two-norm initial, final = 0.19286109 7.3362677e-05
  Force max component initial, final = 0.07594493 7.6450724e-06
  Final line search alpha, max atom move = 1.0000000 7.6450724e-06
  Iterations, force evaluations = 192 384

MPI task timing breakdown:
Section |  min time  |  avg time  |  max time  |%varavg| %total
---------------------------------------------------------------
Pair    | 0.5888     | 1.6152     | 2.101      |  34.2 | 72.19
Neigh   | 0          | 0          | 0          |   0.0 |  0.00
Comm    | 0.046098   | 0.36496    | 1.1119     |  50.5 | 16.31
Output  | 0.00011644 | 0.00011803 | 0.0001839  |   0.0 |  0.01
Modify  | 2.3485e-05 | 0.0031648  | 0.0067982  |   2.7 |  0.14
Other   |            | 0.2541     |            |       | 11.36

Nlocal:        2776.45 ave        3955 max           0 min
Histogram: 8 4 4 0 4 12 8 0 30 34
Nghost:        3879.03 ave        5424 max         232 min
Histogram: 8 0 8 0 16 0 8 8 16 40
Neighs:        79213.5 ave      115301 max           0 min
Histogram: 8 4 4 0 10 6 8 8 24 32

Total # of neighbors = 8238199
Ave neighs/atom = 28.530461
Neighbor list builds = 0
Dangerous builds = 0
The dot product: 4.57739792254212e-08
Setting atom values ...
  1 settings made for x
  1 settings made for y
  1 settings made for z
Setting up cg style minimization ...
  Unit style    : metal
  Current step  : 1178
Per MPI rank memory allocation (min/avg/max) = 5.441 | 5.816 | 6.074 Mbytes
Step PotEng KinEng TotEng v_fx v_fy v_fz 
    1178   -1152449.4            0   -1152449.4  0.016467063  0.030175253  -0.03755882 
    1339   -1152449.4            0   -1152449.4 -2.1776154e-07 -2.8861922e-06 7.2053646e-05 
Loop time of 1.86746 on 104 procs for 161 steps with 288751 atoms

99.9% CPU use with 104 MPI tasks x 1 OpenMP threads

Minimization stats:
  Stopping criterion = energy tolerance
  Energy initial, next-to-last, final = 
     -1152449.41577478  -1152449.41740295  -1152449.41740295
  Force two-norm initial, final = 0.18847122 0.00023410596
  Force max component initial, final = 0.071694829 7.2053646e-05
  Final line search alpha, max atom move = 1.0000000 7.2053646e-05
  Iterations, force evaluations = 161 322

MPI task timing breakdown:
Section |  min time  |  avg time  |  max time  |%varavg| %total
---------------------------------------------------------------
Pair    | 0.49056    | 1.3578     | 1.7641     |  31.4 | 72.71
Neigh   | 0          | 0          | 0          |   0.0 |  0.00
Comm    | 0.029437   | 0.30582    | 0.93128    |  46.7 | 16.38
Output  | 0          | 0          | 0          |   0.0 |  0.00
Modify  | 2.0615e-05 | 0.0026554  | 0.0057279  |   2.4 |  0.14
Other   |            | 0.2012     |            |       | 10.77

Nlocal:        2776.45 ave        3955 max           0 min
Histogram: 8 4 4 0 4 12 8 0 30 34
Nghost:        3879.03 ave        5424 max         232 min
Histogram: 8 0 8 0 16 0 8 8 16 40
Neighs:        79213.5 ave      115291 max           0 min
Histogram: 8 4 4 0 10 6 8 8 24 32

Total # of neighbors = 8238200
Ave neighs/atom = 28.530464
Neighbor list builds = 0
Dangerous builds = 0
The dot product: -3.86049384022564e-07
Setting atom values ...
  1 settings made for x
  1 settings made for y
  1 settings made for z
Setting up cg style minimization ...
  Unit style    : metal
  Current step  : 1339
Per MPI rank memory allocation (min/avg/max) = 5.441 | 5.816 | 6.074 Mbytes
Step PotEng KinEng TotEng v_fx v_fy v_fz 
    1339   -1152449.4            0   -1152449.4  0.012879661  0.026890839 -0.031300084 
    1508   -1152449.4            0   -1152449.4 7.1753992e-07 3.566425e-06 -1.9258354e-05 
Loop time of 1.94235 on 104 procs for 169 steps with 288751 atoms

99.9% CPU use with 104 MPI tasks x 1 OpenMP threads

Minimization stats:
  Stopping criterion = energy tolerance
  Energy initial, next-to-last, final = 
     -1152449.40546622  -1152449.40706151  -1152449.40706151
  Force two-norm initial, final = 0.18475576 0.0002197889
  Force max component initial, final = 0.068344535 5.1409960e-05
  Final line search alpha, max atom move = 1.0000000 5.1409960e-05
  Iterations, force evaluations = 169 338

MPI task timing breakdown:
Section |  min time  |  avg time  |  max time  |%varavg| %total
---------------------------------------------------------------
Pair    | 0.51504    | 1.418      | 1.8411     |  32.1 | 73.01
Neigh   | 0          | 0          | 0          |   0.0 |  0.00
Comm    | 0.028971   | 0.3146     | 0.95548    |  48.1 | 16.20
Output  | 0          | 0          | 0          |   0.0 |  0.00
Modify  | 2.0645e-05 | 0.0027819  | 0.0059519  |   2.5 |  0.14
Other   |            | 0.2069     |            |       | 10.65

Nlocal:        2776.45 ave        3954 max           0 min
Histogram: 8 4 4 0 4 12 8 0 30 34
Nghost:        3879.03 ave        5424 max         232 min
Histogram: 8 0 8 0 16 0 8 8 16 40
Neighs:        79213.5 ave      115272 max           0 min
Histogram: 8 4 4 0 10 6 8 8 24 32

Total # of neighbors = 8238204
Ave neighs/atom = 28.530478
Neighbor list builds = 0
Dangerous builds = 0
The dot product: 9.4296827764214e-08
Setting atom values ...
  1 settings made for x
  1 settings made for y
  1 settings made for z
Setting up cg style minimization ...
  Unit style    : metal
  Current step  : 1508
Per MPI rank memory allocation (min/avg/max) = 5.441 | 5.816 | 6.074 Mbytes
Step PotEng KinEng TotEng v_fx v_fy v_fz 
    1508   -1152449.4            0   -1152449.4 0.0085340962   0.02037532 -0.027055234 
    1682   -1152449.4            0   -1152449.4 -3.3097553e-07 1.2093181e-05 -6.8789168e-05 
Loop time of 2.04403 on 104 procs for 174 steps with 288751 atoms

99.9% CPU use with 104 MPI tasks x 1 OpenMP threads

Minimization stats:
  Stopping criterion = energy tolerance
  Energy initial, next-to-last, final = 
     -1152449.39370898  -1152449.39530651  -1152449.39530651
  Force two-norm initial, final = 0.18188181 0.00019155276
  Force max component initial, final = 0.070916615 6.8789168e-05
  Final line search alpha, max atom move = 1.0000000 6.8789168e-05
  Iterations, force evaluations = 174 348

MPI task timing breakdown:
Section |  min time  |  avg time  |  max time  |%varavg| %total
---------------------------------------------------------------
Pair    | 0.54276    | 1.4759     | 1.9234     |  32.4 | 72.21
Neigh   | 0          | 0          | 0          |   0.0 |  0.00
Comm    | 0.033878   | 0.33882    | 1.0271     |  47.9 | 16.58
Output  | 0          | 0          | 0          |   0.0 |  0.00
Modify  | 2.0246e-05 | 0.0028678  | 0.0061445  |   2.5 |  0.14
Other   |            | 0.2264     |            |       | 11.08

Nlocal:        2776.45 ave        3954 max           0 min
Histogram: 8 4 4 0 4 12 8 0 30 34
Nghost:        3879.03 ave        5424 max         232 min
Histogram: 8 0 8 0 16 0 8 8 16 40
Neighs:        79213.5 ave      115270 max           0 min
Histogram: 8 4 4 0 10 6 8 8 24 32

Total # of neighbors = 8238203
Ave neighs/atom = 28.530474
Neighbor list builds = 0
Dangerous builds = 0
The dot product: 3.10758898618137e-07
Setting atom values ...
  1 settings made for x
  1 settings made for y
  1 settings made for z
Setting up cg style minimization ...
  Unit style    : metal
  Current step  : 1682
Per MPI rank memory allocation (min/avg/max) = 5.441 | 5.816 | 6.074 Mbytes
Step PotEng KinEng TotEng v_fx v_fy v_fz 
    1682   -1152449.4            0   -1152449.4  0.003375407  0.011800067 -0.024889039 
    1847   -1152449.4            0   -1152449.4 2.8678881e-06 -2.7766812e-06 3.2815919e-05 
Loop time of 1.91024 on 104 procs for 165 steps with 288751 atoms

99.9% CPU use with 104 MPI tasks x 1 OpenMP threads

Minimization stats:
  Stopping criterion = energy tolerance
  Energy initial, next-to-last, final = 
     -1152449.38054672  -1152449.38219729  -1152449.38219729
  Force two-norm initial, final = 0.18003057 0.00022688616
  Force max component initial, final = 0.074533383 3.2815919e-05
  Final line search alpha, max atom move = 1.0000000 3.2815919e-05
  Iterations, force evaluations = 165 330

MPI task timing breakdown:
Section |  min time  |  avg time  |  max time  |%varavg| %total
---------------------------------------------------------------
Pair    | 0.50706    | 1.3898     | 1.8044     |  31.7 | 72.76
Neigh   | 0          | 0          | 0          |   0.0 |  0.00
Comm    | 0.029634   | 0.31071    | 0.94687    |  47.5 | 16.27
Output  | 0          | 0          | 0          |   0.0 |  0.00
Modify  | 1.9793e-05 | 0.0027165  | 0.0058566  |   2.5 |  0.14
Other   |            | 0.207      |            |       | 10.83

Nlocal:        2776.45 ave        3950 max           0 min
Histogram: 8 4 4 0 4 12 8 0 28 36
Nghost:        3879.03 ave        5424 max         232 min
Histogram: 8 0 8 0 16 0 8 8 16 40
Neighs:        79213.5 ave      115118 max           0 min
Histogram: 8 4 4 0 10 6 8 8 24 32

Total # of neighbors = 8238203
Ave neighs/atom = 28.530474
Neighbor list builds = 0
Dangerous builds = 0
The dot product: -1.79864325094788e-07
Setting atom values ...
  1 settings made for x
  1 settings made for y
  1 settings made for z
Setting up cg style minimization ...
  Unit style    : metal
  Current step  : 1847
Per MPI rank memory allocation (min/avg/max) = 5.441 | 5.816 | 6.074 Mbytes
Step PotEng KinEng TotEng v_fx v_fy v_fz 
    1847   -1152449.4            0   -1152449.4 -0.0036358741 0.0013389308 -0.025788317 
    2000   -1152449.4            0   -1152449.4 6.700158e-06 -6.8719029e-07 4.1236304e-05 
    2056   -1152449.4            0   -1152449.4 8.5272595e-09 -3.7812167e-07 1.3846196e-06 
Loop time of 2.42632 on 104 procs for 209 steps with 288751 atoms

99.9% CPU use with 104 MPI tasks x 1 OpenMP threads

Minimization stats:
  Stopping criterion = energy tolerance
  Energy initial, next-to-last, final = 
     -1152449.36607975  -1152449.36799691  -1152449.36799691
  Force two-norm initial, final = 0.17953255 7.3672416e-05
  Force max component initial, final = 0.078981766 1.6980991e-05
  Final line search alpha, max atom move = 1.0000000 1.6980991e-05
  Iterations, force evaluations = 209 418

MPI task timing breakdown:
Section |  min time  |  avg time  |  max time  |%varavg| %total
---------------------------------------------------------------
Pair    | 0.63803    | 1.7598     | 2.2859     |  35.7 | 72.53
Neigh   | 0          | 0          | 0          |   0.0 |  0.00
Comm    | 0.038867   | 0.3953     | 1.1957     |  53.4 | 16.29
Output  | 0.00021615 | 0.00021906 | 0.00035723 |   0.0 |  0.01
Modify  | 2.4645e-05 | 0.0034437  | 0.0074052  |   2.8 |  0.14
Other   |            | 0.2675     |            |       | 11.03

Nlocal:        2776.45 ave        3949 max           0 min
Histogram: 8 4 4 0 4 12 8 0 28 36
Nghost:        3879.01 ave        5424 max         232 min
Histogram: 8 0 8 0 16 0 8 8 16 40
Neighs:        79213.5 ave      115094 max           0 min
Histogram: 8 4 4 0 10 6 8 8 24 32

Total # of neighbors = 8238202
Ave neighs/atom = 28.530471
Neighbor list builds = 0
Dangerous builds = 0
The dot product: -1.02703456229993e-08
Setting atom values ...
  1 settings made for x
  1 settings made for y
  1 settings made for z
Setting up cg style minimization ...
  Unit style    : metal
  Current step  : 2056
Per MPI rank memory allocation (min/avg/max) = 5.441 | 5.816 | 6.074 Mbytes
Step PotEng KinEng TotEng v_fx v_fy v_fz 
    2056   -1152449.4            0   -1152449.4  -0.01740362 -0.013013223 -0.036800811 
    2236   -1152449.4            0   -1152449.4 3.8021474e-06 -2.6774375e-06 2.4020817e-05 
Loop time of 2.06701 on 104 procs for 180 steps with 288751 atoms

99.9% CPU use with 104 MPI tasks x 1 OpenMP threads

Minimization stats:
  Stopping criterion = energy tolerance
  Energy initial, next-to-last, final = 
     -1152449.35079113  -1152449.35297674  -1152449.35297674
  Force two-norm initial, final = 0.18209552 0.00022472503
  Force max component initial, final = 0.085062837 5.8628925e-05
  Final line search alpha, max atom move = 1.0000000 5.8628925e-05
  Iterations, force evaluations = 180 360

MPI task timing breakdown:
Section |  min time  |  avg time  |  max time  |%varavg| %total
---------------------------------------------------------------
Pair    | 0.55041    | 1.5081     | 1.9593     |  33.0 | 72.96
Neigh   | 0          | 0          | 0          |   0.0 |  0.00
Comm    | 0.03019    | 0.33669    | 1.0275     |  49.3 | 16.29
Output  | 0          | 0          | 0          |   0.0 |  0.00
Modify  | 2.1102e-05 | 0.0029653  | 0.0063783  |   2.6 |  0.14
Other   |            | 0.2192     |            |       | 10.61

Nlocal:        2776.45 ave        3949 max           0 min
Histogram: 8 4 4 0 4 12 8 0 28 36
Nghost:        3878.99 ave        5429 max         232 min
Histogram: 8 0 8 0 16 0 8 8 16 40
Neighs:        79213.5 ave      115093 max           0 min
Histogram: 8 4 4 0 10 6 8 8 24 32

Total # of neighbors = 8238203
Ave neighs/atom = 28.530474
Neighbor list builds = 0
Dangerous builds = 0
The dot product: -3.02797253632621e-07
Setting atom values ...
  1 settings made for x
  1 settings made for y
  1 settings made for z
Setting up cg style minimization ...
  Unit style    : metal
  Current step  : 2236
Per MPI rank memory allocation (min/avg/max) = 5.441 | 5.816 | 6.074 Mbytes
Step PotEng KinEng TotEng v_fx v_fy v_fz 
    2236   -1152449.3            0   -1152449.3 -0.029489533 -0.021487566 -0.041550338 
    2425   -1152449.3            0   -1152449.3 4.527825e-06 -1.1413429e-05 4.2312358e-05 
Loop time of 2.17928 on 104 procs for 189 steps with 288751 atoms

99.9% CPU use with 104 MPI tasks x 1 OpenMP threads

Minimization stats:
  Stopping criterion = energy tolerance
  Energy initial, next-to-last, final = 
     -1152449.33479352   -1152449.3371549   -1152449.3371549
  Force two-norm initial, final = 0.18487799 0.00016762327
  Force max component initial, final = 0.092309322 4.2312358e-05
  Final line search alpha, max atom move = 1.0000000 4.2312358e-05
  Iterations, force evaluations = 189 378

MPI task timing breakdown:
Section |  min time  |  avg time  |  max time  |%varavg| %total
---------------------------------------------------------------
Pair    | 0.57921    | 1.5912     | 2.0639     |  33.9 | 73.01
Neigh   | 0          | 0          | 0          |   0.0 |  0.00
Comm    | 0.033716   | 0.356      | 1.0847     |  50.7 | 16.34
Output  | 0          | 0          | 0          |   0.0 |  0.00
Modify  | 2.2866e-05 | 0.0031152  | 0.0066919  |   2.6 |  0.14
Other   |            | 0.229      |            |       | 10.51

Nlocal:        2776.45 ave        3948 max           0 min
Histogram: 8 4 4 0 4 12 8 0 28 36
Nghost:        3879.07 ave        5428 max         232 min
Histogram: 8 0 8 0 16 0 8 8 16 40
Neighs:        79213.5 ave      115077 max           0 min
Histogram: 8 4 4 0 10 6 8 8 24 32

Total # of neighbors = 8238205
Ave neighs/atom = 28.530481
Neighbor list builds = 0
Dangerous builds = 0
The dot product: -4.51393267215278e-07
Setting atom values ...
  1 settings made for x
  1 settings made for y
  1 settings made for z
Setting up cg style minimization ...
  Unit style    : metal
  Current step  : 2425
Per MPI rank memory allocation (min/avg/max) = 5.441 | 5.816 | 6.074 Mbytes
Step PotEng KinEng TotEng v_fx v_fy v_fz 
    2425   -1152449.3            0   -1152449.3 -0.033887088 -0.022462084  -0.03650214 
    2631   -1152449.3            0   -1152449.3 -1.4110894e-07 8.0126258e-06 -1.7744355e-05 
Loop time of 2.36987 on 104 procs for 206 steps with 288751 atoms

99.9% CPU use with 104 MPI tasks x 1 OpenMP threads

Minimization stats:
  Stopping criterion = energy tolerance
  Energy initial, next-to-last, final = 
     -1152449.31792397  -1152449.32013594  -1152449.32013594
  Force two-norm initial, final = 0.18422485 0.00011564149
  Force max component initial, final = 0.099212716 2.4780378e-05
  Final line search alpha, max atom move = 1.0000000 2.4780378e-05
  Iterations, force evaluations = 206 412

MPI task timing breakdown:
Section |  min time  |  avg time  |  max time  |%varavg| %total
---------------------------------------------------------------
Pair    | 0.62626    | 1.7282     | 2.2446     |  35.5 | 72.92
Neigh   | 0          | 0          | 0          |   0.0 |  0.00
Comm    | 0.036982   | 0.38466    | 1.1668     |  52.9 | 16.23
Output  | 0          | 0          | 0          |   0.0 |  0.00
Modify  | 2.414e-05  | 0.0033903  | 0.00728    |   2.8 |  0.14
Other   |            | 0.2536     |            |       | 10.70

Nlocal:        2776.45 ave        3947 max           0 min
Histogram: 8 4 4 0 4 12 8 0 28 36
Nghost:        3879.11 ave        5427 max         232 min
Histogram: 8 0 8 0 16 0 8 8 16 40
Neighs:        79213.5 ave      115046 max           0 min
Histogram: 8 4 4 0 10 6 8 8 24 32

Total # of neighbors = 8238204
Ave neighs/atom = 28.530478
Neighbor list builds = 0
Dangerous builds = 0
The dot product: 1.20129227962637e-07
Setting atom values ...
  1 settings made for x
  1 settings made for y
  1 settings made for z
Setting up cg style minimization ...
  Unit style    : metal
  Current step  : 2631
Per MPI rank memory allocation (min/avg/max) = 5.441 | 5.816 | 6.074 Mbytes
Step PotEng KinEng TotEng v_fx v_fy v_fz 
    2631   -1152449.3            0   -1152449.3 -0.031661662 -0.019548815 -0.027425784 
    2822   -1152449.3            0   -1152449.3 -2.3988272e-06 -1.7296171e-06 -1.5784712e-06 
Loop time of 2.2098 on 104 procs for 191 steps with 288751 atoms

99.9% CPU use with 104 MPI tasks x 1 OpenMP threads

Minimization stats:
  Stopping criterion = energy tolerance
  Energy initial, next-to-last, final = 
     -1152449.29972347  -1152449.30179039  -1152449.30179039
  Force two-norm initial, final = 0.18142379 0.00014082962
  Force max component initial, final = 0.1047733 1.6886365e-05
  Final line search alpha, max atom move = 1.0000000 1.6886365e-05
  Iterations, force evaluations = 191 382

MPI task timing breakdown:
Section |  min time  |  avg time  |  max time  |%varavg| %total
---------------------------------------------------------------
Pair    | 0.58577    | 1.6088     | 2.0851     |  34.1 | 72.80
Neigh   | 0          | 0          | 0          |   0.0 |  0.00
Comm    | 0.032709   | 0.36203    | 1.0986     |  50.8 | 16.38
Output  | 0          | 0          | 0          |   0.0 |  0.00
Modify  | 2.3522e-05 | 0.003141   | 0.0067694  |   2.6 |  0.14
Other   |            | 0.2359     |            |       | 10.67

Nlocal:        2776.45 ave        3946 max           0 min
Histogram: 8 4 4 0 4 12 8 0 28 36
Nghost:        3879.12 ave        5426 max         232 min
Histogram: 8 0 8 0 16 0 8 8 16 40
Neighs:        79213.5 ave      114996 max           0 min
Histogram: 8 4 4 0 10 6 8 8 24 32

Total # of neighbors = 8238208
Ave neighs/atom = 28.530492
Neighbor list builds = 0
Dangerous builds = 0
The dot product: 4.80490822073454e-08
Setting atom values ...
  1 settings made for x
  1 settings made for y
  1 settings made for z
Setting up cg style minimization ...
  Unit style    : metal
  Current step  : 2822
Per MPI rank memory allocation (min/avg/max) = 5.441 | 5.816 | 6.074 Mbytes
Step PotEng KinEng TotEng v_fx v_fy v_fz 
    2822   -1152449.3            0   -1152449.3 -0.027477127 -0.015666176 -0.020689871 
    3000   -1152449.3            0   -1152449.3 3.8387859e-06 -5.0826511e-06 1.6691132e-05 
    3055   -1152449.3            0   -1152449.3 -1.1832441e-06 1.0961125e-06 -4.2517297e-06 
Loop time of 2.68414 on 104 procs for 233 steps with 288751 atoms

99.9% CPU use with 104 MPI tasks x 1 OpenMP threads

Minimization stats:
  Stopping criterion = energy tolerance
  Energy initial, next-to-last, final = 
     -1152449.28017559  -1152449.28217857  -1152449.28217857
  Force two-norm initial, final = 0.17884701 3.0262658e-05
  Force max component initial, final = 0.1092197 4.8025879e-06
  Final line search alpha, max atom move = 1.0000000 4.8025879e-06
  Iterations, force evaluations = 233 466

MPI task timing breakdown:
Section |  min time  |  avg time  |  max time  |%varavg| %total
---------------------------------------------------------------
Pair    | 0.70857    | 1.9505     | 2.5291     |  37.6 | 72.67
Neigh   | 0          | 0          | 0          |   0.0 |  0.00
Comm    | 0.042084   | 0.4366     | 1.3246     |  56.0 | 16.27
Output  | 0.00015035 | 0.00015768 | 0.00030214 |   0.0 |  0.01
Modify  | 2.7212e-05 | 0.0038478  | 0.0082433  |   2.9 |  0.14
Other   |            | 0.2931     |            |       | 10.92

Nlocal:        2776.45 ave        3944 max           0 min
Histogram: 8 4 4 0 4 12 8 0 28 36
Nghost:        3879.16 ave        5426 max         232 min
Histogram: 8 0 8 0 16 0 8 8 16 40
Neighs:        79213.6 ave      114939 max           0 min
Histogram: 8 4 4 0 10 6 8 8 22 34

Total # of neighbors = 8238213
Ave neighs/atom = 28.530509
Neighbor list builds = 0
Dangerous builds = 0
The dot product: 4.1600156995367e-08
Setting atom values ...
  1 settings made for x
  1 settings made for y
  1 settings made for z
Setting up cg style minimization ...
  Unit style    : metal
  Current step  : 3055
Per MPI rank memory allocation (min/avg/max) = 5.441 | 5.816 | 6.074 Mbytes
Step PotEng KinEng TotEng v_fx v_fy v_fz 
    3055   -1152449.3            0   -1152449.3 -0.023524465 -0.011441798 -0.017807031 
    3246   -1152449.3            0   -1152449.3 -6.8682242e-06 5.1021863e-06 -2.0400277e-05 
Loop time of 2.2394 on 104 procs for 191 steps with 288751 atoms

99.9% CPU use with 104 MPI tasks x 1 OpenMP threads

Minimization stats:
  Stopping criterion = energy tolerance
  Energy initial, next-to-last, final = 
     -1152449.25943209  -1152449.26135083  -1152449.26135083
  Force two-norm initial, final = 0.17675378 0.00013778131
  Force max component initial, final = 0.11272698 3.5866308e-05
  Final line search alpha, max atom move = 1.0000000 3.5866308e-05
  Iterations, force evaluations = 191 382

MPI task timing breakdown:
Section |  min time  |  avg time  |  max time  |%varavg| %total
---------------------------------------------------------------
Pair    | 0.59492    | 1.6165     | 2.1036     |  33.9 | 72.18
Neigh   | 0          | 0          | 0          |   0.0 |  0.00
Comm    | 0.041836   | 0.36929    | 1.1239     |  50.4 | 16.49
Output  | 0          | 0          | 0          |   0.0 |  0.00
Modify  | 2.2521e-05 | 0.0031502  | 0.0067392  |   2.6 |  0.14
Other   |            | 0.2505     |            |       | 11.19

Nlocal:        2776.45 ave        3943 max           0 min
Histogram: 8 4 4 0 4 12 8 0 28 36
Nghost:        3879.18 ave        5426 max         232 min
Histogram: 8 0 8 0 16 0 8 8 16 40
Neighs:        79213.6 ave      114898 max           0 min
Histogram: 8 4 4 0 10 6 8 8 22 34

Total # of neighbors = 8238216
Ave neighs/atom = 28.530519
Neighbor list builds = 0
Dangerous builds = 0
The dot product: 2.03345904741967e-07
Setting atom values ...
  1 settings made for x
  1 settings made for y
  1 settings made for z
Setting up cg style minimization ...
  Unit style    : metal
  Current step  : 3246
Per MPI rank memory allocation (min/avg/max) = 5.441 | 5.816 | 6.074 Mbytes
Step PotEng KinEng TotEng v_fx v_fy v_fz 
    3246   -1152449.2            0   -1152449.2 -0.020021891 -0.0079140238 -0.016041248 
    3433   -1152449.2            0   -1152449.2 -3.9697158e-06 4.2239251e-06 -1.3110599e-05 
Loop time of 2.16587 on 104 procs for 187 steps with 288751 atoms

99.9% CPU use with 104 MPI tasks x 1 OpenMP threads

Minimization stats:
  Stopping criterion = energy tolerance
  Energy initial, next-to-last, final = 
     -1152449.23744204  -1152449.23932802  -1152449.23932802
  Force two-norm initial, final = 0.17515165 0.00014242808
  Force max component initial, final = 0.11585691 2.4622848e-05
  Final line search alpha, max atom move = 1.0000000 2.4622848e-05
  Iterations, force evaluations = 187 374

MPI task timing breakdown:
Section |  min time  |  avg time  |  max time  |%varavg| %total
---------------------------------------------------------------
Pair    | 0.57133    | 1.5743     | 2.0478     |  33.9 | 72.69
Neigh   | 0          | 0          | 0          |   0.0 |  0.00
Comm    | 0.031635   | 0.35335    | 1.0723     |  50.2 | 16.31
Output  | 0          | 0          | 0          |   0.0 |  0.00
Modify  | 2.1837e-05 | 0.0030803  | 0.0066419  |   2.6 |  0.14
Other   |            | 0.2352     |            |       | 10.86

Nlocal:        2776.45 ave        3941 max           0 min
Histogram: 8 4 4 0 4 12 8 0 28 36
Nghost:        3879.18 ave        5426 max         232 min
Histogram: 8 0 8 0 16 0 8 8 16 40
Neighs:        79213.6 ave      114841 max           0 min
Histogram: 8 4 4 0 10 6 8 8 22 34

Total # of neighbors = 8238212
Ave neighs/atom = 28.530506
Neighbor list builds = 0
Dangerous builds = 0
The dot product: 1.32549752862204e-07
Setting atom values ...
  1 settings made for x
  1 settings made for y
  1 settings made for z
Setting up cg style minimization ...
  Unit style    : metal
  Current step  : 3433
Per MPI rank memory allocation (min/avg/max) = 5.441 | 5.816 | 6.074 Mbytes
Step PotEng KinEng TotEng v_fx v_fy v_fz 
    3433   -1152449.2            0   -1152449.2 -0.018862266 -0.0050717964 -0.017189482 
    3660   -1152449.2            0   -1152449.2 1.0403009e-06 -4.3856264e-07 2.1184459e-06 
Loop time of 2.66745 on 104 procs for 227 steps with 288751 atoms

99.9% CPU use with 104 MPI tasks x 1 OpenMP threads

Minimization stats:
  Stopping criterion = energy tolerance
  Energy initial, next-to-last, final = 
     -1152449.21431419  -1152449.21635396  -1152449.21635396
  Force two-norm initial, final = 0.17421909 4.5473298e-05
  Force max component initial, final = 0.11869006 8.7579376e-06
  Final line search alpha, max atom move = 1.0000000 8.7579376e-06
  Iterations, force evaluations = 227 454

MPI task timing breakdown:
Section |  min time  |  avg time  |  max time  |%varavg| %total
---------------------------------------------------------------
Pair    | 0.69529    | 1.9156     | 2.4969     |  37.2 | 71.81
Neigh   | 0          | 0          | 0          |   0.0 |  0.00
Comm    | 0.041753   | 0.4393     | 1.3195     |  54.8 | 16.47
Output  | 0          | 0          | 0          |   0.0 |  0.00
Modify  | 2.7549e-05 | 0.0037405  | 0.0079711  |   2.9 |  0.14
Other   |            | 0.3088     |            |       | 11.58

Nlocal:        2776.45 ave        3939 max           0 min
Histogram: 8 4 4 0 4 12 8 0 28 36
Nghost:        3879.17 ave        5426 max         232 min
Histogram: 8 0 8 0 16 0 8 8 16 40
Neighs:        79213.6 ave      114797 max           0 min
Histogram: 8 4 4 0 10 6 8 8 22 34

Total # of neighbors = 8238211
Ave neighs/atom = 28.530502
Neighbor list builds = 0
Dangerous builds = 0
The dot product: -3.10110405187462e-08
Setting atom values ...
  1 settings made for x
  1 settings made for y
  1 settings made for z
Setting up cg style minimization ...
  Unit style    : metal
  Current step  : 3660
Per MPI rank memory allocation (min/avg/max) = 5.441 | 5.816 | 6.074 Mbytes
Step PotEng KinEng TotEng v_fx v_fy v_fz 
    3660   -1152449.2            0   -1152449.2 -0.023093013 -0.0023759643 -0.024476662 
    3848   -1152449.2            0   -1152449.2 4.582248e-06 -1.8293145e-05 3.3569603e-05 
Loop time of 2.16391 on 104 procs for 188 steps with 288751 atoms

99.9% CPU use with 104 MPI tasks x 1 OpenMP threads

Minimization stats:
  Stopping criterion = energy tolerance
  Energy initial, next-to-last, final = 
     -1152449.19054267  -1152449.19277969  -1152449.19277969
  Force two-norm initial, final = 0.17445313 0.0001347549
  Force max component initial, final = 0.12126249 3.3569603e-05
  Final line search alpha, max atom move = 1.0000000 3.3569603e-05
  Iterations, force evaluations = 188 376

MPI task timing breakdown:
Section |  min time  |  avg time  |  max time  |%varavg| %total
---------------------------------------------------------------
Pair    | 0.57258    | 1.5821     | 2.0488     |  34.0 | 73.11
Neigh   | 0          | 0          | 0          |   0.0 |  0.00
Comm    | 0.034155   | 0.35267    | 1.0791     |  51.0 | 16.30
Output  | 0          | 0          | 0          |   0.0 |  0.00
Modify  | 2.3571e-05 | 0.0031031  | 0.0066932  |   2.6 |  0.14
Other   |            | 0.2261     |            |       | 10.45

Nlocal:        2776.45 ave        3940 max           0 min
Histogram: 8 4 4 0 4 12 8 0 28 36
Nghost:        3879.16 ave        5426 max         232 min
Histogram: 8 0 8 0 16 0 8 8 16 40
Neighs:        79213.6 ave      114808 max           0 min
Histogram: 8 4 4 0 10 6 8 8 22 34

Total # of neighbors = 8238211
Ave neighs/atom = 28.530502
Neighbor list builds = 0
Dangerous builds = 0
The dot product: -4.94739573204843e-07
Setting atom values ...
  1 settings made for x
  1 settings made for y
  1 settings made for z
Setting up cg style minimization ...
  Unit style    : metal
  Current step  : 3848
Per MPI rank memory allocation (min/avg/max) = 5.441 | 5.816 | 6.074 Mbytes
Step PotEng KinEng TotEng v_fx v_fy v_fz 
    3848   -1152449.2            0   -1152449.2 -0.028190886 -6.0520817e-05 -0.030461691 
    4000   -1152449.2            0   -1152449.2 -8.7828453e-06 1.381451e-05 -2.918778e-05 
    4030   -1152449.2            0   -1152449.2 -8.5004887e-06 1.3577614e-05 -2.8544497e-05 
Loop time of 2.09678 on 104 procs for 182 steps with 288751 atoms

99.9% CPU use with 104 MPI tasks x 1 OpenMP threads

Minimization stats:
  Stopping criterion = energy tolerance
  Energy initial, next-to-last, final = 
     -1152449.16632935  -1152449.16851094  -1152449.16851094
  Force two-norm initial, final = 0.17523655 0.00015047339
  Force max component initial, final = 0.12404076 3.4669431e-05
  Final line search alpha, max atom move = 1.0000000 3.4669431e-05
  Iterations, force evaluations = 182 364

MPI task timing breakdown:
Section |  min time  |  avg time  |  max time  |%varavg| %total
---------------------------------------------------------------
Pair    | 0.55813    | 1.5295     | 1.9873     |  33.2 | 72.94
Neigh   | 0          | 0          | 0          |   0.0 |  0.00
Comm    | 0.031033   | 0.34264    | 1.0435     |  49.5 | 16.34
Output  | 0.00015874 | 0.0001678  | 0.00030813 |   0.0 |  0.01
Modify  | 2.1382e-05 | 0.0029965  | 0.0064765  |   2.6 |  0.14
Other   |            | 0.2215     |            |       | 10.56

Nlocal:        2776.45 ave        3940 max           0 min
Histogram: 8 4 4 0 4 12 8 0 28 36
Nghost:        3879.16 ave        5426 max         232 min
Histogram: 8 0 8 0 16 0 8 8 16 40
Neighs:        79213.6 ave      114807 max           0 min
Histogram: 8 4 4 0 10 6 8 8 22 34

Total # of neighbors = 8238215
Ave neighs/atom = 28.530516
Neighbor list builds = 0
Dangerous builds = 0
The dot product: 4.64887707446131e-07
Setting atom values ...
  1 settings made for x
  1 settings made for y
  1 settings made for z
Setting up cg style minimization ...
  Unit style    : metal
  Current step  : 4030
Per MPI rank memory allocation (min/avg/max) = 5.441 | 5.816 | 6.074 Mbytes
Step PotEng KinEng TotEng v_fx v_fy v_fz 
    4030   -1152449.1            0   -1152449.1 -0.027505504 0.0012097856 -0.028396495 
    4206   -1152449.1            0   -1152449.1 -5.937551e-06 1.9477341e-05 -3.1767668e-05 
Loop time of 2.01762 on 104 procs for 176 steps with 288751 atoms

99.9% CPU use with 104 MPI tasks x 1 OpenMP threads

Minimization stats:
  Stopping criterion = energy tolerance
  Energy initial, next-to-last, final = 
     -1152449.14119552  -1152449.14324736  -1152449.14324736
  Force two-norm initial, final = 0.17466954 0.00018202875
  Force max component initial, final = 0.12711792 3.1767668e-05
  Final line search alpha, max atom move = 1.0000000 3.1767668e-05
  Iterations, force evaluations = 176 352

MPI task timing breakdown:
Section |  min time  |  avg time  |  max time  |%varavg| %total
---------------------------------------------------------------
Pair    | 0.53417    | 1.4755     | 1.9116     |  32.8 | 73.13
Neigh   | 0          | 0          | 0          |   0.0 |  0.00
Comm    | 0.029481   | 0.32988    | 1.005      |  48.9 | 16.35
Output  | 0          | 0          | 0          |   0.0 |  0.00
Modify  | 2.0479e-05 | 0.0028957  | 0.0062263  |   2.5 |  0.14
Other   |            | 0.2093     |            |       | 10.37

Nlocal:        2776.45 ave        3941 max           0 min
Histogram: 8 4 4 0 4 12 8 0 28 36
Nghost:        3879.16 ave        5425 max         232 min
Histogram: 8 0 8 0 16 0 8 8 16 40
Neighs:        79213.6 ave      114823 max           0 min
Histogram: 8 4 4 0 10 6 8 8 22 34

Total # of neighbors = 8238215
Ave neighs/atom = 28.530516
Neighbor list builds = 0
Dangerous builds = 0
The dot product: 4.50717032139143e-07
Setting atom values ...
  1 settings made for x
  1 settings made for y
  1 settings made for z
Setting up cg style minimization ...
  Unit style    : metal
  Current step  : 4206
Per MPI rank memory allocation (min/avg/max) = 5.441 | 5.816 | 6.074 Mbytes
Step PotEng KinEng TotEng v_fx v_fy v_fz 
    4206   -1152449.1            0   -1152449.1 -0.023941034 0.0019091294 -0.023699622 
    4426   -1152449.1            0   -1152449.1 7.7386933e-07 -3.2510532e-06 4.792807e-06 
Loop time of 2.53738 on 104 procs for 220 steps with 288751 atoms

99.9% CPU use with 104 MPI tasks x 1 OpenMP threads

Minimization stats:
  Stopping criterion = energy tolerance
  Energy initial, next-to-last, final = 
     -1152449.11493794  -1152449.11679684  -1152449.11679684
  Force two-norm initial, final = 0.17379441 3.9174231e-05
  Force max component initial, final = 0.13006856 4.7928070e-06
  Final line search alpha, max atom move = 1.0000000 4.7928070e-06
  Iterations, force evaluations = 220 440

MPI task timing breakdown:
Section |  min time  |  avg time  |  max time  |%varavg| %total
---------------------------------------------------------------
Pair    | 0.67355    | 1.8551     | 2.4062     |  36.7 | 73.11
Neigh   | 0          | 0          | 0          |   0.0 |  0.00
Comm    | 0.03768    | 0.41211    | 1.2461     |  54.9 | 16.24
Output  | 0          | 0          | 0          |   0.0 |  0.00
Modify  | 2.6889e-05 | 0.003618   | 0.0077769  |   2.8 |  0.14
Other   |            | 0.2666     |            |       | 10.51

Nlocal:        2776.45 ave        3941 max           0 min
Histogram: 8 4 4 0 4 12 8 0 28 36
Nghost:        3879.16 ave        5425 max         232 min
Histogram: 8 0 8 0 16 0 8 8 16 40
Neighs:        79213.6 ave      114821 max           0 min
Histogram: 8 4 4 0 10 6 8 8 22 34

Total # of neighbors = 8238214
Ave neighs/atom = 28.530512
Neighbor list builds = 0
Dangerous builds = 0
The dot product: -5.80476166674631e-08
Setting atom values ...
  1 settings made for x
  1 settings made for y
  1 settings made for z
Setting up cg style minimization ...
  Unit style    : metal
  Current step  : 4426
Per MPI rank memory allocation (min/avg/max) = 5.441 | 5.816 | 6.074 Mbytes
Step PotEng KinEng TotEng v_fx v_fy v_fz 
    4426   -1152449.1            0   -1152449.1 -0.018783344 0.0017457893 -0.017654349 
    4630   -1152449.1            0   -1152449.1 5.039154e-06 -8.0920464e-06 1.3945785e-05 
Loop time of 2.34393 on 104 procs for 204 steps with 288751 atoms

99.9% CPU use with 104 MPI tasks x 1 OpenMP threads

Minimization stats:
  Stopping criterion = energy tolerance
  Energy initial, next-to-last, final = 
     -1152449.08733186  -1152449.08906233  -1152449.08906233
  Force two-norm initial, final = 0.17327156 8.5008926e-05
  Force max component initial, final = 0.13297588 2.1521113e-05
  Final line search alpha, max atom move = 1.0000000 2.1521113e-05
  Iterations, force evaluations = 204 408

MPI task timing breakdown:
Section |  min time  |  avg time  |  max time  |%varavg| %total
---------------------------------------------------------------
Pair    | 0.62095    | 1.7097     | 2.215      |  35.3 | 72.94
Neigh   | 0          | 0          | 0          |   0.0 |  0.00
Comm    | 0.036254   | 0.37991    | 1.1574     |  52.7 | 16.21
Output  | 0          | 0          | 0          |   0.0 |  0.00
Modify  | 2.3744e-05 | 0.003363   | 0.0072337  |   2.7 |  0.14
Other   |            | 0.251      |            |       | 10.71

Nlocal:        2776.45 ave        3941 max           0 min
Histogram: 8 4 4 0 4 12 8 0 28 36
Nghost:        3879.16 ave        5425 max         232 min
Histogram: 8 0 8 0 16 0 8 8 16 40
Neighs:        79213.6 ave      114818 max           0 min
Histogram: 8 4 4 0 10 6 8 8 22 34

Total # of neighbors = 8238213
Ave neighs/atom = 28.530509
Neighbor list builds = 0
Dangerous builds = 0
The dot product: -1.5592261020298e-07
Setting atom values ...
  1 settings made for x
  1 settings made for y
  1 settings made for z
Setting up cg style minimization ...
  Unit style    : metal
  Current step  : 4630
Per MPI rank memory allocation (min/avg/max) = 5.441 | 5.816 | 6.074 Mbytes
Step PotEng KinEng TotEng v_fx v_fy v_fz 
    4630   -1152449.1            0   -1152449.1 -0.013517508  0.001443338 -0.012270812 
    4832   -1152449.1            0   -1152449.1 3.0775637e-06 -1.0815176e-05 1.5021626e-05 
Loop time of 2.34442 on 104 procs for 202 steps with 288751 atoms

99.9% CPU use with 104 MPI tasks x 1 OpenMP threads

Minimization stats:
  Stopping criterion = energy tolerance
  Energy initial, next-to-last, final = 
     -1152449.05838566  -1152449.06004137  -1152449.06004137
  Force two-norm initial, final = 0.17334022 9.1183355e-05
  Force max component initial, final = 0.13562527 1.5021626e-05
  Final line search alpha, max atom move = 1.0000000 1.5021626e-05
  Iterations, force evaluations = 202 404

MPI task timing breakdown:
Section |  min time  |  avg time  |  max time  |%varavg| %total
---------------------------------------------------------------
Pair    | 0.61858    | 1.7094     | 2.2166     |  35.2 | 72.92
Neigh   | 0          | 0          | 0          |   0.0 |  0.00
Comm    | 0.036718   | 0.38666    | 1.1836     |  52.5 | 16.49
Output  | 0          | 0          | 0          |   0.0 |  0.00
Modify  | 2.3373e-05 | 0.0033295  | 0.0070961  |   2.7 |  0.14
Other   |            | 0.245      |            |       | 10.45

Nlocal:        2776.45 ave        3940 max           0 min
Histogram: 8 4 4 0 4 12 8 0 28 36
Nghost:        3879.18 ave        5426 max         232 min
Histogram: 8 0 8 0 16 0 8 8 16 40
Neighs:        79213.6 ave      114789 max           0 min
Histogram: 8 4 4 0 10 6 8 8 22 34

Total # of neighbors = 8238214
Ave neighs/atom = 28.530512
Neighbor list builds = 0
Dangerous builds = 0
The dot product: -1.35255132184162e-07
Setting atom values ...
  1 settings made for x
  1 settings made for y
  1 settings made for z
Setting up cg style minimization ...
  Unit style    : metal
  Current step  : 4832
Per MPI rank memory allocation (min/avg/max) = 5.441 | 5.816 | 6.074 Mbytes
Step PotEng KinEng TotEng v_fx v_fy v_fz 
    4832     -1152449            0     -1152449 -0.0089488821 0.0011156518 -0.0079852778 
    5000     -1152449            0     -1152449  1.60191e-05 -4.0797922e-05 5.8247658e-05 
    5028     -1152449            0     -1152449 5.777797e-07 -4.5131007e-06 5.5463962e-06 
Loop time of 2.26026 on 104 procs for 196 steps with 288751 atoms

99.9% CPU use with 104 MPI tasks x 1 OpenMP threads

Minimization stats:
  Stopping criterion = energy tolerance
  Energy initial, next-to-last, final = 
     -1152449.02815183   -1152449.0297958   -1152449.0297958
  Force two-norm initial, final = 0.17391008 0.00010133508
  Force max component initial, final = 0.13805706 1.0496925e-05
  Final line search alpha, max atom move = 1.0000000 1.0496925e-05
  Iterations, force evaluations = 196 392

MPI task timing breakdown:
Section |  min time  |  avg time  |  max time  |%varavg| %total
---------------------------------------------------------------
Pair    | 0.59859    | 1.6424     | 2.1309     |  34.5 | 72.67
Neigh   | 0          | 0          | 0          |   0.0 |  0.00
Comm    | 0.033405   | 0.36642    | 1.107      |  51.5 | 16.21
Output  | 0.00014409 | 0.00015396 | 0.00030254 |   0.0 |  0.01
Modify  | 2.4189e-05 | 0.0032284  | 0.0069996  |   2.7 |  0.14
Other   |            | 0.248      |            |       | 10.97

Nlocal:        2776.45 ave        3939 max           0 min
Histogram: 8 4 4 0 4 12 8 0 28 36
Nghost:        3879.18 ave        5426 max         232 min
Histogram: 8 0 8 0 16 0 8 8 16 40
Neighs:        79213.6 ave      114771 max           0 min
Histogram: 8 4 4 0 10 6 8 8 22 34

Total # of neighbors = 8238218
Ave neighs/atom = 28.530526
Neighbor list builds = 0
Dangerous builds = 0
The dot product: -4.39274090509551e-08
Setting atom values ...
  1 settings made for x
  1 settings made for y
  1 settings made for z
Setting up cg style minimization ...
  Unit style    : metal
  Current step  : 5028
Per MPI rank memory allocation (min/avg/max) = 5.441 | 5.816 | 6.074 Mbytes
Step PotEng KinEng TotEng v_fx v_fy v_fz 
    5028     -1152449            0     -1152449 -0.0055730418 0.00090124533 -0.0050453486 
    5197     -1152449            0     -1152449 -5.6700827e-06 1.5689576e-05 -2.1453306e-05 
Loop time of 1.99154 on 104 procs for 169 steps with 288751 atoms

99.9% CPU use with 104 MPI tasks x 1 OpenMP threads

Minimization stats:
  Stopping criterion = energy tolerance
  Energy initial, next-to-last, final = 
     -1152448.99678977  -1152448.99843729  -1152448.99843729
  Force two-norm initial, final = 0.17465619 0.00021586695
  Force max component initial, final = 0.14015858 2.1453306e-05
  Final line search alpha, max atom move = 1.0000000 2.1453306e-05
  Iterations, force evaluations = 169 338

MPI task timing breakdown:
Section |  min time  |  avg time  |  max time  |%varavg| %total
---------------------------------------------------------------
Pair    | 0.51746    | 1.4307     | 1.8825     |  32.3 | 71.84
Neigh   | 0          | 0          | 0          |   0.0 |  0.00
Comm    | 0.030194   | 0.32825    | 0.98129    |  47.1 | 16.48
Output  | 0          | 0          | 0          |   0.0 |  0.00
Modify  | 1.9926e-05 | 0.0027901  | 0.005954   |   2.5 |  0.14
Other   |            | 0.2298     |            |       | 11.54

Nlocal:        2776.45 ave        3939 max           0 min
Histogram: 8 4 4 0 4 12 8 0 28 36
Nghost:        3879.20 ave        5426 max         232 min
Histogram: 8 0 8 0 16 0 8 8 16 40
Neighs:        79213.6 ave      114769 max           0 min
Histogram: 8 4 4 0 10 6 8 8 22 34

Total # of neighbors = 8238215
Ave neighs/atom = 28.530516
Neighbor list builds = 0
Dangerous builds = 0
The dot product: 1.59336452609399e-07
Setting atom values ...
  1 settings made for x
  1 settings made for y
  1 settings made for z
Setting up cg style minimization ...
  Unit style    : metal
  Current step  : 5197
Per MPI rank memory allocation (min/avg/max) = 5.441 | 5.816 | 6.074 Mbytes
Step PotEng KinEng TotEng v_fx v_fy v_fz 
    5197     -1152449            0     -1152449 -0.0029890673 0.0003244276 -0.0024660937 
    5392     -1152449            0     -1152449 -2.6207152e-06 9.8421862e-06 -1.2491554e-05 
Loop time of 2.27616 on 104 procs for 195 steps with 288751 atoms

99.9% CPU use with 104 MPI tasks x 1 OpenMP threads

Minimization stats:
  Stopping criterion = energy tolerance
  Energy initial, next-to-last, final = 
     -1152448.96436554  -1152448.96602783  -1152448.96602783
  Force two-norm initial, final = 0.17551079 0.00010213377
  Force max component initial, final = 0.14205019 1.2491554e-05
  Final line search alpha, max atom move = 1.0000000 1.2491554e-05
  Iterations, force evaluations = 195 390

MPI task timing breakdown:
Section |  min time  |  avg time  |  max time  |%varavg| %total
---------------------------------------------------------------
Pair    | 0.59605    | 1.642      | 2.1258     |  34.6 | 72.14
Neigh   | 0          | 0          | 0          |   0.0 |  0.00
Comm    | 0.034044   | 0.37229    | 1.1217     |  51.4 | 16.36
Output  | 0          | 0          | 0          |   0.0 |  0.00
Modify  | 2.3747e-05 | 0.0032124  | 0.0069033  |   2.7 |  0.14
Other   |            | 0.2587     |            |       | 11.37

Nlocal:        2776.45 ave        3938 max           0 min
Histogram: 8 4 4 0 4 12 8 0 28 36
Nghost:        3879.20 ave        5426 max         232 min
Histogram: 8 0 8 0 16 0 8 8 16 40
Neighs:        79213.6 ave      114745 max           0 min
Histogram: 8 4 4 0 9 7 8 8 22 34

Total # of neighbors = 8238219
Ave neighs/atom = 28.530530
Neighbor list builds = 0
Dangerous builds = 0
The dot product: 8.68911729128336e-08
Setting atom values ...
  1 settings made for x
  1 settings made for y
  1 settings made for z
Setting up cg style minimization ...
  Unit style    : metal
  Current step  : 5392
Per MPI rank memory allocation (min/avg/max) = 5.441 | 5.816 | 6.074 Mbytes
Step PotEng KinEng TotEng v_fx v_fy v_fz 
    5392   -1152448.9            0   -1152448.9 -0.0012494451 -0.00035544935 -0.00048850233 
    5622   -1152448.9            0   -1152448.9 1.5757225e-06 -3.7967809e-06 5.1128628e-06 
Loop time of 2.66061 on 104 procs for 230 steps with 288751 atoms

99.9% CPU use with 104 MPI tasks x 1 OpenMP threads

Minimization stats:
  Stopping criterion = energy tolerance
  Energy initial, next-to-last, final = 
     -1152448.93099658  -1152448.93270711  -1152448.93270711
  Force two-norm initial, final = 0.17633804 4.6397360e-05
  Force max component initial, final = 0.14372109 5.1128628e-06
  Final line search alpha, max atom move = 1.0000000 5.1128628e-06
  Iterations, force evaluations = 230 460

MPI task timing breakdown:
Section |  min time  |  avg time  |  max time  |%varavg| %total
---------------------------------------------------------------
Pair    | 0.70458    | 1.9388     | 2.5128     |  37.3 | 72.87
Neigh   | 0          | 0          | 0          |   0.0 |  0.00
Comm    | 0.044996   | 0.43318    | 1.3151     |  56.1 | 16.28
Output  | 0          | 0          | 0          |   0.0 |  0.00
Modify  | 2.6602e-05 | 0.0037827  | 0.0081118  |   2.9 |  0.14
Other   |            | 0.2848     |            |       | 10.70

Nlocal:        2776.45 ave        3939 max           0 min
Histogram: 8 4 4 0 4 12 8 0 28 36
Nghost:        3879.20 ave        5426 max         232 min
Histogram: 8 0 8 0 16 0 8 8 16 40
Neighs:        79213.6 ave      114765 max           0 min
Histogram: 8 4 4 0 10 6 8 8 22 34

Total # of neighbors = 8238215
Ave neighs/atom = 28.530516
Neighbor list builds = 0
Dangerous builds = 0
The dot product: -3.39186626293395e-08
Setting atom values ...
  1 settings made for x
  1 settings made for y
  1 settings made for z
Setting up cg style minimization ...
  Unit style    : metal
  Current step  : 5622
Per MPI rank memory allocation (min/avg/max) = 5.441 | 5.816 | 6.074 Mbytes
Step PotEng KinEng TotEng v_fx v_fy v_fz 
    5622   -1152448.9            0   -1152448.9 3.3049084e-05 -0.001312414  0.001387345 
    5836   -1152448.9            0   -1152448.9 1.3768315e-06 -8.6269862e-06  9.90743e-06 
Loop time of 2.45934 on 104 procs for 214 steps with 288751 atoms

99.9% CPU use with 104 MPI tasks x 1 OpenMP threads

Minimization stats:
  Stopping criterion = energy tolerance
  Energy initial, next-to-last, final = 
     -1152448.89679667  -1152448.89842795  -1152448.89842795
  Force two-norm initial, final = 0.17710131 7.9366159e-05
  Force max component initial, final = 0.14517503 1.7942006e-05
  Final line search alpha, max atom move = 1.0000000 1.7942006e-05
  Iterations, force evaluations = 214 428

MPI task timing breakdown:
Section |  min time  |  avg time  |  max time  |%varavg| %total
---------------------------------------------------------------
Pair    | 0.65011    | 1.7961     | 2.3258     |  36.2 | 73.03
Neigh   | 0          | 0          | 0          |   0.0 |  0.00
Comm    | 0.036808   | 0.39976    | 1.2173     |  54.1 | 16.25
Output  | 0          | 0          | 0          |   0.0 |  0.00
Modify  | 2.5547e-05 | 0.0035203  | 0.0075507  |   2.8 |  0.14
Other   |            | 0.26       |            |       | 10.57

Nlocal:        2776.45 ave        3939 max           0 min
Histogram: 8 4 4 0 4 12 8 0 28 36
Nghost:        3879.20 ave        5426 max         232 min
Histogram: 8 0 8 0 16 0 8 8 16 40
Neighs:        79213.6 ave      114755 max           0 min
Histogram: 8 4 4 0 10 6 8 8 22 34

Total # of neighbors = 8238216
Ave neighs/atom = 28.530519
Neighbor list builds = 0
Dangerous builds = 0
The dot product: -5.54795300062217e-08
Setting atom values ...
  1 settings made for x
  1 settings made for y
  1 settings made for z
Setting up cg style minimization ...
  Unit style    : metal
  Current step  : 5836
Per MPI rank memory allocation (min/avg/max) = 5.441 | 5.816 | 6.074 Mbytes
Step PotEng KinEng TotEng v_fx v_fy v_fz 
    5836   -1152448.9            0   -1152448.9 0.0016114364 -0.0033213522 0.0044822039 
    6000   -1152448.9            0   -1152448.9 1.893672e-05 -3.4556464e-05 4.8088497e-05 
    6042   -1152448.9            0   -1152448.9 3.1120708e-06 -5.0802215e-06 7.2894065e-06 
Loop time of 2.37965 on 104 procs for 206 steps with 288751 atoms

99.9% CPU use with 104 MPI tasks x 1 OpenMP threads

Minimization stats:
  Stopping criterion = energy tolerance
  Energy initial, next-to-last, final = 
     -1152448.86148311  -1152448.86309429  -1152448.86309429
  Force two-norm initial, final = 0.17837294 8.4501358e-05
  Force max component initial, final = 0.14689105 1.3566637e-05
  Final line search alpha, max atom move = 1.0000000 1.3566637e-05
  Iterations, force evaluations = 206 412

MPI task timing breakdown:
Section |  min time  |  avg time  |  max time  |%varavg| %total
---------------------------------------------------------------
Pair    | 0.63017    | 1.7327     | 2.2503     |  35.4 | 72.81
Neigh   | 0          | 0          | 0          |   0.0 |  0.00
Comm    | 0.03569    | 0.38652    | 1.1762     |  53.0 | 16.24
Output  | 0.00011182 | 0.00013134 | 0.00029425 |   0.0 |  0.01
Modify  | 2.4796e-05 | 0.0033867  | 0.0072599  |   2.7 |  0.14
Other   |            | 0.2569     |            |       | 10.80

Nlocal:        2776.45 ave        3939 max           0 min
Histogram: 8 4 4 0 4 12 8 0 28 36
Nghost:        3879.19 ave        5426 max         232 min
Histogram: 8 0 8 0 16 0 8 8 16 40
Neighs:        79213.6 ave      114752 max           0 min
Histogram: 8 4 4 0 9 7 8 8 22 34

Total # of neighbors = 8238215
Ave neighs/atom = 28.530516
Neighbor list builds = 0
Dangerous builds = 0
The dot product: -3.29320365991876e-08
Setting atom values ...
  1 settings made for x
  1 settings made for y
  1 settings made for z
Setting up cg style minimization ...
  Unit style    : metal
  Current step  : 6042
Per MPI rank memory allocation (min/avg/max) = 5.441 | 5.816 | 6.074 Mbytes
Step PotEng KinEng TotEng v_fx v_fy v_fz 
    6042   -1152448.8            0   -1152448.8 0.0029024404 -0.0054875533 0.0074791037 
    6193   -1152448.8            0   -1152448.8 5.9820246e-06 -4.251792e-05 4.700666e-05 
Loop time of 1.72817 on 104 procs for 151 steps with 288751 atoms

99.9% CPU use with 104 MPI tasks x 1 OpenMP threads

Minimization stats:
  Stopping criterion = energy tolerance
  Energy initial, next-to-last, final = 
     -1152448.82510883  -1152448.82683259  -1152448.82683259
  Force two-norm initial, final = 0.1796495 0.00027465088
  Force max component initial, final = 0.1484675 6.5414495e-05
  Final line search alpha, max atom move = 1.0000000 6.5414495e-05
  Iterations, force evaluations = 151 302

MPI task timing breakdown:
Section |  min time  |  avg time  |  max time  |%varavg| %total
---------------------------------------------------------------
Pair    | 0.45894    | 1.2645     | 1.6361     |  30.3 | 73.17
Neigh   | 0          | 0          | 0          |   0.0 |  0.00
Comm    | 0.026414   | 0.27976    | 0.85198    |  45.5 | 16.19
Output  | 0          | 0          | 0          |   0.0 |  0.00
Modify  | 1.8757e-05 | 0.0024914  | 0.0054287  |   2.4 |  0.14
Other   |            | 0.1814     |            |       | 10.49

Nlocal:        2776.45 ave        3937 max           0 min
Histogram: 8 4 4 0 4 12 8 0 28 36
Nghost:        3879.18 ave        5426 max         232 min
Histogram: 8 0 8 0 16 0 8 8 16 40
Neighs:        79213.6 ave      114678 max           0 min
Histogram: 8 4 4 0 8 8 8 8 22 34

Total # of neighbors = 8238217
Ave neighs/atom = 28.530523
Neighbor list builds = 0
Dangerous builds = 0
The dot product: -2.00476071881998e-07
Setting atom values ...
  1 settings made for x
  1 settings made for y
  1 settings made for z
Setting up cg style minimization ...
  Unit style    : metal
  Current step  : 6193
Per MPI rank memory allocation (min/avg/max) = 5.441 | 5.816 | 6.074 Mbytes
Step PotEng KinEng TotEng v_fx v_fy v_fz 
    6193   -1152448.8            0   -1152448.8 0.0035942004 -0.0072316254 0.0096052857 
    6378   -1152448.8            0   -1152448.8 2.4921806e-06 -1.0709458e-05 1.236422e-05 
Loop time of 2.14106 on 104 procs for 185 steps with 288751 atoms

99.9% CPU use with 104 MPI tasks x 1 OpenMP threads

Minimization stats:
  Stopping criterion = energy tolerance
  Energy initial, next-to-last, final = 
     -1152448.78803094  -1152448.78965307  -1152448.78965307
  Force two-norm initial, final = 0.18026724 0.00015277175
  Force max component initial, final = 0.14956637 2.6235331e-05
  Final line search alpha, max atom move = 1.0000000 2.6235331e-05
  Iterations, force evaluations = 185 370

MPI task timing breakdown:
Section |  min time  |  avg time  |  max time  |%varavg| %total
---------------------------------------------------------------
Pair    | 0.56269    | 1.5609     | 2.0232     |  33.7 | 72.90
Neigh   | 0          | 0          | 0          |   0.0 |  0.00
Comm    | 0.032088   | 0.34956    | 1.0673     |  50.5 | 16.33
Output  | 0          | 0          | 0          |   0.0 |  0.00
Modify  | 2.2903e-05 | 0.0030511  | 0.0065688  |   2.6 |  0.14
Other   |            | 0.2276     |            |       | 10.63

Nlocal:        2776.45 ave        3936 max           0 min
Histogram: 8 4 4 0 4 12 8 0 28 36
Nghost:        3879.20 ave        5426 max         232 min
Histogram: 8 0 8 0 16 0 8 8 16 40
Neighs:        79213.6 ave      114658 max           0 min
Histogram: 8 4 4 0 8 8 8 8 20 36

Total # of neighbors = 8238213
Ave neighs/atom = 28.530509
Neighbor list builds = 0
Dangerous builds = 0
The dot product: -3.6673121120472e-08
Setting atom values ...
  1 settings made for x
  1 settings made for y
  1 settings made for z
Setting up cg style minimization ...
  Unit style    : metal
  Current step  : 6378
Per MPI rank memory allocation (min/avg/max) = 5.441 | 5.816 | 6.074 Mbytes
Step PotEng KinEng TotEng v_fx v_fy v_fz 
    6378   -1152448.7            0   -1152448.7  0.004574226 -0.010072363  0.013005818 
    6639   -1152448.8            0   -1152448.8 -3.8880332e-07 6.1469883e-07 -8.6543244e-07 
Loop time of 3.00229 on 104 procs for 261 steps with 288751 atoms

99.9% CPU use with 104 MPI tasks x 1 OpenMP threads

Minimization stats:
  Stopping criterion = energy tolerance
  Energy initial, next-to-last, final = 
     -1152448.74983394  -1152448.75146565  -1152448.75146565
  Force two-norm initial, final = 0.18124879 1.0091104e-05
  Force max component initial, final = 0.15088543 1.7001282e-06
  Final line search alpha, max atom move = 1.0000000 1.7001282e-06
  Iterations, force evaluations = 261 522

MPI task timing breakdown:
Section |  min time  |  avg time  |  max time  |%varavg| %total
---------------------------------------------------------------
Pair    | 0.79694    | 2.1885     | 2.8421     |  39.9 | 72.89
Neigh   | 0          | 0          | 0          |   0.0 |  0.00
Comm    | 0.044438   | 0.4887     | 1.4886     |  59.5 | 16.28
Output  | 0          | 0          | 0          |   0.0 |  0.00
Modify  | 3.0282e-05 | 0.0042926  | 0.0092239  |   3.1 |  0.14
Other   |            | 0.3208     |            |       | 10.69

Nlocal:        2776.45 ave        3936 max           0 min
Histogram: 8 4 4 0 4 12 8 0 28 36
Nghost:        3879.26 ave        5426 max         232 min
Histogram: 8 0 8 0 16 0 8 8 16 40
Neighs:        79213.6 ave      114667 max           0 min
Histogram: 8 4 4 0 8 8 8 8 22 34

Total # of neighbors = 8238213
Ave neighs/atom = 28.530509
Neighbor list builds = 0
Dangerous builds = 0
The dot product: 1.41467565936669e-09
Setting atom values ...
  1 settings made for x
  1 settings made for y
  1 settings made for z
Setting up cg style minimization ...
  Unit style    : metal
  Current step  : 6639
Per MPI rank memory allocation (min/avg/max) = 5.441 | 5.816 | 6.074 Mbytes
Step PotEng KinEng TotEng v_fx v_fy v_fz 
    6639   -1152448.7            0   -1152448.7 0.0051945987 -0.012894167  0.016152904 
    6806   -1152448.7            0   -1152448.7 1.5962971e-06 -5.2495784e-06 6.2378073e-06 
Loop time of 1.92706 on 104 procs for 167 steps with 288751 atoms

99.9% CPU use with 104 MPI tasks x 1 OpenMP threads

Minimization stats:
  Stopping criterion = energy tolerance
  Energy initial, next-to-last, final = 
     -1152448.71071969  -1152448.71252793  -1152448.71252793
  Force two-norm initial, final = 0.18168288 0.0001285793
  Force max component initial, final = 0.15193668 1.1861909e-05
  Final line search alpha, max atom move = 1.0000000 1.1861909e-05
  Iterations, force evaluations = 167 334

MPI task timing breakdown:
Section |  min time  |  avg time  |  max time  |%varavg| %total
---------------------------------------------------------------
Pair    | 0.51095    | 1.4095     | 1.8274     |  32.0 | 73.14
Neigh   | 0          | 0          | 0          |   0.0 |  0.00
Comm    | 0.028295   | 0.31487    | 0.95716    |  48.0 | 16.34
Output  | 0          | 0          | 0          |   0.0 |  0.00
Modify  | 1.9555e-05 | 0.0027515  | 0.0059222  |   2.5 |  0.14
Other   |            | 0.1999     |            |       | 10.37

Nlocal:        2776.45 ave        3936 max           0 min
Histogram: 8 4 4 0 4 12 8 0 28 36
Nghost:        3879.26 ave        5426 max         232 min
Histogram: 8 0 8 0 16 0 8 8 16 40
Neighs:        79213.6 ave      114666 max           0 min
Histogram: 8 4 4 0 8 8 8 8 22 34

Total # of neighbors = 8238212
Ave neighs/atom = 28.530506
Neighbor list builds = 0
Dangerous builds = 0
The dot product: -7.29314530450616e-09
Setting atom values ...
  1 settings made for x
  1 settings made for y
  1 settings made for z
Setting up cg style minimization ...
  Unit style    : metal
  Current step  : 6806
Per MPI rank memory allocation (min/avg/max) = 5.441 | 5.816 | 6.074 Mbytes
Step PotEng KinEng TotEng v_fx v_fy v_fz 
    6806   -1152448.7            0   -1152448.7 0.0056040547 -0.014946263  0.018405446 
    6951   -1152448.7            0   -1152448.7 2.1187044e-06 6.8943461e-06 -5.4183795e-06 
Loop time of 1.6883 on 104 procs for 145 steps with 288751 atoms

99.9% CPU use with 104 MPI tasks x 1 OpenMP threads

Minimization stats:
  Stopping criterion = energy tolerance
  Energy initial, next-to-last, final = 
     -1152448.67132916  -1152448.67307913  -1152448.67307913
  Force two-norm initial, final = 0.18054234 0.0001753322
  Force max component initial, final = 0.15192896 2.0965950e-05
  Final line search alpha, max atom move = 1.0000000 2.0965950e-05
  Iterations, force evaluations = 145 290

MPI task timing breakdown:
Section |  min time  |  avg time  |  max time  |%varavg| %total
---------------------------------------------------------------
Pair    | 0.4395     | 1.2197     | 1.5826     |  29.9 | 72.24
Neigh   | 0          | 0          | 0          |   0.0 |  0.00
Comm    | 0.025076   | 0.27238    | 0.82602    |  44.3 | 16.13
Output  | 0          | 0          | 0          |   0.0 |  0.00
Modify  | 1.7055e-05 | 0.0023944  | 0.0051235  |   2.3 |  0.14
Other   |            | 0.1938     |            |       | 11.48

Nlocal:        2776.45 ave        3936 max           0 min
Histogram: 8 4 4 0 4 12 8 0 28 36
Nghost:        3879.28 ave        5426 max         232 min
Histogram: 8 0 8 0 16 0 8 8 16 40
Neighs:        79213.5 ave      114673 max           0 min
Histogram: 8 4 4 0 8 8 8 8 22 34

Total # of neighbors = 8238207
Ave neighs/atom = 28.530488
Neighbor list builds = 0
Dangerous builds = 0
The dot product: 3.12480843088504e-09
Setting atom values ...
  1 settings made for x
  1 settings made for y
  1 settings made for z
Setting up cg style minimization ...
  Unit style    : metal
  Current step  : 6951
Per MPI rank memory allocation (min/avg/max) = 5.441 | 5.816 | 6.074 Mbytes
Step PotEng KinEng TotEng v_fx v_fy v_fz 
    6951   -1152448.6            0   -1152448.6 0.0059695933 -0.017875401  0.021547816 
    7000   -1152448.6            0   -1152448.6 -0.00050204162 0.0014447525 -0.0017543951 
    7175   -1152448.6            0   -1152448.6 3.9941146e-06 -1.3924536e-05 1.6355053e-05 
Loop time of 2.60793 on 104 procs for 224 steps with 288751 atoms

99.9% CPU use with 104 MPI tasks x 1 OpenMP threads

Minimization stats:
  Stopping criterion = energy tolerance
  Energy initial, next-to-last, final = 
     -1152448.63158632  -1152448.63360453  -1152448.63360453
  Force two-norm initial, final = 0.17956609 0.00011323791
  Force max component initial, final = 0.15162146 1.9418210e-05
  Final line search alpha, max atom move = 1.0000000 1.9418210e-05
  Iterations, force evaluations = 224 448

MPI task timing breakdown:
Section |  min time  |  avg time  |  max time  |%varavg| %total
---------------------------------------------------------------
Pair    | 0.68145    | 1.8872     | 2.4547     |  36.9 | 72.36
Neigh   | 0          | 0          | 0          |   0.0 |  0.00
Comm    | 0.037327   | 0.43019    | 1.3024     |  54.5 | 16.50
Output  | 0.00010804 | 0.00011186 | 0.0002276  |   0.0 |  0.00
Modify  | 2.7062e-05 | 0.0036854  | 0.0078626  |   2.9 |  0.14
Other   |            | 0.2867     |            |       | 10.99

Nlocal:        2776.45 ave        3935 max           0 min
Histogram: 8 4 4 0 4 12 8 0 28 36
Nghost:        3879.24 ave        5426 max         232 min
Histogram: 8 0 8 0 16 0 8 8 16 40
Neighs:        79213.5 ave      114639 max           0 min
Histogram: 8 4 4 0 8 8 8 8 20 36

Total # of neighbors = 8238199
Ave neighs/atom = 28.530461
Neighbor list builds = 0
Dangerous builds = 0
The dot product: 1.01487556019931e-08
Setting atom values ...
  1 settings made for x
  1 settings made for y
  1 settings made for z
Setting up cg style minimization ...
  Unit style    : metal
  Current step  : 7175
Per MPI rank memory allocation (min/avg/max) = 5.441 | 5.816 | 6.074 Mbytes
Step PotEng KinEng TotEng v_fx v_fy v_fz 
    7175   -1152448.6            0   -1152448.6 0.0094523708 -0.018916616  0.024904165 
    7375   -1152448.6            0   -1152448.6 1.1711865e-05 -3.0242644e-05 3.7571771e-05 
Loop time of 2.3054 on 104 procs for 200 steps with 288751 atoms

99.9% CPU use with 104 MPI tasks x 1 OpenMP threads

Minimization stats:
  Stopping criterion = energy tolerance
  Energy initial, next-to-last, final = 
     -1152448.59289458   -1152448.5950686   -1152448.5950686
  Force two-norm initial, final = 0.17787093 0.00015285158
  Force max component initial, final = 0.14909115 3.7571771e-05
  Final line search alpha, max atom move = 1.0000000 3.7571771e-05
  Iterations, force evaluations = 200 400

MPI task timing breakdown:
Section |  min time  |  avg time  |  max time  |%varavg| %total
---------------------------------------------------------------
Pair    | 0.6097     | 1.6793     | 2.1789     |  35.0 | 72.84
Neigh   | 0          | 0          | 0          |   0.0 |  0.00
Comm    | 0.036001   | 0.37467    | 1.1387     |  52.2 | 16.25
Output  | 0          | 0          | 0          |   0.0 |  0.00
Modify  | 2.3256e-05 | 0.0032914  | 0.0070668  |   2.7 |  0.14
Other   |            | 0.2481     |            |       | 10.76

Nlocal:        2776.45 ave        3934 max           0 min
Histogram: 8 4 4 0 4 12 8 0 28 36
Nghost:        3879.24 ave        5427 max         232 min
Histogram: 8 0 8 0 16 0 8 8 16 40
Neighs:        79213.5 ave      114599 max           0 min
Histogram: 8 4 4 0 8 8 8 8 20 36

Total # of neighbors = 8238205
Ave neighs/atom = 28.530481
Neighbor list builds = 0
Dangerous builds = 0
The dot product: 1.51242482146347e-08
Setting atom values ...
  1 settings made for x
  1 settings made for y
  1 settings made for z
Setting up cg style minimization ...
  Unit style    : metal
  Current step  : 7375
Per MPI rank memory allocation (min/avg/max) = 5.441 | 5.816 | 6.074 Mbytes
Step PotEng KinEng TotEng v_fx v_fy v_fz 
    7375   -1152448.6            0   -1152448.6  0.011435747 -0.018621887  0.025959134 
    7609   -1152448.6            0   -1152448.6 3.8189835e-06 -8.054618e-06 1.047955e-05 
Loop time of 2.69999 on 104 procs for 234 steps with 288751 atoms

99.9% CPU use with 104 MPI tasks x 1 OpenMP threads

Minimization stats:
  Stopping criterion = energy tolerance
  Energy initial, next-to-last, final = 
     -1152448.55618874  -1152448.56857862  -1152448.56857862
  Force two-norm initial, final = 0.18589525 0.00012875388
  Force max component initial, final = 0.14656269 1.0479550e-05
  Final line search alpha, max atom move = 1.0000000 1.0479550e-05
  Iterations, force evaluations = 234 468

MPI task timing breakdown:
Section |  min time  |  avg time  |  max time  |%varavg| %total
---------------------------------------------------------------
Pair    | 0.71938    | 1.9728     | 2.5552     |  37.7 | 73.07
Neigh   | 1.0221e-05 | 0.0029662  | 0.0042739  |   2.2 |  0.11
Comm    | 0.043101   | 0.43932    | 1.3313     |  56.7 | 16.27
Output  | 0          | 0          | 0          |   0.0 |  0.00
Modify  | 2.7655e-05 | 0.0038416  | 0.0082352  |   2.9 |  0.14
Other   |            | 0.281      |            |       | 10.41

Nlocal:        2776.45 ave        3934 max           0 min
Histogram: 8 4 4 0 4 12 8 0 28 36
Nghost:        3879.22 ave        5426 max         232 min
Histogram: 8 0 8 0 16 0 8 8 16 40
Neighs:        79213.4 ave      114588 max           0 min
Histogram: 8 4 4 0 8 8 8 8 20 36

Total # of neighbors = 8238192
Ave neighs/atom = 28.530436
Neighbor list builds = 1
Dangerous builds = 0
The dot product: -1.95024756342495e-07
Setting atom values ...
  1 settings made for x
  1 settings made for y
  1 settings made for z
Setting up cg style minimization ...
  Unit style    : metal
  Current step  : 7609
Per MPI rank memory allocation (min/avg/max) = 5.441 | 5.816 | 6.074 Mbytes
Step PotEng KinEng TotEng v_fx v_fy v_fz 
    7609   -1152448.5            0   -1152448.5 0.0053252063 -0.014136097   0.01683375 
    7862   -1152448.5            0   -1152448.5 -8.223289e-06 1.7636687e-05 -2.2021587e-05 
[...]

Nlocal:        2776.45 ave        3958 max           0 min
Histogram: 8 4 4 0 4 12 8 4 26 34
Nghost:        3879.03 ave        5424 max         232 min
Histogram: 8 0 8 0 16 0 8 8 16 40
Neighs:        79213.5 ave      115389 max           0 min
Histogram: 8 4 4 0 10 6 8 8 24 32

Total # of neighbors = 8238202
Ave neighs/atom = 28.530471
Neighbor list builds = 0
Dangerous builds = 0
The dot product: 4.82619084347732e-07
Setting atom values ...
  1 settings made for x
  1 settings made for y
  1 settings made for z
Setting up cg style minimization ...
  Unit style    : metal
  Current step  : 2021
Per MPI rank memory allocation (min/avg/max) = 5.441 | 5.816 | 6.074 Mbytes
Step PotEng KinEng TotEng v_fx v_fy v_fz 
    2021   -1152449.4            0   -1152449.4 -0.0007632519 -0.024380923  0.041500969 
    2219   -1152449.4            0   -1152449.4 -3.0817476e-06 4.6473674e-06 -1.8062521e-07 
Loop time of 2.3074 on 104 procs for 198 steps with 288751 atoms

99.9% CPU use with 104 MPI tasks x 1 OpenMP threads

Minimization stats:
  Stopping criterion = energy tolerance
  Energy initial, next-to-last, final = 
     -1152449.35976948  -1152449.36114906  -1152449.36114906
  Force two-norm initial, final = 0.14437734 4.0280920e-05
  Force max component initial, final = 0.074525036 1.0497559e-05
  Final line search alpha, max atom move = 1.0000000 1.0497559e-05
  Iterations, force evaluations = 198 396

MPI task timing breakdown:
Section |  min time  |  avg time  |  max time  |%varavg| %total
---------------------------------------------------------------
Pair    | 0.59947    | 1.6595     | 2.1693     |  34.7 | 71.92
Neigh   | 0          | 0          | 0          |   0.0 |  0.00
Comm    | 0.033329   | 0.37954    | 1.1456     |  51.1 | 16.45
Output  | 0          | 0          | 0          |   0.0 |  0.00
Modify  | 2.2816e-05 | 0.0032685  | 0.0070197  |   2.7 |  0.14
Other   |            | 0.2651     |            |       | 11.49

Nlocal:        2776.45 ave        3958 max           0 min
Histogram: 8 4 4 0 4 12 8 4 26 34
Nghost:        3879.03 ave        5424 max         232 min
Histogram: 8 0 8 0 16 0 8 8 16 40
Neighs:        79213.5 ave      115389 max           0 min
Histogram: 8 4 4 0 10 6 8 8 24 32

Total # of neighbors = 8238199
Ave neighs/atom = 28.530461
Neighbor list builds = 0
Dangerous builds = 0
The dot product: -2.22681273548345e-08
Setting atom values ...
  1 settings made for x
  1 settings made for y
  1 settings made for z
Setting up cg style minimization ...
  Unit style    : metal
  Current step  : 2219
Per MPI rank memory allocation (min/avg/max) = 5.441 | 5.816 | 6.074 Mbytes
Step PotEng KinEng TotEng v_fx v_fy v_fz 
    2219   -1152449.4            0   -1152449.4 -0.00079283403 -0.013289362  0.020316831 
    2417   -1152449.4            0   -1152449.4 3.9294414e-06 -4.8160452e-06 -1.6313011e-06 
Loop time of 2.31658 on 104 procs for 198 steps with 288751 atoms

99.9% CPU use with 104 MPI tasks x 1 OpenMP threads

Minimization stats:
  Stopping criterion = energy tolerance
  Energy initial, next-to-last, final = 
     -1152449.35019714  -1152449.35146439  -1152449.35146439
  Force two-norm initial, final = 0.13816958 3.1313747e-05
  Force max component initial, final = 0.070963233 6.2758178e-06
  Final line search alpha, max atom move = 1.0000000 6.2758178e-06
  Iterations, force evaluations = 198 396

MPI task timing breakdown:
Section |  min time  |  avg time  |  max time  |%varavg| %total
---------------------------------------------------------------
Pair    | 0.60362    | 1.6574     | 2.159      |  34.6 | 71.55
Neigh   | 0          | 0          | 0          |   0.0 |  0.00
Comm    | 0.035934   | 0.37165    | 1.1441     |  51.4 | 16.04
Output  | 0          | 0          | 0          |   0.0 |  0.00
Modify  | 2.4723e-05 | 0.003255   | 0.0069198  |   2.7 |  0.14
Other   |            | 0.2842     |            |       | 12.27

Nlocal:        2776.45 ave        3957 max           0 min
Histogram: 8 4 4 0 4 12 8 4 26 34
Nghost:        3879.03 ave        5424 max         232 min
Histogram: 8 0 8 0 16 0 8 8 16 40
Neighs:        79213.5 ave      115370 max           0 min
Histogram: 8 4 4 0 10 6 8 8 24 32

Total # of neighbors = 8238201
Ave neighs/atom = 28.530467
Neighbor list builds = 0
Dangerous builds = 0
The dot product: -1.21378873277286e-09
Setting atom values ...
  1 settings made for x
  1 settings made for y
  1 settings made for z
Setting up cg style minimization ...
  Unit style    : metal
  Current step  : 2417
Per MPI rank memory allocation (min/avg/max) = 5.441 | 5.816 | 6.074 Mbytes
Step PotEng KinEng TotEng v_fx v_fy v_fz 
    2417   -1152449.3            0   -1152449.3 -0.0028844486 -0.0099969484   0.01854121 
    2685   -1152449.3            0   -1152449.3 1.7206249e-07 2.1817843e-07 -6.2111314e-07 
Loop time of 3.12165 on 104 procs for 268 steps with 288751 atoms

99.9% CPU use with 104 MPI tasks x 1 OpenMP threads

Minimization stats:
  Stopping criterion = energy tolerance
  Energy initial, next-to-last, final = 
     -1152449.34070881   -1152449.3426636   -1152449.3426636
  Force two-norm initial, final = 0.14130492 7.0828497e-06
  Force max component initial, final = 0.068110878 1.0342008e-06
  Final line search alpha, max atom move = 1.0000000 1.0342008e-06
  Iterations, force evaluations = 268 536

MPI task timing breakdown:
Section |  min time  |  avg time  |  max time  |%varavg| %total
---------------------------------------------------------------
Pair    | 0.81573    | 2.248      | 2.9578     |  40.6 | 72.01
Neigh   | 0          | 0          | 0          |   0.0 |  0.00
Comm    | 0.049666   | 0.51175    | 1.5132     |  58.9 | 16.39
Output  | 0          | 0          | 0          |   0.0 |  0.00
Modify  | 3.2204e-05 | 0.0044058  | 0.0094081  |   3.1 |  0.14
Other   |            | 0.3575     |            |       | 11.45

Nlocal:        2776.45 ave        3957 max           0 min
Histogram: 8 4 4 0 4 12 8 4 26 34
Nghost:        3879.03 ave        5424 max         232 min
Histogram: 8 0 8 0 16 0 8 8 16 40
Neighs:        79213.5 ave      115371 max           0 min
Histogram: 8 4 4 0 10 6 8 8 24 32

Total # of neighbors = 8238202
Ave neighs/atom = 28.530471
Neighbor list builds = 0
Dangerous builds = 0
The dot product: -9.06846838155919e-09
Setting atom values ...
  1 settings made for x
  1 settings made for y
  1 settings made for z
Setting up cg style minimization ...
  Unit style    : metal
  Current step  : 2685
Per MPI rank memory allocation (min/avg/max) = 5.441 | 5.816 | 6.074 Mbytes
Step PotEng KinEng TotEng v_fx v_fy v_fz 
    2685   -1152449.3            0   -1152449.3 -0.0074012769 -0.010922991  0.025383778 
    2925   -1152449.3            0   -1152449.3 -1.6247737e-05 1.1459145e-05 1.5655144e-05 
Loop time of 2.77572 on 104 procs for 240 steps with 288751 atoms

99.9% CPU use with 104 MPI tasks x 1 OpenMP threads

Minimization stats:
  Stopping criterion = energy tolerance
  Energy initial, next-to-last, final = 
     -1152449.33486025  -1152449.34600254  -1152449.34600254
  Force two-norm initial, final = 0.15237919 0.00011117156
  Force max component initial, final = 0.061764573 2.1514414e-05
  Final line search alpha, max atom move = 1.0000000 2.1514414e-05
  Iterations, force evaluations = 240 480

MPI task timing breakdown:
Section |  min time  |  avg time  |  max time  |%varavg| %total
---------------------------------------------------------------
Pair    | 0.73691    | 2.0112     | 2.6196     |  37.9 | 72.46
Neigh   | 1.0177e-05 | 0.0029543  | 0.0043137  |   2.2 |  0.11
Comm    | 0.044491   | 0.44903    | 1.343      |  56.4 | 16.18
Output  | 0          | 0          | 0          |   0.0 |  0.00
Modify  | 2.888e-05  | 0.0039422  | 0.008375   |   3.0 |  0.14
Other   |            | 0.3086     |            |       | 11.12

Nlocal:        2776.45 ave        3958 max           0 min
Histogram: 8 4 4 0 4 12 8 2 28 34
Nghost:        3879.03 ave        5424 max         232 min
Histogram: 8 0 8 0 16 0 8 8 16 40
Neighs:        79213.5 ave      115383 max           0 min
Histogram: 8 4 4 0 10 6 8 8 24 32

Total # of neighbors = 8238200
Ave neighs/atom = 28.530464
Neighbor list builds = 1
Dangerous builds = 0
The dot product: 5.5123163831404e-07
Setting atom values ...
  1 settings made for x
  1 settings made for y
  1 settings made for z
Setting up cg style minimization ...
  Unit style    : metal
  Current step  : 2925
Per MPI rank memory allocation (min/avg/max) = 5.441 | 5.816 | 6.074 Mbytes
Step PotEng KinEng TotEng v_fx v_fy v_fz 
    2925   -1152449.3            0   -1152449.3  0.017683969 0.0090765519  -0.03291458 
    3000   -1152449.3            0   -1152449.3 1.4822273e-05 0.00010742412 -0.00011820994 
    3022   -1152449.3            0   -1152449.3 -1.9937043e-05 -1.9885829e-05 4.587183e-05 
Loop time of 1.1282 on 104 procs for 97 steps with 288751 atoms

99.9% CPU use with 104 MPI tasks x 1 OpenMP threads

Minimization stats:
  Stopping criterion = energy tolerance
  Energy initial, next-to-last, final = 
     -1152449.34803516  -1152449.34899282  -1152449.34899282
  Force two-norm initial, final = 0.12967977 0.00024435114
  Force max component initial, final = 0.048271506 5.6458827e-05
  Final line search alpha, max atom move = 1.0000000 5.6458827e-05
  Iterations, force evaluations = 97 194

MPI task timing breakdown:
Section |  min time  |  avg time  |  max time  |%varavg| %total
---------------------------------------------------------------
Pair    | 0.29526    | 0.815      | 1.0673     |  24.3 | 72.24
Neigh   | 0          | 0          | 0          |   0.0 |  0.00
Comm    | 0.017269   | 0.1847     | 0.55648    |  35.8 | 16.37
Output  | 9.8706e-05 | 0.00010441 | 0.00024163 |   0.0 |  0.01
Modify  | 1.1684e-05 | 0.0016068  | 0.0034353  |   1.9 |  0.14
Other   |            | 0.1268     |            |       | 11.24

Nlocal:        2776.45 ave        3955 max           0 min
Histogram: 8 4 4 0 4 12 8 0 30 34
Nghost:        3879.03 ave        5425 max         232 min
Histogram: 8 0 8 0 16 0 8 8 16 40
Neighs:        79213.4 ave      115268 max           0 min
Histogram: 8 4 4 0 10 6 8 8 24 32

Total # of neighbors = 8238191
Ave neighs/atom = 28.530433
Neighbor list builds = 0
Dangerous builds = 0
The dot product: -1.65760603013804e-07
Setting atom values ...
  1 settings made for x
  1 settings made for y
  1 settings made for z
Setting up cg style minimization ...
  Unit style    : metal
  Current step  : 3022
Per MPI rank memory allocation (min/avg/max) = 5.441 | 5.816 | 6.074 Mbytes
Step PotEng KinEng TotEng v_fx v_fy v_fz 
    3022   -1152449.4            0   -1152449.4  0.009945797 0.0053301953 -0.019120248 
    3181   -1152449.4            0   -1152449.4 -3.4723565e-06 -4.7002504e-05 4.846269e-05 
Loop time of 1.84088 on 104 procs for 159 steps with 288751 atoms

99.9% CPU use with 104 MPI tasks x 1 OpenMP threads

Minimization stats:
  Stopping criterion = energy tolerance
  Energy initial, next-to-last, final = 
     -1152449.35000632  -1152449.35091025  -1152449.35091025
  Force two-norm initial, final = 0.12517536 0.00024197998
  Force max component initial, final = 0.047428853 4.8462690e-05
  Final line search alpha, max atom move = 1.0000000 4.8462690e-05
  Iterations, force evaluations = 159 318

MPI task timing breakdown:
Section |  min time  |  avg time  |  max time  |%varavg| %total
---------------------------------------------------------------
Pair    | 0.48677    | 1.3329     | 1.7421     |  31.1 | 72.40
Neigh   | 0          | 0          | 0          |   0.0 |  0.00
Comm    | 0.031595   | 0.29858    | 0.89694    |  46.0 | 16.22
Output  | 0          | 0          | 0          |   0.0 |  0.00
Modify  | 1.955e-05  | 0.0026238  | 0.0055537  |   2.4 |  0.14
Other   |            | 0.2068     |            |       | 11.23

Nlocal:        2776.45 ave        3955 max           0 min
Histogram: 8 4 4 0 4 12 8 0 30 34
Nghost:        3879.03 ave        5425 max         232 min
Histogram: 8 0 8 0 16 0 8 8 16 40
Neighs:        79213.4 ave      115268 max           0 min
Histogram: 8 4 4 0 10 6 8 8 24 32

Total # of neighbors = 8238193
Ave neighs/atom = 28.530440
Neighbor list builds = 0
Dangerous builds = 0
The dot product: -9.93289229798703e-09
Setting atom values ...
  1 settings made for x
  1 settings made for y
  1 settings made for z
Setting up cg style minimization ...
  Unit style    : metal
  Current step  : 3181
Per MPI rank memory allocation (min/avg/max) = 5.441 | 5.816 | 6.074 Mbytes
Step PotEng KinEng TotEng v_fx v_fy v_fz 
    3181   -1152449.4            0   -1152449.4  0.010644123 0.0053175053 -0.020135608 
    3374   -1152449.4            0   -1152449.4 -1.7742702e-06 1.8596323e-05 -1.4697963e-05 
Loop time of 2.24678 on 104 procs for 193 steps with 288751 atoms

99.9% CPU use with 104 MPI tasks x 1 OpenMP threads

Minimization stats:
  Stopping criterion = energy tolerance
  Energy initial, next-to-last, final = 
     -1152449.35067236  -1152449.35157313  -1152449.35157313
  Force two-norm initial, final = 0.12549428 9.1493097e-05
  Force max component initial, final = 0.046895876 2.9519622e-05
  Final line search alpha, max atom move = 1.0000000 2.9519622e-05
  Iterations, force evaluations = 193 386

MPI task timing breakdown:
Section |  min time  |  avg time  |  max time  |%varavg| %total
---------------------------------------------------------------
Pair    | 0.58691    | 1.617      | 2.1309     |  34.3 | 71.97
Neigh   | 0          | 0          | 0          |   0.0 |  0.00
Comm    | 0.033185   | 0.3672     | 1.1062     |  50.3 | 16.34
Output  | 0          | 0          | 0          |   0.0 |  0.00
Modify  | 2.3201e-05 | 0.0031832  | 0.0068161  |   2.7 |  0.14
Other   |            | 0.2594     |            |       | 11.55

Nlocal:        2776.45 ave        3956 max           0 min
Histogram: 8 4 4 0 4 12 8 0 30 34
Nghost:        3879.03 ave        5429 max         232 min
Histogram: 8 0 8 0 16 0 8 8 16 40
Neighs:        79213.4 ave      115309 max           0 min
Histogram: 8 4 4 0 10 6 8 8 24 32

Total # of neighbors = 8238190
Ave neighs/atom = 28.530429
Neighbor list builds = 0
Dangerous builds = 0
The dot product: 5.200655119382e-09
Setting atom values ...
  1 settings made for x
  1 settings made for y
  1 settings made for z
Setting up cg style minimization ...
  Unit style    : metal
  Current step  : 3374
Per MPI rank memory allocation (min/avg/max) = 5.441 | 5.816 | 6.074 Mbytes
Step PotEng KinEng TotEng v_fx v_fy v_fz 
    3374   -1152449.4            0   -1152449.4  0.010285128 0.0047312166 -0.019139795 
    3561   -1152449.4            0   -1152449.4 -4.1421397e-06 -1.5460242e-05 2.029568e-05 
Loop time of 2.16666 on 104 procs for 187 steps with 288751 atoms

99.9% CPU use with 104 MPI tasks x 1 OpenMP threads

Minimization stats:
  Stopping criterion = energy tolerance
  Energy initial, next-to-last, final = 
     -1152449.35001407  -1152449.35090616  -1152449.35090616
  Force two-norm initial, final = 0.12492321 0.00010506294
  Force max component initial, final = 0.046275539 2.0295680e-05
  Final line search alpha, max atom move = 1.0000000 2.0295680e-05
  Iterations, force evaluations = 187 374

MPI task timing breakdown:
Section |  min time  |  avg time  |  max time  |%varavg| %total
---------------------------------------------------------------
Pair    | 0.56698    | 1.5638     | 2.0471     |  33.7 | 72.17
Neigh   | 0          | 0          | 0          |   0.0 |  0.00
Comm    | 0.035468   | 0.35272    | 1.0552     |  49.7 | 16.28
Output  | 0          | 0          | 0          |   0.0 |  0.00
Modify  | 2.1477e-05 | 0.0030806  | 0.0065938  |   2.6 |  0.14
Other   |            | 0.2471     |            |       | 11.40

Nlocal:        2776.45 ave        3957 max           0 min
Histogram: 8 4 4 0 4 12 8 2 28 34
Nghost:        3879.03 ave        5424 max         232 min
Histogram: 8 0 8 0 16 0 8 8 16 40
Neighs:        79213.4 ave      115369 max           0 min
Histogram: 8 4 4 0 10 6 8 8 24 32

Total # of neighbors = 8238192
Ave neighs/atom = 28.530436
Neighbor list builds = 0
Dangerous builds = 0
The dot product: -9.31538727968782e-09
Setting atom values ...
  1 settings made for x
  1 settings made for y
  1 settings made for z
Setting up cg style minimization ...
  Unit style    : metal
  Current step  : 3561
Per MPI rank memory allocation (min/avg/max) = 5.441 | 5.816 | 6.074 Mbytes
Step PotEng KinEng TotEng v_fx v_fy v_fz 
    3561   -1152449.3            0   -1152449.3 0.0096530423 0.0039604039 -0.017572261 
    3763   -1152449.3            0   -1152449.3 -7.1573386e-06 2.599327e-05 -1.3885001e-05 
Loop time of 2.34235 on 104 procs for 202 steps with 288751 atoms

99.9% CPU use with 104 MPI tasks x 1 OpenMP threads

Minimization stats:
  Stopping criterion = energy tolerance
  Energy initial, next-to-last, final = 
     -1152449.34800764  -1152449.34888683  -1152449.34888683
  Force two-norm initial, final = 0.12394002 7.8004118e-05
  Force max component initial, final = 0.046034252 2.5993270e-05
  Final line search alpha, max atom move = 1.0000000 2.5993270e-05
  Iterations, force evaluations = 202 404

MPI task timing breakdown:
Section |  min time  |  avg time  |  max time  |%varavg| %total
---------------------------------------------------------------
Pair    | 0.61316    | 1.6922     | 2.2143     |  35.1 | 72.24
Neigh   | 0          | 0          | 0          |   0.0 |  0.00
Comm    | 0.034967   | 0.38527    | 1.16       |  51.6 | 16.45
Output  | 0          | 0          | 0          |   0.0 |  0.00
Modify  | 2.3908e-05 | 0.003325   | 0.0070809  |   2.7 |  0.14
Other   |            | 0.2615     |            |       | 11.17

Nlocal:        2776.45 ave        3957 max           0 min
Histogram: 8 4 4 0 4 12 8 2 28 34
Nghost:        3879.03 ave        5424 max         232 min
Histogram: 8 0 8 0 16 0 8 8 16 40
Neighs:        79213.4 ave      115370 max           0 min
Histogram: 8 4 4 0 10 6 8 8 24 32

Total # of neighbors = 8238191
Ave neighs/atom = 28.530433
Neighbor list builds = 0
Dangerous builds = 0
The dot product: -3.13810036759256e-11
Setting up cg style minimization ...
  Unit style    : metal
  Current step  : 3763
Per MPI rank memory allocation (min/avg/max) = 5.441 | 5.816 | 6.074 Mbytes
Step PotEng KinEng TotEng v_fx v_fy v_fz 
    3763   -1152449.3            0   -1152449.3  -0.09782668 -0.063228599 -0.068005689 
    4000   -1152449.4            0   -1152449.4 2.6284161e-07 -4.4138649e-06 7.2938847e-06 
    4001   -1152449.4            0   -1152449.4 -6.8784346e-07 3.7182196e-06 -5.1748518e-06 
Loop time of 2.74224 on 104 procs for 238 steps with 288751 atoms

99.9% CPU use with 104 MPI tasks x 1 OpenMP threads

Minimization stats:
  Stopping criterion = energy tolerance
  Energy initial, next-to-last, final = 
     -1152449.34888683  -1152449.35157315  -1152449.35157315
  Force two-norm initial, final = 0.13488029 3.1939031e-05
  Force max component initial, final = 0.09782668 5.1748518e-06
  Final line search alpha, max atom move = 1.0000000 5.1748518e-06
  Iterations, force evaluations = 238 476

MPI task timing breakdown:
Section |  min time  |  avg time  |  max time  |%varavg| %total
---------------------------------------------------------------
Pair    | 0.72673    | 1.9922     | 2.6004     |  37.9 | 72.65
Neigh   | 0          | 0          | 0          |   0.0 |  0.00
Comm    | 0.045268   | 0.44582    | 1.3427     |  56.1 | 16.26
Output  | 0.0001179  | 0.00012849 | 0.00030386 |   0.0 |  0.00
Modify  | 2.5231e-05 | 0.0025415  | 0.006495   |   3.2 |  0.09
Other   |            | 0.3016     |            |       | 11.00

Nlocal:        2776.45 ave        3957 max           0 min
Histogram: 8 4 4 0 4 12 8 2 28 34
Nghost:        3879.03 ave        5424 max         232 min
Histogram: 8 0 8 0 16 0 8 8 16 40
Neighs:        79213.4 ave      115370 max           0 min
Histogram: 8 4 4 0 10 6 8 8 24 32

Total # of neighbors = 8238190
Ave neighs/atom = 28.530429
Neighbor list builds = 0
Dangerous builds = 0
