LAMMPS (29 Oct 2020)
OMP_NUM_THREADS environment is not set. Defaulting to 1 thread. (../comm.cpp:94)
  using 1 OpenMP thread(s) per MPI task
OMP_NUM_THREADS environment is not set. Defaulting to 1 thread. (../comm.cpp:94)
  using 1 OpenMP thread(s) per MPI task
Reading data file ...
  orthogonal box = (-122.39241 -121.13707 -37.090501) to (122.39241 121.13707 37.090501)
  13 by 4 by 2 MPI processor grid
  reading atoms ...
  288751 atoms
  read_data CPU = 0.449 seconds
199981 atoms in group inner
88770 atoms in group outer
1 atoms in group carbon
Neighbor list info ...
  update every 1 steps, delay 0 steps, check yes
  max neighbors/atom: 2000, page size: 100000
  master list distance cutoff = 5.6
  ghost atom cutoff = 5.6
  binsize = 2.8, bins = 88 87 27
  1 neighbor lists, perpetual/occasional/extra = 1 0 0
  (1) pair eam/alloy, perpetual
      attributes: half, newton on
      pair build: half/bin/atomonly/newton
      stencil: half/bin/3d/newton
      bin: standard
Setting up cg style minimization ...
  Unit style    : metal
  Current step  : 0
Per MPI rank memory allocation (min/avg/max) = 5.441 | 5.816 | 6.074 Mbytes
Step v_fx v_fy v_fz PotEng KinEng TotEng 
       0    12.702099    23.367162     7.972038   -1152441.8            0   -1152441.8 
     221 -1.5182202e-05 -3.8789985e-05 -4.0860652e-05     -1152449            0     -1152449 
Loop time of 2.64961 on 104 procs for 221 steps with 288751 atoms

99.8% CPU use with 104 MPI tasks x 1 OpenMP threads

Minimization stats:
  Stopping criterion = energy tolerance
  Energy initial, next-to-last, final = 
     -1152441.78205552  -1152448.97218781  -1152448.97218781
  Force two-norm initial, final = 45.432523 0.00023599933
  Force max component initial, final = 29.690035 4.7571574e-05
  Final line search alpha, max atom move = 1.0000000 4.7571574e-05
  Iterations, force evaluations = 221 438

MPI task timing breakdown:
Section |  min time  |  avg time  |  max time  |%varavg| %total
---------------------------------------------------------------
Pair    | 0.71912    | 1.8696     | 2.4144     |  35.7 | 70.56
Neigh   | 0.0001041  | 0.028195   | 0.041496   |   7.0 |  1.06
Comm    | 0.050374   | 0.43412    | 1.2778     |  53.2 | 16.38
Output  | 0          | 0          | 0          |   0.0 |  0.00
Modify  | 2.4945e-05 | 0.0024083  | 0.0061062  |   3.0 |  0.09
Other   |            | 0.3153     |            |       | 11.90

Nlocal:        2776.45 ave        3956 max           0 min
Histogram: 8 4 4 0 4 12 8 0 30 34
Nghost:        3879.08 ave        5425 max         232 min
Histogram: 8 0 8 0 16 0 8 8 16 40
Neighs:        79213.6 ave      115305 max           0 min
Histogram: 8 4 4 0 10 6 8 8 24 32

Total # of neighbors = 8238210
Ave neighs/atom = 28.530499
Neighbor list builds = 9
Dangerous builds = 0
Setting atom values ...
  1 settings made for x
  1 settings made for y
  1 settings made for z
Setting up cg style minimization ...
  Unit style    : metal
  Current step  : 221
Per MPI rank memory allocation (min/avg/max) = 5.441 | 5.816 | 6.074 Mbytes
Step PotEng KinEng TotEng v_fx v_fy v_fz 
     221     -1152449            0     -1152449 0.0058282654  0.003358827  0.025255653 
     338     -1152449            0     -1152449 2.2664572e-07 -5.2806905e-06 -1.6294858e-05 
Loop time of 1.40456 on 104 procs for 117 steps with 288751 atoms

99.9% CPU use with 104 MPI tasks x 1 OpenMP threads

Minimization stats:
  Stopping criterion = energy tolerance
  Energy initial, next-to-last, final = 
     -1152448.97137375  -1152448.97197107  -1152448.97197107
  Force two-norm initial, final = 0.10761574 0.00013617891
  Force max component initial, final = 0.040166792 1.6294858e-05
  Final line search alpha, max atom move = 1.0000000 1.6294858e-05
  Iterations, force evaluations = 117 234

MPI task timing breakdown:
Section |  min time  |  avg time  |  max time  |%varavg| %total
---------------------------------------------------------------
Pair    | 0.35605    | 0.99202    | 1.3        |  27.0 | 70.63
Neigh   | 0          | 0          | 0          |   0.0 |  0.00
Comm    | 0.024313   | 0.22895    | 0.67544    |  38.9 | 16.30
Output  | 0          | 0          | 0          |   0.0 |  0.00
Modify  | 1.4199e-05 | 0.0019476  | 0.0041027  |   2.1 |  0.14
Other   |            | 0.1817     |            |       | 12.93

Nlocal:        2776.45 ave        3956 max           0 min
Histogram: 8 4 4 0 4 12 8 0 30 34
Nghost:        3879.15 ave        5425 max         232 min
Histogram: 8 0 8 0 16 0 8 8 16 40
Neighs:        79213.5 ave      115317 max           0 min
Histogram: 8 4 4 0 10 6 8 8 24 32

Total # of neighbors = 8238206
Ave neighs/atom = 28.530485
Neighbor list builds = 0
Dangerous builds = 0
Setting atom values ...
  1 settings made for x
  1 settings made for y
  1 settings made for z
Setting up cg style minimization ...
  Unit style    : metal
  Current step  : 338
Per MPI rank memory allocation (min/avg/max) = 5.441 | 5.816 | 6.074 Mbytes
Step PotEng KinEng TotEng v_fx v_fy v_fz 
     338     -1152449            0     -1152449  0.021968429 0.0047355953  0.031789771 
     536     -1152449            0     -1152449 8.3258076e-06 4.688438e-05 8.450845e-05 
Loop time of 2.3286 on 104 procs for 198 steps with 288751 atoms

99.9% CPU use with 104 MPI tasks x 1 OpenMP threads

Minimization stats:
  Stopping criterion = energy tolerance
  Energy initial, next-to-last, final = 
      -1152448.9692161  -1152448.97082035  -1152448.97082035
  Force two-norm initial, final = 0.16497837 0.00025898486
  Force max component initial, final = 0.082349 8.4508450e-05
  Final line search alpha, max atom move = 1.0000000 8.4508450e-05
  Iterations, force evaluations = 198 396

MPI task timing breakdown:
Section |  min time  |  avg time  |  max time  |%varavg| %total
---------------------------------------------------------------
Pair    | 0.60511    | 1.6646     | 2.1751     |  34.8 | 71.48
Neigh   | 0          | 0          | 0          |   0.0 |  0.00
Comm    | 0.035317   | 0.37903    | 1.1265     |  50.9 | 16.28
Output  | 0          | 0          | 0          |   0.0 |  0.00
Modify  | 2.5149e-05 | 0.0032866  | 0.0069521  |   2.7 |  0.14
Other   |            | 0.2817     |            |       | 12.10

Nlocal:        2776.45 ave        3956 max           0 min
Histogram: 8 4 4 0 4 12 8 0 30 34
Nghost:        3879.15 ave        5425 max         232 min
Histogram: 8 0 8 0 16 0 8 8 16 40
Neighs:        79213.5 ave      115316 max           0 min
Histogram: 8 4 4 0 10 6 8 8 24 32

Total # of neighbors = 8238205
Ave neighs/atom = 28.530481
Neighbor list builds = 0
Dangerous builds = 0
The dot product: 1.10027834097371e-06
Setting atom values ...
  1 settings made for x
  1 settings made for y
  1 settings made for z
Setting up cg style minimization ...
  Unit style    : metal
  Current step  : 536
Per MPI rank memory allocation (min/avg/max) = 5.441 | 5.816 | 6.074 Mbytes
Step PotEng KinEng TotEng v_fx v_fy v_fz 
     536     -1152449            0     -1152449  0.031136509 -0.0011604777  0.013651537 
     729     -1152449            0     -1152449 -7.0212002e-06 -1.4852949e-05 -1.5104323e-05 
Loop time of 2.33554 on 104 procs for 193 steps with 288751 atoms

99.9% CPU use with 104 MPI tasks x 1 OpenMP threads

Minimization stats:
  Stopping criterion = energy tolerance
  Energy initial, next-to-last, final = 
     -1152448.96731035    -1152448.969027    -1152448.969027
  Force two-norm initial, final = 0.15537363 0.00015031003
  Force max component initial, final = 0.096315258 1.5104323e-05
  Final line search alpha, max atom move = 1.0000000 1.5104323e-05
  Iterations, force evaluations = 193 386

MPI task timing breakdown:
Section |  min time  |  avg time  |  max time  |%varavg| %total
---------------------------------------------------------------
Pair    | 0.5908     | 1.6366     | 2.1513     |  34.4 | 70.07
Neigh   | 0          | 0          | 0          |   0.0 |  0.00
Comm    | 0.039982   | 0.37945    | 1.1167     |  49.7 | 16.25
Output  | 0          | 0          | 0          |   0.0 |  0.00
Modify  | 2.2206e-05 | 0.0031995  | 0.0068071  |   2.7 |  0.14
Other   |            | 0.3163     |            |       | 13.54

Nlocal:        2776.45 ave        3956 max           0 min
Histogram: 8 4 4 0 4 12 8 0 30 34
Nghost:        3879.17 ave        5425 max         232 min
Histogram: 8 0 8 0 16 0 8 8 16 40
Neighs:        79213.4 ave      115307 max           0 min
Histogram: 8 4 4 0 10 6 8 8 24 32

Total # of neighbors = 8238198
Ave neighs/atom = 28.530457
Neighbor list builds = 0
Dangerous builds = 0
The dot product: -3.08334456167116e-07
Setting atom values ...
  1 settings made for x
  1 settings made for y
  1 settings made for z
Setting up cg style minimization ...
  Unit style    : metal
  Current step  : 729
Per MPI rank memory allocation (min/avg/max) = 5.441 | 5.816 | 6.074 Mbytes
Step PotEng KinEng TotEng v_fx v_fy v_fz 
     729     -1152449            0     -1152449  0.026688028 -0.019405765 -0.003514099 
     910     -1152449            0     -1152449 1.6042653e-05 3.8827991e-05 2.2717463e-05 
Loop time of 2.12281 on 104 procs for 181 steps with 288751 atoms

99.9% CPU use with 104 MPI tasks x 1 OpenMP threads

Minimization stats:
  Stopping criterion = energy tolerance
  Energy initial, next-to-last, final = 
      -1152448.9646936  -1152448.96688106  -1152448.96688106
  Force two-norm initial, final = 0.15932782 0.00013714021
  Force max component initial, final = 0.09926694 3.8827991e-05
  Final line search alpha, max atom move = 1.0000000 3.8827991e-05
  Iterations, force evaluations = 181 362

MPI task timing breakdown:
Section |  min time  |  avg time  |  max time  |%varavg| %total
---------------------------------------------------------------
Pair    | 0.55011    | 1.5193     | 1.9834     |  33.3 | 71.57
Neigh   | 0          | 0          | 0          |   0.0 |  0.00
Comm    | 0.034255   | 0.34462    | 1.0389     |  48.7 | 16.23
Output  | 0          | 0          | 0          |   0.0 |  0.00
Modify  | 2.2399e-05 | 0.0029938  | 0.0063568  |   2.6 |  0.14
Other   |            | 0.2559     |            |       | 12.05

Nlocal:        2776.45 ave        3956 max           0 min
Histogram: 8 4 4 0 4 12 8 0 30 34
Nghost:        3879.08 ave        5424 max         232 min
Histogram: 8 0 8 0 16 0 8 8 16 40
Neighs:        79213.5 ave      115307 max           0 min
Histogram: 8 4 4 0 10 6 8 8 24 32

Total # of neighbors = 8238202
Ave neighs/atom = 28.530471
Neighbor list builds = 0
Dangerous builds = 0
The dot product: 1.48821492184466e-06
Setting atom values ...
  1 settings made for x
  1 settings made for y
  1 settings made for z
Setting up cg style minimization ...
  Unit style    : metal
  Current step  : 910
Per MPI rank memory allocation (min/avg/max) = 5.441 | 5.816 | 6.074 Mbytes
Step PotEng KinEng TotEng v_fx v_fy v_fz 
     910     -1152449            0     -1152449  0.018047042 -0.032888818 -0.0035319605 
    1000     -1152449            0     -1152449 2.4537294e-05 3.3445309e-05 4.0734928e-06 
    1070     -1152449            0     -1152449 1.2758243e-05 2.6394593e-05 3.1405397e-06 
Loop time of 1.90999 on 104 procs for 160 steps with 288751 atoms

99.9% CPU use with 104 MPI tasks x 1 OpenMP threads

Minimization stats:
  Stopping criterion = energy tolerance
  Energy initial, next-to-last, final = 
     -1152448.96248455  -1152448.96530254  -1152448.96530254
  Force two-norm initial, final = 0.181902 0.00010390802
  Force max component initial, final = 0.087884501 2.6394593e-05
  Final line search alpha, max atom move = 1.0000000 2.6394593e-05
  Iterations, force evaluations = 160 320

MPI task timing breakdown:
Section |  min time  |  avg time  |  max time  |%varavg| %total
---------------------------------------------------------------
Pair    | 0.48913    | 1.3514     | 1.7778     |  31.3 | 70.75
Neigh   | 0          | 0          | 0          |   0.0 |  0.00
Comm    | 0.029731   | 0.30957    | 0.9182     |  45.3 | 16.21
Output  | 0.00054168 | 0.00055194 | 0.00068127 |   0.0 |  0.03
Modify  | 1.9106e-05 | 0.0026521  | 0.00561    |   2.4 |  0.14
Other   |            | 0.2458     |            |       | 12.87

Nlocal:        2776.45 ave        3956 max           0 min
Histogram: 8 4 4 0 4 12 8 0 30 34
Nghost:        3879.12 ave        5424 max         232 min
Histogram: 8 0 8 0 16 0 8 8 16 40
Neighs:        79213.6 ave      115325 max           0 min
Histogram: 8 4 4 0 10 6 8 8 24 32

Total # of neighbors = 8238211
Ave neighs/atom = 28.530502
Neighbor list builds = 0
Dangerous builds = 0
The dot product: 7.04629855075632e-07
Setting atom values ...
  1 settings made for x
  1 settings made for y
  1 settings made for z
Setting up cg style minimization ...
  Unit style    : metal
  Current step  : 1070
Per MPI rank memory allocation (min/avg/max) = 5.441 | 5.816 | 6.074 Mbytes
Step PotEng KinEng TotEng v_fx v_fy v_fz 
    1070     -1152449            0     -1152449 0.0063407382 -0.051728349 0.0040760691 
    1301     -1152449            0     -1152449 -6.3803362e-06 -1.317105e-05 1.799614e-06 
Loop time of 2.70765 on 104 procs for 231 steps with 288751 atoms

99.9% CPU use with 104 MPI tasks x 1 OpenMP threads

Minimization stats:
  Stopping criterion = energy tolerance
  Energy initial, next-to-last, final = 
     -1152448.96075626  -1152448.96402493  -1152448.96402493
  Force two-norm initial, final = 0.20213499 8.5509129e-05
  Force max component initial, final = 0.084691614 2.0809634e-05
  Final line search alpha, max atom move = 1.0000000 2.0809634e-05
  Iterations, force evaluations = 231 462

MPI task timing breakdown:
Section |  min time  |  avg time  |  max time  |%varavg| %total
---------------------------------------------------------------
Pair    | 0.70694    | 1.9394     | 2.5348     |  37.4 | 71.63
Neigh   | 0          | 0          | 0          |   0.0 |  0.00
Comm    | 0.044505   | 0.4388     | 1.3183     |  55.3 | 16.21
Output  | 0          | 0          | 0          |   0.0 |  0.00
Modify  | 3.1278e-05 | 0.0038272  | 0.0081085  |   2.9 |  0.14
Other   |            | 0.3256     |            |       | 12.03

Nlocal:        2776.45 ave        3955 max           0 min
Histogram: 8 4 4 0 4 12 8 0 30 34
Nghost:        3879.12 ave        5424 max         232 min
Histogram: 8 0 8 0 16 0 8 8 16 40
Neighs:        79213.6 ave      115295 max           0 min
Histogram: 8 4 4 0 10 6 8 8 24 32

Total # of neighbors = 8238212
Ave neighs/atom = 28.530506
Neighbor list builds = 0
Dangerous builds = 0
The dot product: -2.12496803929101e-07
Setting atom values ...
  1 settings made for x
  1 settings made for y
  1 settings made for z
Setting up cg style minimization ...
  Unit style    : metal
  Current step  : 1301
Per MPI rank memory allocation (min/avg/max) = 5.441 | 5.816 | 6.074 Mbytes
Step PotEng KinEng TotEng v_fx v_fy v_fz 
    1301     -1152449            0     -1152449 -7.9862548e-05 -0.061218566  0.012093911 
    1549     -1152449            0     -1152449 1.5303203e-06 2.9854359e-06 -8.1323734e-07 
Loop time of 2.93838 on 104 procs for 248 steps with 288751 atoms

99.9% CPU use with 104 MPI tasks x 1 OpenMP threads

Minimization stats:
  Stopping criterion = energy tolerance
  Energy initial, next-to-last, final = 
     -1152448.95984942  -1152448.96233185  -1152448.96233185
  Force two-norm initial, final = 0.21415695 1.6923762e-05
  Force max component initial, final = 0.095200372 4.3900730e-06
  Final line search alpha, max atom move = 1.0000000 4.3900730e-06
  Iterations, force evaluations = 248 496

MPI task timing breakdown:
Section |  min time  |  avg time  |  max time  |%varavg| %total
---------------------------------------------------------------
Pair    | 0.75543    | 2.0913     | 2.7484     |  39.0 | 71.17
Neigh   | 0          | 0          | 0          |   0.0 |  0.00
Comm    | 0.049085   | 0.47649    | 1.4216     |  56.9 | 16.22
Output  | 0          | 0          | 0          |   0.0 |  0.00
Modify  | 2.8699e-05 | 0.0040982  | 0.0086788  |   3.0 |  0.14
Other   |            | 0.3665     |            |       | 12.47

Nlocal:        2776.45 ave        3955 max           0 min
Histogram: 8 4 4 0 4 12 8 0 30 34
Nghost:        3879.12 ave        5424 max         232 min
Histogram: 8 0 8 0 16 0 8 8 16 40
Neighs:        79213.6 ave      115310 max           0 min
Histogram: 8 4 4 0 10 6 8 8 24 32

Total # of neighbors = 8238213
Ave neighs/atom = 28.530509
Neighbor list builds = 0
Dangerous builds = 0
The dot product: -4.93297208266835e-09
Setting atom values ...
  1 settings made for x
  1 settings made for y
  1 settings made for z
Setting up cg style minimization ...
  Unit style    : metal
  Current step  : 1549
Per MPI rank memory allocation (min/avg/max) = 5.441 | 5.816 | 6.074 Mbytes
Step PotEng KinEng TotEng v_fx v_fy v_fz 
    1549     -1152449            0     -1152449 -0.0031965783 -0.072128114   0.01376923 
    1718     -1152449            0     -1152449 -5.9820702e-06 -1.1814534e-05 3.0700352e-06 
Loop time of 1.98146 on 104 procs for 169 steps with 288751 atoms

99.9% CPU use with 104 MPI tasks x 1 OpenMP threads

Minimization stats:
  Stopping criterion = energy tolerance
  Energy initial, next-to-last, final = 
     -1152448.95750552  -1152448.95997977  -1152448.95997977
  Force two-norm initial, final = 0.21685095 0.00022514729
  Force max component initial, final = 0.095358562 2.7214693e-05
  Final line search alpha, max atom move = 1.0000000 2.7214693e-05
  Iterations, force evaluations = 169 338

MPI task timing breakdown:
Section |  min time  |  avg time  |  max time  |%varavg| %total
---------------------------------------------------------------
Pair    | 0.51387    | 1.4205     | 1.8523     |  32.2 | 71.69
Neigh   | 0          | 0          | 0          |   0.0 |  0.00
Comm    | 0.029954   | 0.32089    | 0.96164    |  47.3 | 16.19
Output  | 0          | 0          | 0          |   0.0 |  0.00
Modify  | 1.9502e-05 | 0.0028125  | 0.0059396  |   2.5 |  0.14
Other   |            | 0.2373     |            |       | 11.98

Nlocal:        2776.45 ave        3954 max           0 min
Histogram: 8 4 4 0 4 12 8 0 30 34
Nghost:        3879.10 ave        5424 max         232 min
Histogram: 8 0 8 0 16 0 8 8 16 40
Neighs:        79213.6 ave      115268 max           0 min
Histogram: 8 4 4 0 10 6 8 8 24 32

Total # of neighbors = 8238210
Ave neighs/atom = 28.530499
Neighbor list builds = 0
Dangerous builds = 0
The dot product: 6.32527462406006e-08
Setting atom values ...
  1 settings made for x
  1 settings made for y
  1 settings made for z
Setting up cg style minimization ...
  Unit style    : metal
  Current step  : 1718
Per MPI rank memory allocation (min/avg/max) = 5.441 | 5.816 | 6.074 Mbytes
Step PotEng KinEng TotEng v_fx v_fy v_fz 
    1718     -1152449            0     -1152449 -0.0043797851 -0.078693776  0.012699105 
    1909     -1152449            0     -1152449 9.6590781e-06 2.080655e-05 -4.5945054e-06 
Loop time of 2.2519 on 104 procs for 191 steps with 288751 atoms

99.9% CPU use with 104 MPI tasks x 1 OpenMP threads

Minimization stats:
  Stopping criterion = energy tolerance
  Energy initial, next-to-last, final = 
     -1152448.95466858  -1152448.95723103  -1152448.95723103
  Force two-norm initial, final = 0.21682325 0.00017103208
  Force max component initial, final = 0.093752058 4.7037800e-05
  Final line search alpha, max atom move = 1.0000000 4.7037800e-05
  Iterations, force evaluations = 191 382

MPI task timing breakdown:
Section |  min time  |  avg time  |  max time  |%varavg| %total
---------------------------------------------------------------
Pair    | 0.58207    | 1.6118     | 2.1203     |  34.2 | 71.58
Neigh   | 0          | 0          | 0          |   0.0 |  0.00
Comm    | 0.03469    | 0.36595    | 1.1034     |  50.6 | 16.25
Output  | 0          | 0          | 0          |   0.0 |  0.00
Modify  | 2.2406e-05 | 0.0031628  | 0.0067021  |   2.6 |  0.14
Other   |            | 0.271      |            |       | 12.03

Nlocal:        2776.45 ave        3955 max           0 min
Histogram: 8 4 4 0 4 12 8 0 30 34
Nghost:        3879.10 ave        5424 max         232 min
Histogram: 8 0 8 0 16 0 8 8 16 40
Neighs:        79213.5 ave      115298 max           0 min
Histogram: 8 4 4 0 10 6 8 8 24 32

Total # of neighbors = 8238208
Ave neighs/atom = 28.530492
Neighbor list builds = 0
Dangerous builds = 0
The dot product: -1.12298549609558e-07
Setting atom values ...
  1 settings made for x
  1 settings made for y
  1 settings made for z
Setting up cg style minimization ...
  Unit style    : metal
  Current step  : 1909
Per MPI rank memory allocation (min/avg/max) = 5.441 | 5.816 | 6.074 Mbytes
Step PotEng KinEng TotEng v_fx v_fy v_fz 
    1909     -1152449            0     -1152449 -0.0044852351 -0.082638216  0.010936901 
    2000     -1152449            0     -1152449 2.0688429e-05 4.7748653e-05 -8.9234918e-06 
    2128     -1152449            0     -1152449 -3.7338894e-06 -8.1292923e-06 1.5496961e-06 
Loop time of 2.57255 on 104 procs for 219 steps with 288751 atoms

99.9% CPU use with 104 MPI tasks x 1 OpenMP threads

Minimization stats:
  Stopping criterion = energy tolerance
  Energy initial, next-to-last, final = 
     -1152448.95150354  -1152448.95377877  -1152448.95377877
  Force two-norm initial, final = 0.21595395 6.3709444e-05
  Force max component initial, final = 0.092040509 1.5339816e-05
  Final line search alpha, max atom move = 1.0000000 1.5339816e-05
  Iterations, force evaluations = 219 438

MPI task timing breakdown:
Section |  min time  |  avg time  |  max time  |%varavg| %total
---------------------------------------------------------------
Pair    | 0.66594    | 1.844      | 2.4097     |  36.7 | 71.68
Neigh   | 0          | 0          | 0          |   0.0 |  0.00
Comm    | 0.045621   | 0.41905    | 1.2596     |  53.9 | 16.29
Output  | 0.00026314 | 0.00027153 | 0.00041195 |   0.0 |  0.01
Modify  | 2.9192e-05 | 0.0036255  | 0.007664   |   2.8 |  0.14
Other   |            | 0.3056     |            |       | 11.88

Nlocal:        2776.45 ave        3956 max           0 min
Histogram: 8 4 4 0 4 12 8 0 30 34
Nghost:        3879.10 ave        5424 max         232 min
Histogram: 8 0 8 0 16 0 8 8 16 40
Neighs:        79213.5 ave      115317 max           0 min
Histogram: 8 4 4 0 10 6 8 8 24 32

Total # of neighbors = 8238202
Ave neighs/atom = 28.530471
Neighbor list builds = 0
Dangerous builds = 0
The dot product: 6.20337745777774e-08
Setting atom values ...
  1 settings made for x
  1 settings made for y
  1 settings made for z
Setting up cg style minimization ...
  Unit style    : metal
  Current step  : 2128
Per MPI rank memory allocation (min/avg/max) = 5.441 | 5.816 | 6.074 Mbytes
Step PotEng KinEng TotEng v_fx v_fy v_fz 
    2128   -1152448.9            0   -1152448.9 -0.0053889833 -0.087884794  0.008589118 
    2315   -1152448.9            0   -1152448.9 -9.753494e-06 -2.1056381e-05 3.2366964e-06 
Loop time of 2.22329 on 104 procs for 187 steps with 288751 atoms

99.9% CPU use with 104 MPI tasks x 1 OpenMP threads

Minimization stats:
  Stopping criterion = energy tolerance
  Energy initial, next-to-last, final = 
     -1152448.94731274  -1152448.94954126  -1152448.94954126
  Force two-norm initial, final = 0.21494173 0.0001133485
  Force max component initial, final = 0.089450416 3.2141024e-05
  Final line search alpha, max atom move = 1.0000000 3.2141024e-05
  Iterations, force evaluations = 187 374

MPI task timing breakdown:
Section |  min time  |  avg time  |  max time  |%varavg| %total
---------------------------------------------------------------
Pair    | 0.56762    | 1.5777     | 2.0625     |  33.9 | 70.96
Neigh   | 0          | 0          | 0          |   0.0 |  0.00
Comm    | 0.039859   | 0.36197    | 1.0714     |  49.7 | 16.28
Output  | 0          | 0          | 0          |   0.0 |  0.00
Modify  | 2.2253e-05 | 0.0030967  | 0.0065832  |   2.6 |  0.14
Other   |            | 0.2806     |            |       | 12.62

Nlocal:        2776.45 ave        3956 max           0 min
Histogram: 8 4 4 0 4 12 8 0 30 34
Nghost:        3879.10 ave        5424 max         232 min
Histogram: 8 0 8 0 16 0 8 8 16 40
Neighs:        79213.5 ave      115314 max           0 min
Histogram: 8 4 4 0 10 6 8 8 24 32

Total # of neighbors = 8238201
Ave neighs/atom = 28.530467
Neighbor list builds = 0
Dangerous builds = 0
The dot product: 1.91093217721461e-07
Setting atom values ...
  1 settings made for x
  1 settings made for y
  1 settings made for z
Setting up cg style minimization ...
  Unit style    : metal
  Current step  : 2315
Per MPI rank memory allocation (min/avg/max) = 5.441 | 5.816 | 6.074 Mbytes
Step PotEng KinEng TotEng v_fx v_fy v_fz 
    2315   -1152448.9            0   -1152448.9 -0.006511394 -0.091803332 0.0056322129 
    2468   -1152448.9            0   -1152448.9 2.6081493e-05 6.5352091e-05 -6.8478984e-06 
Loop time of 1.78324 on 104 procs for 153 steps with 288751 atoms

99.9% CPU use with 104 MPI tasks x 1 OpenMP threads

Minimization stats:
  Stopping criterion = energy tolerance
  Energy initial, next-to-last, final = 
     -1152448.94238986   -1152448.9445673   -1152448.9445673
  Force two-norm initial, final = 0.21317037 0.00025442992
  Force max component initial, final = 0.091803332 7.3532847e-05
  Final line search alpha, max atom move = 1.0000000 7.3532847e-05
  Iterations, force evaluations = 153 306

MPI task timing breakdown:
Section |  min time  |  avg time  |  max time  |%varavg| %total
---------------------------------------------------------------
Pair    | 0.4645     | 1.2841     | 1.6762     |  30.6 | 72.01
Neigh   | 0          | 0          | 0          |   0.0 |  0.00
Comm    | 0.026991   | 0.28972    | 0.87278    |  45.0 | 16.25
Output  | 0          | 0          | 0          |   0.0 |  0.00
Modify  | 1.759e-05  | 0.002533   | 0.005352   |   2.4 |  0.14
Other   |            | 0.2069     |            |       | 11.60

Nlocal:        2776.45 ave        3956 max           0 min
Histogram: 8 4 4 0 4 12 8 0 30 34
Nghost:        3879.10 ave        5427 max         232 min
Histogram: 8 0 8 0 16 0 8 8 16 40
Neighs:        79213.5 ave      115315 max           0 min
Histogram: 8 4 4 0 10 6 8 8 24 32

Total # of neighbors = 8238208
Ave neighs/atom = 28.530492
Neighbor list builds = 0
Dangerous builds = 0
The dot product: -5.91814335596271e-07
Setting atom values ...
  1 settings made for x
  1 settings made for y
  1 settings made for z
Setting up cg style minimization ...
  Unit style    : metal
  Current step  : 2468
Per MPI rank memory allocation (min/avg/max) = 5.441 | 5.816 | 6.074 Mbytes
Step PotEng KinEng TotEng v_fx v_fy v_fz 
    2468   -1152448.9            0   -1152448.9 -0.0066401465 -0.093716276 0.0024496211 
    2614   -1152448.9            0   -1152448.9 5.6410826e-06 1.5531904e-05 -9.8217391e-07 
Loop time of 1.72063 on 104 procs for 146 steps with 288751 atoms

99.9% CPU use with 104 MPI tasks x 1 OpenMP threads

Minimization stats:
  Stopping criterion = energy tolerance
  Energy initial, next-to-last, final = 
     -1152448.93672822  -1152448.93879059  -1152448.93879059
  Force two-norm initial, final = 0.21077446 0.00027288379
  Force max component initial, final = 0.093716276 2.6062769e-05
  Final line search alpha, max atom move = 1.0000000 2.6062769e-05
  Iterations, force evaluations = 146 292

MPI task timing breakdown:
Section |  min time  |  avg time  |  max time  |%varavg| %total
---------------------------------------------------------------
Pair    | 0.44535    | 1.2304     | 1.6173     |  29.9 | 71.51
Neigh   | 0          | 0          | 0          |   0.0 |  0.00
Comm    | 0.025895   | 0.27859    | 0.83424    |  43.9 | 16.19
Output  | 0          | 0          | 0          |   0.0 |  0.00
Modify  | 1.7779e-05 | 0.0024174  | 0.005128   |   2.3 |  0.14
Other   |            | 0.2092     |            |       | 12.16

Nlocal:        2776.45 ave        3956 max           0 min
Histogram: 8 4 4 0 4 12 8 0 30 34
Nghost:        3879.10 ave        5425 max         232 min
Histogram: 8 0 8 0 16 0 8 8 16 40
Neighs:        79213.5 ave      115311 max           0 min
Histogram: 8 4 4 0 10 6 8 8 24 32

Total # of neighbors = 8238203
Ave neighs/atom = 28.530474
Neighbor list builds = 0
Dangerous builds = 0
The dot product: -1.22049346683521e-07
Setting atom values ...
  1 settings made for x
  1 settings made for y
  1 settings made for z
Setting up cg style minimization ...
  Unit style    : metal
  Current step  : 2614
Per MPI rank memory allocation (min/avg/max) = 5.441 | 5.816 | 6.074 Mbytes
Step PotEng KinEng TotEng v_fx v_fy v_fz 
    2614   -1152448.9            0   -1152448.9 -0.0057547503 -0.093832286 -0.00042661751 
    2773   -1152448.9            0   -1152448.9 1.1410904e-06 6.1863293e-06 -6.8024527e-08 
Loop time of 1.85624 on 104 procs for 159 steps with 288751 atoms

99.9% CPU use with 104 MPI tasks x 1 OpenMP threads

Minimization stats:
  Stopping criterion = energy tolerance
  Energy initial, next-to-last, final = 
     -1152448.93019246  -1152448.93216307  -1152448.93216307
  Force two-norm initial, final = 0.20849681 0.00016373915
  Force max component initial, final = 0.093832286 6.8648042e-06
  Final line search alpha, max atom move = 1.0000000 6.8648042e-06
  Iterations, force evaluations = 159 318

MPI task timing breakdown:
Section |  min time  |  avg time  |  max time  |%varavg| %total
---------------------------------------------------------------
Pair    | 0.48415    | 1.3363     | 1.7389     |  31.1 | 71.99
Neigh   | 0          | 0          | 0          |   0.0 |  0.00
Comm    | 0.028799   | 0.30141    | 0.9063     |  46.2 | 16.24
Output  | 0          | 0          | 0          |   0.0 |  0.00
Modify  | 1.8565e-05 | 0.0026381  | 0.0055922  |   2.4 |  0.14
Other   |            | 0.2159     |            |       | 11.63

Nlocal:        2776.45 ave        3956 max           0 min
Histogram: 8 4 4 0 4 12 8 0 30 34
Nghost:        3879.09 ave        5424 max         232 min
Histogram: 8 0 8 0 16 0 8 8 16 40
Neighs:        79213.5 ave      115308 max           0 min
Histogram: 8 4 4 0 10 6 8 8 24 32

Total # of neighbors = 8238199
Ave neighs/atom = 28.530461
Neighbor list builds = 0
Dangerous builds = 0
The dot product: -4.48445956202312e-08
Setting atom values ...
  1 settings made for x
  1 settings made for y
  1 settings made for z
Setting up cg style minimization ...
  Unit style    : metal
  Current step  : 2773
Per MPI rank memory allocation (min/avg/max) = 5.441 | 5.816 | 6.074 Mbytes
Step PotEng KinEng TotEng v_fx v_fy v_fz 
    2773   -1152448.9            0   -1152448.9 -0.011133426 -0.089822855 -0.0019984936 
    2950   -1152448.9            0   -1152448.9 1.1021718e-05 3.2549725e-05 -1.7221245e-07 
Loop time of 2.08234 on 104 procs for 177 steps with 288751 atoms

99.9% CPU use with 104 MPI tasks x 1 OpenMP threads

Minimization stats:
  Stopping criterion = energy tolerance
  Energy initial, next-to-last, final = 
     -1152448.92262602  -1152448.92451355  -1152448.92451355
  Force two-norm initial, final = 0.20469629 0.00010923323
  Force max component initial, final = 0.089822855 3.2549725e-05
  Final line search alpha, max atom move = 1.0000000 3.2549725e-05
  Iterations, force evaluations = 177 354

MPI task timing breakdown:
Section |  min time  |  avg time  |  max time  |%varavg| %total
---------------------------------------------------------------
Pair    | 0.53963    | 1.4919     | 1.9557     |  32.9 | 71.64
Neigh   | 0          | 0          | 0          |   0.0 |  0.00
Comm    | 0.034178   | 0.33744    | 1.0168     |  48.5 | 16.20
Output  | 0          | 0          | 0          |   0.0 |  0.00
Modify  | 2.1367e-05 | 0.0029318  | 0.0062237  |   2.5 |  0.14
Other   |            | 0.2501     |            |       | 12.01

Nlocal:        2776.45 ave        3956 max           0 min
Histogram: 8 4 4 0 4 12 8 0 30 34
Nghost:        3879.08 ave        5424 max         232 min
Histogram: 8 0 8 0 16 0 8 8 16 40
Neighs:        79213.5 ave      115308 max           0 min
Histogram: 8 4 4 0 10 6 8 8 24 32

Total # of neighbors = 8238199
Ave neighs/atom = 28.530461
Neighbor list builds = 0
Dangerous builds = 0
The dot product: -1.98091719457398e-07
Setting atom values ...
  1 settings made for x
  1 settings made for y
  1 settings made for z
Setting up cg style minimization ...
  Unit style    : metal
  Current step  : 2950
Per MPI rank memory allocation (min/avg/max) = 5.441 | 5.816 | 6.074 Mbytes
Step PotEng KinEng TotEng v_fx v_fy v_fz 
    2950   -1152448.9            0   -1152448.9 -0.019266567 -0.084346601 -0.0024212489 
    3000   -1152448.9            0   -1152448.9 -3.9326822e-05 -0.00014390837 -3.3117468e-06 
    3111   -1152448.9            0   -1152448.9 -4.5494903e-06 -6.9533538e-06 1.7623297e-07 
Loop time of 1.88048 on 104 procs for 161 steps with 288751 atoms

99.9% CPU use with 104 MPI tasks x 1 OpenMP threads

Minimization stats:
  Stopping criterion = energy tolerance
  Energy initial, next-to-last, final = 
     -1152448.91373276  -1152448.91560262  -1152448.91560262
  Force two-norm initial, final = 0.20182301 0.00017198696
  Force max component initial, final = 0.084346601 4.5329000e-05
  Final line search alpha, max atom move = 1.0000000 4.5329000e-05
  Iterations, force evaluations = 161 322

MPI task timing breakdown:
Section |  min time  |  avg time  |  max time  |%varavg| %total
---------------------------------------------------------------
Pair    | 0.49546    | 1.3529     | 1.765      |  31.1 | 71.95
Neigh   | 0          | 0          | 0          |   0.0 |  0.00
Comm    | 0.029256   | 0.30476    | 0.91193    |  46.2 | 16.21
Output  | 0.00015869 | 0.00016145 | 0.00026482 |   0.0 |  0.01
Modify  | 2.0262e-05 | 0.002666   | 0.0056293  |   2.4 |  0.14
Other   |            | 0.2199     |            |       | 11.70

Nlocal:        2776.45 ave        3956 max           0 min
Histogram: 8 4 4 0 4 12 8 0 30 34
Nghost:        3879.05 ave        5424 max         232 min
Histogram: 8 0 8 0 16 0 8 8 16 40
Neighs:        79213.4 ave      115309 max           0 min
Histogram: 8 4 4 0 10 6 8 8 24 32

Total # of neighbors = 8238198
Ave neighs/atom = 28.530457
Neighbor list builds = 0
Dangerous builds = 0
The dot product: 3.87722171377181e-08
Setting atom values ...
  1 settings made for x
  1 settings made for y
  1 settings made for z
Setting up cg style minimization ...
  Unit style    : metal
  Current step  : 3111
Per MPI rank memory allocation (min/avg/max) = 5.441 | 5.816 | 6.074 Mbytes
Step PotEng KinEng TotEng v_fx v_fy v_fz 
    3111   -1152448.9            0   -1152448.9 -0.023745117 -0.081411892 -0.0029356301 
    3338   -1152448.9            0   -1152448.9 4.7020241e-07 1.4488419e-06 4.6440526e-08 
Loop time of 2.68268 on 104 procs for 227 steps with 288751 atoms

99.9% CPU use with 104 MPI tasks x 1 OpenMP threads

Minimization stats:
  Stopping criterion = energy tolerance
  Energy initial, next-to-last, final = 
     -1152448.90347184  -1152448.90533513  -1152448.90533513
  Force two-norm initial, final = 0.20037744 2.6433564e-05
  Force max component initial, final = 0.082638571 5.8409889e-06
  Final line search alpha, max atom move = 1.0000000 5.8409889e-06
  Iterations, force evaluations = 227 454

MPI task timing breakdown:
Section |  min time  |  avg time  |  max time  |%varavg| %total
---------------------------------------------------------------
Pair    | 0.68775    | 1.9164     | 2.5184     |  37.4 | 71.44
Neigh   | 0          | 0          | 0          |   0.0 |  0.00
Comm    | 0.045292   | 0.43613    | 1.3115     |  55.0 | 16.26
Output  | 0          | 0          | 0          |   0.0 |  0.00
Modify  | 2.6476e-05 | 0.003757   | 0.0080257  |   2.9 |  0.14
Other   |            | 0.3263     |            |       | 12.16

Nlocal:        2776.45 ave        3956 max           0 min
Histogram: 8 4 4 0 4 12 8 0 30 34
Nghost:        3879.09 ave        5424 max         232 min
Histogram: 8 0 8 0 16 0 8 8 16 40
Neighs:        79213.4 ave      115305 max           0 min
Histogram: 8 4 4 0 10 6 8 8 24 32

Total # of neighbors = 8238198
Ave neighs/atom = 28.530457
Neighbor list builds = 0
Dangerous builds = 0
The dot product: -6.10248580760329e-09
Setting atom values ...
  1 settings made for x
  1 settings made for y
  1 settings made for z
Setting up cg style minimization ...
  Unit style    : metal
  Current step  : 3338
Per MPI rank memory allocation (min/avg/max) = 5.441 | 5.816 | 6.074 Mbytes
Step PotEng KinEng TotEng v_fx v_fy v_fz 
    3338   -1152448.9            0   -1152448.9 -0.026388948 -0.079289061 -0.0034371616 
    3497   -1152448.9            0   -1152448.9 -2.4754672e-06 -7.9140448e-06 -3.6142771e-07 
Loop time of 1.8725 on 104 procs for 159 steps with 288751 atoms

99.9% CPU use with 104 MPI tasks x 1 OpenMP threads

Minimization stats:
  Stopping criterion = energy tolerance
  Energy initial, next-to-last, final = 
     -1152448.89185001  -1152448.89372336  -1152448.89372336
  Force two-norm initial, final = 0.19941399 0.0002108052
  Force max component initial, final = 0.084297041 2.9554947e-05
  Final line search alpha, max atom move = 1.0000000 2.9554947e-05
  Iterations, force evaluations = 159 318

MPI task timing breakdown:
Section |  min time  |  avg time  |  max time  |%varavg| %total
---------------------------------------------------------------
Pair    | 0.48169    | 1.3374     | 1.7515     |  31.3 | 71.42
Neigh   | 0          | 0          | 0          |   0.0 |  0.00
Comm    | 0.034594   | 0.3051     | 0.91154    |  45.9 | 16.29
Output  | 0          | 0          | 0          |   0.0 |  0.00
Modify  | 1.8975e-05 | 0.0026372  | 0.0056192  |   2.4 |  0.14
Other   |            | 0.2274     |            |       | 12.14

Nlocal:        2776.45 ave        3956 max           0 min
Histogram: 8 4 4 0 4 12 8 0 30 34
Nghost:        3879.09 ave        5424 max         232 min
Histogram: 8 0 8 0 16 0 8 8 16 40
Neighs:        79213.5 ave      115312 max           0 min
Histogram: 8 4 4 0 10 6 8 8 24 32

Total # of neighbors = 8238200
Ave neighs/atom = 28.530464
Neighbor list builds = 0
Dangerous builds = 0
The dot product: 2.2856026004839e-08
Setting atom values ...
  1 settings made for x
  1 settings made for y
  1 settings made for z
Setting up cg style minimization ...
  Unit style    : metal
  Current step  : 3497
Per MPI rank memory allocation (min/avg/max) = 5.441 | 5.816 | 6.074 Mbytes
Step PotEng KinEng TotEng v_fx v_fy v_fz 
    3497   -1152448.9            0   -1152448.9 -0.027703497 -0.076692151 -0.0036997846 
    3655   -1152448.9            0   -1152448.9 2.7627591e-05 7.9161535e-05 3.9262703e-06 
Loop time of 1.86224 on 104 procs for 158 steps with 288751 atoms

99.9% CPU use with 104 MPI tasks x 1 OpenMP threads

Minimization stats:
  Stopping criterion = energy tolerance
  Energy initial, next-to-last, final = 
     -1152448.87892617  -1152448.88093661  -1152448.88093661
  Force two-norm initial, final = 0.1985331 0.00023506297
  Force max component initial, final = 0.085676905 7.9161535e-05
  Final line search alpha, max atom move = 1.0000000 7.9161535e-05
  Iterations, force evaluations = 158 316

MPI task timing breakdown:
Section |  min time  |  avg time  |  max time  |%varavg| %total
---------------------------------------------------------------
Pair    | 0.48323    | 1.3346     | 1.7483     |  31.1 | 71.67
Neigh   | 0          | 0          | 0          |   0.0 |  0.00
Comm    | 0.028979   | 0.30255    | 0.9152     |  46.1 | 16.25
Output  | 0          | 0          | 0          |   0.0 |  0.00
Modify  | 1.8429e-05 | 0.0026152  | 0.0055527  |   2.4 |  0.14
Other   |            | 0.2225     |            |       | 11.95

Nlocal:        2776.45 ave        3956 max           0 min
Histogram: 8 4 4 0 4 12 8 0 30 34
Nghost:        3879.09 ave        5424 max         232 min
Histogram: 8 0 8 0 16 0 8 8 16 40
Neighs:        79213.4 ave      115310 max           0 min
Histogram: 8 4 4 0 10 6 8 8 24 32

Total # of neighbors = 8238198
Ave neighs/atom = 28.530457
Neighbor list builds = 0
Dangerous builds = 0
The dot product: 6.30293040785881e-07
Setting atom values ...
  1 settings made for x
  1 settings made for y
  1 settings made for z
Setting up cg style minimization ...
  Unit style    : metal
  Current step  : 3655
Per MPI rank memory allocation (min/avg/max) = 5.441 | 5.816 | 6.074 Mbytes
Step PotEng KinEng TotEng v_fx v_fy v_fz 
    3655   -1152448.9            0   -1152448.9 -0.020207167 -0.062703019 -0.002008548 
    3855   -1152448.9            0   -1152448.9 1.2864583e-05 3.2791241e-05 7.7592139e-07 
Loop time of 2.34026 on 104 procs for 200 steps with 288751 atoms

99.9% CPU use with 104 MPI tasks x 1 OpenMP threads

Minimization stats:
  Stopping criterion = energy tolerance
  Energy initial, next-to-last, final = 
     -1152448.86549549  -1152448.86805555  -1152448.86805555
  Force two-norm initial, final = 0.19467761 0.00011503259
  Force max component initial, final = 0.084270704 4.1092893e-05
  Final line search alpha, max atom move = 1.0000000 4.1092893e-05
  Iterations, force evaluations = 200 400

MPI task timing breakdown:
Section |  min time  |  avg time  |  max time  |%varavg| %total
---------------------------------------------------------------
Pair    | 0.60822    | 1.685      | 2.1926     |  35.1 | 72.00
Neigh   | 0          | 0          | 0          |   0.0 |  0.00
Comm    | 0.036252   | 0.38169    | 1.1523     |  51.7 | 16.31
Output  | 0          | 0          | 0          |   0.0 |  0.00
Modify  | 2.5e-05    | 0.0033108  | 0.0070239  |   2.7 |  0.14
Other   |            | 0.2703     |            |       | 11.55

Nlocal:        2776.45 ave        3957 max           0 min
Histogram: 8 4 4 0 4 12 8 2 28 34
Nghost:        3879.09 ave        5424 max         232 min
Histogram: 8 0 8 0 16 0 8 8 16 40
Neighs:        79213.4 ave      115348 max           0 min
Histogram: 8 4 4 0 10 6 8 8 24 32

Total # of neighbors = 8238191
Ave neighs/atom = 28.530433
Neighbor list builds = 0
Dangerous builds = 0
The dot product: 6.05126202413606e-07
Setting atom values ...
  1 settings made for x
  1 settings made for y
  1 settings made for z
Setting up cg style minimization ...
  Unit style    : metal
  Current step  : 3855
Per MPI rank memory allocation (min/avg/max) = 5.441 | 5.816 | 6.074 Mbytes
Step PotEng KinEng TotEng v_fx v_fy v_fz 
    3855   -1152448.9            0   -1152448.9 -0.014015734 -0.050536507 0.00031231375 
    4000   -1152448.9            0   -1152448.9 3.3318332e-05 8.8693958e-05 -1.753149e-06 
    4086   -1152448.9            0   -1152448.9 3.8539191e-06 1.0980737e-05 -1.7959186e-07 
Loop time of 2.71191 on 104 procs for 231 steps with 288751 atoms

99.9% CPU use with 104 MPI tasks x 1 OpenMP threads

Minimization stats:
  Stopping criterion = energy tolerance
  Energy initial, next-to-last, final = 
     -1152448.85205664  -1152448.85418382  -1152448.85418382
  Force two-norm initial, final = 0.19440144 3.4554078e-05
  Force max component initial, final = 0.080440706 1.0980737e-05
  Final line search alpha, max atom move = 1.0000000 1.0980737e-05
  Iterations, force evaluations = 231 462

MPI task timing breakdown:
Section |  min time  |  avg time  |  max time  |%varavg| %total
---------------------------------------------------------------
Pair    | 0.70172    | 1.9407     | 2.553      |  37.5 | 71.56
Neigh   | 0          | 0          | 0          |   0.0 |  0.00
Comm    | 0.042173   | 0.43762    | 1.3188     |  55.3 | 16.14
Output  | 0.0002531  | 0.0002619  | 0.00040032 |   0.0 |  0.01
Modify  | 2.7788e-05 | 0.0038269  | 0.0080864  |   2.9 |  0.14
Other   |            | 0.3295     |            |       | 12.15

Nlocal:        2776.45 ave        3957 max           0 min
Histogram: 8 4 4 0 4 12 8 2 28 34
Nghost:        3879.16 ave        5425 max         232 min
Histogram: 8 0 8 0 16 0 8 8 16 40
Neighs:        79213.4 ave      115346 max           0 min
Histogram: 8 4 4 0 10 6 8 8 24 32

Total # of neighbors = 8238193
Ave neighs/atom = 28.530440
Neighbor list builds = 0
Dangerous builds = 0
The dot product: 1.35893849691153e-07
Setting atom values ...
  1 settings made for x
  1 settings made for y
  1 settings made for z
Setting up cg style minimization ...
  Unit style    : metal
  Current step  : 4086
Per MPI rank memory allocation (min/avg/max) = 5.441 | 5.816 | 6.074 Mbytes
Step PotEng KinEng TotEng v_fx v_fy v_fz 
    4086   -1152448.8            0   -1152448.8 -0.020042495 -0.057238791 0.0026034727 
    4289   -1152448.8            0   -1152448.8 4.5843472e-06 1.3573989e-05 -5.9240677e-07 
Loop time of 2.36397 on 104 procs for 203 steps with 288751 atoms

99.9% CPU use with 104 MPI tasks x 1 OpenMP threads

Minimization stats:
  Stopping criterion = energy tolerance
  Energy initial, next-to-last, final = 
     -1152448.83683288  -1152448.83892371  -1152448.83892371
  Force two-norm initial, final = 0.19911473 0.00010188223
  Force max component initial, final = 0.082978517 1.3573989e-05
  Final line search alpha, max atom move = 1.0000000 1.3573989e-05
  Iterations, force evaluations = 203 406

MPI task timing breakdown:
Section |  min time  |  avg time  |  max time  |%varavg| %total
---------------------------------------------------------------
Pair    | 0.61607    | 1.7038     | 2.2207     |  35.2 | 72.07
Neigh   | 0          | 0          | 0          |   0.0 |  0.00
Comm    | 0.035022   | 0.38413    | 1.166      |  52.0 | 16.25
Output  | 0          | 0          | 0          |   0.0 |  0.00
Modify  | 2.355e-05  | 0.0033627  | 0.0071451  |   2.7 |  0.14
Other   |            | 0.2726     |            |       | 11.53

Nlocal:        2776.45 ave        3957 max           0 min
Histogram: 8 4 4 0 4 12 8 2 28 34
Nghost:        3879.16 ave        5425 max         232 min
Histogram: 8 0 8 0 16 0 8 8 16 40
Neighs:        79213.4 ave      115345 max           0 min
Histogram: 8 4 4 0 10 6 8 8 24 32

Total # of neighbors = 8238190
Ave neighs/atom = 28.530429
Neighbor list builds = 0
Dangerous builds = 0
The dot product: 1.61929966287355e-07
Setting atom values ...
  1 settings made for x
  1 settings made for y
  1 settings made for z
Setting up cg style minimization ...
  Unit style    : metal
  Current step  : 4289
Per MPI rank memory allocation (min/avg/max) = 5.441 | 5.816 | 6.074 Mbytes
Step PotEng KinEng TotEng v_fx v_fy v_fz 
    4289   -1152448.8            0   -1152448.8 -0.023033937 -0.056536766 0.0046024325 
    4465   -1152448.8            0   -1152448.8 -5.9997497e-06 -2.8143475e-05 1.4434836e-06 
Loop time of 2.09519 on 104 procs for 176 steps with 288751 atoms

99.9% CPU use with 104 MPI tasks x 1 OpenMP threads

Minimization stats:
  Stopping criterion = energy tolerance
  Energy initial, next-to-last, final = 
     -1152448.82030763  -1152448.82237854  -1152448.82237854
  Force two-norm initial, final = 0.2013399 0.00017257299
  Force max component initial, final = 0.087042319 2.8143475e-05
  Final line search alpha, max atom move = 1.0000000 2.8143475e-05
  Iterations, force evaluations = 176 352

MPI task timing breakdown:
Section |  min time  |  avg time  |  max time  |%varavg| %total
---------------------------------------------------------------
Pair    | 0.53645    | 1.4843     | 1.9469     |  32.9 | 70.84
Neigh   | 0          | 0          | 0          |   0.0 |  0.00
Comm    | 0.032727   | 0.34004    | 1.0116     |  48.0 | 16.23
Output  | 0          | 0          | 0          |   0.0 |  0.00
Modify  | 2.0273e-05 | 0.0029132  | 0.0061524  |   2.5 |  0.14
Other   |            | 0.268      |            |       | 12.79

Nlocal:        2776.45 ave        3957 max           0 min
Histogram: 8 4 4 0 4 12 8 2 28 34
Nghost:        3879.12 ave        5425 max         232 min
Histogram: 8 0 8 0 16 0 8 8 16 40
Neighs:        79213.4 ave      115337 max           0 min
Histogram: 8 4 4 0 10 6 8 8 24 32

Total # of neighbors = 8238192
Ave neighs/atom = 28.530436
Neighbor list builds = 0
Dangerous builds = 0
The dot product: -2.08508079311287e-07
Setting atom values ...
  1 settings made for x
  1 settings made for y
  1 settings made for z
Setting up cg style minimization ...
  Unit style    : metal
  Current step  : 4465
Per MPI rank memory allocation (min/avg/max) = 5.441 | 5.816 | 6.074 Mbytes
Step PotEng KinEng TotEng v_fx v_fy v_fz 
    4465   -1152448.8            0   -1152448.8 -0.026761553 -0.063274861  0.006359002 
    4640   -1152448.8            0   -1152448.8 3.4347297e-06 5.183679e-06 -7.1740287e-07 
Loop time of 2.0629 on 104 procs for 175 steps with 288751 atoms

99.9% CPU use with 104 MPI tasks x 1 OpenMP threads

Minimization stats:
  Stopping criterion = energy tolerance
  Energy initial, next-to-last, final = 
     -1152448.80239395  -1152448.80439617  -1152448.80439617
  Force two-norm initial, final = 0.20504625 0.00013656318
  Force max component initial, final = 0.089562279 2.8102209e-05
  Final line search alpha, max atom move = 1.0000000 2.8102209e-05
  Iterations, force evaluations = 175 350

MPI task timing breakdown:
Section |  min time  |  avg time  |  max time  |%varavg| %total
---------------------------------------------------------------
Pair    | 0.53336    | 1.4688     | 1.9123     |  32.6 | 71.20
Neigh   | 0          | 0          | 0          |   0.0 |  0.00
Comm    | 0.033627   | 0.33308    | 1.0056     |  48.0 | 16.15
Output  | 0          | 0          | 0          |   0.0 |  0.00
Modify  | 2.0564e-05 | 0.0029003  | 0.0061366  |   2.5 |  0.14
Other   |            | 0.2581     |            |       | 12.51

Nlocal:        2776.45 ave        3958 max           0 min
Histogram: 8 4 4 0 4 12 8 2 28 34
Nghost:        3879.12 ave        5425 max         232 min
Histogram: 8 0 8 0 16 0 8 8 16 40
Neighs:        79213.4 ave      115368 max           0 min
Histogram: 8 4 4 0 10 6 8 8 24 32

Total # of neighbors = 8238191
Ave neighs/atom = 28.530433
Neighbor list builds = 0
Dangerous builds = 0
The dot product: 2.0774279813228e-08
Setting atom values ...
  1 settings made for x
  1 settings made for y
  1 settings made for z
Setting up cg style minimization ...
  Unit style    : metal
  Current step  : 4640
Per MPI rank memory allocation (min/avg/max) = 5.441 | 5.816 | 6.074 Mbytes
Step PotEng KinEng TotEng v_fx v_fy v_fz 
    4640   -1152448.8            0   -1152448.8 -0.029866825 -0.069227377 0.0076216237 
    4801   -1152448.8            0   -1152448.8 1.8779334e-05 5.526313e-05 -5.2821341e-06 
Loop time of 1.90582 on 104 procs for 161 steps with 288751 atoms

99.9% CPU use with 104 MPI tasks x 1 OpenMP threads

Minimization stats:
  Stopping criterion = energy tolerance
  Energy initial, next-to-last, final = 
     -1152448.78303285  -1152448.78496642  -1152448.78496642
  Force two-norm initial, final = 0.20783273 0.00016337407
  Force max component initial, final = 0.090768214 6.1150644e-05
  Final line search alpha, max atom move = 1.0000000 6.1150644e-05
  Iterations, force evaluations = 161 322

MPI task timing breakdown:
Section |  min time  |  avg time  |  max time  |%varavg| %total
---------------------------------------------------------------
Pair    | 0.49013    | 1.3624     | 1.7842     |  31.5 | 71.49
Neigh   | 0          | 0          | 0          |   0.0 |  0.00
Comm    | 0.036049   | 0.30982    | 0.93003    |  46.5 | 16.26
Output  | 0          | 0          | 0          |   0.0 |  0.00
Modify  | 1.9972e-05 | 0.0026627  | 0.0056573  |   2.4 |  0.14
Other   |            | 0.2309     |            |       | 12.12

Nlocal:        2776.45 ave        3958 max           0 min
Histogram: 8 4 4 0 4 12 8 2 28 34
Nghost:        3879.04 ave        5425 max         232 min
Histogram: 8 0 8 0 16 0 8 8 16 40
Neighs:        79213.3 ave      115367 max           0 min
Histogram: 8 4 4 0 10 6 8 8 24 32

Total # of neighbors = 8238188
Ave neighs/atom = 28.530422
Neighbor list builds = 0
Dangerous builds = 0
The dot product: 1.18822687958513e-08
Setting atom values ...
  1 settings made for x
  1 settings made for y
  1 settings made for z
Setting up cg style minimization ...
  Unit style    : metal
  Current step  : 4801
Per MPI rank memory allocation (min/avg/max) = 5.441 | 5.816 | 6.074 Mbytes
Step PotEng KinEng TotEng v_fx v_fy v_fz 
    4801   -1152448.8            0   -1152448.8 -0.033431035 -0.075106422 0.0084391172 
    4965   -1152448.8            0   -1152448.8 2.2284272e-06 8.8522718e-06 -7.2882616e-07 
Loop time of 1.91688 on 104 procs for 164 steps with 288751 atoms

99.9% CPU use with 104 MPI tasks x 1 OpenMP threads

Minimization stats:
  Stopping criterion = energy tolerance
  Energy initial, next-to-last, final = 
     -1152448.76213585  -1152448.76401425  -1152448.76401425
  Force two-norm initial, final = 0.21005022 0.00011106172
  Force max component initial, final = 0.090731571 2.4312292e-05
  Final line search alpha, max atom move = 1.0000000 2.4312292e-05
  Iterations, force evaluations = 164 328

MPI task timing breakdown:
Section |  min time  |  avg time  |  max time  |%varavg| %total
---------------------------------------------------------------
Pair    | 0.49855    | 1.3775     | 1.7983     |  31.7 | 71.86
Neigh   | 0          | 0          | 0          |   0.0 |  0.00
Comm    | 0.030119   | 0.31158    | 0.9287     |  46.4 | 16.25
Output  | 0          | 0          | 0          |   0.0 |  0.00
Modify  | 1.8948e-05 | 0.0027153  | 0.0057456  |   2.4 |  0.14
Other   |            | 0.2251     |            |       | 11.74

Nlocal:        2776.45 ave        3958 max           0 min
Histogram: 8 4 4 0 4 12 8 2 28 34
Nghost:        3879.09 ave        5424 max         232 min
Histogram: 8 0 8 0 16 0 8 8 16 40
Neighs:        79213.3 ave      115371 max           0 min
Histogram: 8 4 4 0 10 6 8 8 24 32

Total # of neighbors = 8238188
Ave neighs/atom = 28.530422
Neighbor list builds = 0
Dangerous builds = 0
The dot product: -2.17813359581497e-08
Setting atom values ...
  1 settings made for x
  1 settings made for y
  1 settings made for z
Setting up cg style minimization ...
  Unit style    : metal
  Current step  : 4965
Per MPI rank memory allocation (min/avg/max) = 5.441 | 5.816 | 6.074 Mbytes
Step PotEng KinEng TotEng v_fx v_fy v_fz 
    4965   -1152448.7            0   -1152448.7 -0.036450778 -0.079622488 0.0086285259 
    5000   -1152448.7            0   -1152448.7 -0.00018483518 -0.00052236808 4.8504081e-05 
    5187   -1152448.7            0   -1152448.7 -1.584694e-07 -1.7217287e-06 9.2601715e-08 
Loop time of 2.62626 on 104 procs for 222 steps with 288751 atoms

99.9% CPU use with 104 MPI tasks x 1 OpenMP threads

Minimization stats:
  Stopping criterion = energy tolerance
  Energy initial, next-to-last, final = 
     -1152448.73968195  -1152448.74153704  -1152448.74153704
  Force two-norm initial, final = 0.21132806 2.2223154e-05
  Force max component initial, final = 0.089809801 1.7217287e-06
  Final line search alpha, max atom move = 1.0000000 1.7217287e-06
  Iterations, force evaluations = 222 444

MPI task timing breakdown:
Section |  min time  |  avg time  |  max time  |%varavg| %total
---------------------------------------------------------------
Pair    | 0.67001    | 1.8699     | 2.4746     |  36.9 | 71.20
Neigh   | 0          | 0          | 0          |   0.0 |  0.00
Comm    | 0.042137   | 0.42809    | 1.2817     |  54.1 | 16.30
Output  | 0.00015655 | 0.00016307 | 0.00024781 |   0.0 |  0.01
Modify  | 2.5584e-05 | 0.0036713  | 0.0078339  |   2.8 |  0.14
Other   |            | 0.3244     |            |       | 12.35

Nlocal:        2776.45 ave        3958 max           0 min
Histogram: 8 4 4 0 4 12 8 2 28 34
Nghost:        3879.07 ave        5423 max         232 min
Histogram: 8 0 8 0 16 0 8 8 16 40
Neighs:        79213.3 ave      115371 max           0 min
Histogram: 8 4 4 0 10 6 8 8 24 32

Total # of neighbors = 8238187
Ave neighs/atom = 28.530419
Neighbor list builds = 0
Dangerous builds = 0
The dot product: 6.13412921224471e-09
Setting atom values ...
  1 settings made for x
  1 settings made for y
  1 settings made for z
Setting up cg style minimization ...
  Unit style    : metal
  Current step  : 5187
Per MPI rank memory allocation (min/avg/max) = 5.441 | 5.816 | 6.074 Mbytes
Step PotEng KinEng TotEng v_fx v_fy v_fz 
    5187   -1152448.7            0   -1152448.7 -0.037870256 -0.082414809 0.0081774858 
    5346   -1152448.7            0   -1152448.7 -1.2386641e-06 -1.0048697e-05 5.1884896e-07 
Loop time of 1.85551 on 104 procs for 159 steps with 288751 atoms

99.9% CPU use with 104 MPI tasks x 1 OpenMP threads

Minimization stats:
  Stopping criterion = energy tolerance
  Energy initial, next-to-last, final = 
     -1152448.71571536  -1152448.71754564  -1152448.71754564
  Force two-norm initial, final = 0.2113627 0.00013432556
  Force max component initial, final = 0.088131996 2.3651919e-05
  Final line search alpha, max atom move = 1.0000000 2.3651919e-05
  Iterations, force evaluations = 159 318

MPI task timing breakdown:
Section |  min time  |  avg time  |  max time  |%varavg| %total
---------------------------------------------------------------
Pair    | 0.48094    | 1.3416     | 1.7451     |  31.2 | 72.30
Neigh   | 0          | 0          | 0          |   0.0 |  0.00
Comm    | 0.029792   | 0.30397    | 0.92354    |  46.3 | 16.38
Output  | 0          | 0          | 0          |   0.0 |  0.00
Modify  | 1.9625e-05 | 0.0026389  | 0.0055912  |   2.4 |  0.14
Other   |            | 0.2074     |            |       | 11.17

Nlocal:        2776.45 ave        3958 max           0 min
Histogram: 8 4 4 0 4 12 8 2 28 34
Nghost:        3879.08 ave        5423 max         232 min
Histogram: 8 0 8 0 16 0 8 8 16 40
Neighs:        79213.3 ave      115354 max           0 min
Histogram: 8 4 4 0 10 6 8 8 24 32

Total # of neighbors = 8238186
Ave neighs/atom = 28.530415
Neighbor list builds = 0
Dangerous builds = 0
The dot product: 4.76950553475548e-08
Setting atom values ...
  1 settings made for x
  1 settings made for y
  1 settings made for z
Setting up cg style minimization ...
  Unit style    : metal
  Current step  : 5346
Per MPI rank memory allocation (min/avg/max) = 5.441 | 5.816 | 6.074 Mbytes
Step PotEng KinEng TotEng v_fx v_fy v_fz 
    5346   -1152448.7            0   -1152448.7 -0.037782471 -0.084185764  0.007283239 
    5506   -1152448.7            0   -1152448.7 3.3510805e-06 6.0736779e-06 -6.0864516e-07 
Loop time of 1.87661 on 104 procs for 160 steps with 288751 atoms

99.9% CPU use with 104 MPI tasks x 1 OpenMP threads

Minimization stats:
  Stopping criterion = energy tolerance
  Energy initial, next-to-last, final = 
     -1152448.69025939  -1152448.69205778  -1152448.69205778
  Force two-norm initial, final = 0.21056709 0.0001268743
  Force max component initial, final = 0.086018548 1.4792946e-05
  Final line search alpha, max atom move = 1.0000000 1.4792946e-05
  Iterations, force evaluations = 160 320

MPI task timing breakdown:
Section |  min time  |  avg time  |  max time  |%varavg| %total
---------------------------------------------------------------
Pair    | 0.48898    | 1.3493     | 1.771      |  31.3 | 71.90
Neigh   | 0          | 0          | 0          |   0.0 |  0.00
Comm    | 0.030388   | 0.30604    | 0.91393    |  45.9 | 16.31
Output  | 0          | 0          | 0          |   0.0 |  0.00
Modify  | 1.8521e-05 | 0.0026469  | 0.005598   |   2.4 |  0.14
Other   |            | 0.2187     |            |       | 11.65

Nlocal:        2776.45 ave        3958 max           0 min
Histogram: 8 4 4 0 4 12 8 2 28 34
Nghost:        3879.09 ave        5423 max         232 min
Histogram: 8 0 8 0 16 0 8 8 16 40
Neighs:        79213.3 ave      115369 max           0 min
Histogram: 8 4 4 0 10 6 8 8 24 32

Total # of neighbors = 8238188
Ave neighs/atom = 28.530422
Neighbor list builds = 0
Dangerous builds = 0
The dot product: -4.65565303602362e-08
Setting atom values ...
  1 settings made for x
  1 settings made for y
  1 settings made for z
Setting up cg style minimization ...
  Unit style    : metal
  Current step  : 5506
Per MPI rank memory allocation (min/avg/max) = 5.441 | 5.816 | 6.074 Mbytes
Step PotEng KinEng TotEng v_fx v_fy v_fz 
    5506   -1152448.7            0   -1152448.7 -0.036237162 -0.085311108  0.006081178 
    5696   -1152448.7            0   -1152448.7 -8.1496107e-06 -2.003113e-05 1.3832323e-06 
Loop time of 2.21878 on 104 procs for 190 steps with 288751 atoms

99.9% CPU use with 104 MPI tasks x 1 OpenMP threads

Minimization stats:
  Stopping criterion = energy tolerance
  Energy initial, next-to-last, final = 
     -1152448.66333802   -1152448.6650977   -1152448.6650977
  Force two-norm initial, final = 0.20920211 5.3195421e-05
  Force max component initial, final = 0.085311108 2.0031130e-05
  Final line search alpha, max atom move = 1.0000000 2.0031130e-05
  Iterations, force evaluations = 190 380

MPI task timing breakdown:
Section |  min time  |  avg time  |  max time  |%varavg| %total
---------------------------------------------------------------
Pair    | 0.57869    | 1.5976     | 2.0827     |  34.1 | 72.00
Neigh   | 0          | 0          | 0          |   0.0 |  0.00
Comm    | 0.033667   | 0.35949    | 1.0923     |  50.6 | 16.20
Output  | 0          | 0          | 0          |   0.0 |  0.00
Modify  | 2.3008e-05 | 0.0031498  | 0.0067407  |   2.6 |  0.14
Other   |            | 0.2585     |            |       | 11.65

Nlocal:        2776.45 ave        3958 max           0 min
Histogram: 8 4 4 0 4 12 8 2 28 34
Nghost:        3879.11 ave        5423 max         232 min
Histogram: 8 0 8 0 16 0 8 8 16 40
Neighs:        79213.3 ave      115369 max           0 min
Histogram: 8 4 4 0 10 6 8 8 24 32

Total # of neighbors = 8238186
Ave neighs/atom = 28.530415
Neighbor list builds = 0
Dangerous builds = 0
The dot product: 1.50540762405808e-07
Setting atom values ...
  1 settings made for x
  1 settings made for y
  1 settings made for z
Setting up cg style minimization ...
  Unit style    : metal
  Current step  : 5696
Per MPI rank memory allocation (min/avg/max) = 5.441 | 5.816 | 6.074 Mbytes
Step PotEng KinEng TotEng v_fx v_fy v_fz 
    5696   -1152448.6            0   -1152448.6 -0.033126854 -0.086045435 0.0046532095 
    5850   -1152448.6            0   -1152448.6 2.8368226e-06 8.3913225e-07 -3.3680525e-07 
Loop time of 1.80819 on 104 procs for 154 steps with 288751 atoms

99.9% CPU use with 104 MPI tasks x 1 OpenMP threads

Minimization stats:
  Stopping criterion = energy tolerance
  Energy initial, next-to-last, final = 
     -1152448.63497923  -1152448.63669591  -1152448.63669591
  Force two-norm initial, final = 0.20751144 0.00017562433
  Force max component initial, final = 0.086045435 3.6724845e-05
  Final line search alpha, max atom move = 1.0000000 3.6724845e-05
  Iterations, force evaluations = 154 308

MPI task timing breakdown:
Section |  min time  |  avg time  |  max time  |%varavg| %total
---------------------------------------------------------------
Pair    | 0.46912    | 1.2993     | 1.702      |  30.7 | 71.86
Neigh   | 0          | 0          | 0          |   0.0 |  0.00
Comm    | 0.031432   | 0.29419    | 0.88472    |  45.2 | 16.27
Output  | 0          | 0          | 0          |   0.0 |  0.00
Modify  | 1.9099e-05 | 0.002551   | 0.005409   |   2.4 |  0.14
Other   |            | 0.2122     |            |       | 11.73

Nlocal:        2776.45 ave        3957 max           0 min
Histogram: 8 4 4 0 4 12 8 2 28 34
Nghost:        3879.11 ave        5423 max         232 min
Histogram: 8 0 8 0 16 0 8 8 16 40
Neighs:        79213.3 ave      115338 max           0 min
Histogram: 8 4 4 0 10 6 8 8 24 32

Total # of neighbors = 8238188
Ave neighs/atom = 28.530422
Neighbor list builds = 0
Dangerous builds = 0
The dot product: -1.86746956231246e-08
Setting atom values ...
  1 settings made for x
  1 settings made for y
  1 settings made for z
Setting up cg style minimization ...
  Unit style    : metal
  Current step  : 5850
Per MPI rank memory allocation (min/avg/max) = 5.441 | 5.816 | 6.074 Mbytes
Step PotEng KinEng TotEng v_fx v_fy v_fz 
    5850   -1152448.6            0   -1152448.6 -0.028145782 -0.086515364 0.0030273951 
    6000   -1152448.6            0   -1152448.6 -9.5008896e-06 -2.7013082e-05 1.0224195e-06 
    6016   -1152448.6            0   -1152448.6 1.5373929e-06 4.9640449e-06 -1.6531035e-07 
Loop time of 1.92744 on 104 procs for 166 steps with 288751 atoms

99.9% CPU use with 104 MPI tasks x 1 OpenMP threads

Minimization stats:
  Stopping criterion = energy tolerance
  Energy initial, next-to-last, final = 
     -1152448.60521997  -1152448.60689282  -1152448.60689282
  Force two-norm initial, final = 0.20561846 0.00011841561
  Force max component initial, final = 0.086515364 3.6305132e-05
  Final line search alpha, max atom move = 1.0000000 3.6305132e-05
  Iterations, force evaluations = 166 332

MPI task timing breakdown:
Section |  min time  |  avg time  |  max time  |%varavg| %total
---------------------------------------------------------------
Pair    | 0.50163    | 1.3907     | 1.8136     |  31.8 | 72.15
Neigh   | 0          | 0          | 0          |   0.0 |  0.00
Comm    | 0.029431   | 0.31277    | 0.94183    |  46.9 | 16.23
Output  | 0.00025195 | 0.00025554 | 0.00040033 |   0.0 |  0.01
Modify  | 2.1092e-05 | 0.0027534  | 0.0058213  |   2.5 |  0.14
Other   |            | 0.221      |            |       | 11.46

Nlocal:        2776.45 ave        3957 max           0 min
Histogram: 8 4 4 0 4 12 8 2 28 34
Nghost:        3879.11 ave        5424 max         232 min
Histogram: 8 0 8 0 16 0 8 8 16 40
Neighs:        79213.3 ave      115334 max           0 min
Histogram: 8 4 4 0 10 6 8 8 24 32

Total # of neighbors = 8238188
Ave neighs/atom = 28.530422
Neighbor list builds = 0
Dangerous builds = 0
The dot product: -3.98828818008472e-08
Setting atom values ...
  1 settings made for x
  1 settings made for y
  1 settings made for z
Setting up cg style minimization ...
  Unit style    : metal
  Current step  : 6016
Per MPI rank memory allocation (min/avg/max) = 5.441 | 5.816 | 6.074 Mbytes
Step PotEng KinEng TotEng v_fx v_fy v_fz 
    6016   -1152448.6            0   -1152448.6 -0.022128421 -0.086383423 0.0013287907 
    6234   -1152448.6            0   -1152448.6 3.3327252e-06 7.0890334e-06 -2.6370233e-07 
Loop time of 2.56468 on 104 procs for 218 steps with 288751 atoms

99.9% CPU use with 104 MPI tasks x 1 OpenMP threads

Minimization stats:
  Stopping criterion = energy tolerance
  Energy initial, next-to-last, final = 
     -1152448.57412101   -1152448.5757511   -1152448.5757511
  Force two-norm initial, final = 0.2035297 3.3747367e-05
  Force max component initial, final = 0.08665085 7.3876752e-06
  Final line search alpha, max atom move = 1.0000000 7.3876752e-06
  Iterations, force evaluations = 218 436

MPI task timing breakdown:
Section |  min time  |  avg time  |  max time  |%varavg| %total
---------------------------------------------------------------
Pair    | 0.66508    | 1.8409     | 2.4164     |  36.5 | 71.78
Neigh   | 0          | 0          | 0          |   0.0 |  0.00
Comm    | 0.045122   | 0.4182     | 1.2512     |  53.9 | 16.31
Output  | 0          | 0          | 0          |   0.0 |  0.00
Modify  | 2.4933e-05 | 0.0035998  | 0.0076555  |   2.8 |  0.14
Other   |            | 0.3019     |            |       | 11.77

Nlocal:        2776.45 ave        3957 max           0 min
Histogram: 8 4 4 0 4 12 8 2 28 34
Nghost:        3879.09 ave        5424 max         232 min
Histogram: 8 0 8 0 16 0 8 8 16 40
Neighs:        79213.4 ave      115341 max           0 min
Histogram: 8 4 4 0 10 6 8 8 24 32

Total # of neighbors = 8238189
Ave neighs/atom = 28.530426
Neighbor list builds = 0
Dangerous builds = 0
The dot product: -6.48971565311394e-08
Setting atom values ...
  1 settings made for x
  1 settings made for y
  1 settings made for z
Setting up cg style minimization ...
  Unit style    : metal
  Current step  : 6234
Per MPI rank memory allocation (min/avg/max) = 5.441 | 5.816 | 6.074 Mbytes
Step PotEng KinEng TotEng v_fx v_fy v_fz 
    6234   -1152448.5            0   -1152448.5 -0.012384583 -0.087193285 -0.00076053245 
    6490   -1152448.6            0   -1152448.6 -6.8281955e-06 -2.1472879e-05 1.8297574e-07 
Loop time of 2.99133 on 104 procs for 256 steps with 288751 atoms

99.9% CPU use with 104 MPI tasks x 1 OpenMP threads

Minimization stats:
  Stopping criterion = energy tolerance
  Energy initial, next-to-last, final = 
      -1152448.5418393  -1152448.61681417  -1152448.61681417
  Force two-norm initial, final = 0.20194285 0.00028804278
  Force max component initial, final = 0.088504895 5.0371544e-05
  Final line search alpha, max atom move = 1.0000000 5.0371544e-05
  Iterations, force evaluations = 256 512

MPI task timing breakdown:
Section |  min time  |  avg time  |  max time  |%varavg| %total
---------------------------------------------------------------
Pair    | 0.78152    | 2.1478     | 2.8064     |  39.4 | 71.80
Neigh   | 2.0604e-05 | 0.0058584  | 0.0085254  |   3.2 |  0.20
Comm    | 0.046551   | 0.48651    | 1.4548     |  58.2 | 16.26
Output  | 0          | 0          | 0          |   0.0 |  0.00
Modify  | 2.9909e-05 | 0.0042351  | 0.008982   |   3.1 |  0.14
Other   |            | 0.3469     |            |       | 11.60

Nlocal:        2776.45 ave        3957 max           0 min
Histogram: 8 4 4 0 4 12 8 2 28 34
Nghost:        3879.06 ave        5424 max         232 min
Histogram: 8 0 8 0 16 0 8 8 16 40
Neighs:        79213.5 ave      115340 max           0 min
Histogram: 8 4 4 0 10 6 8 8 24 32

Total # of neighbors = 8238199
Ave neighs/atom = 28.530461
Neighbor list builds = 2
Dangerous builds = 0
The dot product: 2.40434989578589e-06
Setting atom values ...
  1 settings made for x
  1 settings made for y
  1 settings made for z
Setting up cg style minimization ...
  Unit style    : metal
  Current step  : 6490
Per MPI rank memory allocation (min/avg/max) = 5.441 | 5.816 | 6.074 Mbytes
Step PotEng KinEng TotEng v_fx v_fy v_fz 
    6490   -1152448.6            0   -1152448.6  0.087822413  -0.14022019 -0.088029915 
    6756   -1152448.6            0   -1152448.6 5.775199e-07 -8.1386429e-07 -5.4435246e-07 
Loop time of 3.10674 on 104 procs for 266 steps with 288751 atoms

99.9% CPU use with 104 MPI tasks x 1 OpenMP threads

Minimization stats:
  Stopping criterion = energy tolerance
  Energy initial, next-to-last, final = 
     -1152448.61005785  -1152448.61312538  -1152448.61312538
  Force two-norm initial, final = 0.23211319 1.2004849e-05
  Force max component initial, final = 0.14022019 2.5865475e-06
  Final line search alpha, max atom move = 1.0000000 2.5865475e-06
  Iterations, force evaluations = 266 532

MPI task timing breakdown:
Section |  min time  |  avg time  |  max time  |%varavg| %total
---------------------------------------------------------------
Pair    | 0.80705    | 2.2421     | 2.9322     |  40.4 | 72.17
Neigh   | 0          | 0          | 0          |   0.0 |  0.00
Comm    | 0.049217   | 0.50469    | 1.5232     |  60.0 | 16.25
Output  | 0          | 0          | 0          |   0.0 |  0.00
Modify  | 3.0572e-05 | 0.0044007  | 0.009353   |   3.1 |  0.14
Other   |            | 0.3556     |            |       | 11.45

Nlocal:        2776.45 ave        3957 max           0 min
Histogram: 8 4 4 0 4 12 8 2 28 34
Nghost:        3879.06 ave        5424 max         232 min
Histogram: 8 0 8 0 16 0 8 8 16 40
Neighs:        79213.3 ave      115335 max           0 min
Histogram: 8 4 4 0 10 6 8 8 24 32

Total # of neighbors = 8238185
Ave neighs/atom = 28.530412
Neighbor list builds = 0
Dangerous builds = 0
The dot product: 3.29358677724031e-08
Setting atom values ...
  1 settings made for x
  1 settings made for y
  1 settings made for z
Setting up cg style minimization ...
  Unit style    : metal
  Current step  : 6756
Per MPI rank memory allocation (min/avg/max) = 5.441 | 5.816 | 6.074 Mbytes
Step PotEng KinEng TotEng v_fx v_fy v_fz 
    6756   -1152448.6            0   -1152448.6 -0.0044919183 -0.075325815 -0.023999873 
    7000     -1152449            0     -1152449 1.3069077e-05 4.6907862e-06 -5.3518672e-06 
    7061     -1152449            0     -1152449 -1.8747311e-05 5.9146311e-06 1.2109142e-05 
Loop time of 3.58351 on 104 procs for 305 steps with 288751 atoms

99.9% CPU use with 104 MPI tasks x 1 OpenMP threads

Minimization stats:
  Stopping criterion = energy tolerance
  Energy initial, next-to-last, final = 
     -1152448.60639536  -1152448.99358205  -1152448.99358205
  Force two-norm initial, final = 0.15916361 9.2914106e-05
  Force max component initial, final = 0.075325815 1.8762955e-05
  Final line search alpha, max atom move = 1.0000000 1.8762955e-05
  Iterations, force evaluations = 305 608

MPI task timing breakdown:
Section |  min time  |  avg time  |  max time  |%varavg| %total
---------------------------------------------------------------
Pair    | 0.9442     | 2.5588     | 3.345      |  42.7 | 71.41
Neigh   | 6.0596e-05 | 0.017604   | 0.025756   |   5.5 |  0.49
Comm    | 0.057279   | 0.58114    | 1.7382     |  63.1 | 16.22
Output  | 0.00037985 | 0.00038855 | 0.00054332 |   0.0 |  0.01
Modify  | 3.4889e-05 | 0.005032   | 0.010657   |   3.3 |  0.14
Other   |            | 0.4205     |            |       | 11.73

Nlocal:        2776.45 ave        3957 max           0 min
Histogram: 8 4 4 0 4 12 8 2 28 34
Nghost:        3879.11 ave        5425 max         232 min
Histogram: 8 0 8 0 16 0 8 8 16 40
Neighs:        79213.6 ave      115367 max           0 min
Histogram: 8 4 4 0 10 6 8 8 24 32

Total # of neighbors = 8238218
Ave neighs/atom = 28.530526
Neighbor list builds = 6
Dangerous builds = 0
The dot product: -5.79794770651552e-06
Setting atom values ...
  1 settings made for x
  1 settings made for y
  1 settings made for z
Setting up cg style minimization ...
  Unit style    : metal
  Current step  : 7061
Per MPI rank memory allocation (min/avg/max) = 5.441 | 5.816 | 6.074 Mbytes
Step PotEng KinEng TotEng v_fx v_fy v_fz 
    7061     -1152449            0     -1152449   0.25312602   0.56127298   0.76027672 
    7358   -1152449.2            0   -1152449.2 7.9121865e-06 7.4549389e-06 6.6309142e-06 
Loop time of 3.53798 on 104 procs for 297 steps with 288751 atoms

99.9% CPU use with 104 MPI tasks x 1 OpenMP threads

Minimization stats:
  Stopping criterion = energy tolerance
  Energy initial, next-to-last, final = 
     -1152449.01782332   -1152449.1735907   -1152449.1735907
  Force two-norm initial, final = 0.99035335 6.6296455e-05
  Force max component initial, final = 0.76027672 1.7684798e-05
  Final line search alpha, max atom move = 1.0000000 1.7684798e-05
  Iterations, force evaluations = 297 594

MPI task timing breakdown:
Section |  min time  |  avg time  |  max time  |%varavg| %total
---------------------------------------------------------------
Pair    | 0.90851    | 2.5066     | 3.2869     |  42.4 | 70.85
Neigh   | 2.0147e-05 | 0.0058732  | 0.0085453  |   3.2 |  0.17
Comm    | 0.063773   | 0.5714     | 1.705      |  62.7 | 16.15
Output  | 0          | 0          | 0          |   0.0 |  0.00
Modify  | 3.5245e-05 | 0.0049089  | 0.010417   |   3.3 |  0.14
Other   |            | 0.4492     |            |       | 12.70

Nlocal:        2776.45 ave        3961 max           0 min
Histogram: 8 4 4 0 6 10 8 4 26 34
Nghost:        3879.00 ave        5426 max         232 min
Histogram: 8 0 8 0 16 0 8 8 16 40
Neighs:        79213.5 ave      115507 max           0 min
Histogram: 8 4 4 0 10 6 8 8 24 32

Total # of neighbors = 8238204
Ave neighs/atom = 28.530478
Neighbor list builds = 2
Dangerous builds = 0
The dot product: 3.94368255732933e-06
Setting atom values ...
  1 settings made for x
  1 settings made for y
  1 settings made for z
Setting up cg style minimization ...
  Unit style    : metal
  Current step  : 7358
Per MPI rank memory allocation (min/avg/max) = 5.441 | 5.816 | 6.074 Mbytes
Step PotEng KinEng TotEng v_fx v_fy v_fz 
    7358   -1152449.2            0   -1152449.2  -0.12317519  -0.36562347  -0.23857917 
    7689   -1152449.2            0   -1152449.2 -5.2813526e-07 4.6286881e-07 7.8230446e-07 
Loop time of 3.87217 on 104 procs for 331 steps with 288751 atoms

99.9% CPU use with 104 MPI tasks x 1 OpenMP threads

Minimization stats:
  Stopping criterion = energy tolerance
  Energy initial, next-to-last, final = 
     -1152449.19794735  -1152449.22519376  -1152449.22519376
  Force two-norm initial, final = 0.48399742 4.4750791e-06
  Force max component initial, final = 0.36562347 1.2692521e-06
  Final line search alpha, max atom move = 1.0000000 1.2692521e-06
  Iterations, force evaluations = 331 662

MPI task timing breakdown:
Section |  min time  |  avg time  |  max time  |%varavg| %total
---------------------------------------------------------------
Pair    | 1.0094     | 2.7814     | 3.633      |  45.0 | 71.83
Neigh   | 1.0208e-05 | 0.0029267  | 0.004253   |   2.2 |  0.08
Comm    | 0.059681   | 0.62848    | 1.8963     |  66.3 | 16.23
Output  | 0          | 0          | 0          |   0.0 |  0.00
Modify  | 3.7886e-05 | 0.0054732  | 0.011587   |   3.5 |  0.14
Other   |            | 0.4539     |            |       | 11.72

Nlocal:        2776.45 ave        3961 max           0 min
Histogram: 8 4 4 0 6 10 8 4 26 34
Nghost:        3879.02 ave        5425 max         232 min
Histogram: 8 0 8 0 16 0 8 8 16 40
Neighs:        79213.4 ave      115474 max           0 min
Histogram: 8 4 4 0 10 6 8 8 24 32

Total # of neighbors = 8238197
Ave neighs/atom = 28.530454
Neighbor list builds = 1
Dangerous builds = 0
The dot product: -6.88607260947767e-08
Setting atom values ...
  1 settings made for x
  1 settings made for y
  1 settings made for z
Setting up cg style minimization ...
  Unit style    : metal
  Current step  : 7689
Per MPI rank memory allocation (min/avg/max) = 5.441 | 5.816 | 6.074 Mbytes
Step PotEng KinEng TotEng v_fx v_fy v_fz 
    7689   -1152449.2            0   -1152449.2  0.046024984  0.077476491  0.054484947 
    7897   -1152449.3            0   -1152449.3 3.3720231e-05 6.1034883e-06 -1.6708488e-05 
Loop time of 2.44751 on 104 procs for 208 steps with 288751 atoms

99.9% CPU use with 104 MPI tasks x 1 OpenMP threads

Minimization stats:
  Stopping criterion = energy tolerance
  Energy initial, next-to-last, final = 
     -1152449.24696118  -1152449.25174054  -1152449.25174054
  Force two-norm initial, final = 0.19038652 0.00015446012
  Force max component initial, final = 0.087891277 3.3720231e-05
  Final line search alpha, max atom move = 1.0000000 3.3720231e-05
  Iterations, force evaluations = 208 416

MPI task timing breakdown:
Section |  min time  |  avg time  |  max time  |%varavg| %total
---------------------------------------------------------------
Pair    | 0.6304     | 1.755      | 2.3035     |  35.7 | 71.71
Neigh   | 0          | 0          | 0          |   0.0 |  0.00
Comm    | 0.037117   | 0.40003    | 1.1932     |  52.6 | 16.34
Output  | 0          | 0          | 0          |   0.0 |  0.00
Modify  | 2.4225e-05 | 0.0034358  | 0.0072719  |   2.8 |  0.14
Other   |            | 0.289      |            |       | 11.81

Nlocal:        2776.45 ave        3961 max           0 min
Histogram: 8 4 4 0 6 10 8 4 26 34
Nghost:        3879.07 ave        5425 max         232 min
Histogram: 8 0 8 0 16 0 8 8 16 40
Neighs:        79213.5 ave      115486 max           0 min
Histogram: 8 4 4 0 10 6 8 8 24 32

Total # of neighbors = 8238205
Ave neighs/atom = 28.530481
Neighbor list builds = 0
Dangerous builds = 0
The dot product: 5.0158654137532e-07
Setting atom values ...
  1 settings made for x
  1 settings made for y
  1 settings made for z
Setting up cg style minimization ...
  Unit style    : metal
  Current step  : 7897
Per MPI rank memory allocation (min/avg/max) = 5.441 | 5.816 | 6.074 Mbytes
Step PotEng KinEng TotEng v_fx v_fy v_fz 
    7897   -1152449.3            0   -1152449.3  -0.02828575 -0.061612197 -0.043766322 
    8000   -1152449.3            0   -1152449.3 1.6783414e-05 6.043481e-05 5.0645198e-05 
[...]

Nlocal:        2776.45 ave        3960 max           0 min
Histogram: 8 4 4 0 4 12 8 2 28 34
Nghost:        3879.01 ave        5424 max         232 min
Histogram: 8 0 8 0 16 0 8 8 16 40
Neighs:        79213.3 ave      115432 max           0 min
Histogram: 8 4 4 0 10 6 8 8 24 32

Total # of neighbors = 8238183
Ave neighs/atom = 28.530405
Neighbor list builds = 1
Dangerous builds = 0
The dot product: 1.61781216001603e-06
Setting atom values ...
  1 settings made for x
  1 settings made for y
  1 settings made for z
Setting up cg style minimization ...
  Unit style    : metal
  Current step  : 17121
Per MPI rank memory allocation (min/avg/max) = 5.441 | 5.816 | 6.074 Mbytes
Step PotEng KinEng TotEng v_fx v_fy v_fz 
   17121   -1152449.3            0   -1152449.3  0.015848554  0.018415997   0.01503818 
   17331   -1152449.3            0   -1152449.3 -4.0908898e-06 3.1766674e-06 8.0048929e-06 
Loop time of 2.49026 on 104 procs for 210 steps with 288751 atoms

99.9% CPU use with 104 MPI tasks x 1 OpenMP threads

Minimization stats:
  Stopping criterion = energy tolerance
  Energy initial, next-to-last, final = 
     -1152449.31071443  -1152449.31171385  -1152449.31171385
  Force two-norm initial, final = 0.13206672 5.2488029e-05
  Force max component initial, final = 0.053802202 1.0503515e-05
  Final line search alpha, max atom move = 1.0000000 1.0503515e-05
  Iterations, force evaluations = 210 420

MPI task timing breakdown:
Section |  min time  |  avg time  |  max time  |%varavg| %total
---------------------------------------------------------------
Pair    | 0.65129    | 1.7742     | 2.323      |  35.6 | 71.25
Neigh   | 0          | 0          | 0          |   0.0 |  0.00
Comm    | 0.042796   | 0.41108    | 1.2208     |  51.5 | 16.51
Output  | 0          | 0          | 0          |   0.0 |  0.00
Modify  | 2.5805e-05 | 0.0034773  | 0.0073908  |   2.8 |  0.14
Other   |            | 0.3015     |            |       | 12.11

Nlocal:        2776.45 ave        3960 max           0 min
Histogram: 8 4 4 0 4 12 8 4 26 34
Nghost:        3879.14 ave        5426 max         232 min
Histogram: 8 0 8 0 16 0 8 8 16 40
Neighs:        79213.4 ave      115432 max           0 min
Histogram: 8 4 4 0 10 6 8 8 24 32

Total # of neighbors = 8238190
Ave neighs/atom = 28.530429
Neighbor list builds = 0
Dangerous builds = 0
The dot product: 3.36814397036467e-08
Setting atom values ...
  1 settings made for x
  1 settings made for y
  1 settings made for z
Setting up cg style minimization ...
  Unit style    : metal
  Current step  : 17331
Per MPI rank memory allocation (min/avg/max) = 5.441 | 5.816 | 6.074 Mbytes
Step PotEng KinEng TotEng v_fx v_fy v_fz 
   17331   -1152449.3            0   -1152449.3  0.041785192  0.022713851 0.0010061935 
   17533   -1152449.3            0   -1152449.3 6.9066893e-07 5.0863798e-06 7.0588754e-06 
Loop time of 2.39122 on 104 procs for 202 steps with 288751 atoms

99.9% CPU use with 104 MPI tasks x 1 OpenMP threads

Minimization stats:
  Stopping criterion = energy tolerance
  Energy initial, next-to-last, final = 
     -1152449.32085994  -1152449.32186689  -1152449.32186689
  Force two-norm initial, final = 0.13884658 6.7026617e-05
  Force max component initial, final = 0.056093687 7.0588754e-06
  Final line search alpha, max atom move = 1.0000000 7.0588754e-06
  Iterations, force evaluations = 202 404

MPI task timing breakdown:
Section |  min time  |  avg time  |  max time  |%varavg| %total
---------------------------------------------------------------
Pair    | 0.60624    | 1.6974     | 2.2559     |  35.4 | 70.99
Neigh   | 0          | 0          | 0          |   0.0 |  0.00
Comm    | 0.033807   | 0.39372    | 1.1632     |  50.6 | 16.47
Output  | 0          | 0          | 0          |   0.0 |  0.00
Modify  | 2.4046e-05 | 0.003346   | 0.0071764  |   2.7 |  0.14
Other   |            | 0.2967     |            |       | 12.41

Nlocal:        2776.45 ave        3960 max           0 min
Histogram: 8 4 4 0 4 12 8 4 26 34
Nghost:        3879.07 ave        5424 max         232 min
Histogram: 8 0 8 0 16 0 8 8 16 40
Neighs:        79213.4 ave      115423 max           0 min
Histogram: 8 4 4 0 10 6 8 8 24 32

Total # of neighbors = 8238190
Ave neighs/atom = 28.530429
Neighbor list builds = 0
Dangerous builds = 0
The dot product: 8.7247064730146e-09
Setting atom values ...
  1 settings made for x
  1 settings made for y
  1 settings made for z
Setting up cg style minimization ...
  Unit style    : metal
  Current step  : 17533
Per MPI rank memory allocation (min/avg/max) = 5.441 | 5.816 | 6.074 Mbytes
Step PotEng KinEng TotEng v_fx v_fy v_fz 
   17533   -1152449.3            0   -1152449.3  0.042488565  0.023840328  0.002014207 
   17720   -1152449.3            0   -1152449.3 -1.4917316e-06 3.5090486e-06 6.4206632e-06 
Loop time of 2.21392 on 104 procs for 187 steps with 288751 atoms

99.9% CPU use with 104 MPI tasks x 1 OpenMP threads

Minimization stats:
  Stopping criterion = energy tolerance
  Energy initial, next-to-last, final = 
      -1152449.3294893  -1152449.33051223  -1152449.33051223
  Force two-norm initial, final = 0.14007035 0.00010328847
  Force max component initial, final = 0.057838714 2.1139869e-05
  Final line search alpha, max atom move = 1.0000000 2.1139869e-05
  Iterations, force evaluations = 187 374

MPI task timing breakdown:
Section |  min time  |  avg time  |  max time  |%varavg| %total
---------------------------------------------------------------
Pair    | 0.56911    | 1.5768     | 2.0844     |  33.8 | 71.22
Neigh   | 0          | 0          | 0          |   0.0 |  0.00
Comm    | 0.032653   | 0.36572    | 1.0881     |  48.7 | 16.52
Output  | 0          | 0          | 0          |   0.0 |  0.00
Modify  | 2.3003e-05 | 0.0030891  | 0.0065927  |   2.6 |  0.14
Other   |            | 0.2683     |            |       | 12.12

Nlocal:        2776.45 ave        3960 max           0 min
Histogram: 8 4 4 0 4 12 8 4 26 34
Nghost:        3879.09 ave        5424 max         232 min
Histogram: 8 0 8 0 16 0 8 8 16 40
Neighs:        79213.4 ave      115423 max           0 min
Histogram: 8 4 4 0 10 6 8 8 24 32

Total # of neighbors = 8238191
Ave neighs/atom = 28.530433
Neighbor list builds = 0
Dangerous builds = 0
The dot product: 2.94583938140745e-09
Setting atom values ...
  1 settings made for x
  1 settings made for y
  1 settings made for z
Setting up cg style minimization ...
  Unit style    : metal
  Current step  : 17720
Per MPI rank memory allocation (min/avg/max) = 5.441 | 5.816 | 6.074 Mbytes
Step PotEng KinEng TotEng v_fx v_fy v_fz 
   17720   -1152449.3            0   -1152449.3  0.043777845  0.024372389 0.0016654313 
   17901   -1152449.3            0   -1152449.3 -7.2150739e-06 -8.4860472e-07 4.4526743e-06 
Loop time of 2.13766 on 104 procs for 181 steps with 288751 atoms

99.9% CPU use with 104 MPI tasks x 1 OpenMP threads

Minimization stats:
  Stopping criterion = energy tolerance
  Energy initial, next-to-last, final = 
     -1152449.33662398  -1152449.33766249  -1152449.33766249
  Force two-norm initial, final = 0.14118193 0.00011771055
  Force max component initial, final = 0.059568369 7.9774215e-06
  Final line search alpha, max atom move = 1.0000000 7.9774215e-06
  Iterations, force evaluations = 181 362

MPI task timing breakdown:
Section |  min time  |  avg time  |  max time  |%varavg| %total
---------------------------------------------------------------
Pair    | 0.54538    | 1.5212     | 2.018      |  33.4 | 71.16
Neigh   | 0          | 0          | 0          |   0.0 |  0.00
Comm    | 0.030779   | 0.35043    | 1.0355     |  48.1 | 16.39
Output  | 0          | 0          | 0          |   0.0 |  0.00
Modify  | 2.1647e-05 | 0.0029982  | 0.0063919  |   2.6 |  0.14
Other   |            | 0.263      |            |       | 12.30

Nlocal:        2776.45 ave        3960 max           0 min
Histogram: 8 4 4 0 4 12 8 3 27 34
Nghost:        3879.05 ave        5424 max         232 min
Histogram: 8 0 8 0 16 0 8 8 16 40
Neighs:        79213.4 ave      115433 max           0 min
Histogram: 8 4 4 0 10 6 8 8 24 32

Total # of neighbors = 8238191
Ave neighs/atom = 28.530433
Neighbor list builds = 0
Dangerous builds = 0
The dot product: -1.84296551256135e-08
Setting atom values ...
  1 settings made for x
  1 settings made for y
  1 settings made for z
Setting up cg style minimization ...
  Unit style    : metal
  Current step  : 17901
Per MPI rank memory allocation (min/avg/max) = 5.441 | 5.816 | 6.074 Mbytes
Step PotEng KinEng TotEng v_fx v_fy v_fz 
   17901   -1152449.3            0   -1152449.3  0.044364545  0.024185448 0.00078941466 
   18000   -1152449.3            0   -1152449.3 -4.1842691e-05 1.8909085e-05 6.1432189e-05 
   18134   -1152449.3            0   -1152449.3 6.9208174e-07 2.3459873e-07 -2.0034447e-07 
Loop time of 2.80154 on 104 procs for 233 steps with 288751 atoms

99.9% CPU use with 104 MPI tasks x 1 OpenMP threads

Minimization stats:
  Stopping criterion = energy tolerance
  Energy initial, next-to-last, final = 
     -1152449.34227621  -1152449.34332786  -1152449.34332786
  Force two-norm initial, final = 0.14183125 1.5560338e-05
  Force max component initial, final = 0.06122239 2.4437993e-06
  Final line search alpha, max atom move = 1.0000000 2.4437993e-06
  Iterations, force evaluations = 233 466

MPI task timing breakdown:
Section |  min time  |  avg time  |  max time  |%varavg| %total
---------------------------------------------------------------
Pair    | 0.70974    | 1.9642     | 2.6346     |  37.9 | 70.11
Neigh   | 0          | 0          | 0          |   0.0 |  0.00
Comm    | 0.042185   | 0.46133    | 1.3566     |  53.3 | 16.47
Output  | 0.00018352 | 0.00018616 | 0.00034444 |   0.0 |  0.01
Modify  | 2.9309e-05 | 0.0038456  | 0.0081669  |   2.9 |  0.14
Other   |            | 0.372      |            |       | 13.28

Nlocal:        2776.45 ave        3960 max           0 min
Histogram: 8 4 4 0 4 12 8 2 28 34
Nghost:        3879.07 ave        5424 max         232 min
Histogram: 8 0 8 0 16 0 8 8 16 40
Neighs:        79213.4 ave      115433 max           0 min
Histogram: 8 4 4 0 10 6 8 8 24 32

Total # of neighbors = 8238191
Ave neighs/atom = 28.530433
Neighbor list builds = 0
Dangerous builds = 0
The dot product: 2.13053530632736e-09
Setting atom values ...
  1 settings made for x
  1 settings made for y
  1 settings made for z
Setting up cg style minimization ...
  Unit style    : metal
  Current step  : 18134
Per MPI rank memory allocation (min/avg/max) = 5.441 | 5.816 | 6.074 Mbytes
Step PotEng KinEng TotEng v_fx v_fy v_fz 
   18134   -1152449.3            0   -1152449.3  0.044407594  0.023411117 -0.00053272207 
   18411   -1152449.3            0   -1152449.3 -1.8384896e-07 -8.9630094e-08 1.3061348e-08 
Loop time of 3.25743 on 104 procs for 277 steps with 288751 atoms

99.9% CPU use with 104 MPI tasks x 1 OpenMP threads

Minimization stats:
  Stopping criterion = energy tolerance
  Energy initial, next-to-last, final = 
     -1152449.34645233  -1152449.34751537  -1152449.34751537
  Force two-norm initial, final = 0.14219692 1.3739195e-06
  Force max component initial, final = 0.062844612 1.8913194e-07
  Final line search alpha, max atom move = 1.0000000 1.8913194e-07
  Iterations, force evaluations = 277 554

MPI task timing breakdown:
Section |  min time  |  avg time  |  max time  |%varavg| %total
---------------------------------------------------------------
Pair    | 0.83645    | 2.3276     | 3.0572     |  41.3 | 71.46
Neigh   | 0          | 0          | 0          |   0.0 |  0.00
Comm    | 0.050025   | 0.53494    | 1.596      |  59.2 | 16.42
Output  | 0          | 0          | 0          |   0.0 |  0.00
Modify  | 3.3082e-05 | 0.0045736  | 0.0097418  |   3.2 |  0.14
Other   |            | 0.3903     |            |       | 11.98

Nlocal:        2776.45 ave        3960 max           0 min
Histogram: 8 4 4 0 4 12 8 2 28 34
Nghost:        3878.99 ave        5424 max         232 min
Histogram: 8 0 8 0 16 0 8 8 16 40
Neighs:        79213.4 ave      115433 max           0 min
Histogram: 8 4 4 0 10 6 8 8 24 32

Total # of neighbors = 8238189
Ave neighs/atom = 28.530426
Neighbor list builds = 0
Dangerous builds = 0
The dot product: -6.27199852752802e-10
Setting atom values ...
  1 settings made for x
  1 settings made for y
  1 settings made for z
Setting up cg style minimization ...
  Unit style    : metal
  Current step  : 18411
Per MPI rank memory allocation (min/avg/max) = 5.441 | 5.816 | 6.074 Mbytes
Step PotEng KinEng TotEng v_fx v_fy v_fz 
   18411   -1152449.3            0   -1152449.3  0.044026504  0.022201787 -0.0021603422 
   18646   -1152449.4            0   -1152449.4 1.9859317e-06 1.9532364e-06 1.3177183e-06 
Loop time of 2.83108 on 104 procs for 235 steps with 288751 atoms

99.9% CPU use with 104 MPI tasks x 1 OpenMP threads

Minimization stats:
  Stopping criterion = energy tolerance
  Energy initial, next-to-last, final = 
     -1152449.34915707  -1152449.35023017  -1152449.35023017
  Force two-norm initial, final = 0.14237158 1.3972376e-05
  Force max component initial, final = 0.064418772 2.0789953e-06
  Final line search alpha, max atom move = 1.0000000 2.0789953e-06
  Iterations, force evaluations = 235 470

MPI task timing breakdown:
Section |  min time  |  avg time  |  max time  |%varavg| %total
---------------------------------------------------------------
Pair    | 0.71545    | 1.9828     | 2.6684     |  38.1 | 70.04
Neigh   | 0          | 0          | 0          |   0.0 |  0.00
Comm    | 0.039932   | 0.46423    | 1.3452     |  53.9 | 16.40
Output  | 0          | 0          | 0          |   0.0 |  0.00
Modify  | 2.9171e-05 | 0.003869   | 0.0082333  |   2.9 |  0.14
Other   |            | 0.3802     |            |       | 13.43

Nlocal:        2776.45 ave        3960 max           0 min
Histogram: 8 4 4 0 4 12 8 2 28 34
Nghost:        3879.01 ave        5424 max         232 min
Histogram: 8 0 8 0 16 0 8 8 16 40
Neighs:        79213.3 ave      115433 max           0 min
Histogram: 8 4 4 0 10 6 8 8 24 32

Total # of neighbors = 8238188
Ave neighs/atom = 28.530422
Neighbor list builds = 0
Dangerous builds = 0
The dot product: 8.54625832479466e-09
Setting atom values ...
  1 settings made for x
  1 settings made for y
  1 settings made for z
Setting up cg style minimization ...
  Unit style    : metal
  Current step  : 18646
Per MPI rank memory allocation (min/avg/max) = 5.441 | 5.816 | 6.074 Mbytes
Step PotEng KinEng TotEng v_fx v_fy v_fz 
   18646   -1152449.4            0   -1152449.4  0.043477366  0.020853571 -0.0038516626 
   18821   -1152449.4            0   -1152449.4 -2.4382342e-06 2.121978e-05 3.3470586e-05 
Loop time of 2.05932 on 104 procs for 175 steps with 288751 atoms

99.9% CPU use with 104 MPI tasks x 1 OpenMP threads

Minimization stats:
  Stopping criterion = energy tolerance
  Energy initial, next-to-last, final = 
     -1152449.35039878   -1152449.3514792   -1152449.3514792
  Force two-norm initial, final = 0.14244795 0.00015965083
  Force max component initial, final = 0.065934927 3.3470586e-05
  Final line search alpha, max atom move = 1.0000000 3.3470586e-05
  Iterations, force evaluations = 175 350

MPI task timing breakdown:
Section |  min time  |  avg time  |  max time  |%varavg| %total
---------------------------------------------------------------
Pair    | 0.52586    | 1.4699     | 1.9419     |  32.9 | 71.38
Neigh   | 0          | 0          | 0          |   0.0 |  0.00
Comm    | 0.02977    | 0.33821    | 1.0077     |  47.1 | 16.42
Output  | 0          | 0          | 0          |   0.0 |  0.00
Modify  | 2.1598e-05 | 0.0028992  | 0.0061607  |   2.5 |  0.14
Other   |            | 0.2483     |            |       | 12.06

Nlocal:        2776.45 ave        3960 max           0 min
Histogram: 8 4 4 0 4 12 8 2 28 34
Nghost:        3879.01 ave        5424 max         232 min
Histogram: 8 0 8 0 16 0 8 8 16 40
Neighs:        79213.4 ave      115433 max           0 min
Histogram: 8 4 4 0 10 6 8 8 24 32

Total # of neighbors = 8238189
Ave neighs/atom = 28.530426
Neighbor list builds = 0
Dangerous builds = 0
The dot product: 2.9349136686822e-08
Setting atom values ...
  1 settings made for x
  1 settings made for y
  1 settings made for z
Setting up cg style minimization ...
  Unit style    : metal
  Current step  : 18821
Per MPI rank memory allocation (min/avg/max) = 5.441 | 5.816 | 6.074 Mbytes
Step PotEng KinEng TotEng v_fx v_fy v_fz 
   18821   -1152449.4            0   -1152449.4  0.043136021  0.019830499 -0.0052172727 
   19000   -1152449.4            0   -1152449.4 8.799199e-06 3.0803564e-05 3.864183e-05 
   19144   -1152449.4            0   -1152449.4 -3.2114021e-08 -5.0807069e-10 2.5037376e-08 
Loop time of 3.80016 on 104 procs for 323 steps with 288751 atoms

99.9% CPU use with 104 MPI tasks x 1 OpenMP threads

Minimization stats:
  Stopping criterion = energy tolerance
  Energy initial, next-to-last, final = 
     -1152449.35019782  -1152449.35128289  -1152449.35128289
  Force two-norm initial, final = 0.14247403 3.3784508e-07
  Force max component initial, final = 0.067378256 4.8888239e-08
  Final line search alpha, max atom move = 1.0000000 4.8888239e-08
  Iterations, force evaluations = 323 646

MPI task timing breakdown:
Section |  min time  |  avg time  |  max time  |%varavg| %total
---------------------------------------------------------------
Pair    | 0.97334    | 2.7156     | 3.5759     |  44.6 | 71.46
Neigh   | 0          | 0          | 0          |   0.0 |  0.00
Comm    | 0.055758   | 0.62413    | 1.8417     |  64.1 | 16.42
Output  | 0.00024208 | 0.00024746 | 0.00042098 |   0.0 |  0.01
Modify  | 3.9273e-05 | 0.0053317  | 0.01134    |   3.4 |  0.14
Other   |            | 0.4549     |            |       | 11.97

Nlocal:        2776.45 ave        3960 max           0 min
Histogram: 8 4 4 0 4 12 8 2 28 34
Nghost:        3879.01 ave        5424 max         232 min
Histogram: 8 0 8 0 16 0 8 8 16 40
Neighs:        79213.4 ave      115413 max           0 min
Histogram: 8 4 4 0 10 6 8 8 24 32

Total # of neighbors = 8238192
Ave neighs/atom = 28.530436
Neighbor list builds = 0
Dangerous builds = 0
The dot product: -8.165005668292e-11
Setting up cg style minimization ...
  Unit style    : metal
  Current step  : 19144
Per MPI rank memory allocation (min/avg/max) = 5.441 | 5.816 | 6.074 Mbytes
Step PotEng KinEng TotEng v_fx v_fy v_fz 
   19144   -1152449.4            0   -1152449.4  -0.01852112  0.034220407 -0.023061506 
   19299   -1152449.4            0   -1152449.4 -1.086667e-05 4.2279259e-06 3.1111344e-05 
Loop time of 1.83786 on 104 procs for 155 steps with 288751 atoms

99.9% CPU use with 104 MPI tasks x 1 OpenMP threads

Minimization stats:
  Stopping criterion = energy tolerance
  Energy initial, next-to-last, final = 
     -1152449.35128289   -1152449.3515731   -1152449.3515731
  Force two-norm initial, final = 0.045231639 0.00017235364
  Force max component initial, final = 0.034220407 3.1111344e-05
  Final line search alpha, max atom move = 1.0000000 3.1111344e-05
  Iterations, force evaluations = 155 310

MPI task timing breakdown:
Section |  min time  |  avg time  |  max time  |%varavg| %total
---------------------------------------------------------------
Pair    | 0.4666     | 1.3036     | 1.7263     |  30.9 | 70.93
Neigh   | 0          | 0          | 0          |   0.0 |  0.00
Comm    | 0.026749   | 0.3012     | 0.89527    |  44.5 | 16.39
Output  | 0          | 0          | 0          |   0.0 |  0.00
Modify  | 1.7843e-05 | 0.0016726  | 0.0042662  |   2.5 |  0.09
Other   |            | 0.2314     |            |       | 12.59

Nlocal:        2776.45 ave        3960 max           0 min
Histogram: 8 4 4 0 4 12 8 2 28 34
Nghost:        3879.03 ave        5424 max         232 min
Histogram: 8 0 8 0 16 0 8 8 16 40
Neighs:        79213.4 ave      115413 max           0 min
Histogram: 8 4 4 0 10 6 8 8 24 32

Total # of neighbors = 8238191
Ave neighs/atom = 28.530433
Neighbor list builds = 0
Dangerous builds = 0
