LAMMPS (29 Oct 2020)
OMP_NUM_THREADS environment is not set. Defaulting to 1 thread. (../comm.cpp:94)
  using 1 OpenMP thread(s) per MPI task
OMP_NUM_THREADS environment is not set. Defaulting to 1 thread. (../comm.cpp:94)
  using 1 OpenMP thread(s) per MPI task
Reading data file ...
  orthogonal box = (-122.39241 -121.13707 -37.090501) to (122.39241 121.13707 37.090501)
  13 by 4 by 1 MPI processor grid
  reading atoms ...
  288751 atoms
  read_data CPU = 0.453 seconds
199981 atoms in group inner
88770 atoms in group outer
1 atoms in group carbon
Neighbor list info ...
  update every 1 steps, delay 0 steps, check yes
  max neighbors/atom: 2000, page size: 100000
  master list distance cutoff = 5.6
  ghost atom cutoff = 5.6
  binsize = 2.8, bins = 88 87 27
  1 neighbor lists, perpetual/occasional/extra = 1 0 0
  (1) pair eam/alloy, perpetual
      attributes: half, newton on
      pair build: half/bin/atomonly/newton
      stencil: half/bin/3d/newton
      bin: standard
Setting up cg style minimization ...
  Unit style    : metal
  Current step  : 0
Per MPI rank memory allocation (min/avg/max) = 5.465 | 6.344 | 6.728 Mbytes
Step v_fx v_fy v_fz PotEng KinEng TotEng 
       0  0.027306334   0.12471649  0.010953616   -1152444.6            0   -1152444.6 
     255 1.2110301e-06 -3.6892401e-07 -3.906249e-06     -1152449            0     -1152449 
Loop time of 5.63313 on 52 procs for 255 steps with 288751 atoms

99.9% CPU use with 52 MPI tasks x 1 OpenMP threads

Minimization stats:
  Stopping criterion = energy tolerance
  Energy initial, next-to-last, final = 
     -1152444.63020998  -1152448.97218897  -1152448.97218897
  Force two-norm initial, final = 23.793793 0.00012744308
  Force max component initial, final = 13.975183 2.5964787e-05
  Final line search alpha, max atom move = 1.0000000 2.5964787e-05
  Iterations, force evaluations = 255 507

MPI task timing breakdown:
Section |  min time  |  avg time  |  max time  |%varavg| %total
---------------------------------------------------------------
Pair    | 1.5213     | 4.0703     | 5.3195     |  54.5 | 72.26
Neigh   | 0.00018387 | 0.05459    | 0.081695   |   9.9 |  0.97
Comm    | 0.077589   | 0.90657    | 2.8634     |  84.5 | 16.09
Output  | 0          | 0          | 0          |   0.0 |  0.00
Modify  | 8.2372e-05 | 0.0055972  | 0.014096   |   4.6 |  0.10
Other   |            | 0.5961     |            |       | 10.58

Nlocal:        5552.90 ave        7900 max           0 min
Histogram: 4 2 2 0 2 6 4 0 14 18
Nghost:        6213.69 ave        8770 max         412 min
Histogram: 4 0 4 0 8 0 4 5 7 20
Neighs:       158427.0 ave      230164 max           0 min
Histogram: 4 2 2 0 5 3 4 4 12 16

Total # of neighbors = 8238207
Ave neighs/atom = 28.530488
Neighbor list builds = 9
Dangerous builds = 0
Setting atom values ...
  1 settings made for x
  1 settings made for y
  1 settings made for z
Setting up cg style minimization ...
  Unit style    : metal
  Current step  : 255
Per MPI rank memory allocation (min/avg/max) = 5.465 | 6.344 | 6.728 Mbytes
Step PotEng KinEng TotEng v_fx v_fy v_fz 
     255     -1152449            0     -1152449 -0.0092244001 -0.0083435668 0.00033366954 
     542     -1152449            0     -1152449 6.9710707e-05 1.872285e-05 -8.6686838e-05 
Loop time of 6.33423 on 52 procs for 287 steps with 288751 atoms

99.9% CPU use with 52 MPI tasks x 1 OpenMP threads

Minimization stats:
  Stopping criterion = energy tolerance
  Energy initial, next-to-last, final = 
     -1152448.96783107  -1152448.97090983  -1152448.97090983
  Force two-norm initial, final = 0.22568331 0.00026377785
  Force max component initial, final = 0.10759091 8.6686838e-05
  Final line search alpha, max atom move = 1.0000000 8.6686838e-05
  Iterations, force evaluations = 287 574

MPI task timing breakdown:
Section |  min time  |  avg time  |  max time  |%varavg| %total
---------------------------------------------------------------
Pair    | 1.6202     | 4.5783     | 6.0817     |  60.0 | 72.28
Neigh   | 0          | 0          | 0          |   0.0 |  0.00
Comm    | 0.078164   | 1.0319     | 3.1891     |  89.7 | 16.29
Output  | 0          | 0          | 0          |   0.0 |  0.00
Modify  | 9.8104e-05 | 0.009603   | 0.020882   |   4.7 |  0.15
Other   |            | 0.7144     |            |       | 11.28

Nlocal:        5552.90 ave        7900 max           0 min
Histogram: 4 2 2 0 2 6 4 0 14 18
Nghost:        6213.69 ave        8769 max         412 min
Histogram: 4 0 4 0 8 0 4 5 7 20
Neighs:       158427.0 ave      230187 max           0 min
Histogram: 4 2 2 0 5 3 4 4 12 16

Total # of neighbors = 8238205
Ave neighs/atom = 28.530481
Neighbor list builds = 0
Dangerous builds = 0
Setting atom values ...
  1 settings made for x
  1 settings made for y
  1 settings made for z
Setting up cg style minimization ...
  Unit style    : metal
  Current step  : 542
Per MPI rank memory allocation (min/avg/max) = 5.465 | 6.344 | 6.728 Mbytes
Step PotEng KinEng TotEng v_fx v_fy v_fz 
     542     -1152449            0     -1152449  0.007155455  0.022013385  0.011276911 
     707     -1152449            0     -1152449 -0.00013206074 -9.949578e-06 0.00010351111 
Loop time of 3.59607 on 52 procs for 165 steps with 288751 atoms

99.9% CPU use with 52 MPI tasks x 1 OpenMP threads

Minimization stats:
  Stopping criterion = energy tolerance
  Energy initial, next-to-last, final = 
      -1152448.9671614   -1152448.9690575   -1152448.9690575
  Force two-norm initial, final = 0.1583366 0.00041776799
  Force max component initial, final = 0.080478473 0.00013585427
  Final line search alpha, max atom move = 1.0000000 0.00013585427
  Iterations, force evaluations = 165 330

MPI task timing breakdown:
Section |  min time  |  avg time  |  max time  |%varavg| %total
---------------------------------------------------------------
Pair    | 0.93817    | 2.6285     | 3.448      |  45.0 | 73.09
Neigh   | 0          | 0          | 0          |   0.0 |  0.00
Comm    | 0.045579   | 0.58259    | 1.8297     |  68.7 | 16.20
Output  | 0          | 0          | 0          |   0.0 |  0.00
Modify  | 6.0392e-05 | 0.0055801  | 0.011932   |   3.5 |  0.16
Other   |            | 0.3794     |            |       | 10.55

Nlocal:        5552.90 ave        7900 max           0 min
Histogram: 4 2 2 0 2 6 4 0 14 18
Nghost:        6213.73 ave        8770 max         412 min
Histogram: 4 0 4 0 8 0 4 5 7 20
Neighs:       158427.0 ave      230212 max           0 min
Histogram: 4 2 2 0 5 3 4 4 12 16

Total # of neighbors = 8238200
Ave neighs/atom = 28.530464
Neighbor list builds = 0
Dangerous builds = 0
The dot product: 1.87181375100005e-06
Setting atom values ...
  1 settings made for x
  1 settings made for y
  1 settings made for z
Setting up cg style minimization ...
  Unit style    : metal
  Current step  : 707
Per MPI rank memory allocation (min/avg/max) = 5.465 | 6.344 | 6.728 Mbytes
Step PotEng KinEng TotEng v_fx v_fy v_fz 
     707     -1152449            0     -1152449  0.018610465  0.043269684 0.0060430566 
     888     -1152449            0     -1152449 -2.8732268e-05 4.275591e-07 1.4495106e-05 
Loop time of 4.032 on 52 procs for 181 steps with 288751 atoms

99.9% CPU use with 52 MPI tasks x 1 OpenMP threads

Minimization stats:
  Stopping criterion = energy tolerance
  Energy initial, next-to-last, final = 
      -1152448.9644524  -1152448.96699882  -1152448.96699882
  Force two-norm initial, final = 0.16829816 0.00010081915
  Force max component initial, final = 0.092674926 2.8732268e-05
  Final line search alpha, max atom move = 1.0000000 2.8732268e-05
  Iterations, force evaluations = 181 364

MPI task timing breakdown:
Section |  min time  |  avg time  |  max time  |%varavg| %total
---------------------------------------------------------------
Pair    | 1.0171     | 2.9071     | 3.8617     |  47.6 | 72.10
Neigh   | 0          | 0          | 0          |   0.0 |  0.00
Comm    | 0.046204   | 0.65314    | 2.0412     |  72.1 | 16.20
Output  | 0          | 0          | 0          |   0.0 |  0.00
Modify  | 5.859e-05  | 0.0060115  | 0.012957   |   3.6 |  0.15
Other   |            | 0.4657     |            |       | 11.55

Nlocal:        5552.90 ave        7900 max           0 min
Histogram: 4 2 2 0 2 6 4 0 14 18
Nghost:        6213.77 ave        8770 max         412 min
Histogram: 4 0 4 0 8 0 4 5 7 20
Neighs:       158427.0 ave      230202 max           0 min
Histogram: 4 2 2 0 5 3 4 4 12 16

Total # of neighbors = 8238204
Ave neighs/atom = 28.530478
Neighbor list builds = 0
Dangerous builds = 0
The dot product: 9.68522373613171e-07
Setting atom values ...
  1 settings made for x
  1 settings made for y
  1 settings made for z
Setting up cg style minimization ...
  Unit style    : metal
  Current step  : 888
Per MPI rank memory allocation (min/avg/max) = 5.465 | 6.344 | 6.728 Mbytes
Step PotEng KinEng TotEng v_fx v_fy v_fz 
     888     -1152449            0     -1152449  0.022675137  0.047763861 0.0025189664 
    1000     -1152449            0     -1152449 7.0288141e-05 6.2902947e-06 -5.2197806e-06 
    1032     -1152449            0     -1152449 -1.7725731e-05 -2.5220855e-07 1.4389608e-06 
Loop time of 3.16417 on 52 procs for 144 steps with 288751 atoms

99.9% CPU use with 52 MPI tasks x 1 OpenMP threads

Minimization stats:
  Stopping criterion = linesearch alpha is zero
  Energy initial, next-to-last, final = 
     -1152448.96250287  -1152448.96547373  -1152448.96547373
  Force two-norm initial, final = 0.18931085 0.00018159125
  Force max component initial, final = 0.086080004 3.2435930e-05
  Final line search alpha, max atom move = 0.25 8.1089826e-06
  Iterations, force evaluations = 144 291

MPI task timing breakdown:
Section |  min time  |  avg time  |  max time  |%varavg| %total
---------------------------------------------------------------
Pair    | 0.82542    | 2.3172     | 3.0403     |  42.2 | 73.23
Neigh   | 0          | 0          | 0          |   0.0 |  0.00
Comm    | 0.038064   | 0.5117     | 1.6236     |  64.8 | 16.17
Output  | 0.00018986 | 0.00019458 | 0.00036634 |   0.0 |  0.01
Modify  | 4.7144e-05 | 0.004887   | 0.010624   |   3.3 |  0.15
Other   |            | 0.3302     |            |       | 10.44

Nlocal:        5552.90 ave        7902 max           0 min
Histogram: 4 2 2 0 2 6 4 0 15 17
Nghost:        6213.69 ave        8769 max         412 min
Histogram: 4 0 4 0 8 0 4 5 7 20
Neighs:       158427.0 ave      230248 max           0 min
Histogram: 4 2 2 0 5 3 4 4 12 16

Total # of neighbors = 8238211
Ave neighs/atom = 28.530502
Neighbor list builds = 0
Dangerous builds = 0
The dot product: 3.88338562285701e-07
Setting atom values ...
  1 settings made for x
  1 settings made for y
  1 settings made for z
Setting up cg style minimization ...
  Unit style    : metal
  Current step  : 1032
Per MPI rank memory allocation (min/avg/max) = 5.465 | 6.344 | 6.728 Mbytes
Step PotEng KinEng TotEng v_fx v_fy v_fz 
    1032     -1152449            0     -1152449  0.042297453   0.03775297 0.0056378298 
    1185     -1152449            0     -1152449 5.4463691e-05 -2.4320475e-07 7.2048468e-06 
Loop time of 3.37898 on 52 procs for 153 steps with 288751 atoms

99.9% CPU use with 52 MPI tasks x 1 OpenMP threads

Minimization stats:
  Stopping criterion = energy tolerance
  Energy initial, next-to-last, final = 
     -1152448.96089214   -1152448.9641535   -1152448.9641535
  Force two-norm initial, final = 0.20450161 0.00034804139
  Force max component initial, final = 0.097691624 8.7632145e-05
  Final line search alpha, max atom move = 1.0000000 8.7632145e-05
  Iterations, force evaluations = 153 306

MPI task timing breakdown:
Section |  min time  |  avg time  |  max time  |%varavg| %total
---------------------------------------------------------------
Pair    | 0.86654    | 2.4441     | 3.2414     |  43.7 | 72.33
Neigh   | 0          | 0          | 0          |   0.0 |  0.00
Comm    | 0.042331   | 0.55071    | 1.7107     |  65.6 | 16.30
Output  | 0          | 0          | 0          |   0.0 |  0.00
Modify  | 5.6464e-05 | 0.0051254  | 0.011108   |   3.4 |  0.15
Other   |            | 0.379      |            |       | 11.22

Nlocal:        5552.90 ave        7902 max           0 min
Histogram: 4 2 2 0 2 6 4 0 15 17
Nghost:        6213.62 ave        8769 max         412 min
Histogram: 4 0 4 0 8 0 4 5 7 20
Neighs:       158427.0 ave      230285 max           0 min
Histogram: 4 2 2 0 5 3 4 4 12 16

Total # of neighbors = 8238213
Ave neighs/atom = 28.530509
Neighbor list builds = 0
Dangerous builds = 0
The dot product: -7.58385300677935e-07
Setting atom values ...
  1 settings made for x
  1 settings made for y
  1 settings made for z
Setting up cg style minimization ...
  Unit style    : metal
  Current step  : 1185
Per MPI rank memory allocation (min/avg/max) = 5.465 | 6.344 | 6.728 Mbytes
Step PotEng KinEng TotEng v_fx v_fy v_fz 
    1185     -1152449            0     -1152449  0.052855005  0.031846775  0.012426246 
    1322     -1152449            0     -1152449 -2.4301376e-06 1.030388e-06 -6.2314117e-07 
Loop time of 3.05337 on 52 procs for 137 steps with 288751 atoms

99.9% CPU use with 52 MPI tasks x 1 OpenMP threads

Minimization stats:
  Stopping criterion = linesearch alpha is zero
  Energy initial, next-to-last, final = 
     -1152448.95999109  -1152448.96251767  -1152448.96251767
  Force two-norm initial, final = 0.21466755 0.00022031328
  Force max component initial, final = 0.10941123 2.7649978e-05
  Final line search alpha, max atom move = 0.25 6.9124945e-06
  Iterations, force evaluations = 137 277

MPI task timing breakdown:
Section |  min time  |  avg time  |  max time  |%varavg| %total
---------------------------------------------------------------
Pair    | 0.78446    | 2.2119     | 2.9242     |  41.5 | 72.44
Neigh   | 0          | 0          | 0          |   0.0 |  0.00
Comm    | 0.036902   | 0.49175    | 1.5707     |  62.7 | 16.11
Output  | 0          | 0          | 0          |   0.0 |  0.00
Modify  | 4.5382e-05 | 0.0046353  | 0.0098738  |   3.2 |  0.15
Other   |            | 0.3451     |            |       | 11.30

Nlocal:        5552.90 ave        7904 max           0 min
Histogram: 4 2 2 0 2 6 4 0 15 17
Nghost:        6213.58 ave        8769 max         412 min
Histogram: 4 0 4 0 8 0 4 5 7 20
Neighs:       158427.0 ave      230329 max           0 min
Histogram: 4 2 2 0 5 3 4 4 12 16

Total # of neighbors = 8238213
Ave neighs/atom = 28.530509
Neighbor list builds = 0
Dangerous builds = 0
The dot product: -1.11663991408631e-09
Setting atom values ...
  1 settings made for x
  1 settings made for y
  1 settings made for z
Setting up cg style minimization ...
  Unit style    : metal
  Current step  : 1322
Per MPI rank memory allocation (min/avg/max) = 5.465 | 6.344 | 6.728 Mbytes
Step PotEng KinEng TotEng v_fx v_fy v_fz 
    1322     -1152449            0     -1152449  0.063505349  0.033435698  0.013986779 
    1522     -1152449            0     -1152449 -1.0246402e-05 -1.1616903e-06 -2.403253e-06 
Loop time of 4.4228 on 52 procs for 200 steps with 288751 atoms

99.9% CPU use with 52 MPI tasks x 1 OpenMP threads

Minimization stats:
  Stopping criterion = linesearch alpha is zero
  Energy initial, next-to-last, final = 
      -1152448.9577429  -1152448.96021648  -1152448.96021648
  Force two-norm initial, final = 0.2170655 9.1257287e-05
  Force max component initial, final = 0.1093626 2.0604611e-05
  Final line search alpha, max atom move = 0.5 1.0302305e-05
  Iterations, force evaluations = 200 401

MPI task timing breakdown:
Section |  min time  |  avg time  |  max time  |%varavg| %total
---------------------------------------------------------------
Pair    | 1.1277     | 3.2016     | 4.2536     |  50.1 | 72.39
Neigh   | 0          | 0          | 0          |   0.0 |  0.00
Comm    | 0.050585   | 0.7201     | 2.24       |  75.3 | 16.28
Output  | 0          | 0          | 0          |   0.0 |  0.00
Modify  | 5.5332e-05 | 0.0066362  | 0.01401    |   3.8 |  0.15
Other   |            | 0.4944     |            |       | 11.18

Nlocal:        5552.90 ave        7905 max           0 min
Histogram: 4 2 2 0 2 6 4 0 15 17
Nghost:        6213.54 ave        8769 max         412 min
Histogram: 4 0 4 0 8 0 4 5 7 20
Neighs:       158427.0 ave      230377 max           0 min
Histogram: 4 2 2 0 5 3 4 4 12 16

Total # of neighbors = 8238210
Ave neighs/atom = 28.530499
Neighbor list builds = 0
Dangerous builds = 0
The dot product: -5.35255761398023e-08
Setting atom values ...
  1 settings made for x
  1 settings made for y
  1 settings made for z
Setting up cg style minimization ...
  Unit style    : metal
  Current step  : 1522
Per MPI rank memory allocation (min/avg/max) = 5.465 | 6.344 | 6.728 Mbytes
Step PotEng KinEng TotEng v_fx v_fy v_fz 
    1522     -1152449            0     -1152449  0.070211982   0.03551354  0.012865392 
    1681     -1152449            0     -1152449 7.9195947e-07 -1.9671731e-07 1.7376791e-07 
Loop time of 3.45725 on 52 procs for 159 steps with 288751 atoms

99.9% CPU use with 52 MPI tasks x 1 OpenMP threads

Minimization stats:
  Stopping criterion = energy tolerance
  Energy initial, next-to-last, final = 
     -1152448.95490721  -1152448.95750787  -1152448.95750787
  Force two-norm initial, final = 0.21692183 0.00015696429
  Force max component initial, final = 0.10705819 2.4869512e-05
  Final line search alpha, max atom move = 1.0000000 2.4869512e-05
  Iterations, force evaluations = 159 318

MPI task timing breakdown:
Section |  min time  |  avg time  |  max time  |%varavg| %total
---------------------------------------------------------------
Pair    | 0.90222    | 2.5338     | 3.3222     |  44.1 | 73.29
Neigh   | 0          | 0          | 0          |   0.0 |  0.00
Comm    | 0.041647   | 0.55906    | 1.7787     |  67.8 | 16.17
Output  | 0          | 0          | 0          |   0.0 |  0.00
Modify  | 5.2606e-05 | 0.0053289  | 0.011168   |   3.4 |  0.15
Other   |            | 0.3591     |            |       | 10.39

Nlocal:        5552.90 ave        7906 max           0 min
Histogram: 4 2 2 0 2 6 4 0 15 17
Nghost:        6213.62 ave        8769 max         412 min
Histogram: 4 0 4 0 8 0 4 5 7 20
Neighs:       158427.0 ave      230406 max           0 min
Histogram: 4 2 2 0 5 3 4 4 12 16

Total # of neighbors = 8238205
Ave neighs/atom = 28.530481
Neighbor list builds = 0
Dangerous builds = 0
The dot product: 3.08925502342106e-09
Setting atom values ...
  1 settings made for x
  1 settings made for y
  1 settings made for z
Setting up cg style minimization ...
  Unit style    : metal
  Current step  : 1681
Per MPI rank memory allocation (min/avg/max) = 5.465 | 6.344 | 6.728 Mbytes
Step PotEng KinEng TotEng v_fx v_fy v_fz 
    1681     -1152449            0     -1152449   0.07335082  0.037273612  0.011127054 
    1874     -1152449            0     -1152449 -1.125414e-05 -1.0456206e-06 -1.9925029e-06 
Loop time of 4.30398 on 52 procs for 193 steps with 288751 atoms

99.9% CPU use with 52 MPI tasks x 1 OpenMP threads

Minimization stats:
  Stopping criterion = linesearch alpha is zero
  Energy initial, next-to-last, final = 
     -1152448.95184416  -1152448.95412862  -1152448.95412862
  Force two-norm initial, final = 0.21606783 0.00010467483
  Force max component initial, final = 0.10496475 2.6102962e-05
  Final line search alpha, max atom move = 0.5 1.3051481e-05
  Iterations, force evaluations = 193 389

MPI task timing breakdown:
Section |  min time  |  avg time  |  max time  |%varavg| %total
---------------------------------------------------------------
Pair    | 1.0961     | 3.1021     | 4.1281     |  49.0 | 72.08
Neigh   | 0          | 0          | 0          |   0.0 |  0.00
Comm    | 0.053124   | 0.69946    | 2.1754     |  74.2 | 16.25
Output  | 0          | 0          | 0          |   0.0 |  0.00
Modify  | 6.6822e-05 | 0.0064739  | 0.0136     |   3.7 |  0.15
Other   |            | 0.4959     |            |       | 11.52

Nlocal:        5552.90 ave        7906 max           0 min
Histogram: 4 2 2 0 2 6 4 0 15 17
Nghost:        6213.62 ave        8769 max         412 min
Histogram: 4 0 4 0 8 0 4 5 7 20
Neighs:       158427.0 ave      230426 max           0 min
Histogram: 4 2 2 0 5 3 4 4 12 16

Total # of neighbors = 8238204
Ave neighs/atom = 28.530478
Neighbor list builds = 0
Dangerous builds = 0
The dot product: -7.68580042214675e-08
Setting atom values ...
  1 settings made for x
  1 settings made for y
  1 settings made for z
Setting up cg style minimization ...
  Unit style    : metal
  Current step  : 1874
Per MPI rank memory allocation (min/avg/max) = 5.465 | 6.344 | 6.728 Mbytes
Step PotEng KinEng TotEng v_fx v_fy v_fz 
    1874   -1152448.9            0   -1152448.9  0.078380172  0.039150529 0.0088396075 
    2000   -1152448.9            0   -1152448.9 4.7569011e-05 6.3600991e-06 6.666768e-06 
    2056   -1152448.9            0   -1152448.9 -1.557732e-05 -1.7991972e-06 -2.2043674e-06 
Loop time of 4.01108 on 52 procs for 182 steps with 288751 atoms

99.9% CPU use with 52 MPI tasks x 1 OpenMP threads

Minimization stats:
  Stopping criterion = linesearch alpha is zero
  Energy initial, next-to-last, final = 
     -1152448.94772932   -1152448.9499604   -1152448.9499604
  Force two-norm initial, final = 0.21506578 0.00013630119
  Force max component initial, final = 0.10169479 3.0460297e-05
  Final line search alpha, max atom move = 0.5 1.5230148e-05
  Iterations, force evaluations = 182 367

MPI task timing breakdown:
Section |  min time  |  avg time  |  max time  |%varavg| %total
---------------------------------------------------------------
Pair    | 1.0351     | 2.9202     | 3.8434     |  47.6 | 72.80
Neigh   | 0          | 0          | 0          |   0.0 |  0.00
Comm    | 0.047471   | 0.6491     | 2.0408     |  72.5 | 16.18
Output  | 0.00012209 | 0.0001263  | 0.00030373 |   0.0 |  0.00
Modify  | 6.1708e-05 | 0.0061172  | 0.012878   |   3.6 |  0.15
Other   |            | 0.4355     |            |       | 10.86

Nlocal:        5552.90 ave        7906 max           0 min
Histogram: 4 2 2 0 2 6 4 0 15 17
Nghost:        6213.65 ave        8769 max         412 min
Histogram: 4 0 4 0 8 0 4 5 7 20
Neighs:       158427.0 ave      230437 max           0 min
Histogram: 4 2 2 0 5 3 4 4 12 16

Total # of neighbors = 8238201
Ave neighs/atom = 28.530467
Neighbor list builds = 0
Dangerous builds = 0
The dot product: -1.28280426455372e-07
Setting atom values ...
  1 settings made for x
  1 settings made for y
  1 settings made for z
Setting up cg style minimization ...
  Unit style    : metal
  Current step  : 2056
Per MPI rank memory allocation (min/avg/max) = 5.465 | 6.344 | 6.728 Mbytes
Step PotEng KinEng TotEng v_fx v_fy v_fz 
    2056   -1152448.9            0   -1152448.9  0.082400176  0.040209774 0.0059221707 
    2229   -1152448.9            0   -1152448.9 4.1900837e-05 6.2330427e-06 4.2562943e-06 
Loop time of 3.8354 on 52 procs for 173 steps with 288751 atoms

99.9% CPU use with 52 MPI tasks x 1 OpenMP threads

Minimization stats:
  Stopping criterion = linesearch alpha is zero
  Energy initial, next-to-last, final = 
     -1152448.94286661  -1152448.94505546  -1152448.94505546
  Force two-norm initial, final = 0.21331769 0.00015330877
  Force max component initial, final = 0.097619418 5.2441451e-05
  Final line search alpha, max atom move = 0.5 2.6220725e-05
  Iterations, force evaluations = 173 347

MPI task timing breakdown:
Section |  min time  |  avg time  |  max time  |%varavg| %total
---------------------------------------------------------------
Pair    | 0.97748    | 2.7686     | 3.6808     |  46.6 | 72.19
Neigh   | 0          | 0          | 0          |   0.0 |  0.00
Comm    | 0.044489   | 0.62573    | 1.9455     |  69.6 | 16.31
Output  | 0          | 0          | 0          |   0.0 |  0.00
Modify  | 5.2904e-05 | 0.0057845  | 0.012604   |   3.6 |  0.15
Other   |            | 0.4353     |            |       | 11.35

Nlocal:        5552.90 ave        7907 max           0 min
Histogram: 4 2 2 0 2 6 4 0 15 17
Nghost:        6213.65 ave        8769 max         412 min
Histogram: 4 0 4 0 8 0 4 5 7 20
Neighs:       158427.0 ave      230495 max           0 min
Histogram: 4 2 2 0 5 3 4 4 12 16

Total # of neighbors = 8238208
Ave neighs/atom = 28.530492
Neighbor list builds = 0
Dangerous builds = 0
The dot product: 3.59777983548169e-07
Setting atom values ...
  1 settings made for x
  1 settings made for y
  1 settings made for z
Setting up cg style minimization ...
  Unit style    : metal
  Current step  : 2229
Per MPI rank memory allocation (min/avg/max) = 5.465 | 6.344 | 6.728 Mbytes
Step PotEng KinEng TotEng v_fx v_fy v_fz 
    2229   -1152448.9            0   -1152448.9  0.084561241  0.041023927 0.0027526008 
    2380   -1152448.9            0   -1152448.9 1.7871507e-05 3.9884224e-06 1.0504972e-06 
Loop time of 3.35028 on 52 procs for 151 steps with 288751 atoms

99.9% CPU use with 52 MPI tasks x 1 OpenMP threads

Minimization stats:
  Stopping criterion = linesearch alpha is zero
  Energy initial, next-to-last, final = 
     -1152448.93728257   -1152448.9393541   -1152448.9393541
  Force two-norm initial, final = 0.21116075 0.00025235955
  Force max component initial, final = 0.093318634 3.9359804e-05
  Final line search alpha, max atom move = 0.125 4.9199755e-06
  Iterations, force evaluations = 151 307

MPI task timing breakdown:
Section |  min time  |  avg time  |  max time  |%varavg| %total
---------------------------------------------------------------
Pair    | 0.86765    | 2.4439     | 3.2209     |  43.5 | 72.95
Neigh   | 0          | 0          | 0          |   0.0 |  0.00
Comm    | 0.039581   | 0.54132    | 1.7155     |  66.4 | 16.16
Output  | 0          | 0          | 0          |   0.0 |  0.00
Modify  | 5.1115e-05 | 0.0051306  | 0.010844   |   3.3 |  0.15
Other   |            | 0.3599     |            |       | 10.74

Nlocal:        5552.90 ave        7908 max           0 min
Histogram: 4 2 2 0 2 6 4 0 15 17
Nghost:        6213.65 ave        8769 max         412 min
Histogram: 4 0 4 0 8 0 4 5 7 20
Neighs:       158427.0 ave      230521 max           0 min
Histogram: 4 2 2 0 5 3 4 4 12 16

Total # of neighbors = 8238202
Ave neighs/atom = 28.530471
Neighbor list builds = 0
Dangerous builds = 0
The dot product: 1.39065999503049e-07
Setting atom values ...
  1 settings made for x
  1 settings made for y
  1 settings made for z
Setting up cg style minimization ...
  Unit style    : metal
  Current step  : 2380
Per MPI rank memory allocation (min/avg/max) = 5.465 | 6.344 | 6.728 Mbytes
Step PotEng KinEng TotEng v_fx v_fy v_fz 
    2380   -1152448.9            0   -1152448.9   0.08426004  0.041998702 -0.00018835585 
    2533   -1152448.9            0   -1152448.9 -2.5230802e-05 -6.3014992e-07 -1.3071917e-06 
Loop time of 3.37643 on 52 procs for 153 steps with 288751 atoms

99.9% CPU use with 52 MPI tasks x 1 OpenMP threads

Minimization stats:
  Stopping criterion = energy tolerance
  Energy initial, next-to-last, final = 
     -1152448.93082666  -1152448.93280806  -1152448.93280806
  Force two-norm initial, final = 0.20879167 0.00020910076
  Force max component initial, final = 0.089541288 5.4073315e-05
  Final line search alpha, max atom move = 1.0000000 5.4073315e-05
  Iterations, force evaluations = 153 306

MPI task timing breakdown:
Section |  min time  |  avg time  |  max time  |%varavg| %total
---------------------------------------------------------------
Pair    | 0.86188    | 2.4482     | 3.2467     |  43.7 | 72.51
Neigh   | 0          | 0          | 0          |   0.0 |  0.00
Comm    | 0.038816   | 0.55094    | 1.7111     |  66.0 | 16.32
Output  | 0          | 0          | 0          |   0.0 |  0.00
Modify  | 5.1008e-05 | 0.0050655  | 0.010704   |   3.3 |  0.15
Other   |            | 0.3722     |            |       | 11.02

Nlocal:        5552.90 ave        7909 max           0 min
Histogram: 4 2 2 0 2 6 4 0 15 17
Nghost:        6213.62 ave        8769 max         412 min
Histogram: 4 0 4 0 8 0 4 5 7 20
Neighs:       158427.0 ave      230557 max           0 min
Histogram: 4 2 2 0 5 3 4 4 12 16

Total # of neighbors = 8238200
Ave neighs/atom = 28.530464
Neighbor list builds = 0
Dangerous builds = 0
The dot product: -1.57568081932564e-07
Setting atom values ...
  1 settings made for x
  1 settings made for y
  1 settings made for z
Setting up cg style minimization ...
  Unit style    : metal
  Current step  : 2533
Per MPI rank memory allocation (min/avg/max) = 5.465 | 6.344 | 6.728 Mbytes
Step PotEng KinEng TotEng v_fx v_fy v_fz 
    2533   -1152448.9            0   -1152448.9  0.083405786  0.036172332 -0.0019216647 
    2677   -1152448.9            0   -1152448.9 2.3416442e-05 5.3183181e-06 8.4823683e-08 
Loop time of 3.14005 on 52 procs for 144 steps with 288751 atoms

99.9% CPU use with 52 MPI tasks x 1 OpenMP threads

Minimization stats:
  Stopping criterion = energy tolerance
  Energy initial, next-to-last, final = 
     -1152448.92337187  -1152448.92526367  -1152448.92526367
  Force two-norm initial, final = 0.20503412 0.00028479395
  Force max component initial, final = 0.086111902 2.5443984e-05
  Final line search alpha, max atom move = 1.0000000 2.5443984e-05
  Iterations, force evaluations = 144 288

MPI task timing breakdown:
Section |  min time  |  avg time  |  max time  |%varavg| %total
---------------------------------------------------------------
Pair    | 0.81503    | 2.29       | 3.0135     |  42.1 | 72.93
Neigh   | 0          | 0          | 0          |   0.0 |  0.00
Comm    | 0.037694   | 0.50669    | 1.6102     |  64.2 | 16.14
Output  | 0          | 0          | 0          |   0.0 |  0.00
Modify  | 4.9631e-05 | 0.0048015  | 0.010351   |   3.3 |  0.15
Other   |            | 0.3386     |            |       | 10.78

Nlocal:        5552.90 ave        7909 max           0 min
Histogram: 4 2 2 0 2 6 4 0 15 17
Nghost:        6213.65 ave        8769 max         412 min
Histogram: 4 0 4 0 8 0 4 5 7 20
Neighs:       158427.0 ave      230559 max           0 min
Histogram: 4 2 2 0 5 3 4 4 12 16

Total # of neighbors = 8238199
Ave neighs/atom = 28.530461
Neighbor list builds = 0
Dangerous builds = 0
The dot product: 1.41794996645496e-07
Setting atom values ...
  1 settings made for x
  1 settings made for y
  1 settings made for z
Setting up cg style minimization ...
  Unit style    : metal
  Current step  : 2677
Per MPI rank memory allocation (min/avg/max) = 5.465 | 6.344 | 6.728 Mbytes
Step PotEng KinEng TotEng v_fx v_fy v_fz 
    2677   -1152448.9            0   -1152448.9  0.082780062  0.026226469 -0.0023854392 
    2843   -1152448.9            0   -1152448.9 4.1647276e-05 8.176485e-06 -5.060689e-07 
Loop time of 3.65958 on 52 procs for 166 steps with 288751 atoms

99.9% CPU use with 52 MPI tasks x 1 OpenMP threads

Minimization stats:
  Stopping criterion = energy tolerance
  Energy initial, next-to-last, final = 
     -1152448.91460352  -1152448.91647461  -1152448.91647461
  Force two-norm initial, final = 0.20208073 0.00014123305
  Force max component initial, final = 0.083898709 4.9324529e-05
  Final line search alpha, max atom move = 1.0000000 4.9324529e-05
  Iterations, force evaluations = 166 332

MPI task timing breakdown:
Section |  min time  |  avg time  |  max time  |%varavg| %total
---------------------------------------------------------------
Pair    | 0.93734    | 2.6482     | 3.5192     |  45.6 | 72.36
Neigh   | 0          | 0          | 0          |   0.0 |  0.00
Comm    | 0.042668   | 0.594      | 1.8523     |  68.3 | 16.23
Output  | 0          | 0          | 0          |   0.0 |  0.00
Modify  | 5.2608e-05 | 0.0055623  | 0.012331   |   3.5 |  0.15
Other   |            | 0.4118     |            |       | 11.25

Nlocal:        5552.90 ave        7909 max           0 min
Histogram: 4 2 2 0 2 6 4 0 15 17
Nghost:        6213.65 ave        8769 max         412 min
Histogram: 4 0 4 0 8 0 4 5 7 20
Neighs:       158427.0 ave      230564 max           0 min
Histogram: 4 2 2 0 5 3 4 4 12 16

Total # of neighbors = 8238198
Ave neighs/atom = 28.530457
Neighbor list builds = 0
Dangerous builds = 0
The dot product: 2.06474738928898e-07
Setting atom values ...
  1 settings made for x
  1 settings made for y
  1 settings made for z
Setting up cg style minimization ...
  Unit style    : metal
  Current step  : 2843
Per MPI rank memory allocation (min/avg/max) = 5.465 | 6.344 | 6.728 Mbytes
Step PotEng KinEng TotEng v_fx v_fy v_fz 
    2843   -1152448.9            0   -1152448.9  0.082437101  0.020518401 -0.0028831119 
    3000   -1152448.9            0   -1152448.9 -6.3318711e-05 -1.2812511e-05 1.7980887e-06 
    3005   -1152448.9            0   -1152448.9 2.057908e-05 5.5325977e-06 -7.7771679e-07 
Loop time of 3.58663 on 52 procs for 162 steps with 288751 atoms

99.9% CPU use with 52 MPI tasks x 1 OpenMP threads

Minimization stats:
  Stopping criterion = linesearch alpha is zero
  Energy initial, next-to-last, final = 
     -1152448.90446746   -1152448.9063315   -1152448.9063315
  Force two-norm initial, final = 0.20053896 0.00016999226
  Force max component initial, final = 0.082564725 5.4874740e-05
  Final line search alpha, max atom move = 0.25 1.3718685e-05
  Iterations, force evaluations = 162 327

MPI task timing breakdown:
Section |  min time  |  avg time  |  max time  |%varavg| %total
---------------------------------------------------------------
Pair    | 0.92662    | 2.602      | 3.4314     |  44.9 | 72.55
Neigh   | 0          | 0          | 0          |   0.0 |  0.00
Comm    | 0.046989   | 0.58124    | 1.8288     |  67.9 | 16.21
Output  | 0.00019711 | 0.00020196 | 0.00037517 |   0.0 |  0.01
Modify  | 6.29e-05   | 0.0054694  | 0.011537   |   3.4 |  0.15
Other   |            | 0.3977     |            |       | 11.09

Nlocal:        5552.90 ave        7909 max           0 min
Histogram: 4 2 2 0 2 6 4 0 15 17
Nghost:        6213.62 ave        8769 max         412 min
Histogram: 4 0 4 0 8 0 4 5 7 20
Neighs:       158427.0 ave      230557 max           0 min
Histogram: 4 2 2 0 5 3 4 4 12 16

Total # of neighbors = 8238198
Ave neighs/atom = 28.530457
Neighbor list builds = 0
Dangerous builds = 0
The dot product: 8.59997396745165e-08
Setting atom values ...
  1 settings made for x
  1 settings made for y
  1 settings made for z
Setting up cg style minimization ...
  Unit style    : metal
  Current step  : 3005
Per MPI rank memory allocation (min/avg/max) = 5.465 | 6.344 | 6.728 Mbytes
Step PotEng KinEng TotEng v_fx v_fy v_fz 
    3005   -1152448.9            0   -1152448.9   0.08195839  0.017071864 -0.0033978491 
    3172   -1152448.9            0   -1152448.9 2.002625e-05 4.8299473e-06 -9.2333757e-07 
Loop time of 3.70052 on 52 procs for 167 steps with 288751 atoms

99.9% CPU use with 52 MPI tasks x 1 OpenMP threads

Minimization stats:
  Stopping criterion = linesearch alpha is zero
  Energy initial, next-to-last, final = 
     -1152448.89296918  -1152448.89484066  -1152448.89484066
  Force two-norm initial, final = 0.199525 0.00015090769
  Force max component initial, final = 0.084130769 2.0026250e-05
  Final line search alpha, max atom move = 0.5 1.0013125e-05
  Iterations, force evaluations = 167 335

MPI task timing breakdown:
Section |  min time  |  avg time  |  max time  |%varavg| %total
---------------------------------------------------------------
Pair    | 0.93415    | 2.6689     | 3.5559     |  45.7 | 72.12
Neigh   | 0          | 0          | 0          |   0.0 |  0.00
Comm    | 0.042283   | 0.60015    | 1.869      |  69.0 | 16.22
Output  | 0          | 0          | 0          |   0.0 |  0.00
Modify  | 5.8977e-05 | 0.0055497  | 0.0117     |   3.5 |  0.15
Other   |            | 0.4259     |            |       | 11.51

Nlocal:        5552.90 ave        7910 max           0 min
Histogram: 4 2 2 0 2 6 4 0 15 17
Nghost:        6213.60 ave        8769 max         412 min
Histogram: 4 0 4 0 8 0 4 5 7 20
Neighs:       158427.0 ave      230598 max           0 min
Histogram: 4 2 2 0 5 3 4 4 12 16

Total # of neighbors = 8238200
Ave neighs/atom = 28.530464
Neighbor list builds = 0
Dangerous builds = 0
The dot product: 5.979307005142e-08
Setting atom values ...
  1 settings made for x
  1 settings made for y
  1 settings made for z
Setting up cg style minimization ...
  Unit style    : metal
  Current step  : 3172
Per MPI rank memory allocation (min/avg/max) = 5.465 | 6.344 | 6.728 Mbytes
Step PotEng KinEng TotEng v_fx v_fy v_fz 
    3172   -1152448.9            0   -1152448.9  0.080522062  0.014540987 -0.0036925063 
    3376   -1152448.9            0   -1152448.9 1.0118066e-05 1.654794e-06 -4.3979185e-07 
Loop time of 4.47057 on 52 procs for 204 steps with 288751 atoms

99.9% CPU use with 52 MPI tasks x 1 OpenMP threads

Minimization stats:
  Stopping criterion = linesearch alpha is zero
  Energy initial, next-to-last, final = 
     -1152448.88015898  -1152448.88212765  -1152448.88212765
  Force two-norm initial, final = 0.19864044 0.00010144344
  Force max component initial, final = 0.085577233 3.2290854e-05
  Final line search alpha, max atom move = 0.5 1.6145427e-05
  Iterations, force evaluations = 204 409

MPI task timing breakdown:
Section |  min time  |  avg time  |  max time  |%varavg| %total
---------------------------------------------------------------
Pair    | 1.154      | 3.2527     | 4.2978     |  50.2 | 72.76
Neigh   | 0          | 0          | 0          |   0.0 |  0.00
Comm    | 0.05258    | 0.72265    | 2.2646     |  76.1 | 16.16
Output  | 0          | 0          | 0          |   0.0 |  0.00
Modify  | 6.8957e-05 | 0.0068319  | 0.014482   |   3.9 |  0.15
Other   |            | 0.4884     |            |       | 10.92

Nlocal:        5552.90 ave        7910 max           0 min
Histogram: 4 2 2 0 2 6 4 0 15 17
Nghost:        6213.67 ave        8770 max         412 min
Histogram: 4 0 4 0 8 0 4 5 7 20
Neighs:       158427.0 ave      230604 max           0 min
Histogram: 4 2 2 0 5 3 4 4 12 16

Total # of neighbors = 8238198
Ave neighs/atom = 28.530457
Neighbor list builds = 0
Dangerous builds = 0
The dot product: -3.0196000299262e-08
Setting atom values ...
  1 settings made for x
  1 settings made for y
  1 settings made for z
Setting up cg style minimization ...
  Unit style    : metal
  Current step  : 3376
Per MPI rank memory allocation (min/avg/max) = 5.465 | 6.344 | 6.728 Mbytes
Step PotEng KinEng TotEng v_fx v_fy v_fz 
    3376   -1152448.9            0   -1152448.9  0.071356484  0.013409456 -0.0027852317 
    3567   -1152448.9            0   -1152448.9 9.4191002e-06 9.5449776e-07 -2.5429312e-07 
Loop time of 4.21597 on 52 procs for 191 steps with 288751 atoms

99.9% CPU use with 52 MPI tasks x 1 OpenMP threads

Minimization stats:
  Stopping criterion = energy tolerance
  Energy initial, next-to-last, final = 
     -1152448.86649832  -1152448.86918361  -1152448.86918361
  Force two-norm initial, final = 0.19617003 8.3061500e-05
  Force max component initial, final = 0.085393176 2.8237343e-05
  Final line search alpha, max atom move = 1.0000000 2.8237343e-05
  Iterations, force evaluations = 191 382

MPI task timing breakdown:
Section |  min time  |  avg time  |  max time  |%varavg| %total
---------------------------------------------------------------
Pair    | 1.0668     | 3.0496     | 4.0521     |  48.8 | 72.33
Neigh   | 0          | 0          | 0          |   0.0 |  0.00
Comm    | 0.048505   | 0.68471    | 2.1353     |  73.8 | 16.24
Output  | 0          | 0          | 0          |   0.0 |  0.00
Modify  | 6.3644e-05 | 0.0063063  | 0.013344   |   3.7 |  0.15
Other   |            | 0.4754     |            |       | 11.28

Nlocal:        5552.90 ave        7912 max           0 min
Histogram: 4 2 2 0 2 6 4 0 15 17
Nghost:        6213.69 ave        8770 max         412 min
Histogram: 4 0 4 0 8 0 4 5 7 20
Neighs:       158427.0 ave      230663 max           0 min
Histogram: 4 2 2 0 5 3 4 4 12 16

Total # of neighbors = 8238193
Ave neighs/atom = 28.530440
Neighbor list builds = 0
Dangerous builds = 0
The dot product: -1.75802241014706e-07
Setting atom values ...
  1 settings made for x
  1 settings made for y
  1 settings made for z
Setting up cg style minimization ...
  Unit style    : metal
  Current step  : 3567
Per MPI rank memory allocation (min/avg/max) = 5.465 | 6.344 | 6.728 Mbytes
Step PotEng KinEng TotEng v_fx v_fy v_fz 
    3567   -1152448.9            0   -1152448.9  0.048429677  0.013256348 -0.00019510386 
    3754   -1152448.9            0   -1152448.9 -4.8699598e-05 -8.2431304e-06 -4.9689692e-07 
Loop time of 4.10885 on 52 procs for 187 steps with 288751 atoms

99.9% CPU use with 52 MPI tasks x 1 OpenMP threads

Minimization stats:
  Stopping criterion = linesearch alpha is zero
  Energy initial, next-to-last, final = 
     -1152448.85327576  -1152448.85545629  -1152448.85545629
  Force two-norm initial, final = 0.19320418 0.0001670898
  Force max component initial, final = 0.086297695 7.2339728e-05
  Final line search alpha, max atom move = 0.25 1.8084932e-05
  Iterations, force evaluations = 187 377

MPI task timing breakdown:
Section |  min time  |  avg time  |  max time  |%varavg| %total
---------------------------------------------------------------
Pair    | 1.0642     | 3.0027     | 3.9493     |  48.2 | 73.08
Neigh   | 0          | 0          | 0          |   0.0 |  0.00
Comm    | 0.048859   | 0.66467    | 2.1064     |  73.7 | 16.18
Output  | 0          | 0          | 0          |   0.0 |  0.00
Modify  | 6.3507e-05 | 0.0063229  | 0.013479   |   3.7 |  0.15
Other   |            | 0.4352     |            |       | 10.59

Nlocal:        5552.90 ave        7912 max           0 min
Histogram: 4 2 2 0 2 6 4 0 15 17
Nghost:        6213.69 ave        8770 max         412 min
Histogram: 4 0 4 0 8 0 4 5 7 20
Neighs:       158427.0 ave      230654 max           0 min
Histogram: 4 2 2 0 5 3 4 4 12 16

Total # of neighbors = 8238194
Ave neighs/atom = 28.530443
Neighbor list builds = 0
Dangerous builds = 0
The dot product: 6.31688484932542e-07
Setting atom values ...
  1 settings made for x
  1 settings made for y
  1 settings made for z
Setting up cg style minimization ...
  Unit style    : metal
  Current step  : 3754
Per MPI rank memory allocation (min/avg/max) = 5.465 | 6.344 | 6.728 Mbytes
Step PotEng KinEng TotEng v_fx v_fy v_fz 
    3754   -1152448.8            0   -1152448.8   0.05760981  0.011479465 0.0021325791 
    3943   -1152448.8            0   -1152448.8 2.4340161e-05 2.0643062e-06 1.2694991e-06 
Loop time of 4.22636 on 52 procs for 189 steps with 288751 atoms

99.9% CPU use with 52 MPI tasks x 1 OpenMP threads

Minimization stats:
  Stopping criterion = linesearch alpha is zero
  Energy initial, next-to-last, final = 
     -1152448.83822875  -1152448.84030939  -1152448.84030939
  Force two-norm initial, final = 0.19809933 0.00013449926
  Force max component initial, final = 0.090782497 3.5851164e-05
  Final line search alpha, max atom move = 0.5 1.7925582e-05
  Iterations, force evaluations = 189 383

MPI task timing breakdown:
Section |  min time  |  avg time  |  max time  |%varavg| %total
---------------------------------------------------------------
Pair    | 1.0758     | 3.0549     | 4.0614     |  48.9 | 72.28
Neigh   | 0          | 0          | 0          |   0.0 |  0.00
Comm    | 0.048265   | 0.68789    | 2.14       |  73.3 | 16.28
Output  | 0          | 0          | 0          |   0.0 |  0.00
Modify  | 6.1239e-05 | 0.0063377  | 0.013367   |   3.7 |  0.15
Other   |            | 0.4772     |            |       | 11.29

Nlocal:        5552.90 ave        7913 max           0 min
Histogram: 4 2 2 0 2 6 4 1 14 17
Nghost:        6213.73 ave        8770 max         412 min
Histogram: 4 0 4 0 8 0 4 5 7 20
Neighs:       158427.0 ave      230686 max           0 min
Histogram: 4 2 2 0 5 3 4 4 12 16

Total # of neighbors = 8238191
Ave neighs/atom = 28.530433
Neighbor list builds = 0
Dangerous builds = 0
The dot product: -2.76461530129939e-07
Setting atom values ...
  1 settings made for x
  1 settings made for y
  1 settings made for z
Setting up cg style minimization ...
  Unit style    : metal
  Current step  : 3943
Per MPI rank memory allocation (min/avg/max) = 5.465 | 6.344 | 6.728 Mbytes
Step PotEng KinEng TotEng v_fx v_fy v_fz 
    3943   -1152448.8            0   -1152448.8  0.060035125 0.0084837125 0.0042504823 
    4000   -1152448.8            0   -1152448.8 -0.00043381279 -7.3503941e-05 -2.9176059e-05 
    4098   -1152448.8            0   -1152448.8 -6.2805485e-05 -1.1803401e-05 -4.0775368e-06 
Loop time of 3.41132 on 52 procs for 155 steps with 288751 atoms

99.9% CPU use with 52 MPI tasks x 1 OpenMP threads

Minimization stats:
  Stopping criterion = energy tolerance
  Energy initial, next-to-last, final = 
     -1152448.82178526  -1152448.82389693  -1152448.82389693
  Force two-norm initial, final = 0.20085181 0.00028979767
  Force max component initial, final = 0.095538322 6.2805485e-05
  Final line search alpha, max atom move = 1.0000000 6.2805485e-05
  Iterations, force evaluations = 155 310

MPI task timing breakdown:
Section |  min time  |  avg time  |  max time  |%varavg| %total
---------------------------------------------------------------
Pair    | 0.87827    | 2.4685     | 3.2458     |  43.7 | 72.36
Neigh   | 0          | 0          | 0          |   0.0 |  0.00
Comm    | 0.040864   | 0.54842    | 1.7415     |  66.5 | 16.08
Output  | 0.00011893 | 0.00012377 | 0.00030078 |   0.0 |  0.00
Modify  | 5.0381e-05 | 0.0051756  | 0.011049   |   3.4 |  0.15
Other   |            | 0.3891     |            |       | 11.41

Nlocal:        5552.90 ave        7915 max           0 min
Histogram: 4 2 2 0 2 6 4 1 14 17
Nghost:        6213.73 ave        8770 max         412 min
Histogram: 4 0 4 0 8 0 4 5 7 20
Neighs:       158427.0 ave      230755 max           0 min
Histogram: 4 2 2 0 5 3 4 4 12 16

Total # of neighbors = 8238191
Ave neighs/atom = 28.530433
Neighbor list builds = 0
Dangerous builds = 0
The dot product: 5.2186381022035e-07
Setting atom values ...
  1 settings made for x
  1 settings made for y
  1 settings made for z
Setting up cg style minimization ...
  Unit style    : metal
  Current step  : 4098
Per MPI rank memory allocation (min/avg/max) = 5.465 | 6.344 | 6.728 Mbytes
Step PotEng KinEng TotEng v_fx v_fy v_fz 
    4098   -1152448.8            0   -1152448.8  0.066194253 0.0081860321 0.0060060321 
    4264   -1152448.8            0   -1152448.8 -3.6820431e-05 -3.882677e-06 -3.4217919e-06 
Loop time of 3.69488 on 52 procs for 166 steps with 288751 atoms

99.9% CPU use with 52 MPI tasks x 1 OpenMP threads

Minimization stats:
  Stopping criterion = linesearch alpha is zero
  Energy initial, next-to-last, final = 
     -1152448.80403887  -1152448.80604543  -1152448.80604543
  Force two-norm initial, final = 0.20411744 0.00016692267
  Force max component initial, final = 0.09864267 3.6820431e-05
  Final line search alpha, max atom move = 0.25 9.2051078e-06
  Iterations, force evaluations = 166 335

MPI task timing breakdown:
Section |  min time  |  avg time  |  max time  |%varavg| %total
---------------------------------------------------------------
Pair    | 0.94547    | 2.6827     | 3.5541     |  45.8 | 72.61
Neigh   | 0          | 0          | 0          |   0.0 |  0.00
Comm    | 0.042403   | 0.60213    | 1.8761     |  69.3 | 16.30
Output  | 0          | 0          | 0          |   0.0 |  0.00
Modify  | 5.5072e-05 | 0.0055579  | 0.011854   |   3.5 |  0.15
Other   |            | 0.4045     |            |       | 10.95

Nlocal:        5552.90 ave        7917 max           0 min
Histogram: 4 2 2 0 2 6 4 1 14 17
Nghost:        6213.73 ave        8770 max         412 min
Histogram: 4 0 4 0 8 0 4 5 7 20
Neighs:       158427.0 ave      230791 max           0 min
Histogram: 4 2 2 0 5 3 4 4 12 16

Total # of neighbors = 8238191
Ave neighs/atom = 28.530433
Neighbor list builds = 0
Dangerous builds = 0
The dot product: 1.55647315459966e-07
Setting atom values ...
  1 settings made for x
  1 settings made for y
  1 settings made for z
Setting up cg style minimization ...
  Unit style    : metal
  Current step  : 4264
Per MPI rank memory allocation (min/avg/max) = 5.465 | 6.344 | 6.728 Mbytes
Step PotEng KinEng TotEng v_fx v_fy v_fz 
    4264   -1152448.8            0   -1152448.8  0.073696397 0.0086046926 0.0074008033 
    4463   -1152448.8            0   -1152448.8 2.1666796e-05   4.6768e-06 1.9253364e-06 
Loop time of 4.36449 on 52 procs for 199 steps with 288751 atoms

99.9% CPU use with 52 MPI tasks x 1 OpenMP threads

Minimization stats:
  Stopping criterion = linesearch alpha is zero
  Energy initial, next-to-last, final = 
     -1152448.78480458  -1152448.78675167  -1152448.78675167
  Force two-norm initial, final = 0.20729131 6.8826968e-05
  Force max component initial, final = 0.1002643 2.1666796e-05
  Final line search alpha, max atom move = 0.5 1.0833398e-05
  Iterations, force evaluations = 199 399

MPI task timing breakdown:
Section |  min time  |  avg time  |  max time  |%varavg| %total
---------------------------------------------------------------
Pair    | 1.1264     | 3.1736     | 4.1924     |  49.6 | 72.71
Neigh   | 0          | 0          | 0          |   0.0 |  0.00
Comm    | 0.051422   | 0.70508    | 2.2332     |  75.3 | 16.15
Output  | 0          | 0          | 0          |   0.0 |  0.00
Modify  | 6.5984e-05 | 0.0066728  | 0.014448   |   3.8 |  0.15
Other   |            | 0.4792     |            |       | 10.98

Nlocal:        5552.90 ave        7917 max           0 min
Histogram: 4 2 2 0 2 6 4 1 14 17
Nghost:        6213.65 ave        8769 max         412 min
Histogram: 4 0 4 0 8 0 4 5 7 20
Neighs:       158427.0 ave      230791 max           0 min
Histogram: 4 2 2 0 5 3 4 4 12 16

Total # of neighbors = 8238191
Ave neighs/atom = 28.530433
Neighbor list builds = 0
Dangerous builds = 0
The dot product: -1.75028295327209e-08
Setting atom values ...
  1 settings made for x
  1 settings made for y
  1 settings made for z
Setting up cg style minimization ...
  Unit style    : metal
  Current step  : 4463
Per MPI rank memory allocation (min/avg/max) = 5.465 | 6.344 | 6.728 Mbytes
Step PotEng KinEng TotEng v_fx v_fy v_fz 
    4463   -1152448.8            0   -1152448.8  0.080729392 0.0085956249 0.0083035556 
    4620   -1152448.8            0   -1152448.8 3.3572448e-05 6.2497119e-06 3.1503917e-06 
Loop time of 3.47617 on 52 procs for 157 steps with 288751 atoms

99.9% CPU use with 52 MPI tasks x 1 OpenMP threads

Minimization stats:
  Stopping criterion = linesearch alpha is zero
  Energy initial, next-to-last, final = 
     -1152448.76405649  -1152448.76593644  -1152448.76593644
  Force two-norm initial, final = 0.20972175 0.00015172981
  Force max component initial, final = 0.1005041 3.3572448e-05
  Final line search alpha, max atom move = 0.5 1.6786224e-05
  Iterations, force evaluations = 157 315

MPI task timing breakdown:
Section |  min time  |  avg time  |  max time  |%varavg| %total
---------------------------------------------------------------
Pair    | 0.87994    | 2.5176     | 3.3436     |  44.3 | 72.43
Neigh   | 0          | 0          | 0          |   0.0 |  0.00
Comm    | 0.03998    | 0.5627     | 1.7565     |  67.1 | 16.19
Output  | 0          | 0          | 0          |   0.0 |  0.00
Modify  | 5.3321e-05 | 0.0052041  | 0.011264   |   3.4 |  0.15
Other   |            | 0.3906     |            |       | 11.24

Nlocal:        5552.90 ave        7917 max           0 min
Histogram: 4 2 2 0 2 6 4 1 14 17
Nghost:        6213.58 ave        8768 max         412 min
Histogram: 4 0 4 0 8 0 4 5 7 20
Neighs:       158427.0 ave      230790 max           0 min
Histogram: 4 2 2 0 5 3 4 4 12 16

Total # of neighbors = 8238188
Ave neighs/atom = 28.530422
Neighbor list builds = 0
Dangerous builds = 0
The dot product: 7.81075373940021e-08
Setting atom values ...
  1 settings made for x
  1 settings made for y
  1 settings made for z
Setting up cg style minimization ...
  Unit style    : metal
  Current step  : 4620
Per MPI rank memory allocation (min/avg/max) = 5.465 | 6.344 | 6.728 Mbytes
Step PotEng KinEng TotEng v_fx v_fy v_fz 
    4620   -1152448.7            0   -1152448.7  0.086561256  0.008258885 0.0085959058 
    4794   -1152448.7            0   -1152448.7 -4.7294293e-06 -1.1002065e-06 -3.9856349e-07 
Loop time of 3.82101 on 52 procs for 174 steps with 288751 atoms

99.9% CPU use with 52 MPI tasks x 1 OpenMP threads

Minimization stats:
  Stopping criterion = linesearch alpha is zero
  Energy initial, next-to-last, final = 
     -1152448.74173884  -1152448.74359471  -1152448.74359471
  Force two-norm initial, final = 0.21117195 7.2986802e-05
  Force max component initial, final = 0.099514367 1.2344749e-05
  Final line search alpha, max atom move = 0.5 6.1723743e-06
  Iterations, force evaluations = 174 349

MPI task timing breakdown:
Section |  min time  |  avg time  |  max time  |%varavg| %total
---------------------------------------------------------------
Pair    | 0.98666    | 2.7782     | 3.6677     |  46.4 | 72.71
Neigh   | 0          | 0          | 0          |   0.0 |  0.00
Comm    | 0.048071   | 0.61992    | 1.9343     |  70.2 | 16.22
Output  | 0          | 0          | 0          |   0.0 |  0.00
Modify  | 6.0757e-05 | 0.0058389  | 0.012423   |   3.6 |  0.15
Other   |            | 0.417      |            |       | 10.91

Nlocal:        5552.90 ave        7917 max           0 min
Histogram: 4 2 2 0 2 6 4 1 14 17
Nghost:        6213.62 ave        8768 max         412 min
Histogram: 4 0 4 0 8 0 4 5 7 20
Neighs:       158427.0 ave      230782 max           0 min
Histogram: 4 2 2 0 5 3 4 4 12 16

Total # of neighbors = 8238186
Ave neighs/atom = 28.530415
Neighbor list builds = 0
Dangerous builds = 0
The dot product: -1.97449380426614e-08
Setting atom values ...
  1 settings made for x
  1 settings made for y
  1 settings made for z
Setting up cg style minimization ...
  Unit style    : metal
  Current step  : 4794
Per MPI rank memory allocation (min/avg/max) = 5.465 | 6.344 | 6.728 Mbytes
Step PotEng KinEng TotEng v_fx v_fy v_fz 
    4794   -1152448.7            0   -1152448.7  0.089953529 0.0083714875 0.0082141418 
    4981   -1152448.7            0   -1152448.7 1.0312221e-05 1.1788794e-06 9.1847275e-07 
Loop time of 4.19563 on 52 procs for 187 steps with 288751 atoms

99.9% CPU use with 52 MPI tasks x 1 OpenMP threads

Minimization stats:
  Stopping criterion = linesearch alpha is zero
  Energy initial, next-to-last, final = 
     -1152448.71790539  -1152448.71973716  -1152448.71973716
  Force two-norm initial, final = 0.21132195 4.7929293e-05
  Force max component initial, final = 0.097738787 1.0312221e-05
  Final line search alpha, max atom move = 0.5 5.1561103e-06
  Iterations, force evaluations = 187 375

MPI task timing breakdown:
Section |  min time  |  avg time  |  max time  |%varavg| %total
---------------------------------------------------------------
Pair    | 1.0695     | 2.9989     | 4.0185     |  48.1 | 71.48
Neigh   | 0          | 0          | 0          |   0.0 |  0.00
Comm    | 0.05326    | 0.67876    | 2.106      |  72.2 | 16.18
Output  | 0          | 0          | 0          |   0.0 |  0.00
Modify  | 6.4566e-05 | 0.0062721  | 0.013199   |   3.7 |  0.15
Other   |            | 0.5117     |            |       | 12.20

Nlocal:        5552.90 ave        7917 max           0 min
Histogram: 4 2 2 0 2 6 4 1 14 17
Nghost:        6213.50 ave        8768 max         412 min
Histogram: 4 0 4 0 8 0 4 5 7 20
Neighs:       158427.0 ave      230784 max           0 min
Histogram: 4 2 2 0 5 3 4 4 12 16

Total # of neighbors = 8238186
Ave neighs/atom = 28.530415
Neighbor list builds = 0
Dangerous builds = 0
The dot product: 5.81042904843447e-08
Setting atom values ...
  1 settings made for x
  1 settings made for y
  1 settings made for z
Setting up cg style minimization ...
  Unit style    : metal
  Current step  : 4981
Per MPI rank memory allocation (min/avg/max) = 5.465 | 6.344 | 6.728 Mbytes
Step PotEng KinEng TotEng v_fx v_fy v_fz 
    4981   -1152448.7            0   -1152448.7  0.091644479  0.009251317 0.0073671532 
    5000   -1152448.7            0   -1152448.7 0.00066744827 0.00017976396 4.2175047e-05 
    5129   -1152448.7            0   -1152448.7 -2.6993968e-05 -1.2762396e-06 -2.3179883e-06 
Loop time of 3.2358 on 52 procs for 148 steps with 288751 atoms

99.9% CPU use with 52 MPI tasks x 1 OpenMP threads

Minimization stats:
  Stopping criterion = energy tolerance
  Energy initial, next-to-last, final = 
     -1152448.69258022   -1152448.6943811   -1152448.6943811
  Force two-norm initial, final = 0.21063513 0.00020784758
  Force max component initial, final = 0.09549618 3.9254286e-05
  Final line search alpha, max atom move = 1.0000000 3.9254286e-05
  Iterations, force evaluations = 148 296

MPI task timing breakdown:
Section |  min time  |  avg time  |  max time  |%varavg| %total
---------------------------------------------------------------
Pair    | 0.83526    | 2.3614     | 3.1103     |  42.8 | 72.98
Neigh   | 0          | 0          | 0          |   0.0 |  0.00
Comm    | 0.038496   | 0.52403    | 1.6566     |  65.2 | 16.19
Output  | 0.00011941 | 0.0001235  | 0.00029162 |   0.0 |  0.00
Modify  | 4.9714e-05 | 0.0049365  | 0.010445   |   3.3 |  0.15
Other   |            | 0.3453     |            |       | 10.67

Nlocal:        5552.90 ave        7917 max           0 min
Histogram: 4 2 2 0 2 6 4 1 14 17
Nghost:        6213.50 ave        8768 max         412 min
Histogram: 4 0 4 0 8 0 4 5 7 20
Neighs:       158427.0 ave      230779 max           0 min
Histogram: 4 2 2 0 5 3 4 4 12 16

Total # of neighbors = 8238188
Ave neighs/atom = 28.530422
Neighbor list builds = 0
Dangerous builds = 0
The dot product: -1.77747695030474e-07
Setting atom values ...
  1 settings made for x
  1 settings made for y
  1 settings made for z
Setting up cg style minimization ...
  Unit style    : metal
  Current step  : 5129
Per MPI rank memory allocation (min/avg/max) = 5.465 | 6.344 | 6.728 Mbytes
Step PotEng KinEng TotEng v_fx v_fy v_fz 
    5129   -1152448.7            0   -1152448.7  0.091971711  0.011070152 0.0061925305 
    5319   -1152448.7            0   -1152448.7 1.9280807e-05 2.6895177e-06 1.2617706e-06 
Loop time of 4.19337 on 52 procs for 190 steps with 288751 atoms

99.9% CPU use with 52 MPI tasks x 1 OpenMP threads

Minimization stats:
  Stopping criterion = energy tolerance
  Energy initial, next-to-last, final = 
     -1152448.66578738  -1152448.66755048  -1152448.66755048
  Force two-norm initial, final = 0.20930377 5.0658952e-05
  Force max component initial, final = 0.092819012 2.2700787e-05
  Final line search alpha, max atom move = 1.0000000 2.2700787e-05
  Iterations, force evaluations = 190 380

MPI task timing breakdown:
Section |  min time  |  avg time  |  max time  |%varavg| %total
---------------------------------------------------------------
Pair    | 1.0669     | 3.0384     | 4.0316     |  48.7 | 72.46
Neigh   | 0          | 0          | 0          |   0.0 |  0.00
Comm    | 0.048082   | 0.68617    | 2.13       |  73.4 | 16.36
Output  | 0          | 0          | 0          |   0.0 |  0.00
Modify  | 6.118e-05  | 0.0062729  | 0.013281   |   3.7 |  0.15
Other   |            | 0.4626     |            |       | 11.03

Nlocal:        5552.90 ave        7917 max           0 min
Histogram: 4 2 2 0 2 6 4 1 14 17
Nghost:        6213.52 ave        8768 max         412 min
Histogram: 4 0 4 0 8 0 4 5 7 20
Neighs:       158427.0 ave      230778 max           0 min
Histogram: 4 2 2 0 5 3 4 4 12 16

Total # of neighbors = 8238186
Ave neighs/atom = 28.530415
Neighbor list builds = 0
Dangerous builds = 0
The dot product: 1.34440828761745e-07
Setting atom values ...
  1 settings made for x
  1 settings made for y
  1 settings made for z
Setting up cg style minimization ...
  Unit style    : metal
  Current step  : 5319
Per MPI rank memory allocation (min/avg/max) = 5.465 | 6.344 | 6.728 Mbytes
Step PotEng KinEng TotEng v_fx v_fy v_fz 
    5319   -1152448.6            0   -1152448.6  0.091188149  0.014014659 0.0047874453 
    5501   -1152448.6            0   -1152448.6 9.798039e-06 7.6231248e-07 5.8571577e-07 
Loop time of 3.97386 on 52 procs for 182 steps with 288751 atoms

99.9% CPU use with 52 MPI tasks x 1 OpenMP threads

Minimization stats:
  Stopping criterion = energy tolerance
  Energy initial, next-to-last, final = 
     -1152448.63755455  -1152448.63927509  -1152448.63927509
  Force two-norm initial, final = 0.20766527 6.2596119e-05
  Force max component initial, final = 0.091188149 9.7980390e-06
  Final line search alpha, max atom move = 1.0000000 9.7980390e-06
  Iterations, force evaluations = 182 364

MPI task timing breakdown:
Section |  min time  |  avg time  |  max time  |%varavg| %total
---------------------------------------------------------------
Pair    | 1.0313     | 2.898      | 3.8196     |  47.2 | 72.93
Neigh   | 0          | 0          | 0          |   0.0 |  0.00
Comm    | 0.048101   | 0.64224    | 2.0421     |  72.0 | 16.16
Output  | 0          | 0          | 0          |   0.0 |  0.00
Modify  | 6.0834e-05 | 0.0060572  | 0.01283    |   3.6 |  0.15
Other   |            | 0.4276     |            |       | 10.76

Nlocal:        5552.90 ave        7917 max           0 min
Histogram: 4 2 2 0 2 6 4 1 14 17
Nghost:        6213.52 ave        8768 max         412 min
Histogram: 4 0 4 0 8 0 4 5 7 20
Neighs:       158427.0 ave      230765 max           0 min
Histogram: 4 2 2 0 5 3 4 4 12 16

Total # of neighbors = 8238188
Ave neighs/atom = 28.530422
Neighbor list builds = 0
Dangerous builds = 0
The dot product: 7.34856342132027e-08
Setting atom values ...
  1 settings made for x
  1 settings made for y
  1 settings made for z
Setting up cg style minimization ...
  Unit style    : metal
  Current step  : 5501
Per MPI rank memory allocation (min/avg/max) = 5.465 | 6.344 | 6.728 Mbytes
Step PotEng KinEng TotEng v_fx v_fy v_fz 
    5501   -1152448.6            0   -1152448.6   0.08922146  0.018399768 0.0031819757 
    5670   -1152448.6            0   -1152448.6 1.1959179e-05 2.305223e-08 6.5613593e-07 
Loop time of 3.7399 on 52 procs for 169 steps with 288751 atoms

99.9% CPU use with 52 MPI tasks x 1 OpenMP threads

Minimization stats:
  Stopping criterion = linesearch alpha is zero
  Energy initial, next-to-last, final = 
     -1152448.60791776  -1152448.60959423  -1152448.60959423
  Force two-norm initial, final = 0.20577577 0.00010750775
  Force max component initial, final = 0.08922146 1.9308959e-05
  Final line search alpha, max atom move = 0.5 9.6544796e-06
  Iterations, force evaluations = 169 339

MPI task timing breakdown:
Section |  min time  |  avg time  |  max time  |%varavg| %total
---------------------------------------------------------------
Pair    | 0.95143    | 2.7092     | 3.5976     |  46.0 | 72.44
Neigh   | 0          | 0          | 0          |   0.0 |  0.00
Comm    | 0.04271    | 0.60919    | 1.8968     |  69.3 | 16.29
Output  | 0          | 0          | 0          |   0.0 |  0.00
Modify  | 5.4517e-05 | 0.0056008  | 0.01186    |   3.5 |  0.15
Other   |            | 0.4159     |            |       | 11.12

Nlocal:        5552.90 ave        7917 max           0 min
Histogram: 4 2 2 0 2 6 4 1 14 17
Nghost:        6213.52 ave        8768 max         412 min
Histogram: 4 0 4 0 8 0 4 5 7 20
Neighs:       158427.0 ave      230770 max           0 min
Histogram: 4 2 2 0 5 3 4 4 12 16

Total # of neighbors = 8238188
Ave neighs/atom = 28.530422
Neighbor list builds = 0
Dangerous builds = 0
The dot product: 9.41726148780271e-08
Setting atom values ...
  1 settings made for x
  1 settings made for y
  1 settings made for z
Setting up cg style minimization ...
  Unit style    : metal
  Current step  : 5670
Per MPI rank memory allocation (min/avg/max) = 5.465 | 6.344 | 6.728 Mbytes
Step PotEng KinEng TotEng v_fx v_fy v_fz 
    5670   -1152448.6            0   -1152448.6  0.086214028   0.02354243 0.0014859139 
    5886   -1152448.6            0   -1152448.6 -3.5484691e-06 -8.5975942e-07 -7.1382959e-08 
Loop time of 4.72097 on 52 procs for 216 steps with 288751 atoms

99.9% CPU use with 52 MPI tasks x 1 OpenMP threads

Minimization stats:
  Stopping criterion = linesearch alpha is zero
  Energy initial, next-to-last, final = 
     -1152448.57693298  -1152448.57856705  -1152448.57856705
  Force two-norm initial, final = 0.20374834 3.9998956e-05
  Force max component initial, final = 0.086486017 1.4462905e-05
  Final line search alpha, max atom move = 0.5 7.2314524e-06
  Iterations, force evaluations = 216 433

MPI task timing breakdown:
Section |  min time  |  avg time  |  max time  |%varavg| %total
---------------------------------------------------------------
Pair    | 1.2255     | 3.4408     | 4.5361     |  51.6 | 72.88
Neigh   | 0          | 0          | 0          |   0.0 |  0.00
Comm    | 0.059046   | 0.76425    | 2.4191     |  78.5 | 16.19
Output  | 0          | 0          | 0          |   0.0 |  0.00
Modify  | 7.0821e-05 | 0.0072421  | 0.015288   |   4.0 |  0.15
Other   |            | 0.5087     |            |       | 10.78

Nlocal:        5552.90 ave        7917 max           0 min
Histogram: 4 2 2 0 2 6 4 1 14 17
Nghost:        6213.56 ave        8768 max         412 min
Histogram: 4 0 4 0 8 0 4 5 7 20
Neighs:       158427.0 ave      230771 max           0 min
Histogram: 4 2 2 0 5 3 4 4 12 16

Total # of neighbors = 8238187
Ave neighs/atom = 28.530419
Neighbor list builds = 0
Dangerous builds = 0
The dot product: -3.0150345209441e-08
Setting atom values ...
  1 settings made for x
  1 settings made for y
  1 settings made for z
Setting up cg style minimization ...
  Unit style    : metal
  Current step  : 5886
Per MPI rank memory allocation (min/avg/max) = 5.465 | 6.344 | 6.728 Mbytes
Step PotEng KinEng TotEng v_fx v_fy v_fz 
    5886   -1152448.5            0   -1152448.5  0.082115911  0.031716719 -0.00053313059 
    6000   -1152448.6            0   -1152448.6 0.0066656574 0.0016428841 4.6007395e-05 
    6153   -1152448.6            0   -1152448.6 0.00011269076 2.434597e-05 1.1064039e-06 
Loop time of 5.92794 on 52 procs for 267 steps with 288751 atoms

99.9% CPU use with 52 MPI tasks x 1 OpenMP threads

Minimization stats:
  Stopping criterion = energy tolerance
  Energy initial, next-to-last, final = 
     -1152448.54474581  -1152448.61730876  -1152448.61730876
  Force two-norm initial, final = 0.20198533 0.00033918624
  Force max component initial, final = 0.088335355 0.0001631136
  Final line search alpha, max atom move = 1.0000000 0.0001631136
  Iterations, force evaluations = 267 535

MPI task timing breakdown:
Section |  min time  |  avg time  |  max time  |%varavg| %total
---------------------------------------------------------------
Pair    | 1.513      | 4.2632     | 5.6728     |  57.4 | 71.92
Neigh   | 3.7395e-05 | 0.011459   | 0.016883   |   4.5 |  0.19
Comm    | 0.069788   | 0.96109    | 2.9906     |  87.3 | 16.21
Output  | 0.00012376 | 0.00012821 | 0.00031999 |   0.0 |  0.00
Modify  | 8.681e-05  | 0.0088763  | 0.018688   |   4.4 |  0.15
Other   |            | 0.6832     |            |       | 11.52

Nlocal:        5552.90 ave        7909 max           0 min
Histogram: 4 2 2 0 2 6 4 0 15 17
Nghost:        6213.54 ave        8768 max         412 min
Histogram: 4 0 4 0 8 0 4 5 7 20
Neighs:       158427.0 ave      230521 max           0 min
Histogram: 4 2 2 0 5 3 4 4 12 16

Total # of neighbors = 8238191
Ave neighs/atom = 28.530433
Neighbor list builds = 2
Dangerous builds = 0
The dot product: 1.22103915740883e-05
Setting atom values ...
  1 settings made for x
  1 settings made for y
  1 settings made for z
Setting up cg style minimization ...
  Unit style    : metal
  Current step  : 6153
Per MPI rank memory allocation (min/avg/max) = 5.465 | 6.344 | 6.728 Mbytes
Step PotEng KinEng TotEng v_fx v_fy v_fz 
    6153   -1152448.6            0   -1152448.6  0.076941037   0.14614792 -0.087993815 
    6381   -1152448.6            0   -1152448.6 -2.9525183e-05 -1.1652423e-05 7.6981166e-06 
Loop time of 4.98485 on 52 procs for 228 steps with 288751 atoms

99.9% CPU use with 52 MPI tasks x 1 OpenMP threads

Minimization stats:
  Stopping criterion = linesearch alpha is zero
  Energy initial, next-to-last, final = 
     -1152448.61057592  -1152448.61362463  -1152448.61362463
  Force two-norm initial, final = 0.2317344 7.2416472e-05
  Force max component initial, final = 0.14614792 2.9525183e-05
  Final line search alpha, max atom move = 0.5 1.4762591e-05
  Iterations, force evaluations = 228 457

MPI task timing breakdown:
Section |  min time  |  avg time  |  max time  |%varavg| %total
---------------------------------------------------------------
Pair    | 1.2923     | 3.6333     | 4.7875     |  52.9 | 72.89
Neigh   | 0          | 0          | 0          |   0.0 |  0.00
Comm    | 0.059345   | 0.80503    | 2.5355     |  80.8 | 16.15
Output  | 0          | 0          | 0          |   0.0 |  0.00
Modify  | 7.4442e-05 | 0.0076281  | 0.01609    |   4.1 |  0.15
Other   |            | 0.5389     |            |       | 10.81

Nlocal:        5552.90 ave        7907 max           0 min
Histogram: 4 2 2 0 2 6 4 0 15 17
Nghost:        6213.65 ave        8769 max         412 min
Histogram: 4 0 4 0 8 0 4 5 7 20
Neighs:       158427.0 ave      230476 max           0 min
Histogram: 4 2 2 0 5 3 4 4 12 16

Total # of neighbors = 8238185
Ave neighs/atom = 28.530412
Neighbor list builds = 0
Dangerous builds = 0
The dot product: -5.02937451260545e-07
Setting atom values ...
  1 settings made for x
  1 settings made for y
  1 settings made for z
Setting up cg style minimization ...
  Unit style    : metal
  Current step  : 6381
Per MPI rank memory allocation (min/avg/max) = 5.465 | 6.344 | 6.728 Mbytes
Step PotEng KinEng TotEng v_fx v_fy v_fz 
    6381   -1152448.6            0   -1152448.6  0.065595138  0.035093294 -0.024695109 
    6730     -1152449            0     -1152449 3.0489265e-07 -5.9284076e-08 2.7479036e-08 
Loop time of 7.77764 on 52 procs for 349 steps with 288751 atoms

99.9% CPU use with 52 MPI tasks x 1 OpenMP threads

Minimization stats:
  Stopping criterion = linesearch alpha is zero
  Energy initial, next-to-last, final = 
     -1152448.60682094  -1152448.99153373  -1152448.99153373
  Force two-norm initial, final = 0.15774548 2.2905692e-05
  Force max component initial, final = 0.074468355 5.7391298e-06
  Final line search alpha, max atom move = 0.5 2.8695649e-06
  Iterations, force evaluations = 349 701

MPI task timing breakdown:
Section |  min time  |  avg time  |  max time  |%varavg| %total
---------------------------------------------------------------
Pair    | 2.01       | 5.6041     | 7.4267     |  65.4 | 72.05
Neigh   | 0.00011216 | 0.034386   | 0.050774   |   7.8 |  0.44
Comm    | 0.095571   | 1.2544     | 3.9206     |  99.5 | 16.13
Output  | 0          | 0          | 0          |   0.0 |  0.00
Modify  | 0.00011764 | 0.011566   | 0.024506   |   5.0 |  0.15
Other   |            | 0.8732     |            |       | 11.23

Nlocal:        5552.90 ave        7901 max           0 min
Histogram: 4 2 2 0 2 6 4 0 15 17
Nghost:        6213.58 ave        8769 max         412 min
Histogram: 4 0 4 0 8 0 4 5 7 20
Neighs:       158427.0 ave      230295 max           0 min
Histogram: 4 2 2 0 5 3 4 4 12 16

Total # of neighbors = 8238216
Ave neighs/atom = 28.530519
Neighbor list builds = 6
Dangerous builds = 0
The dot product: 1.28517880017431e-07
Setting atom values ...
  1 settings made for x
  1 settings made for y
  1 settings made for z
Setting up cg style minimization ...
  Unit style    : metal
  Current step  : 6730
Per MPI rank memory allocation (min/avg/max) = 5.465 | 6.344 | 6.728 Mbytes
Step PotEng KinEng TotEng v_fx v_fy v_fz 
    6730     -1152449            0     -1152449  -0.61704577 -0.058554079   0.76342362 
    6982   -1152449.2            0   -1152449.2 2.2087122e-05 -1.8501107e-05 3.7830224e-06 
Loop time of 5.54019 on 52 procs for 252 steps with 288751 atoms

99.9% CPU use with 52 MPI tasks x 1 OpenMP threads

Minimization stats:
  Stopping criterion = energy tolerance
  Energy initial, next-to-last, final = 
     -1152449.01579047  -1152449.17338841  -1152449.17338841
  Force two-norm initial, final = 0.9953198 0.00019281739
  Force max component initial, final = 0.76342362 4.3727526e-05
  Final line search alpha, max atom move = 1.0000000 4.3727526e-05
  Iterations, force evaluations = 252 504

MPI task timing breakdown:
Section |  min time  |  avg time  |  max time  |%varavg| %total
---------------------------------------------------------------
Pair    | 1.453      | 4.0167     | 5.2718     |  55.3 | 72.50
Neigh   | 3.8951e-05 | 0.011499   | 0.016915   |   4.5 |  0.21
Comm    | 0.070027   | 0.89563    | 2.8125     |  84.2 | 16.17
Output  | 0          | 0          | 0          |   0.0 |  0.00
Modify  | 8.2447e-05 | 0.008395   | 0.017761   |   4.3 |  0.15
Other   |            | 0.6079     |            |       | 10.97

Nlocal:        5552.90 ave        7869 max           0 min
Histogram: 4 2 2 0 2 6 4 0 14 18
Nghost:        6213.69 ave        8770 max         412 min
Histogram: 4 0 4 0 8 0 4 5 7 20
Neighs:       158427.0 ave      229188 max           0 min
Histogram: 4 2 2 0 4 4 4 4 10 18

Total # of neighbors = 8238204
Ave neighs/atom = 28.530478
Neighbor list builds = 2
Dangerous builds = 0
The dot product: -4.5824101360648e-06
Setting atom values ...
  1 settings made for x
  1 settings made for y
  1 settings made for z
Setting up cg style minimization ...
  Unit style    : metal
  Current step  : 6982
Per MPI rank memory allocation (min/avg/max) = 5.465 | 6.344 | 6.728 Mbytes
Step PotEng KinEng TotEng v_fx v_fy v_fz 
    6982   -1152449.2            0   -1152449.2   0.38113678  0.076117625  -0.23936383 
    7000   -1152449.2            0   -1152449.2 -0.00064550488 0.0041108818 -0.004056138 
    7230   -1152449.2            0   -1152449.2 -4.6700987e-06 -6.5451221e-06 8.838913e-06 
Loop time of 5.48743 on 52 procs for 248 steps with 288751 atoms

99.9% CPU use with 52 MPI tasks x 1 OpenMP threads

Minimization stats:
  Stopping criterion = linesearch alpha is zero
  Energy initial, next-to-last, final = 
     -1152449.19773846  -1152449.22535221  -1152449.22535221
  Force two-norm initial, final = 0.48668028 6.0694884e-05
  Force max component initial, final = 0.38113678 9.8833647e-06
  Final line search alpha, max atom move = 0.5 4.9416823e-06
  Iterations, force evaluations = 248 497

MPI task timing breakdown:
Section |  min time  |  avg time  |  max time  |%varavg| %total
---------------------------------------------------------------
Pair    | 1.398      | 3.9715     | 5.2697     |  55.4 | 72.37
Neigh   | 1.8418e-05 | 0.0057486  | 0.0084357  |   3.2 |  0.10
Comm    | 0.06337    | 0.89493    | 2.7866     |  83.7 | 16.31
Output  | 0.00012106 | 0.00012589 | 0.00032256 |   0.0 |  0.00
Modify  | 8.6384e-05 | 0.0082048  | 0.017357   |   4.2 |  0.15
Other   |            | 0.6069     |            |       | 11.06

Nlocal:        5552.90 ave        7864 max           0 min
Histogram: 4 2 2 0 2 6 4 0 13 19
Nghost:        6213.67 ave        8770 max         412 min
Histogram: 4 0 4 0 8 0 4 5 7 20
Neighs:       158427.0 ave      229050 max           0 min
Histogram: 4 2 2 0 4 4 4 4 10 18

Total # of neighbors = 8238197
Ave neighs/atom = 28.530454
Neighbor list builds = 1
Dangerous builds = 0
The dot product: -1.10858213742892e-06
Setting atom values ...
  1 settings made for x
  1 settings made for y
  1 settings made for z
Setting up cg style minimization ...
  Unit style    : metal
  Current step  : 7230
Per MPI rank memory allocation (min/avg/max) = 5.465 | 6.344 | 6.728 Mbytes
Step PotEng KinEng TotEng v_fx v_fy v_fz 
    7230   -1152449.2            0   -1152449.2 -0.090936152 0.0012716352  0.054852458 
    7431   -1152449.3            0   -1152449.3 1.670047e-05 -1.0450649e-05 1.8125295e-06 
Loop time of 4.40329 on 52 procs for 201 steps with 288751 atoms

99.9% CPU use with 52 MPI tasks x 1 OpenMP threads

Minimization stats:
  Stopping criterion = linesearch alpha is zero
  Energy initial, next-to-last, final = 
     -1152449.24710666   -1152449.2519261   -1152449.2519261
  Force two-norm initial, final = 0.19086872 0.0001994045
  Force max component initial, final = 0.090936152 2.2109516e-05
  Final line search alpha, max atom move = 0.25 5.5273790e-06
  Iterations, force evaluations = 201 405

MPI task timing breakdown:
Section |  min time  |  avg time  |  max time  |%varavg| %total
---------------------------------------------------------------
Pair    | 1.1511     | 3.2309     | 4.2285     |  49.7 | 73.37
Neigh   | 0          | 0          | 0          |   0.0 |  0.00
Comm    | 0.054309   | 0.71397    | 2.2624     |  76.3 | 16.21
Output  | 0          | 0          | 0          |   0.0 |  0.00
Modify  | 7.2261e-05 | 0.0067794  | 0.014477   |   3.8 |  0.15
Other   |            | 0.4517     |            |       | 10.26

Nlocal:        5552.90 ave        7866 max           0 min
Histogram: 4 2 2 0 2 6 4 0 13 19
Nghost:        6213.69 ave        8771 max         412 min
Histogram: 4 0 4 0 8 0 4 5 7 20
Neighs:       158427.0 ave      229103 max           0 min
Histogram: 4 2 2 0 4 4 4 4 10 18

Total # of neighbors = 8238205
Ave neighs/atom = 28.530481
Neighbor list builds = 0
Dangerous builds = 0
The dot product: -6.22466585153645e-07
Setting atom values ...
  1 settings made for x
  1 settings made for y
  1 settings made for z
Setting up cg style minimization ...
  Unit style    : metal
  Current step  : 7431
Per MPI rank memory allocation (min/avg/max) = 5.465 | 6.344 | 6.728 Mbytes
Step PotEng KinEng TotEng v_fx v_fy v_fz 
    7431   -1152449.3            0   -1152449.3  0.067783443 0.0062470682 -0.043842222 
    7607   -1152449.3            0   -1152449.3 2.2287551e-05 -3.2400565e-05 2.4390423e-05 
Loop time of 3.91919 on 52 procs for 176 steps with 288751 atoms

99.9% CPU use with 52 MPI tasks x 1 OpenMP threads

Minimization stats:
  Stopping criterion = linesearch alpha is zero
  Energy initial, next-to-last, final = 
     -1152449.27279186  -1152449.27443884  -1152449.27443884
  Force two-norm initial, final = 0.18042449 0.00014510919
  Force max component initial, final = 0.089197022 3.2400565e-05
  Final line search alpha, max atom move = 0.5 1.6200282e-05
  Iterations, force evaluations = 176 355

MPI task timing breakdown:
Section |  min time  |  avg time  |  max time  |%varavg| %total
---------------------------------------------------------------
Pair    | 1.0027     | 2.8396     | 3.7644     |  47.3 | 72.45
Neigh   | 0          | 0          | 0          |   0.0 |  0.00
Comm    | 0.045315   | 0.64199    | 1.9876     |  70.8 | 16.38
Output  | 0          | 0          | 0          |   0.0 |  0.00
Modify  | 6.1238e-05 | 0.00591    | 0.012629   |   3.6 |  0.15
Other   |            | 0.4316     |            |       | 11.01

Nlocal:        5552.90 ave        7865 max           0 min
Histogram: 4 2 2 0 2 6 4 0 13 19
Nghost:        6213.67 ave        8770 max         412 min
Histogram: 4 0 4 0 8 0 4 5 7 20
Neighs:       158427.0 ave      229086 max           0 min
Histogram: 4 2 2 0 4 4 4 4 10 18

Total # of neighbors = 8238203
Ave neighs/atom = 28.530474
Neighbor list builds = 0
Dangerous builds = 0
The dot product: 1.23812323973446e-07
Setting atom values ...
  1 settings made for x
  1 settings made for y
  1 settings made for z
Setting up cg style minimization ...
  Unit style    : metal
  Current step  : 7607
Per MPI rank memory allocation (min/avg/max) = 5.465 | 6.344 | 6.728 Mbytes
Step PotEng KinEng TotEng v_fx v_fy v_fz 
    7607   -1152449.3            0   -1152449.3  0.017185863  0.007252988 -0.017866701 
    7766   -1152449.3            0   -1152449.3 2.4889518e-05 -3.5563734e-05 2.6340267e-05 
Loop time of 3.46603 on 52 procs for 159 steps with 288751 atoms

99.9% CPU use with 52 MPI tasks x 1 OpenMP threads

Minimization stats:
  Stopping criterion = energy tolerance
  Energy initial, next-to-last, final = 
[...]
Nghost:        6213.62 ave        8769 max         412 min
Histogram: 4 0 4 0 8 0 4 5 7 20
Neighs:       158427.0 ave      230017 max           0 min
Histogram: 4 2 2 0 5 3 4 4 12 16

Total # of neighbors = 8238190
Ave neighs/atom = 28.530429
Neighbor list builds = 0
Dangerous builds = 0
The dot product: 4.46761588599933e-08
Setting atom values ...
  1 settings made for x
  1 settings made for y
  1 settings made for z
Setting up cg style minimization ...
  Unit style    : metal
  Current step  : 16440
Per MPI rank memory allocation (min/avg/max) = 5.465 | 6.344 | 6.728 Mbytes
Step PotEng KinEng TotEng v_fx v_fy v_fz 
   16440   -1152449.3            0   -1152449.3 -0.042450016  0.025234536 0.0019603565 
   16634   -1152449.3            0   -1152449.3 -1.7354075e-05 -3.4376696e-06 2.0495801e-05 
Loop time of 4.18076 on 52 procs for 194 steps with 288751 atoms

99.9% CPU use with 52 MPI tasks x 1 OpenMP threads

Minimization stats:
  Stopping criterion = linesearch alpha is zero
  Energy initial, next-to-last, final = 
     -1152449.33224138  -1152449.33327031  -1152449.33327031
  Force two-norm initial, final = 0.14054884 9.3493918e-05
  Force max component initial, final = 0.058467294 2.6868867e-05
  Final line search alpha, max atom move = 0.5 1.3434433e-05
  Iterations, force evaluations = 194 389

MPI task timing breakdown:
Section |  min time  |  avg time  |  max time  |%varavg| %total
---------------------------------------------------------------
Pair    | 1.0997     | 3.0624     | 4.0124     |  48.3 | 73.25
Neigh   | 0          | 0          | 0          |   0.0 |  0.00
Comm    | 0.051148   | 0.67025    | 2.1372     |  74.5 | 16.03
Output  | 0          | 0          | 0          |   0.0 |  0.00
Modify  | 7.8573e-05 | 0.0064598  | 0.013557   |   3.7 |  0.15
Other   |            | 0.4416     |            |       | 10.56

Nlocal:        5552.90 ave        7900 max           0 min
Histogram: 4 2 2 0 2 6 4 0 14 18
Nghost:        6213.58 ave        8769 max         412 min
Histogram: 4 0 4 0 8 0 4 5 7 20
Neighs:       158427.0 ave      230266 max           0 min
Histogram: 4 2 2 0 5 3 4 4 12 16

Total # of neighbors = 8238191
Ave neighs/atom = 28.530433
Neighbor list builds = 0
Dangerous builds = 0
The dot product: 4.3864326147156e-08
Setting atom values ...
  1 settings made for x
  1 settings made for y
  1 settings made for z
Setting up cg style minimization ...
  Unit style    : metal
  Current step  : 16634
Per MPI rank memory allocation (min/avg/max) = 5.465 | 6.344 | 6.728 Mbytes
Step PotEng KinEng TotEng v_fx v_fy v_fz 
   16634   -1152449.3            0   -1152449.3 -0.043159448  0.025966445 0.0014208321 
   16807   -1152449.3            0   -1152449.3 -3.0864822e-05 -8.8100263e-06 4.0246346e-05 
Loop time of 3.75606 on 52 procs for 173 steps with 288751 atoms

99.9% CPU use with 52 MPI tasks x 1 OpenMP threads

Minimization stats:
  Stopping criterion = linesearch alpha is zero
  Energy initial, next-to-last, final = 
     -1152449.33883891  -1152449.33988254  -1152449.33988254
  Force two-norm initial, final = 0.14146781 0.00018312457
  Force max component initial, final = 0.0601734 4.5767994e-05
  Final line search alpha, max atom move = 0.25 1.1441999e-05
  Iterations, force evaluations = 173 349

MPI task timing breakdown:
Section |  min time  |  avg time  |  max time  |%varavg| %total
---------------------------------------------------------------
Pair    | 0.98852    | 2.7505     | 3.6096     |  45.7 | 73.23
Neigh   | 0          | 0          | 0          |   0.0 |  0.00
Comm    | 0.046193   | 0.60294    | 1.9207     |  70.4 | 16.05
Output  | 0          | 0          | 0          |   0.0 |  0.00
Modify  | 7.1367e-05 | 0.0057937  | 0.012248   |   3.6 |  0.15
Other   |            | 0.3968     |            |       | 10.56

Nlocal:        5552.90 ave        7904 max           0 min
Histogram: 4 2 2 0 2 6 4 0 15 17
Nghost:        6213.58 ave        8769 max         412 min
Histogram: 4 0 4 0 8 0 4 5 7 20
Neighs:       158427.0 ave      230395 max           0 min
Histogram: 4 2 2 0 5 3 4 4 12 16

Total # of neighbors = 8238192
Ave neighs/atom = 28.530436
Neighbor list builds = 0
Dangerous builds = 0
The dot product: 7.93623866816203e-08
Setting atom values ...
  1 settings made for x
  1 settings made for y
  1 settings made for z
Setting up cg style minimization ...
  Unit style    : metal
  Current step  : 16807
Per MPI rank memory allocation (min/avg/max) = 5.465 | 6.344 | 6.728 Mbytes
Step PotEng KinEng TotEng v_fx v_fy v_fz 
   16807   -1152449.3            0   -1152449.3 -0.043011861  0.026495228 0.00039769737 
   16990   -1152449.3            0   -1152449.3 -2.2106671e-06 -5.4301854e-06 9.7585343e-06 
Loop time of 3.93542 on 52 procs for 183 steps with 288751 atoms

99.9% CPU use with 52 MPI tasks x 1 OpenMP threads

Minimization stats:
  Stopping criterion = energy tolerance
  Energy initial, next-to-last, final = 
     -1152449.34395683  -1152449.34501277  -1152449.34501277
  Force two-norm initial, final = 0.14199824 0.00011389201
  Force max component initial, final = 0.06179817 2.5000136e-05
  Final line search alpha, max atom move = 1.0000000 2.5000136e-05
  Iterations, force evaluations = 183 366

MPI task timing breakdown:
Section |  min time  |  avg time  |  max time  |%varavg| %total
---------------------------------------------------------------
Pair    | 1.0356     | 2.8824     | 3.7821     |  46.8 | 73.24
Neigh   | 0          | 0          | 0          |   0.0 |  0.00
Comm    | 0.048267   | 0.63234    | 2.0106     |  72.1 | 16.07
Output  | 0          | 0          | 0          |   0.0 |  0.00
Modify  | 7.0767e-05 | 0.0060693  | 0.012761   |   3.6 |  0.15
Other   |            | 0.4146     |            |       | 10.53

Nlocal:        5552.90 ave        7908 max           0 min
Histogram: 4 2 2 0 2 6 4 0 15 17
Nghost:        6213.54 ave        8769 max         412 min
Histogram: 4 0 4 0 8 0 4 5 7 20
Neighs:       158427.0 ave      230530 max           0 min
Histogram: 4 2 2 0 5 3 4 4 12 16

Total # of neighbors = 8238191
Ave neighs/atom = 28.530433
Neighbor list builds = 0
Dangerous builds = 0
The dot product: 5.97869823212096e-10
Setting atom values ...
  1 settings made for x
  1 settings made for y
  1 settings made for z
Setting up cg style minimization ...
  Unit style    : metal
  Current step  : 16990
Per MPI rank memory allocation (min/avg/max) = 5.465 | 6.344 | 6.728 Mbytes
Step PotEng KinEng TotEng v_fx v_fy v_fz 
   16990   -1152449.3            0   -1152449.3 -0.042084581  0.026857718 -0.0010829257 
   17000   -1152449.3            0   -1152449.3 -0.00046191886 -0.00030163162 0.00084380943 
   17167   -1152449.3            0   -1152449.3 -2.7102006e-05 4.3461273e-06 1.7882123e-05 
Loop time of 3.82578 on 52 procs for 177 steps with 288751 atoms

99.9% CPU use with 52 MPI tasks x 1 OpenMP threads

Minimization stats:
  Stopping criterion = linesearch alpha is zero
  Energy initial, next-to-last, final = 
     -1152449.34760039  -1152449.34866713  -1152449.34866713
  Force two-norm initial, final = 0.1422647 0.00014513749
  Force max component initial, final = 0.063402815 2.7102006e-05
  Final line search alpha, max atom move = 0.5 1.3551003e-05
  Iterations, force evaluations = 177 355

MPI task timing breakdown:
Section |  min time  |  avg time  |  max time  |%varavg| %total
---------------------------------------------------------------
Pair    | 1.0077     | 2.7982     | 3.6728     |  46.1 | 73.14
Neigh   | 0          | 0          | 0          |   0.0 |  0.00
Comm    | 0.048942   | 0.61443    | 1.9524     |  70.9 | 16.06
Output  | 0.00011394 | 0.00011882 | 0.00028541 |   0.0 |  0.00
Modify  | 7.4937e-05 | 0.0059053  | 0.012535   |   3.6 |  0.15
Other   |            | 0.4072     |            |       | 10.64

Nlocal:        5552.90 ave        7910 max           0 min
Histogram: 4 2 2 0 2 6 4 0 15 17
Nghost:        6213.54 ave        8769 max         412 min
Histogram: 4 0 4 0 8 0 4 5 7 20
Neighs:       158427.0 ave      230580 max           0 min
Histogram: 4 2 2 0 5 3 4 4 12 16

Total # of neighbors = 8238188
Ave neighs/atom = 28.530422
Neighbor list builds = 0
Dangerous builds = 0
The dot product: 8.39027623009955e-08
Setting atom values ...
  1 settings made for x
  1 settings made for y
  1 settings made for z
Setting up cg style minimization ...
  Unit style    : metal
  Current step  : 17167
Per MPI rank memory allocation (min/avg/max) = 5.465 | 6.344 | 6.728 Mbytes
Step PotEng KinEng TotEng v_fx v_fy v_fz 
   17167   -1152449.3            0   -1152449.3 -0.040745231  0.027107742 -0.0027628785 
   17332   -1152449.4            0   -1152449.4 -1.2205571e-05 2.973568e-05 -3.1861293e-05 
Loop time of 3.591 on 52 procs for 165 steps with 288751 atoms

99.9% CPU use with 52 MPI tasks x 1 OpenMP threads

Minimization stats:
  Stopping criterion = energy tolerance
  Energy initial, next-to-last, final = 
     -1152449.34977451  -1152449.35085072  -1152449.35085072
  Force two-norm initial, final = 0.14242337 0.00022335918
  Force max component initial, final = 0.064979154 4.0632030e-05
  Final line search alpha, max atom move = 1.0000000 4.0632030e-05
  Iterations, force evaluations = 165 330

MPI task timing breakdown:
Section |  min time  |  avg time  |  max time  |%varavg| %total
---------------------------------------------------------------
Pair    | 0.93399    | 2.6027     | 3.4141     |  44.5 | 72.48
Neigh   | 0          | 0          | 0          |   0.0 |  0.00
Comm    | 0.04507    | 0.57603    | 1.8176     |  68.0 | 16.04
Output  | 0          | 0          | 0          |   0.0 |  0.00
Modify  | 6.9964e-05 | 0.0054874  | 0.011618   |   3.5 |  0.15
Other   |            | 0.4068     |            |       | 11.33

Nlocal:        5552.90 ave        7913 max           0 min
Histogram: 4 2 2 0 2 6 4 1 14 17
Nghost:        6213.54 ave        8769 max         412 min
Histogram: 4 0 4 0 8 0 4 5 7 20
Neighs:       158427.0 ave      230668 max           0 min
Histogram: 4 2 2 0 5 3 4 4 12 16

Total # of neighbors = 8238188
Ave neighs/atom = 28.530422
Neighbor list builds = 0
Dangerous builds = 0
The dot product: 7.12768196646705e-08
Setting atom values ...
  1 settings made for x
  1 settings made for y
  1 settings made for z
Setting up cg style minimization ...
  Unit style    : metal
  Current step  : 17332
Per MPI rank memory allocation (min/avg/max) = 5.465 | 6.344 | 6.728 Mbytes
Step PotEng KinEng TotEng v_fx v_fy v_fz 
   17332   -1152449.4            0   -1152449.4 -0.039341128   0.02732409 -0.0044424444 
   17492   -1152449.4            0   -1152449.4 4.6053372e-05 1.4633937e-05 -6.1782798e-05 
Loop time of 3.44942 on 52 procs for 160 steps with 288751 atoms

99.9% CPU use with 52 MPI tasks x 1 OpenMP threads

Minimization stats:
  Stopping criterion = energy tolerance
  Energy initial, next-to-last, final = 
      -1152449.3504908  -1152449.35157337  -1152449.35157337
  Force two-norm initial, final = 0.14247641 0.00026455588
  Force max component initial, final = 0.066469315 7.1716547e-05
  Final line search alpha, max atom move = 1.0000000 7.1716547e-05
  Iterations, force evaluations = 160 320

MPI task timing breakdown:
Section |  min time  |  avg time  |  max time  |%varavg| %total
---------------------------------------------------------------
Pair    | 0.90668    | 2.5225     | 3.3091     |  43.8 | 73.13
Neigh   | 0          | 0          | 0          |   0.0 |  0.00
Comm    | 0.042281   | 0.55344    | 1.7626     |  67.3 | 16.04
Output  | 0          | 0          | 0          |   0.0 |  0.00
Modify  | 6.8209e-05 | 0.0053125  | 0.011148   |   3.4 |  0.15
Other   |            | 0.3681     |            |       | 10.67

Nlocal:        5552.90 ave        7916 max           0 min
Histogram: 4 2 2 0 2 6 4 1 14 17
Nghost:        6213.54 ave        8769 max         412 min
Histogram: 4 0 4 0 8 0 4 5 7 20
Neighs:       158427.0 ave      230765 max           0 min
Histogram: 4 2 2 0 5 3 4 4 12 16

Total # of neighbors = 8238190
Ave neighs/atom = 28.530429
Neighbor list builds = 0
Dangerous builds = 0
The dot product: -1.02817581632854e-07
Setting atom values ...
  1 settings made for x
  1 settings made for y
  1 settings made for z
Setting up cg style minimization ...
  Unit style    : metal
  Current step  : 17492
Per MPI rank memory allocation (min/avg/max) = 5.465 | 6.344 | 6.728 Mbytes
Step PotEng KinEng TotEng v_fx v_fy v_fz 
   17492   -1152449.3            0   -1152449.3  -0.03852481  0.027586608 -0.0056603261 
   17671   -1152449.4            0   -1152449.4 -2.7405802e-05 -8.7954086e-06 3.6839405e-05 
Loop time of 3.88001 on 52 procs for 179 steps with 288751 atoms

99.9% CPU use with 52 MPI tasks x 1 OpenMP threads

Minimization stats:
  Stopping criterion = energy tolerance
  Energy initial, next-to-last, final = 
     -1152449.34977934  -1152449.35086566  -1152449.35086566
  Force two-norm initial, final = 0.14249065 0.00013441148
  Force max component initial, final = 0.067907196 3.6839405e-05
  Final line search alpha, max atom move = 1.0000000 3.6839405e-05
  Iterations, force evaluations = 179 360

MPI task timing breakdown:
Section |  min time  |  avg time  |  max time  |%varavg| %total
---------------------------------------------------------------
Pair    | 1.0203     | 2.8364     | 3.726      |  46.5 | 73.10
Neigh   | 0          | 0          | 0          |   0.0 |  0.00
Comm    | 0.047419   | 0.62279    | 1.9798     |  71.4 | 16.05
Output  | 0          | 0          | 0          |   0.0 |  0.00
Modify  | 7.2259e-05 | 0.0059673  | 0.012516   |   3.6 |  0.15
Other   |            | 0.4149     |            |       | 10.69

Nlocal:        5552.90 ave        7917 max           0 min
Histogram: 4 2 2 0 2 6 4 1 14 17
Nghost:        6213.54 ave        8769 max         412 min
Histogram: 4 0 4 0 8 0 4 5 7 20
Neighs:       158427.0 ave      230809 max           0 min
Histogram: 4 2 2 0 5 3 4 4 12 16

Total # of neighbors = 8238196
Ave neighs/atom = 28.530450
Neighbor list builds = 0
Dangerous builds = 0
The dot product: 5.99218125812442e-08
Setting atom values ...
  1 settings made for x
  1 settings made for y
  1 settings made for z
Setting up cg style minimization ...
  Unit style    : metal
  Current step  : 17671
Per MPI rank memory allocation (min/avg/max) = 5.465 | 6.344 | 6.728 Mbytes
Step PotEng KinEng TotEng v_fx v_fy v_fz 
   17671   -1152449.3            0   -1152449.3 -0.039266239  0.028060022 -0.0058072679 
   17817   -1152449.3            0   -1152449.3 7.0678072e-05 -9.6671181e-08 -6.2094411e-05 
Loop time of 3.14428 on 52 procs for 146 steps with 288751 atoms

99.9% CPU use with 52 MPI tasks x 1 OpenMP threads

Minimization stats:
  Stopping criterion = energy tolerance
  Energy initial, next-to-last, final = 
     -1152449.34771765  -1152449.34880961  -1152449.34880961
  Force two-norm initial, final = 0.14275896 0.00029784992
  Force max component initial, final = 0.069317335 7.0678072e-05
  Final line search alpha, max atom move = 1.0000000 7.0678072e-05
  Iterations, force evaluations = 146 292

MPI task timing breakdown:
Section |  min time  |  avg time  |  max time  |%varavg| %total
---------------------------------------------------------------
Pair    | 0.82694    | 2.302      | 3.0211     |  41.9 | 73.21
Neigh   | 0          | 0          | 0          |   0.0 |  0.00
Comm    | 0.03826    | 0.50464    | 1.6075     |  64.4 | 16.05
Output  | 0          | 0          | 0          |   0.0 |  0.00
Modify  | 5.8043e-05 | 0.0048476  | 0.010212   |   3.3 |  0.15
Other   |            | 0.3328     |            |       | 10.58

Nlocal:        5552.90 ave        7917 max           0 min
Histogram: 4 2 2 0 2 6 4 1 14 17
Nghost:        6213.54 ave        8769 max         412 min
Histogram: 4 0 4 0 8 0 4 5 7 20
Neighs:       158427.0 ave      230809 max           0 min
Histogram: 4 2 2 0 5 3 4 4 12 16

Total # of neighbors = 8238193
Ave neighs/atom = 28.530440
Neighbor list builds = 0
Dangerous builds = 0
The dot product: -2.06801733785309e-07
Setting atom values ...
  1 settings made for x
  1 settings made for y
  1 settings made for z
Setting up cg style minimization ...
  Unit style    : metal
  Current step  : 17817
Per MPI rank memory allocation (min/avg/max) = 5.465 | 6.344 | 6.728 Mbytes
Step PotEng KinEng TotEng v_fx v_fy v_fz 
   17817   -1152449.3            0   -1152449.3 -0.042271508  0.028947594 -0.0045784346 
   17983   -1152449.3            0   -1152449.3 -2.0266586e-05 -6.2262858e-06 2.6764297e-05 
Loop time of 3.63803 on 52 procs for 166 steps with 288751 atoms

99.9% CPU use with 52 MPI tasks x 1 OpenMP threads

Minimization stats:
  Stopping criterion = linesearch alpha is zero
  Energy initial, next-to-last, final = 
     -1152449.34448482  -1152449.34561494  -1152449.34561494
  Force two-norm initial, final = 0.14403601 0.00016070665
  Force max component initial, final = 0.070658676 2.6764297e-05
  Final line search alpha, max atom move = 0.25 6.6910743e-06
  Iterations, force evaluations = 166 337

MPI task timing breakdown:
Section |  min time  |  avg time  |  max time  |%varavg| %total
---------------------------------------------------------------
Pair    | 0.95599    | 2.656      | 3.4899     |  44.9 | 73.01
Neigh   | 0          | 0          | 0          |   0.0 |  0.00
Comm    | 0.044386   | 0.58287    | 1.8534     |  69.1 | 16.02
Output  | 0          | 0          | 0          |   0.0 |  0.00
Modify  | 6.7314e-05 | 0.0055861  | 0.011806   |   3.5 |  0.15
Other   |            | 0.3936     |            |       | 10.82

Nlocal:        5552.90 ave        7918 max           0 min
Histogram: 4 2 2 0 2 6 4 1 14 17
Nghost:        6213.54 ave        8769 max         412 min
Histogram: 4 0 4 0 8 0 4 5 7 20
Neighs:       158427.0 ave      230852 max           0 min
Histogram: 4 2 2 0 5 3 4 4 12 16

Total # of neighbors = 8238193
Ave neighs/atom = 28.530440
Neighbor list builds = 0
Dangerous builds = 0
The dot product: 7.82101707862191e-08
Setting atom values ...
  1 settings made for x
  1 settings made for y
  1 settings made for z
Setting up cg style minimization ...
  Unit style    : metal
  Current step  : 17983
Per MPI rank memory allocation (min/avg/max) = 5.465 | 6.344 | 6.728 Mbytes
Step PotEng KinEng TotEng v_fx v_fy v_fz 
   17983   -1152449.3            0   -1152449.3 -0.049580389   0.03045844 -0.00054719496 
   18000   -1152449.3            0   -1152449.3 -0.016250269 0.0055788163 0.0061694836 
   18247   -1152449.3            0   -1152449.3 -7.2267549e-07 5.7128504e-07 -1.9152742e-07 
Loop time of 5.69826 on 52 procs for 264 steps with 288751 atoms

99.9% CPU use with 52 MPI tasks x 1 OpenMP threads

Minimization stats:
  Stopping criterion = linesearch alpha is zero
  Energy initial, next-to-last, final = 
     -1152449.34053603  -1152449.34897859  -1152449.34897859
  Force two-norm initial, final = 0.14951154 0.0001073783
  Force max component initial, final = 0.071924455 1.2679092e-05
  Final line search alpha, max atom move = 0.5 6.3395459e-06
  Iterations, force evaluations = 264 529

MPI task timing breakdown:
Section |  min time  |  avg time  |  max time  |%varavg| %total
---------------------------------------------------------------
Pair    | 1.5052     | 4.1659     | 5.4545     |  56.1 | 73.11
Neigh   | 1.8395e-05 | 0.0057161  | 0.0084006  |   3.2 |  0.10
Comm    | 0.070126   | 0.91349    | 2.9089     |  86.7 | 16.03
Output  | 0.00012337 | 0.00013305 | 0.00030687 |   0.0 |  0.00
Modify  | 0.00010115 | 0.0088104  | 0.018556   |   4.4 |  0.15
Other   |            | 0.6042     |            |       | 10.60

Nlocal:        5552.90 ave        7908 max           0 min
Histogram: 4 2 2 0 2 6 4 0 15 17
Nghost:        6213.54 ave        8769 max         412 min
Histogram: 4 0 4 0 8 0 4 5 7 20
Neighs:       158427.0 ave      230521 max           0 min
Histogram: 4 2 2 0 5 3 4 4 12 16

Total # of neighbors = 8238202
Ave neighs/atom = 28.530471
Neighbor list builds = 1
Dangerous builds = 0
The dot product: 6.28672619775174e-08
