LAMMPS (29 Oct 2020)
OMP_NUM_THREADS environment is not set. Defaulting to 1 thread. (../comm.cpp:94)
  using 1 OpenMP thread(s) per MPI task
OMP_NUM_THREADS environment is not set. Defaulting to 1 thread. (../comm.cpp:94)
  using 1 OpenMP thread(s) per MPI task
Reading data file ...
  orthogonal box = (-122.39241 -121.13707 -37.090501) to (122.39241 121.13707 37.090501)
  13 by 4 by 1 MPI processor grid
  reading atoms ...
  288751 atoms
  read_data CPU = 0.429 seconds
199981 atoms in group inner
88770 atoms in group outer
1 atoms in group carbon
Neighbor list info ...
  update every 1 steps, delay 0 steps, check yes
  max neighbors/atom: 2000, page size: 100000
  master list distance cutoff = 5.6
  ghost atom cutoff = 5.6
  binsize = 2.8, bins = 88 87 27
  1 neighbor lists, perpetual/occasional/extra = 1 0 0
  (1) pair eam/alloy, perpetual
      attributes: half, newton on
      pair build: half/bin/atomonly/newton
      stencil: half/bin/3d/newton
      bin: standard
Setting up cg style minimization ...
  Unit style    : metal
  Current step  : 0
Per MPI rank memory allocation (min/avg/max) = 5.465 | 6.344 | 6.728 Mbytes
Step v_fx v_fy v_fz PotEng KinEng TotEng 
       0  0.020180518   0.12462764  0.014681537   -1152444.6            0   -1152444.6 
     219 5.8849398e-05 1.032737e-05 -5.6013749e-05     -1152449            0     -1152449 
Loop time of 4.85446 on 52 procs for 219 steps with 288751 atoms

99.9% CPU use with 52 MPI tasks x 1 OpenMP threads

Minimization stats:
  Stopping criterion = energy tolerance
  Energy initial, next-to-last, final = 
     -1152444.63020872  -1152448.97218889  -1152448.97218889
  Force two-norm initial, final = 23.793787 0.00027145767
  Force max component initial, final = 13.971290 5.8849398e-05
  Final line search alpha, max atom move = 1.0000000 5.8849398e-05
  Iterations, force evaluations = 219 435

MPI task timing breakdown:
Section |  min time  |  avg time  |  max time  |%varavg| %total
---------------------------------------------------------------
Pair    | 1.3145     | 3.4908     | 4.5586     |  50.3 | 71.91
Neigh   | 0.00020313 | 0.054512   | 0.082533   |   9.9 |  1.12
Comm    | 0.073792   | 0.77556    | 2.4357     |  78.6 | 15.98
Output  | 0          | 0          | 0          |   0.0 |  0.00
Modify  | 6.2655e-05 | 0.0047921  | 0.012055   |   4.2 |  0.10
Other   |            | 0.5288     |            |       | 10.89

Nlocal:        5552.90 ave        7900 max           0 min
Histogram: 4 2 2 0 2 6 4 0 14 18
Nghost:        6213.65 ave        8768 max         412 min
Histogram: 4 0 4 0 8 0 4 5 7 20
Neighs:       158427.0 ave      230184 max           0 min
Histogram: 4 2 2 0 5 3 4 4 12 16

Total # of neighbors = 8238206
Ave neighs/atom = 28.530485
Neighbor list builds = 9
Dangerous builds = 0
Setting atom values ...
  1 settings made for x
  1 settings made for y
  1 settings made for z
Setting up cg style minimization ...
  Unit style    : metal
  Current step  : 219
Per MPI rank memory allocation (min/avg/max) = 5.465 | 6.344 | 6.728 Mbytes
Step PotEng KinEng TotEng v_fx v_fy v_fz 
     219     -1152449            0     -1152449 -0.0091737537 -0.0083272482 0.00027584608 
     553     -1152449            0     -1152449 -2.1426898e-05 -1.0261367e-05 1.8088907e-05 
Loop time of 7.28275 on 52 procs for 334 steps with 288751 atoms

99.9% CPU use with 52 MPI tasks x 1 OpenMP threads

Minimization stats:
  Stopping criterion = energy tolerance
  Energy initial, next-to-last, final = 
     -1152448.96783121  -1152448.97091094  -1152448.97091094
  Force two-norm initial, final = 0.22567426 0.00023953865
  Force max component initial, final = 0.10757717 7.3058580e-05
  Final line search alpha, max atom move = 1.0000000 7.3058580e-05
  Iterations, force evaluations = 334 668

MPI task timing breakdown:
Section |  min time  |  avg time  |  max time  |%varavg| %total
---------------------------------------------------------------
Pair    | 1.8792     | 5.3051     | 6.9891     |  64.1 | 72.84
Neigh   | 0          | 0          | 0          |   0.0 |  0.00
Comm    | 0.089962   | 1.1707     | 3.7148     |  98.2 | 16.08
Output  | 0          | 0          | 0          |   0.0 |  0.00
Modify  | 0.00012679 | 0.01116    | 0.023549   |   4.9 |  0.15
Other   |            | 0.7958     |            |       | 10.93

Nlocal:        5552.90 ave        7900 max           0 min
Histogram: 4 2 2 0 2 6 4 0 14 18
Nghost:        6213.69 ave        8768 max         412 min
Histogram: 4 0 4 0 8 0 4 5 7 20
Neighs:       158427.0 ave      230207 max           0 min
Histogram: 4 2 2 0 5 3 4 4 12 16

Total # of neighbors = 8238205
Ave neighs/atom = 28.530481
Neighbor list builds = 0
Dangerous builds = 0
Setting atom values ...
  1 settings made for x
  1 settings made for y
  1 settings made for z
Setting up cg style minimization ...
  Unit style    : metal
  Current step  : 553
Per MPI rank memory allocation (min/avg/max) = 5.465 | 6.344 | 6.728 Mbytes
Step PotEng KinEng TotEng v_fx v_fy v_fz 
     553     -1152449            0     -1152449 0.0070582669  0.022094863  0.011397836 
     750     -1152449            0     -1152449 -6.9711795e-06 -2.6995823e-06 3.7494019e-06 
Loop time of 4.29343 on 52 procs for 197 steps with 288751 atoms

99.9% CPU use with 52 MPI tasks x 1 OpenMP threads

Minimization stats:
  Stopping criterion = energy tolerance
  Energy initial, next-to-last, final = 
     -1152448.96716201  -1152448.96906066  -1152448.96906066
  Force two-norm initial, final = 0.1583336 0.00013482243
  Force max component initial, final = 0.080484159 2.1787355e-05
  Final line search alpha, max atom move = 1.0000000 2.1787355e-05
  Iterations, force evaluations = 197 394

MPI task timing breakdown:
Section |  min time  |  avg time  |  max time  |%varavg| %total
---------------------------------------------------------------
Pair    | 1.1234     | 3.1337     | 4.1107     |  48.9 | 72.99
Neigh   | 0          | 0          | 0          |   0.0 |  0.00
Comm    | 0.053529   | 0.69035    | 2.1814     |  75.4 | 16.08
Output  | 0          | 0          | 0          |   0.0 |  0.00
Modify  | 6.9779e-05 | 0.0065873  | 0.01386    |   3.8 |  0.15
Other   |            | 0.4628     |            |       | 10.78

Nlocal:        5552.90 ave        7900 max           0 min
Histogram: 4 2 2 0 2 6 4 0 14 18
Nghost:        6213.65 ave        8768 max         412 min
Histogram: 4 0 4 0 8 0 4 5 7 20
Neighs:       158427.0 ave      230186 max           0 min
Histogram: 4 2 2 0 5 3 4 4 12 16

Total # of neighbors = 8238200
Ave neighs/atom = 28.530464
Neighbor list builds = 0
Dangerous builds = 0
The dot product: 5.60804393725296e-08
Setting atom values ...
  1 settings made for x
  1 settings made for y
  1 settings made for z
Setting up cg style minimization ...
  Unit style    : metal
  Current step  : 750
Per MPI rank memory allocation (min/avg/max) = 5.465 | 6.344 | 6.728 Mbytes
Step PotEng KinEng TotEng v_fx v_fy v_fz 
     750     -1152449            0     -1152449  0.018794003  0.043294703 0.0059341767 
     916     -1152449            0     -1152449 5.5926828e-05 -1.2609531e-06 -2.8305066e-05 
Loop time of 3.61445 on 52 procs for 166 steps with 288751 atoms

99.9% CPU use with 52 MPI tasks x 1 OpenMP threads

Minimization stats:
  Stopping criterion = energy tolerance
  Energy initial, next-to-last, final = 
     -1152448.96445658  -1152448.96700374  -1152448.96700374
  Force two-norm initial, final = 0.16841456 0.00017617866
  Force max component initial, final = 0.092707433 5.5926828e-05
  Final line search alpha, max atom move = 1.0000000 5.5926828e-05
  Iterations, force evaluations = 166 332

MPI task timing breakdown:
Section |  min time  |  avg time  |  max time  |%varavg| %total
---------------------------------------------------------------
Pair    | 0.93561    | 2.6429     | 3.4732     |  45.2 | 73.12
Neigh   | 0          | 0          | 0          |   0.0 |  0.00
Comm    | 0.043276   | 0.58313    | 1.8402     |  69.6 | 16.13
Output  | 0          | 0          | 0          |   0.0 |  0.00
Modify  | 5.6226e-05 | 0.0055427  | 0.011636   |   3.5 |  0.15
Other   |            | 0.3828     |            |       | 10.59

Nlocal:        5552.90 ave        7900 max           0 min
Histogram: 4 2 2 0 2 6 4 0 14 18
Nghost:        6213.73 ave        8768 max         412 min
Histogram: 4 0 4 0 8 0 4 5 7 20
Neighs:       158427.0 ave      230195 max           0 min
Histogram: 4 2 2 0 5 3 4 4 12 16

Total # of neighbors = 8238204
Ave neighs/atom = 28.530478
Neighbor list builds = 0
Dangerous builds = 0
The dot product: -1.89135833561116e-06
Setting atom values ...
  1 settings made for x
  1 settings made for y
  1 settings made for z
Setting up cg style minimization ...
  Unit style    : metal
  Current step  : 916
Per MPI rank memory allocation (min/avg/max) = 5.465 | 6.344 | 6.728 Mbytes
Step PotEng KinEng TotEng v_fx v_fy v_fz 
     916     -1152449            0     -1152449   0.02283349  0.047719842 0.0024924175 
    1000     -1152449            0     -1152449 -3.3249868e-05 1.8969856e-05 4.4639439e-06 
    1066     -1152449            0     -1152449 1.9708736e-05 -1.8017021e-06 -1.7820536e-06 
Loop time of 3.2985 on 52 procs for 150 steps with 288751 atoms

99.9% CPU use with 52 MPI tasks x 1 OpenMP threads

Minimization stats:
  Stopping criterion = linesearch alpha is zero
  Energy initial, next-to-last, final = 
     -1152448.96250805  -1152448.96547761  -1152448.96547761
  Force two-norm initial, final = 0.18941063 0.00014722168
  Force max component initial, final = 0.086054157 4.3609032e-05
  Final line search alpha, max atom move = 0.5 2.1804516e-05
  Iterations, force evaluations = 150 303

MPI task timing breakdown:
Section |  min time  |  avg time  |  max time  |%varavg| %total
---------------------------------------------------------------
Pair    | 0.85588    | 2.4078     | 3.1594     |  43.0 | 73.00
Neigh   | 0          | 0          | 0          |   0.0 |  0.00
Comm    | 0.041242   | 0.53023    | 1.6861     |  66.3 | 16.07
Output  | 0.00016621 | 0.00016989 | 0.00032159 |   0.0 |  0.01
Modify  | 5.662e-05  | 0.0050576  | 0.010668   |   3.3 |  0.15
Other   |            | 0.3553     |            |       | 10.77

Nlocal:        5552.90 ave        7902 max           0 min
Histogram: 4 2 2 0 2 6 4 0 15 17
Nghost:        6213.73 ave        8768 max         412 min
Histogram: 4 0 4 0 8 0 4 5 7 20
Neighs:       158427.0 ave      230279 max           0 min
Histogram: 4 2 2 0 5 3 4 4 12 16

Total # of neighbors = 8238211
Ave neighs/atom = 28.530502
Neighbor list builds = 0
Dangerous builds = 0
The dot product: -4.5017139801913e-07
Setting atom values ...
  1 settings made for x
  1 settings made for y
  1 settings made for z
Setting up cg style minimization ...
  Unit style    : metal
  Current step  : 1066
Per MPI rank memory allocation (min/avg/max) = 5.465 | 6.344 | 6.728 Mbytes
Step PotEng KinEng TotEng v_fx v_fy v_fz 
    1066     -1152449            0     -1152449  0.042374153  0.037729211 0.0056440037 
    1294     -1152449            0     -1152449 -2.1802194e-05 -5.9739745e-07 -2.8847343e-06 
Loop time of 4.99187 on 52 procs for 228 steps with 288751 atoms

99.9% CPU use with 52 MPI tasks x 1 OpenMP threads

Minimization stats:
  Stopping criterion = linesearch alpha is zero
  Energy initial, next-to-last, final = 
     -1152448.96089602  -1152448.96415657  -1152448.96415657
  Force two-norm initial, final = 0.20454238 0.00010058845
  Force max component initial, final = 0.097719592 2.1802194e-05
  Final line search alpha, max atom move = 0.5 1.0901097e-05
  Iterations, force evaluations = 228 461

MPI task timing breakdown:
Section |  min time  |  avg time  |  max time  |%varavg| %total
---------------------------------------------------------------
Pair    | 1.2974     | 3.6598     | 4.7968     |  53.2 | 73.32
Neigh   | 0          | 0          | 0          |   0.0 |  0.00
Comm    | 0.060778   | 0.80129    | 2.5765     |  82.1 | 16.05
Output  | 0          | 0          | 0          |   0.0 |  0.00
Modify  | 7.6688e-05 | 0.0076908  | 0.016298   |   4.1 |  0.15
Other   |            | 0.5231     |            |       | 10.48

Nlocal:        5552.90 ave        7902 max           0 min
Histogram: 4 2 2 0 2 6 4 0 15 17
Nghost:        6213.69 ave        8769 max         412 min
Histogram: 4 0 4 0 8 0 4 5 7 20
Neighs:       158427.0 ave      230280 max           0 min
Histogram: 4 2 2 0 5 3 4 4 12 16

Total # of neighbors = 8238213
Ave neighs/atom = 28.530509
Neighbor list builds = 0
Dangerous builds = 0
The dot product: 3.01519757492227e-07
Setting atom values ...
  1 settings made for x
  1 settings made for y
  1 settings made for z
Setting up cg style minimization ...
  Unit style    : metal
  Current step  : 1294
Per MPI rank memory allocation (min/avg/max) = 5.465 | 6.344 | 6.728 Mbytes
Step PotEng KinEng TotEng v_fx v_fy v_fz 
    1294     -1152449            0     -1152449  0.052784577  0.031845752  0.012403504 
    1476     -1152449            0     -1152449 2.8908808e-05 1.6698421e-06 7.1211296e-06 
Loop time of 3.94925 on 52 procs for 182 steps with 288751 atoms

99.9% CPU use with 52 MPI tasks x 1 OpenMP threads

Minimization stats:
  Stopping criterion = energy tolerance
  Energy initial, next-to-last, final = 
     -1152448.95999353  -1152448.96252159  -1152448.96252159
  Force two-norm initial, final = 0.21458128 0.00022070216
  Force max component initial, final = 0.10929703 9.3482343e-05
  Final line search alpha, max atom move = 1.0000000 9.3482343e-05
  Iterations, force evaluations = 182 364

MPI task timing breakdown:
Section |  min time  |  avg time  |  max time  |%varavg| %total
---------------------------------------------------------------
Pair    | 1.0274     | 2.8879     | 3.7925     |  47.2 | 73.13
Neigh   | 0          | 0          | 0          |   0.0 |  0.00
Comm    | 0.047415   | 0.63579    | 2.0187     |  72.7 | 16.10
Output  | 0          | 0          | 0          |   0.0 |  0.00
Modify  | 6.231e-05  | 0.006051   | 0.012801   |   3.6 |  0.15
Other   |            | 0.4195     |            |       | 10.62

Nlocal:        5552.90 ave        7904 max           0 min
Histogram: 4 2 2 0 2 6 4 0 15 17
Nghost:        6213.58 ave        8769 max         412 min
Histogram: 4 0 4 0 8 0 4 5 7 20
Neighs:       158427.0 ave      230334 max           0 min
Histogram: 4 2 2 0 5 3 4 4 12 16

Total # of neighbors = 8238213
Ave neighs/atom = 28.530509
Neighbor list builds = 0
Dangerous builds = 0
The dot product: 4.01787020944813e-08
Setting atom values ...
  1 settings made for x
  1 settings made for y
  1 settings made for z
Setting up cg style minimization ...
  Unit style    : metal
  Current step  : 1476
Per MPI rank memory allocation (min/avg/max) = 5.465 | 6.344 | 6.728 Mbytes
Step PotEng KinEng TotEng v_fx v_fy v_fz 
    1476     -1152449            0     -1152449  0.063531407  0.033427508  0.013991021 
    1633     -1152449            0     -1152449 2.943616e-05 1.7289955e-06 6.9584351e-06 
Loop time of 3.43392 on 52 procs for 157 steps with 288751 atoms

99.9% CPU use with 52 MPI tasks x 1 OpenMP threads

Minimization stats:
  Stopping criterion = energy tolerance
  Energy initial, next-to-last, final = 
      -1152448.9577484  -1152448.96022134  -1152448.96022134
  Force two-norm initial, final = 0.21711144 0.00026919175
  Force max component initial, final = 0.1093645 7.8644302e-05
  Final line search alpha, max atom move = 1.0000000 7.8644302e-05
  Iterations, force evaluations = 157 316

MPI task timing breakdown:
Section |  min time  |  avg time  |  max time  |%varavg| %total
---------------------------------------------------------------
Pair    | 0.89256    | 2.5163     | 3.2996     |  44.0 | 73.28
Neigh   | 0          | 0          | 0          |   0.0 |  0.00
Comm    | 0.041401   | 0.55242    | 1.7742     |  68.0 | 16.09
Output  | 0          | 0          | 0          |   0.0 |  0.00
Modify  | 5.2396e-05 | 0.0052929  | 0.011153   |   3.4 |  0.15
Other   |            | 0.3599     |            |       | 10.48

Nlocal:        5552.90 ave        7905 max           0 min
Histogram: 4 2 2 0 2 6 4 0 15 17
Nghost:        6213.62 ave        8769 max         412 min
Histogram: 4 0 4 0 8 0 4 5 7 20
Neighs:       158427.0 ave      230375 max           0 min
Histogram: 4 2 2 0 5 3 4 4 12 16

Total # of neighbors = 8238210
Ave neighs/atom = 28.530499
Neighbor list builds = 0
Dangerous builds = 0
The dot product: 1.50143362800664e-07
Setting atom values ...
  1 settings made for x
  1 settings made for y
  1 settings made for z
Setting up cg style minimization ...
  Unit style    : metal
  Current step  : 1633
Per MPI rank memory allocation (min/avg/max) = 5.465 | 6.344 | 6.728 Mbytes
Step PotEng KinEng TotEng v_fx v_fy v_fz 
    1633     -1152449            0     -1152449  0.070248102  0.035519183  0.012871738 
    1789     -1152449            0     -1152449 -1.1778629e-05 -1.27562e-06 -2.3827152e-06 
Loop time of 3.46498 on 52 procs for 156 steps with 288751 atoms

99.9% CPU use with 52 MPI tasks x 1 OpenMP threads

Minimization stats:
  Stopping criterion = linesearch alpha is zero
  Energy initial, next-to-last, final = 
     -1152448.95491234   -1152448.9575137   -1152448.9575137
  Force two-norm initial, final = 0.21695873 0.0001930329
  Force max component initial, final = 0.10714082 4.1602248e-05
  Final line search alpha, max atom move = 0.25 1.0400562e-05
  Iterations, force evaluations = 156 317

MPI task timing breakdown:
Section |  min time  |  avg time  |  max time  |%varavg| %total
---------------------------------------------------------------
Pair    | 0.90788    | 2.5249     | 3.3142     |  43.8 | 72.87
Neigh   | 0          | 0          | 0          |   0.0 |  0.00
Comm    | 0.043977   | 0.5572     | 1.76       |  67.6 | 16.08
Output  | 0          | 0          | 0          |   0.0 |  0.00
Modify  | 5.8743e-05 | 0.0053089  | 0.011268   |   3.4 |  0.15
Other   |            | 0.3776     |            |       | 10.90

Nlocal:        5552.90 ave        7906 max           0 min
Histogram: 4 2 2 0 2 6 4 0 15 17
Nghost:        6213.62 ave        8769 max         412 min
Histogram: 4 0 4 0 8 0 4 5 7 20
Neighs:       158427.0 ave      230416 max           0 min
Histogram: 4 2 2 0 5 3 4 4 12 16

Total # of neighbors = 8238205
Ave neighs/atom = 28.530481
Neighbor list builds = 0
Dangerous builds = 0
The dot product: -5.58972948323169e-08
Setting atom values ...
  1 settings made for x
  1 settings made for y
  1 settings made for z
Setting up cg style minimization ...
  Unit style    : metal
  Current step  : 1789
Per MPI rank memory allocation (min/avg/max) = 5.465 | 6.344 | 6.728 Mbytes
Step PotEng KinEng TotEng v_fx v_fy v_fz 
    1789     -1152449            0     -1152449  0.073335283  0.037266859  0.011124158 
    1977     -1152449            0     -1152449 -2.6479956e-05 -3.7429798e-06 -4.6094975e-06 
Loop time of 4.12581 on 52 procs for 188 steps with 288751 atoms

99.9% CPU use with 52 MPI tasks x 1 OpenMP threads

Minimization stats:
  Stopping criterion = linesearch alpha is zero
  Energy initial, next-to-last, final = 
     -1152448.95185167  -1152448.95413613  -1152448.95413613
  Force two-norm initial, final = 0.21604836 0.00012317914
  Force max component initial, final = 0.10495546 3.5135436e-05
  Final line search alpha, max atom move = 0.5 1.7567718e-05
  Iterations, force evaluations = 188 377

MPI task timing breakdown:
Section |  min time  |  avg time  |  max time  |%varavg| %total
---------------------------------------------------------------
Pair    | 1.0599     | 3.0047     | 3.9633     |  48.3 | 72.83
Neigh   | 0          | 0          | 0          |   0.0 |  0.00
Comm    | 0.048628   | 0.66767    | 2.0994     |  73.9 | 16.18
Output  | 0          | 0          | 0          |   0.0 |  0.00
Modify  | 6.4849e-05 | 0.0062955  | 0.013312   |   3.7 |  0.15
Other   |            | 0.4472     |            |       | 10.84

Nlocal:        5552.90 ave        7906 max           0 min
Histogram: 4 2 2 0 2 6 4 0 15 17
Nghost:        6213.62 ave        8769 max         412 min
Histogram: 4 0 4 0 8 0 4 5 7 20
Neighs:       158427.0 ave      230436 max           0 min
Histogram: 4 2 2 0 5 3 4 4 12 16

Total # of neighbors = 8238204
Ave neighs/atom = 28.530478
Neighbor list builds = 0
Dangerous builds = 0
The dot product: -1.84294318514472e-07
Setting atom values ...
  1 settings made for x
  1 settings made for y
  1 settings made for z
Setting up cg style minimization ...
  Unit style    : metal
  Current step  : 1977
Per MPI rank memory allocation (min/avg/max) = 5.465 | 6.344 | 6.728 Mbytes
Step PotEng KinEng TotEng v_fx v_fy v_fz 
    1977   -1152448.9            0   -1152448.9  0.078356652  0.039143754 0.0088376336 
    2000   -1152448.9            0   -1152448.9 0.00096648273 0.00031841001 0.00012130443 
    2161   -1152448.9            0   -1152448.9 -3.0511554e-05 -4.6096415e-06 -4.2366385e-06 
Loop time of 4.00619 on 52 procs for 184 steps with 288751 atoms

99.9% CPU use with 52 MPI tasks x 1 OpenMP threads

Minimization stats:
  Stopping criterion = linesearch alpha is zero
  Energy initial, next-to-last, final = 
     -1152448.94773872  -1152448.94996951  -1152448.94996951
  Force two-norm initial, final = 0.2150334 0.00012975801
  Force max component initial, final = 0.10170321 4.3247594e-05
  Final line search alpha, max atom move = 0.5 2.1623797e-05
  Iterations, force evaluations = 184 369

MPI task timing breakdown:
Section |  min time  |  avg time  |  max time  |%varavg| %total
---------------------------------------------------------------
Pair    | 1.0403     | 2.932      | 3.8496     |  47.6 | 73.19
Neigh   | 0          | 0          | 0          |   0.0 |  0.00
Comm    | 0.048322   | 0.64248    | 2.0443     |  73.4 | 16.04
Output  | 0.00011634 | 0.00012011 | 0.00027912 |   0.0 |  0.00
Modify  | 6.3233e-05 | 0.006164   | 0.013078   |   3.7 |  0.15
Other   |            | 0.4254     |            |       | 10.62

Nlocal:        5552.90 ave        7906 max           0 min
Histogram: 4 2 2 0 2 6 4 0 15 17
Nghost:        6213.62 ave        8769 max         412 min
Histogram: 4 0 4 0 8 0 4 5 7 20
Neighs:       158427.0 ave      230440 max           0 min
Histogram: 4 2 2 0 5 3 4 4 12 16

Total # of neighbors = 8238201
Ave neighs/atom = 28.530467
Neighbor list builds = 0
Dangerous builds = 0
The dot product: -2.54256755837973e-07
Setting atom values ...
  1 settings made for x
  1 settings made for y
  1 settings made for z
Setting up cg style minimization ...
  Unit style    : metal
  Current step  : 2161
Per MPI rank memory allocation (min/avg/max) = 5.465 | 6.344 | 6.728 Mbytes
Step PotEng KinEng TotEng v_fx v_fy v_fz 
    2161   -1152448.9            0   -1152448.9  0.082377474  0.040203525  0.005922116 
    2315   -1152448.9            0   -1152448.9 -6.96266e-05 -9.9047979e-06 -7.1133187e-06 
Loop time of 3.4116 on 52 procs for 154 steps with 288751 atoms

99.9% CPU use with 52 MPI tasks x 1 OpenMP threads

Minimization stats:
  Stopping criterion = linesearch alpha is zero
  Energy initial, next-to-last, final = 
     -1152448.94287736   -1152448.9450661   -1152448.9450661
  Force two-norm initial, final = 0.2132956 0.00025124574
  Force max component initial, final = 0.097606975 6.9626600e-05
  Final line search alpha, max atom move = 0.125 8.7033249e-06
  Iterations, force evaluations = 154 313

MPI task timing breakdown:
Section |  min time  |  avg time  |  max time  |%varavg| %total
---------------------------------------------------------------
Pair    | 0.88237    | 2.4877     | 3.2778     |  43.9 | 72.92
Neigh   | 0          | 0          | 0          |   0.0 |  0.00
Comm    | 0.04122    | 0.54861    | 1.7359     |  67.3 | 16.08
Output  | 0          | 0          | 0          |   0.0 |  0.00
Modify  | 5.5717e-05 | 0.0052261  | 0.010997   |   3.3 |  0.15
Other   |            | 0.3701     |            |       | 10.85

Nlocal:        5552.90 ave        7907 max           0 min
Histogram: 4 2 2 0 2 6 4 0 15 17
Nghost:        6213.65 ave        8769 max         412 min
Histogram: 4 0 4 0 8 0 4 5 7 20
Neighs:       158427.0 ave      230496 max           0 min
Histogram: 4 2 2 0 5 3 4 4 12 16

Total # of neighbors = 8238208
Ave neighs/atom = 28.530492
Neighbor list builds = 0
Dangerous builds = 0
The dot product: -5.96937621895564e-07
Setting atom values ...
  1 settings made for x
  1 settings made for y
  1 settings made for z
Setting up cg style minimization ...
  Unit style    : metal
  Current step  : 2315
Per MPI rank memory allocation (min/avg/max) = 5.465 | 6.344 | 6.728 Mbytes
Step PotEng KinEng TotEng v_fx v_fy v_fz 
    2315   -1152448.9            0   -1152448.9  0.084451265    0.0410055 0.0027449743 
    2468   -1152448.9            0   -1152448.9 7.6235176e-05 1.282797e-05 4.8990551e-06 
Loop time of 3.38541 on 52 procs for 153 steps with 288751 atoms

99.9% CPU use with 52 MPI tasks x 1 OpenMP threads

Minimization stats:
  Stopping criterion = linesearch alpha is zero
  Energy initial, next-to-last, final = 
     -1152448.93729592  -1152448.93936651  -1152448.93936651
  Force two-norm initial, final = 0.21100886 0.00025253671
  Force max component initial, final = 0.093234562 7.6235176e-05
  Final line search alpha, max atom move = 0.125 9.5293971e-06
  Iterations, force evaluations = 153 311

MPI task timing breakdown:
Section |  min time  |  avg time  |  max time  |%varavg| %total
---------------------------------------------------------------
Pair    | 0.8793     | 2.4713     | 3.2484     |  43.6 | 73.00
Neigh   | 0          | 0          | 0          |   0.0 |  0.00
Comm    | 0.040819   | 0.54338    | 1.7317     |  67.3 | 16.05
Output  | 0          | 0          | 0          |   0.0 |  0.00
Modify  | 5.5708e-05 | 0.0052116  | 0.011019   |   3.4 |  0.15
Other   |            | 0.3655     |            |       | 10.80

Nlocal:        5552.90 ave        7908 max           0 min
Histogram: 4 2 2 0 2 6 4 0 15 17
Nghost:        6213.65 ave        8769 max         412 min
Histogram: 4 0 4 0 8 0 4 5 7 20
Neighs:       158427.0 ave      230521 max           0 min
Histogram: 4 2 2 0 5 3 4 4 12 16

Total # of neighbors = 8238202
Ave neighs/atom = 28.530471
Neighbor list builds = 0
Dangerous builds = 0
The dot product: 5.77227779922398e-07
Setting atom values ...
  1 settings made for x
  1 settings made for y
  1 settings made for z
Setting up cg style minimization ...
  Unit style    : metal
  Current step  : 2468
Per MPI rank memory allocation (min/avg/max) = 5.465 | 6.344 | 6.728 Mbytes
Step PotEng KinEng TotEng v_fx v_fy v_fz 
    2468   -1152448.9            0   -1152448.9  0.084309186  0.042002964 -0.00018405085 
    2624   -1152448.9            0   -1152448.9 9.1086165e-06 1.607182e-06 3.1452538e-07 
Loop time of 3.39953 on 52 procs for 156 steps with 288751 atoms

99.9% CPU use with 52 MPI tasks x 1 OpenMP threads

Minimization stats:
  Stopping criterion = energy tolerance
  Energy initial, next-to-last, final = 
     -1152448.93084036   -1152448.9328223   -1152448.9328223
  Force two-norm initial, final = 0.20886 0.00019003903
  Force max component initial, final = 0.089600835 2.6547303e-05
  Final line search alpha, max atom move = 1.0000000 2.6547303e-05
  Iterations, force evaluations = 156 312

MPI task timing breakdown:
Section |  min time  |  avg time  |  max time  |%varavg| %total
---------------------------------------------------------------
Pair    | 0.88323    | 2.4838     | 3.2592     |  43.7 | 73.06
Neigh   | 0          | 0          | 0          |   0.0 |  0.00
Comm    | 0.042412   | 0.54564    | 1.7483     |  67.6 | 16.05
Output  | 0          | 0          | 0          |   0.0 |  0.00
Modify  | 5.2114e-05 | 0.0052253  | 0.010983   |   3.4 |  0.15
Other   |            | 0.3649     |            |       | 10.73

Nlocal:        5552.90 ave        7909 max           0 min
Histogram: 4 2 2 0 2 6 4 0 15 17
Nghost:        6213.65 ave        8769 max         412 min
Histogram: 4 0 4 0 8 0 4 5 7 20
Neighs:       158427.0 ave      230551 max           0 min
Histogram: 4 2 2 0 5 3 4 4 12 16

Total # of neighbors = 8238200
Ave neighs/atom = 28.530464
Neighbor list builds = 0
Dangerous builds = 0
The dot product: 6.2689064941753e-08
Setting atom values ...
  1 settings made for x
  1 settings made for y
  1 settings made for z
Setting up cg style minimization ...
  Unit style    : metal
  Current step  : 2624
Per MPI rank memory allocation (min/avg/max) = 5.465 | 6.344 | 6.728 Mbytes
Step PotEng KinEng TotEng v_fx v_fy v_fz 
    2624   -1152448.9            0   -1152448.9  0.083438272  0.036194504 -0.0019213775 
    2780   -1152448.9            0   -1152448.9 3.1342491e-05 3.209904e-06 6.1840772e-07 
Loop time of 3.43616 on 52 procs for 156 steps with 288751 atoms

99.9% CPU use with 52 MPI tasks x 1 OpenMP threads

Minimization stats:
  Stopping criterion = energy tolerance
  Energy initial, next-to-last, final = 
     -1152448.92338819  -1152448.92528031  -1152448.92528031
  Force two-norm initial, final = 0.20506701 0.00019754048
  Force max component initial, final = 0.08619646 7.2355223e-05
  Final line search alpha, max atom move = 1.0000000 7.2355223e-05
  Iterations, force evaluations = 156 314

MPI task timing breakdown:
Section |  min time  |  avg time  |  max time  |%varavg| %total
---------------------------------------------------------------
Pair    | 0.88887    | 2.4947     | 3.2788     |  43.8 | 72.60
Neigh   | 0          | 0          | 0          |   0.0 |  0.00
Comm    | 0.040852   | 0.55315    | 1.7395     |  67.1 | 16.10
Output  | 0          | 0          | 0          |   0.0 |  0.00
Modify  | 5.3624e-05 | 0.0052465  | 0.011149   |   3.4 |  0.15
Other   |            | 0.3831     |            |       | 11.15

Nlocal:        5552.90 ave        7909 max           0 min
Histogram: 4 2 2 0 2 6 4 0 15 17
Nghost:        6213.65 ave        8769 max         412 min
Histogram: 4 0 4 0 8 0 4 5 7 20
Neighs:       158427.0 ave      230553 max           0 min
Histogram: 4 2 2 0 5 3 4 4 12 16

Total # of neighbors = 8238199
Ave neighs/atom = 28.530461
Neighbor list builds = 0
Dangerous builds = 0
The dot product: 1.78900995277342e-07
Setting atom values ...
  1 settings made for x
  1 settings made for y
  1 settings made for z
Setting up cg style minimization ...
  Unit style    : metal
  Current step  : 2780
Per MPI rank memory allocation (min/avg/max) = 5.465 | 6.344 | 6.728 Mbytes
Step PotEng KinEng TotEng v_fx v_fy v_fz 
    2780   -1152448.9            0   -1152448.9  0.082787891    0.0262388 -0.0023858089 
    2935   -1152448.9            0   -1152448.9 3.4292744e-05 5.7785228e-06 -2.8437979e-07 
Loop time of 3.41873 on 52 procs for 155 steps with 288751 atoms

99.9% CPU use with 52 MPI tasks x 1 OpenMP threads

Minimization stats:
  Stopping criterion = linesearch alpha is zero
  Energy initial, next-to-last, final = 
     -1152448.91462307  -1152448.91649393  -1152448.91649393
  Force two-norm initial, final = 0.20207855 0.00019859034
  Force max component initial, final = 0.083833833 3.5591465e-05
  Final line search alpha, max atom move = 0.25 8.8978663e-06
  Iterations, force evaluations = 155 313

MPI task timing breakdown:
Section |  min time  |  avg time  |  max time  |%varavg| %total
---------------------------------------------------------------
Pair    | 0.88261    | 2.4892     | 3.2703     |  43.9 | 72.81
Neigh   | 0          | 0          | 0          |   0.0 |  0.00
Comm    | 0.042455   | 0.54964    | 1.7525     |  67.2 | 16.08
Output  | 0          | 0          | 0          |   0.0 |  0.00
Modify  | 5.5172e-05 | 0.0052554  | 0.011066   |   3.4 |  0.15
Other   |            | 0.3746     |            |       | 10.96

Nlocal:        5552.90 ave        7909 max           0 min
Histogram: 4 2 2 0 2 6 4 0 15 17
Nghost:        6213.65 ave        8769 max         412 min
Histogram: 4 0 4 0 8 0 4 5 7 20
Neighs:       158427.0 ave      230554 max           0 min
Histogram: 4 2 2 0 5 3 4 4 12 16

Total # of neighbors = 8238198
Ave neighs/atom = 28.530457
Neighbor list builds = 0
Dangerous builds = 0
The dot product: 1.69252818497334e-07
Setting atom values ...
  1 settings made for x
  1 settings made for y
  1 settings made for z
Setting up cg style minimization ...
  Unit style    : metal
  Current step  : 2935
Per MPI rank memory allocation (min/avg/max) = 5.465 | 6.344 | 6.728 Mbytes
Step PotEng KinEng TotEng v_fx v_fy v_fz 
    2935   -1152448.9            0   -1152448.9  0.082433199  0.020526438 -0.0028844827 
    3000   -1152448.9            0   -1152448.9 -0.00057713471 -0.00011265181 1.5807518e-05 
    3115   -1152448.9            0   -1152448.9 4.8970493e-06 -1.2397368e-07 1.8412134e-08 
Loop time of 3.91649 on 52 procs for 180 steps with 288751 atoms

99.9% CPU use with 52 MPI tasks x 1 OpenMP threads

Minimization stats:
  Stopping criterion = energy tolerance
  Energy initial, next-to-last, final = 
     -1152448.90448969  -1152448.90635367  -1152448.90635367
  Force two-norm initial, final = 0.2005283 9.1771354e-05
  Force max component initial, final = 0.082533628 1.2150520e-05
  Final line search alpha, max atom move = 1.0000000 1.2150520e-05
  Iterations, force evaluations = 180 360

MPI task timing breakdown:
Section |  min time  |  avg time  |  max time  |%varavg| %total
---------------------------------------------------------------
Pair    | 1.0193     | 2.8578     | 3.759      |  46.9 | 72.97
Neigh   | 0          | 0          | 0          |   0.0 |  0.00
Comm    | 0.046765   | 0.6292     | 1.99       |  72.0 | 16.07
Output  | 0.00020015 | 0.00020471 | 0.00036456 |   0.0 |  0.01
Modify  | 6.4849e-05 | 0.0060264  | 0.012796   |   3.6 |  0.15
Other   |            | 0.4232     |            |       | 10.81

Nlocal:        5552.90 ave        7909 max           0 min
Histogram: 4 2 2 0 2 6 4 0 15 17
Nghost:        6213.65 ave        8769 max         412 min
Histogram: 4 0 4 0 8 0 4 5 7 20
Neighs:       158427.0 ave      230554 max           0 min
Histogram: 4 2 2 0 5 3 4 4 12 16

Total # of neighbors = 8238198
Ave neighs/atom = 28.530457
Neighbor list builds = 0
Dangerous builds = 0
The dot product: 2.04238999787539e-08
Setting atom values ...
  1 settings made for x
  1 settings made for y
  1 settings made for z
Setting up cg style minimization ...
  Unit style    : metal
  Current step  : 3115
Per MPI rank memory allocation (min/avg/max) = 5.465 | 6.344 | 6.728 Mbytes
Step PotEng KinEng TotEng v_fx v_fy v_fz 
    3115   -1152448.9            0   -1152448.9  0.081941763   0.01706707 -0.0033972747 
    3301   -1152448.9            0   -1152448.9 1.3963401e-05 1.1083929e-06 -3.2450579e-07 
Loop time of 4.07782 on 52 procs for 186 steps with 288751 atoms

99.9% CPU use with 52 MPI tasks x 1 OpenMP threads

Minimization stats:
  Stopping criterion = linesearch alpha is zero
  Energy initial, next-to-last, final = 
     -1152448.89299439  -1152448.89486556  -1152448.89486556
  Force two-norm initial, final = 0.19950205 9.6769132e-05
  Force max component initial, final = 0.084144454 1.3963401e-05
  Final line search alpha, max atom move = 0.5 6.9817006e-06
  Iterations, force evaluations = 186 373

MPI task timing breakdown:
Section |  min time  |  avg time  |  max time  |%varavg| %total
---------------------------------------------------------------
Pair    | 1.0508     | 2.9727     | 3.9152     |  48.0 | 72.90
Neigh   | 0          | 0          | 0          |   0.0 |  0.00
Comm    | 0.048435   | 0.65884    | 2.079      |  73.5 | 16.16
Output  | 0          | 0          | 0          |   0.0 |  0.00
Modify  | 6.3119e-05 | 0.0062365  | 0.01326    |   3.7 |  0.15
Other   |            | 0.44       |            |       | 10.79

Nlocal:        5552.90 ave        7910 max           0 min
Histogram: 4 2 2 0 2 6 4 0 15 17
Nghost:        6213.60 ave        8769 max         412 min
Histogram: 4 0 4 0 8 0 4 5 7 20
Neighs:       158427.0 ave      230594 max           0 min
Histogram: 4 2 2 0 5 3 4 4 12 16

Total # of neighbors = 8238200
Ave neighs/atom = 28.530464
Neighbor list builds = 0
Dangerous builds = 0
The dot product: 4.25447167365511e-08
Setting atom values ...
  1 settings made for x
  1 settings made for y
  1 settings made for z
Setting up cg style minimization ...
  Unit style    : metal
  Current step  : 3301
Per MPI rank memory allocation (min/avg/max) = 5.465 | 6.344 | 6.728 Mbytes
Step PotEng KinEng TotEng v_fx v_fy v_fz 
    3301   -1152448.9            0   -1152448.9  0.080518785  0.014539704 -0.0036931995 
    3470   -1152448.9            0   -1152448.9 -5.2543986e-05 -9.401123e-06 2.3978508e-06 
Loop time of 3.72651 on 52 procs for 169 steps with 288751 atoms

99.9% CPU use with 52 MPI tasks x 1 OpenMP threads

Minimization stats:
  Stopping criterion = linesearch alpha is zero
  Energy initial, next-to-last, final = 
      -1152448.8801866  -1152448.88215433  -1152448.88215433
  Force two-norm initial, final = 0.19863245 0.00028512874
  Force max component initial, final = 0.085578582 6.6652949e-05
  Final line search alpha, max atom move = 0.125 8.3316186e-06
  Iterations, force evaluations = 169 343

MPI task timing breakdown:
Section |  min time  |  avg time  |  max time  |%varavg| %total
---------------------------------------------------------------
Pair    | 0.97103    | 2.7237     | 3.5805     |  45.7 | 73.09
Neigh   | 0          | 0          | 0          |   0.0 |  0.00
Comm    | 0.044984   | 0.5967     | 1.8938     |  70.5 | 16.01
Output  | 0          | 0          | 0          |   0.0 |  0.00
Modify  | 6.2463e-05 | 0.0057731  | 0.012205   |   3.5 |  0.15
Other   |            | 0.4003     |            |       | 10.74

Nlocal:        5552.90 ave        7910 max           0 min
Histogram: 4 2 2 0 2 6 4 0 15 17
Nghost:        6213.60 ave        8769 max         412 min
Histogram: 4 0 4 0 8 0 4 5 7 20
Neighs:       158427.0 ave      230596 max           0 min
Histogram: 4 2 2 0 5 3 4 4 12 16

Total # of neighbors = 8238198
Ave neighs/atom = 28.530457
Neighbor list builds = 0
Dangerous builds = 0
The dot product: 1.55177176632897e-07
Setting atom values ...
  1 settings made for x
  1 settings made for y
  1 settings made for z
Setting up cg style minimization ...
  Unit style    : metal
  Current step  : 3470
Per MPI rank memory allocation (min/avg/max) = 5.465 | 6.344 | 6.728 Mbytes
Step PotEng KinEng TotEng v_fx v_fy v_fz 
    3470   -1152448.9            0   -1152448.9  0.071352496  0.013405355 -0.0027927272 
    3606   -1152448.9            0   -1152448.9 -1.5161938e-05 -3.1115124e-06 6.2998688e-07 
Loop time of 2.9733 on 52 procs for 136 steps with 288751 atoms

99.9% CPU use with 52 MPI tasks x 1 OpenMP threads

Minimization stats:
  Stopping criterion = energy tolerance
  Energy initial, next-to-last, final = 
      -1152448.8665254  -1152448.86920959  -1152448.86920959
  Force two-norm initial, final = 0.19611158 0.00025426469
  Force max component initial, final = 0.08544073 3.2780227e-05
  Final line search alpha, max atom move = 1.0000000 3.2780227e-05
  Iterations, force evaluations = 136 272

MPI task timing breakdown:
Section |  min time  |  avg time  |  max time  |%varavg| %total
---------------------------------------------------------------
Pair    | 0.76681    | 2.1687     | 2.8578     |  41.0 | 72.94
Neigh   | 0          | 0          | 0          |   0.0 |  0.00
Comm    | 0.035411   | 0.48119    | 1.5101     |  62.7 | 16.18
Output  | 0          | 0          | 0          |   0.0 |  0.00
Modify  | 4.6672e-05 | 0.0045604  | 0.0096578  |   3.2 |  0.15
Other   |            | 0.3189     |            |       | 10.72

Nlocal:        5552.90 ave        7912 max           0 min
Histogram: 4 2 2 0 2 6 4 0 15 17
Nghost:        6213.67 ave        8770 max         412 min
Histogram: 4 0 4 0 8 0 4 5 7 20
Neighs:       158427.0 ave      230664 max           0 min
Histogram: 4 2 2 0 5 3 4 4 12 16

Total # of neighbors = 8238193
Ave neighs/atom = 28.530440
Neighbor list builds = 0
Dangerous builds = 0
The dot product: 2.84764748110696e-07
Setting atom values ...
  1 settings made for x
  1 settings made for y
  1 settings made for z
Setting up cg style minimization ...
  Unit style    : metal
  Current step  : 3606
Per MPI rank memory allocation (min/avg/max) = 5.465 | 6.344 | 6.728 Mbytes
Step PotEng KinEng TotEng v_fx v_fy v_fz 
    3606   -1152448.9            0   -1152448.9  0.048399056  0.013253405 -0.00020087511 
    3818   -1152448.9            0   -1152448.9 -7.7306366e-06 -1.4104308e-06 -6.4173173e-08 
Loop time of 4.64 on 52 procs for 212 steps with 288751 atoms

99.9% CPU use with 52 MPI tasks x 1 OpenMP threads

Minimization stats:
  Stopping criterion = linesearch alpha is zero
  Energy initial, next-to-last, final = 
     -1152448.85330315  -1152448.85548513  -1152448.85548513
  Force two-norm initial, final = 0.19317099 9.0788279e-05
  Force max component initial, final = 0.086319204 7.7306366e-06
  Final line search alpha, max atom move = 0.5 3.8653183e-06
  Iterations, force evaluations = 212 425

MPI task timing breakdown:
Section |  min time  |  avg time  |  max time  |%varavg| %total
---------------------------------------------------------------
Pair    | 1.2006     | 3.3781     | 4.4407     |  51.0 | 72.80
Neigh   | 0          | 0          | 0          |   0.0 |  0.00
Comm    | 0.058307   | 0.7451     | 2.3682     |  78.6 | 16.06
Output  | 0          | 0          | 0          |   0.0 |  0.00
Modify  | 7.4333e-05 | 0.0071209  | 0.01513    |   3.9 |  0.15
Other   |            | 0.5097     |            |       | 10.99

Nlocal:        5552.90 ave        7912 max           0 min
Histogram: 4 2 2 0 2 6 4 0 15 17
Nghost:        6213.62 ave        8769 max         412 min
Histogram: 4 0 4 0 8 0 4 5 7 20
Neighs:       158427.0 ave      230663 max           0 min
Histogram: 4 2 2 0 5 3 4 4 12 16

Total # of neighbors = 8238194
Ave neighs/atom = 28.530443
Neighbor list builds = 0
Dangerous builds = 0
The dot product: 1.0047720292476e-07
Setting atom values ...
  1 settings made for x
  1 settings made for y
  1 settings made for z
Setting up cg style minimization ...
  Unit style    : metal
  Current step  : 3818
Per MPI rank memory allocation (min/avg/max) = 5.465 | 6.344 | 6.728 Mbytes
Step PotEng KinEng TotEng v_fx v_fy v_fz 
    3818   -1152448.8            0   -1152448.8   0.05764692  0.011486677 0.0021284765 
    3978   -1152448.8            0   -1152448.8 -0.00010073129 -2.2430026e-05 -3.4073095e-06 
Loop time of 3.55845 on 52 procs for 160 steps with 288751 atoms

99.9% CPU use with 52 MPI tasks x 1 OpenMP threads

Minimization stats:
  Stopping criterion = linesearch alpha is zero
  Energy initial, next-to-last, final = 
     -1152448.83826033  -1152448.84034057  -1152448.84034057
  Force two-norm initial, final = 0.19813364 0.00033199653
  Force max component initial, final = 0.090834905 0.00010073129
  Final line search alpha, max atom move = 0.0625 6.2957058e-06
  Iterations, force evaluations = 160 327

MPI task timing breakdown:
Section |  min time  |  avg time  |  max time  |%varavg| %total
---------------------------------------------------------------
Pair    | 0.92106    | 2.5979     | 3.4196     |  44.8 | 73.01
Neigh   | 0          | 0          | 0          |   0.0 |  0.00
Comm    | 0.042384   | 0.57157    | 1.8281     |  68.8 | 16.06
Output  | 0          | 0          | 0          |   0.0 |  0.00
Modify  | 5.4067e-05 | 0.0054792  | 0.011803   |   3.5 |  0.15
Other   |            | 0.3835     |            |       | 10.78

Nlocal:        5552.90 ave        7913 max           0 min
Histogram: 4 2 2 0 2 6 4 1 14 17
Nghost:        6213.73 ave        8770 max         412 min
Histogram: 4 0 4 0 8 0 4 5 7 20
Neighs:       158427.0 ave      230691 max           0 min
Histogram: 4 2 2 0 5 3 4 4 12 16

Total # of neighbors = 8238191
Ave neighs/atom = 28.530433
Neighbor list builds = 0
Dangerous builds = 0
The dot product: 1.1830549450504e-06
Setting atom values ...
  1 settings made for x
  1 settings made for y
  1 settings made for z
Setting up cg style minimization ...
  Unit style    : metal
  Current step  : 3978
Per MPI rank memory allocation (min/avg/max) = 5.465 | 6.344 | 6.728 Mbytes
Step PotEng KinEng TotEng v_fx v_fy v_fz 
    3978   -1152448.8            0   -1152448.8  0.059894626 0.0084691416 0.0042353408 
    4000   -1152448.8            0   -1152448.8 0.00038902983 0.0002042077 8.7018668e-06 
    4157   -1152448.8            0   -1152448.8 -1.4572787e-05 1.7442835e-07 -1.3122319e-06 
Loop time of 3.89578 on 52 procs for 179 steps with 288751 atoms

99.9% CPU use with 52 MPI tasks x 1 OpenMP threads

Minimization stats:
  Stopping criterion = energy tolerance
  Energy initial, next-to-last, final = 
     -1152448.82181985  -1152448.82393099  -1152448.82393099
  Force two-norm initial, final = 0.20071413 0.00014915023
  Force max component initial, final = 0.095421117 3.1762246e-05
  Final line search alpha, max atom move = 1.0000000 3.1762246e-05
  Iterations, force evaluations = 179 358

MPI task timing breakdown:
Section |  min time  |  avg time  |  max time  |%varavg| %total
---------------------------------------------------------------
Pair    | 1.0111     | 2.8436     | 3.738      |  46.8 | 72.99
Neigh   | 0          | 0          | 0          |   0.0 |  0.00
Comm    | 0.046583   | 0.62663    | 1.9909     |  72.1 | 16.08
Output  | 0.00012007 | 0.0001236  | 0.00027147 |   0.0 |  0.00
Modify  | 6.204e-05  | 0.0060194  | 0.012862   |   3.6 |  0.15
Other   |            | 0.4194     |            |       | 10.76

Nlocal:        5552.90 ave        7915 max           0 min
Histogram: 4 2 2 0 2 6 4 1 14 17
Nghost:        6213.73 ave        8770 max         412 min
Histogram: 4 0 4 0 8 0 4 5 7 20
Neighs:       158427.0 ave      230757 max           0 min
Histogram: 4 2 2 0 5 3 4 4 12 16

Total # of neighbors = 8238191
Ave neighs/atom = 28.530433
Neighbor list builds = 0
Dangerous builds = 0
The dot product: 1.13918118119557e-07
Setting atom values ...
  1 settings made for x
  1 settings made for y
  1 settings made for z
Setting up cg style minimization ...
  Unit style    : metal
  Current step  : 4157
Per MPI rank memory allocation (min/avg/max) = 5.465 | 6.344 | 6.728 Mbytes
Step PotEng KinEng TotEng v_fx v_fy v_fz 
    4157   -1152448.8            0   -1152448.8  0.066237695 0.0081879214 0.0060058405 
    4335   -1152448.8            0   -1152448.8 -3.6954604e-05 -8.4126378e-06 -2.8867736e-06 
Loop time of 3.93704 on 52 procs for 178 steps with 288751 atoms

99.9% CPU use with 52 MPI tasks x 1 OpenMP threads

Minimization stats:
  Stopping criterion = linesearch alpha is zero
  Energy initial, next-to-last, final = 
     -1152448.80407565  -1152448.80608228  -1152448.80608228
  Force two-norm initial, final = 0.20415594 0.00014009064
  Force max component initial, final = 0.098652476 3.6954604e-05
  Final line search alpha, max atom move = 0.5 1.8477302e-05
  Iterations, force evaluations = 178 361

MPI task timing breakdown:
Section |  min time  |  avg time  |  max time  |%varavg| %total
---------------------------------------------------------------
Pair    | 1.0182     | 2.8734     | 3.7841     |  47.2 | 72.99
Neigh   | 0          | 0          | 0          |   0.0 |  0.00
Comm    | 0.047122   | 0.63341    | 2.0297     |  72.5 | 16.09
Output  | 0          | 0          | 0          |   0.0 |  0.00
Modify  | 6.2291e-05 | 0.0060423  | 0.012701   |   3.6 |  0.15
Other   |            | 0.4241     |            |       | 10.77

Nlocal:        5552.90 ave        7917 max           0 min
Histogram: 4 2 2 0 2 6 4 1 14 17
Nghost:        6213.65 ave        8770 max         412 min
Histogram: 4 0 4 0 8 0 4 5 7 20
Neighs:       158427.0 ave      230824 max           0 min
Histogram: 4 2 2 0 5 3 4 4 12 16

Total # of neighbors = 8238191
Ave neighs/atom = 28.530433
Neighbor list builds = 0
Dangerous builds = 0
The dot product: 1.65104861596837e-07
Setting atom values ...
  1 settings made for x
  1 settings made for y
  1 settings made for z
Setting up cg style minimization ...
  Unit style    : metal
  Current step  : 4335
Per MPI rank memory allocation (min/avg/max) = 5.465 | 6.344 | 6.728 Mbytes
Step PotEng KinEng TotEng v_fx v_fy v_fz 
    4335   -1152448.8            0   -1152448.8   0.07368354 0.0085971542 0.0073960844 
    4510   -1152448.8            0   -1152448.8 2.5762458e-05 2.6763304e-06 2.6243909e-06 
Loop time of 3.8202 on 52 procs for 175 steps with 288751 atoms

99.9% CPU use with 52 MPI tasks x 1 OpenMP threads

Minimization stats:
  Stopping criterion = linesearch alpha is zero
  Energy initial, next-to-last, final = 
     -1152448.78484421  -1152448.78679154  -1152448.78679154
  Force two-norm initial, final = 0.20728314 0.00011886131
  Force max component initial, final = 0.10026519 4.9021932e-05
  Final line search alpha, max atom move = 0.5 2.4510966e-05
  Iterations, force evaluations = 175 351

MPI task timing breakdown:
Section |  min time  |  avg time  |  max time  |%varavg| %total
---------------------------------------------------------------
Pair    | 0.98993    | 2.7843     | 3.6715     |  46.4 | 72.88
Neigh   | 0          | 0          | 0          |   0.0 |  0.00
Comm    | 0.045601   | 0.61457    | 1.9454     |  71.2 | 16.09
Output  | 0          | 0          | 0          |   0.0 |  0.00
Modify  | 6.2772e-05 | 0.005864   | 0.012367   |   3.6 |  0.15
Other   |            | 0.4155     |            |       | 10.88

Nlocal:        5552.90 ave        7917 max           0 min
Histogram: 4 2 2 0 2 6 4 1 14 17
Nghost:        6213.65 ave        8769 max         412 min
Histogram: 4 0 4 0 8 0 4 5 7 20
Neighs:       158427.0 ave      230816 max           0 min
Histogram: 4 2 2 0 5 3 4 4 12 16

Total # of neighbors = 8238191
Ave neighs/atom = 28.530433
Neighbor list builds = 0
Dangerous builds = 0
The dot product: -1.61240773193307e-08
Setting atom values ...
  1 settings made for x
  1 settings made for y
  1 settings made for z
Setting up cg style minimization ...
  Unit style    : metal
  Current step  : 4510
Per MPI rank memory allocation (min/avg/max) = 5.465 | 6.344 | 6.728 Mbytes
Step PotEng KinEng TotEng v_fx v_fy v_fz 
    4510   -1152448.8            0   -1152448.8  0.080706301 0.0085947698 0.0082987118 
    4670   -1152448.8            0   -1152448.8 -2.1293166e-06 -7.7086439e-07 -1.5737012e-07 
Loop time of 3.51502 on 52 procs for 160 steps with 288751 atoms

99.9% CPU use with 52 MPI tasks x 1 OpenMP threads

Minimization stats:
  Stopping criterion = energy tolerance
  Energy initial, next-to-last, final = 
     -1152448.76409941  -1152448.76597948  -1152448.76597948
  Force two-norm initial, final = 0.20972096 0.00012143598
  Force max component initial, final = 0.10053971 1.0004818e-05
  Final line search alpha, max atom move = 1.0000000 1.0004818e-05
  Iterations, force evaluations = 160 320

MPI task timing breakdown:
Section |  min time  |  avg time  |  max time  |%varavg| %total
---------------------------------------------------------------
Pair    | 0.90002    | 2.553      | 3.3626     |  44.5 | 72.63
Neigh   | 0          | 0          | 0          |   0.0 |  0.00
Comm    | 0.041408   | 0.56731    | 1.7884     |  68.0 | 16.14
Output  | 0          | 0          | 0          |   0.0 |  0.00
Modify  | 5.2549e-05 | 0.0053529  | 0.011389   |   3.4 |  0.15
Other   |            | 0.3894     |            |       | 11.08

Nlocal:        5552.90 ave        7917 max           0 min
Histogram: 4 2 2 0 2 6 4 1 14 17
Nghost:        6213.58 ave        8768 max         412 min
Histogram: 4 0 4 0 8 0 4 5 7 20
Neighs:       158427.0 ave      230815 max           0 min
Histogram: 4 2 2 0 5 3 4 4 12 16

Total # of neighbors = 8238188
Ave neighs/atom = 28.530422
Neighbor list builds = 0
Dangerous builds = 0
The dot product: -4.23947061991409e-09
Setting atom values ...
  1 settings made for x
  1 settings made for y
  1 settings made for z
Setting up cg style minimization ...
  Unit style    : metal
  Current step  : 4670
Per MPI rank memory allocation (min/avg/max) = 5.465 | 6.344 | 6.728 Mbytes
Step PotEng KinEng TotEng v_fx v_fy v_fz 
    4670   -1152448.7            0   -1152448.7  0.086519023 0.0082501199 0.0085902902 
    4819   -1152448.7            0   -1152448.7 -4.1347128e-05 -4.5467732e-06 -4.0390985e-06 
Loop time of 3.28249 on 52 procs for 149 steps with 288751 atoms

99.9% CPU use with 52 MPI tasks x 1 OpenMP threads

Minimization stats:
  Stopping criterion = linesearch alpha is zero
  Energy initial, next-to-last, final = 
     -1152448.74178532  -1152448.74364087  -1152448.74364087
  Force two-norm initial, final = 0.21113841 0.00020344385
  Force max component initial, final = 0.099511918 5.1659555e-05
  Final line search alpha, max atom move = 0.25 1.2914889e-05
  Iterations, force evaluations = 149 301

MPI task timing breakdown:
Section |  min time  |  avg time  |  max time  |%varavg| %total
---------------------------------------------------------------
Pair    | 0.84945    | 2.39       | 3.1482     |  42.9 | 72.81
Neigh   | 0          | 0          | 0          |   0.0 |  0.00
Comm    | 0.040355   | 0.52666    | 1.6619     |  65.8 | 16.04
Output  | 0          | 0          | 0          |   0.0 |  0.00
Modify  | 5.3943e-05 | 0.0050585  | 0.010803   |   3.3 |  0.15
Other   |            | 0.3608     |            |       | 10.99

Nlocal:        5552.90 ave        7917 max           0 min
Histogram: 4 2 2 0 2 6 4 1 14 17
Nghost:        6213.62 ave        8768 max         412 min
Histogram: 4 0 4 0 8 0 4 5 7 20
Neighs:       158427.0 ave      230789 max           0 min
Histogram: 4 2 2 0 5 3 4 4 12 16

Total # of neighbors = 8238186
Ave neighs/atom = 28.530415
Neighbor list builds = 0
Dangerous builds = 0
The dot product: -1.82726776251149e-07
Setting atom values ...
  1 settings made for x
  1 settings made for y
  1 settings made for z
Setting up cg style minimization ...
  Unit style    : metal
  Current step  : 4819
Per MPI rank memory allocation (min/avg/max) = 5.465 | 6.344 | 6.728 Mbytes
Step PotEng KinEng TotEng v_fx v_fy v_fz 
    4819   -1152448.7            0   -1152448.7  0.089909954 0.0083688361 0.0082084421 
    5000   -1152448.7            0   -1152448.7 1.4139833e-05 2.0824927e-06 1.2098228e-06 
    5010   -1152448.7            0   -1152448.7 3.275368e-06 1.4517769e-06 1.7767034e-07 
Loop time of 4.20249 on 52 procs for 191 steps with 288751 atoms

99.9% CPU use with 52 MPI tasks x 1 OpenMP threads

Minimization stats:
  Stopping criterion = linesearch alpha is zero
  Energy initial, next-to-last, final = 
     -1152448.71795495  -1152448.71978652  -1152448.71978652
  Force two-norm initial, final = 0.21128122 4.2060570e-05
  Force max component initial, final = 0.097696383 6.5267392e-06
  Final line search alpha, max atom move = 0.5 3.2633696e-06
  Iterations, force evaluations = 191 383

MPI task timing breakdown:
Section |  min time  |  avg time  |  max time  |%varavg| %total
---------------------------------------------------------------
Pair    | 1.0793     | 3.0527     | 4.0395     |  48.8 | 72.64
Neigh   | 0          | 0          | 0          |   0.0 |  0.00
Comm    | 0.049582   | 0.68163    | 2.1279     |  74.1 | 16.22
Output  | 0.00019117 | 0.00019546 | 0.00035737 |   0.0 |  0.00
Modify  | 6.7828e-05 | 0.0064011  | 0.013546   |   3.7 |  0.15
Other   |            | 0.4615     |            |       | 10.98

Nlocal:        5552.90 ave        7917 max           0 min
Histogram: 4 2 2 0 2 6 4 1 14 17
Nghost:        6213.50 ave        8768 max         412 min
Histogram: 4 0 4 0 8 0 4 5 7 20
Neighs:       158427.0 ave      230783 max           0 min
Histogram: 4 2 2 0 5 3 4 4 12 16

Total # of neighbors = 8238186
Ave neighs/atom = 28.530415
Neighbor list builds = 0
Dangerous builds = 0
The dot product: 1.62276249850877e-08
Setting atom values ...
  1 settings made for x
  1 settings made for y
  1 settings made for z
Setting up cg style minimization ...
  Unit style    : metal
  Current step  : 5010
Per MPI rank memory allocation (min/avg/max) = 5.465 | 6.344 | 6.728 Mbytes
Step PotEng KinEng TotEng v_fx v_fy v_fz 
    5010   -1152448.7            0   -1152448.7  0.091629977 0.0092461783 0.0073653139 
    5175   -1152448.7            0   -1152448.7 -2.7399373e-05 -4.3806884e-06 -2.0373324e-06 
Loop time of 3.60687 on 52 procs for 165 steps with 288751 atoms

99.9% CPU use with 52 MPI tasks x 1 OpenMP threads

Minimization stats:
  Stopping criterion = energy tolerance
  Energy initial, next-to-last, final = 
     -1152448.69263275  -1152448.69443363  -1152448.69443363
  Force two-norm initial, final = 0.21062667 0.00011049948
  Force max component initial, final = 0.095493935 3.2942322e-05
  Final line search alpha, max atom move = 1.0000000 3.2942322e-05
  Iterations, force evaluations = 165 330

MPI task timing breakdown:
Section |  min time  |  avg time  |  max time  |%varavg| %total
---------------------------------------------------------------
Pair    | 0.93343    | 2.6278     | 3.4564     |  45.0 | 72.86
Neigh   | 0          | 0          | 0          |   0.0 |  0.00
Comm    | 0.043362   | 0.57995    | 1.8412     |  69.2 | 16.08
Output  | 0          | 0          | 0          |   0.0 |  0.00
Modify  | 5.9164e-05 | 0.0055224  | 0.011602   |   3.5 |  0.15
Other   |            | 0.3936     |            |       | 10.91

Nlocal:        5552.90 ave        7917 max           0 min
Histogram: 4 2 2 0 2 6 4 1 14 17
Nghost:        6213.52 ave        8768 max         412 min
Histogram: 4 0 4 0 8 0 4 5 7 20
Neighs:       158427.0 ave      230787 max           0 min
Histogram: 4 2 2 0 5 3 4 4 12 16

Total # of neighbors = 8238188
Ave neighs/atom = 28.530422
Neighbor list builds = 0
Dangerous builds = 0
The dot product: -1.74237186740896e-07
Setting atom values ...
  1 settings made for x
  1 settings made for y
  1 settings made for z
Setting up cg style minimization ...
  Unit style    : metal
  Current step  : 5175
Per MPI rank memory allocation (min/avg/max) = 5.465 | 6.344 | 6.728 Mbytes
Step PotEng KinEng TotEng v_fx v_fy v_fz 
    5175   -1152448.7            0   -1152448.7  0.091964278   0.01105988 0.0061924618 
    5331   -1152448.7            0   -1152448.7 6.4518823e-05 9.5236103e-06 4.1701574e-06 
Loop time of 3.39835 on 52 procs for 156 steps with 288751 atoms

99.9% CPU use with 52 MPI tasks x 1 OpenMP threads

Minimization stats:
  Stopping criterion = energy tolerance
  Energy initial, next-to-last, final = 
     -1152448.66584303  -1152448.66760604  -1152448.66760604
  Force two-norm initial, final = 0.20930222 0.00016740189
  Force max component initial, final = 0.092825829 6.5835531e-05
  Final line search alpha, max atom move = 1.0000000 6.5835531e-05
  Iterations, force evaluations = 156 312

MPI task timing breakdown:
Section |  min time  |  avg time  |  max time  |%varavg| %total
---------------------------------------------------------------
Pair    | 0.88055    | 2.484      | 3.2651     |  43.8 | 73.09
Neigh   | 0          | 0          | 0          |   0.0 |  0.00
Comm    | 0.041697   | 0.54513    | 1.7511     |  67.5 | 16.04
Output  | 0          | 0          | 0          |   0.0 |  0.00
Modify  | 5.2413e-05 | 0.0052173  | 0.011102   |   3.4 |  0.15
Other   |            | 0.364      |            |       | 10.71

Nlocal:        5552.90 ave        7917 max           0 min
Histogram: 4 2 2 0 2 6 4 1 14 17
Nghost:        6213.52 ave        8768 max         412 min
Histogram: 4 0 4 0 8 0 4 5 7 20
Neighs:       158427.0 ave      230786 max           0 min
Histogram: 4 2 2 0 5 3 4 4 12 16

Total # of neighbors = 8238186
Ave neighs/atom = 28.530415
Neighbor list builds = 0
Dangerous builds = 0
The dot product: 4.48904295226546e-07
Setting atom values ...
  1 settings made for x
  1 settings made for y
  1 settings made for z
Setting up cg style minimization ...
  Unit style    : metal
  Current step  : 5331
Per MPI rank memory allocation (min/avg/max) = 5.465 | 6.344 | 6.728 Mbytes
Step PotEng KinEng TotEng v_fx v_fy v_fz 
    5331   -1152448.6            0   -1152448.6  0.091233557  0.014014065 0.0047902092 
    5509   -1152448.6            0   -1152448.6 7.4298839e-06 3.4654684e-07 4.6632459e-07 
Loop time of 3.90475 on 52 procs for 178 steps with 288751 atoms

99.9% CPU use with 52 MPI tasks x 1 OpenMP threads

Minimization stats:
  Stopping criterion = linesearch alpha is zero
  Energy initial, next-to-last, final = 
     -1152448.63761272  -1152448.63933369  -1152448.63933369
  Force two-norm initial, final = 0.20771103 7.3340578e-05
  Force max component initial, final = 0.091233557 7.4298839e-06
  Final line search alpha, max atom move = 0.5 3.7149419e-06
  Iterations, force evaluations = 178 357

MPI task timing breakdown:
Section |  min time  |  avg time  |  max time  |%varavg| %total
---------------------------------------------------------------
Pair    | 1.0075     | 2.8358     | 3.7295     |  46.7 | 72.62
Neigh   | 0          | 0          | 0          |   0.0 |  0.00
Comm    | 0.049174   | 0.62733    | 1.9828     |  71.7 | 16.07
Output  | 0          | 0          | 0          |   0.0 |  0.00
Modify  | 6.1875e-05 | 0.0059914  | 0.012706   |   3.6 |  0.15
Other   |            | 0.4357     |            |       | 11.16

Nlocal:        5552.90 ave        7917 max           0 min
Histogram: 4 2 2 0 2 6 4 1 14 17
Nghost:        6213.52 ave        8768 max         412 min
Histogram: 4 0 4 0 8 0 4 5 7 20
Neighs:       158427.0 ave      230770 max           0 min
Histogram: 4 2 2 0 5 3 4 4 12 16

Total # of neighbors = 8238188
Ave neighs/atom = 28.530422
Neighbor list builds = 0
Dangerous builds = 0
The dot product: 5.59930940102565e-08
Setting atom values ...
  1 settings made for x
  1 settings made for y
  1 settings made for z
Setting up cg style minimization ...
  Unit style    : metal
  Current step  : 5509
Per MPI rank memory allocation (min/avg/max) = 5.465 | 6.344 | 6.728 Mbytes
Step PotEng KinEng TotEng v_fx v_fy v_fz 
    5509   -1152448.6            0   -1152448.6  0.089219604  0.018387533 0.0031828573 
    5653   -1152448.6            0   -1152448.6 -7.6966243e-05 -8.5533193e-06 -3.432618e-06 
Loop time of 3.1486 on 52 procs for 144 steps with 288751 atoms

99.9% CPU use with 52 MPI tasks x 1 OpenMP threads

Minimization stats:
  Stopping criterion = energy tolerance
  Energy initial, next-to-last, final = 
     -1152448.60797925  -1152448.60965569  -1152448.60965569
  Force two-norm initial, final = 0.20577502 0.00027556686
  Force max component initial, final = 0.089219604 8.9439017e-05
  Final line search alpha, max atom move = 1.0000000 8.9439017e-05
  Iterations, force evaluations = 144 288

MPI task timing breakdown:
Section |  min time  |  avg time  |  max time  |%varavg| %total
---------------------------------------------------------------
Pair    | 0.81054    | 2.2922     | 3.0259     |  42.1 | 72.80
Neigh   | 0          | 0          | 0          |   0.0 |  0.00
Comm    | 0.037789   | 0.50656    | 1.6151     |  64.4 | 16.09
Output  | 0          | 0          | 0          |   0.0 |  0.00
Modify  | 5.0732e-05 | 0.0048231  | 0.010252   |   3.2 |  0.15
Other   |            | 0.3451     |            |       | 10.96

Nlocal:        5552.90 ave        7917 max           0 min
Histogram: 4 2 2 0 2 6 4 1 14 17
Nghost:        6213.52 ave        8768 max         412 min
Histogram: 4 0 4 0 8 0 4 5 7 20
Neighs:       158427.0 ave      230774 max           0 min
Histogram: 4 2 2 0 5 3 4 4 12 16

Total # of neighbors = 8238188
Ave neighs/atom = 28.530422
Neighbor list builds = 0
Dangerous builds = 0
The dot product: -6.0435017066044e-07
Setting atom values ...
  1 settings made for x
  1 settings made for y
  1 settings made for z
Setting up cg style minimization ...
  Unit style    : metal
  Current step  : 5653
Per MPI rank memory allocation (min/avg/max) = 5.465 | 6.344 | 6.728 Mbytes
Step PotEng KinEng TotEng v_fx v_fy v_fz 
    5653   -1152448.6            0   -1152448.6  0.086136103   0.02352421 0.0014836595 
    5842   -1152448.6            0   -1152448.6 -7.8068256e-07 2.1570073e-07 -5.3596241e-08 
Loop time of 4.12203 on 52 procs for 189 steps with 288751 atoms

99.9% CPU use with 52 MPI tasks x 1 OpenMP threads

Minimization stats:
  Stopping criterion = energy tolerance
  Energy initial, next-to-last, final = 
     -1152448.57699757  -1152448.57863133  -1152448.57863133
  Force two-norm initial, final = 0.20367255 5.5671193e-05
  Force max component initial, final = 0.086511445 2.9502588e-06
  Final line search alpha, max atom move = 1.0000000 2.9502588e-06
  Iterations, force evaluations = 189 378

MPI task timing breakdown:
Section |  min time  |  avg time  |  max time  |%varavg| %total
---------------------------------------------------------------
Pair    | 1.0651     | 2.9969     | 3.9494     |  48.1 | 72.71
Neigh   | 0          | 0          | 0          |   0.0 |  0.00
Comm    | 0.051265   | 0.66219    | 2.0931     |  73.8 | 16.06
Output  | 0          | 0          | 0          |   0.0 |  0.00
Modify  | 6.7492e-05 | 0.0063435  | 0.013308   |   3.7 |  0.15
Other   |            | 0.4565     |            |       | 11.08

Nlocal:        5552.90 ave        7917 max           0 min
Histogram: 4 2 2 0 2 6 4 1 14 17
Nghost:        6213.56 ave        8768 max         412 min
Histogram: 4 0 4 0 8 0 4 5 7 20
Neighs:       158427.0 ave      230776 max           0 min
Histogram: 4 2 2 0 5 3 4 4 12 16

Total # of neighbors = 8238187
Ave neighs/atom = 28.530419
Neighbor list builds = 0
Dangerous builds = 0
The dot product: -6.03863154447131e-09
Setting atom values ...
  1 settings made for x
  1 settings made for y
  1 settings made for z
Setting up cg style minimization ...
  Unit style    : metal
  Current step  : 5842
Per MPI rank memory allocation (min/avg/max) = 5.465 | 6.344 | 6.728 Mbytes
Step PotEng KinEng TotEng v_fx v_fy v_fz 
    5842   -1152448.5            0   -1152448.5  0.082123436  0.031693385 -0.00053104202 
    6000   -1152448.6            0   -1152448.6 -0.0030139305 -0.00058236814 -3.6160932e-05 
    6122   -1152448.6            0   -1152448.6 -6.4576478e-05 -1.3049937e-05 -7.199641e-07 
Loop time of 6.13083 on 52 procs for 280 steps with 288751 atoms

99.9% CPU use with 52 MPI tasks x 1 OpenMP threads

Minimization stats:
  Stopping criterion = energy tolerance
  Energy initial, next-to-last, final = 
      -1152448.5448123  -1152448.61732023  -1152448.61732023
  Force two-norm initial, final = 0.20199182 0.00016612493
  Force max component initial, final = 0.088344523 7.2922145e-05
  Final line search alpha, max atom move = 1.0000000 7.2922145e-05
  Iterations, force evaluations = 280 560

MPI task timing breakdown:
Section |  min time  |  avg time  |  max time  |%varavg| %total
---------------------------------------------------------------
Pair    | 1.5929     | 4.4651     | 5.8693     |  58.6 | 72.83
Neigh   | 4.0436e-05 | 0.011478   | 0.016829   |   4.5 |  0.19
Comm    | 0.073426   | 0.98718    | 3.1291     |  90.2 | 16.10
Output  | 0.0001232  | 0.00012788 | 0.00028983 |   0.0 |  0.00
Modify  | 9.2767e-05 | 0.0093656  | 0.019923   |   4.5 |  0.15
Other   |            | 0.6576     |            |       | 10.73

Nlocal:        5552.90 ave        7908 max           0 min
Histogram: 4 2 2 0 2 6 4 0 15 17
Nghost:        6213.54 ave        8768 max         412 min
Histogram: 4 0 4 0 8 0 4 5 7 20
Neighs:       158427.0 ave      230524 max           0 min
Histogram: 4 2 2 0 5 3 4 4 12 16

Total # of neighbors = 8238197
Ave neighs/atom = 28.530454
Neighbor list builds = 2
Dangerous builds = 0
The dot product: -6.70740710820907e-06
Setting atom values ...
  1 settings made for x
  1 settings made for y
  1 settings made for z
Setting up cg style minimization ...
  Unit style    : metal
  Current step  : 6122
Per MPI rank memory allocation (min/avg/max) = 5.465 | 6.344 | 6.728 Mbytes
Step PotEng KinEng TotEng v_fx v_fy v_fz 
    6122   -1152448.6            0   -1152448.6  0.076740297   0.14610115 -0.087960052 
    6283   -1152448.6            0   -1152448.6 -0.0001191335 -4.6298523e-05 3.0639938e-05 
Loop time of 3.49854 on 52 procs for 161 steps with 288751 atoms

99.9% CPU use with 52 MPI tasks x 1 OpenMP threads

Minimization stats:
  Stopping criterion = energy tolerance
  Energy initial, next-to-last, final = 
     -1152448.61058835  -1152448.61363488  -1152448.61363488
  Force two-norm initial, final = 0.23159112 0.00053403054
  Force max component initial, final = 0.14610115 0.00017046417
  Final line search alpha, max atom move = 1.0000000 0.00017046417
  Iterations, force evaluations = 161 322

MPI task timing breakdown:
Section |  min time  |  avg time  |  max time  |%varavg| %total
---------------------------------------------------------------
Pair    | 0.90897    | 2.5563     | 3.3616     |  44.4 | 73.07
Neigh   | 0          | 0          | 0          |   0.0 |  0.00
Comm    | 0.042037   | 0.56116    | 1.7791     |  68.4 | 16.04
Output  | 0          | 0          | 0          |   0.0 |  0.00
Modify  | 5.6682e-05 | 0.0053832  | 0.011409   |   3.4 |  0.15
Other   |            | 0.3757     |            |       | 10.74

Nlocal:        5552.90 ave        7907 max           0 min
Histogram: 4 2 2 0 2 6 4 0 15 17
Nghost:        6213.62 ave        8769 max         412 min
Histogram: 4 0 4 0 8 0 4 5 7 20
Neighs:       158427.0 ave      230508 max           0 min
Histogram: 4 2 2 0 5 3 4 4 12 16

Total # of neighbors = 8238185
Ave neighs/atom = 28.530412
Neighbor list builds = 0
Dangerous builds = 0
The dot product: -1.99986007607873e-06
Setting atom values ...
  1 settings made for x
  1 settings made for y
  1 settings made for z
Setting up cg style minimization ...
  Unit style    : metal
  Current step  : 6283
Per MPI rank memory allocation (min/avg/max) = 5.465 | 6.344 | 6.728 Mbytes
Step PotEng KinEng TotEng v_fx v_fy v_fz 
    6283   -1152448.6            0   -1152448.6  0.065422937  0.035112553 -0.024697581 
    6588     -1152449            0     -1152449 -1.1675102e-06 1.2155823e-05 -7.7356714e-06 
Loop time of 6.68412 on 52 procs for 305 steps with 288751 atoms

99.9% CPU use with 52 MPI tasks x 1 OpenMP threads

Minimization stats:
  Stopping criterion = linesearch alpha is zero
  Energy initial, next-to-last, final = 
     -1152448.60682916  -1152448.99151409  -1152448.99151409
  Force two-norm initial, final = 0.15761655 0.000102484
  Force max component initial, final = 0.074481587 2.4748811e-05
  Final line search alpha, max atom move = 0.5 1.2374405e-05
  Iterations, force evaluations = 305 609

MPI task timing breakdown:
Section |  min time  |  avg time  |  max time  |%varavg| %total
---------------------------------------------------------------
Pair    | 1.759      | 4.8538     | 6.3661     |  60.5 | 72.62
Neigh   | 0.00011567 | 0.034426   | 0.05068    |   7.8 |  0.52
Comm    | 0.082231   | 1.0711     | 3.3723     |  93.7 | 16.02
Output  | 0          | 0          | 0          |   0.0 |  0.00
Modify  | 0.00010895 | 0.010185   | 0.021513   |   4.7 |  0.15
Other   |            | 0.7146     |            |       | 10.69

Nlocal:        5552.90 ave        7901 max           0 min
Histogram: 4 2 2 0 2 6 4 0 15 17
Nghost:        6213.62 ave        8769 max         412 min
Histogram: 4 0 4 0 8 0 4 5 7 20
Neighs:       158427.0 ave      230279 max           0 min
Histogram: 4 2 2 0 5 3 4 4 12 16

Total # of neighbors = 8238215
Ave neighs/atom = 28.530516
Neighbor list builds = 6
Dangerous builds = 0
The dot product: 4.42527117211021e-06
Setting atom values ...
  1 settings made for x
  1 settings made for y
  1 settings made for z
Setting up cg style minimization ...
  Unit style    : metal
  Current step  : 6588
Per MPI rank memory allocation (min/avg/max) = 5.465 | 6.344 | 6.728 Mbytes
Step PotEng KinEng TotEng v_fx v_fy v_fz 
    6588     -1152449            0     -1152449  -0.61712876 -0.058501854   0.76345965 
    6849   -1152449.2            0   -1152449.2 8.0829841e-06 -1.1544091e-05 8.5935756e-06 
Loop time of 5.67349 on 52 procs for 261 steps with 288751 atoms

99.9% CPU use with 52 MPI tasks x 1 OpenMP threads

Minimization stats:
  Stopping criterion = energy tolerance
  Energy initial, next-to-last, final = 
     -1152449.01577018  -1152449.17340242  -1152449.17340242
  Force two-norm initial, final = 0.99539722 0.00013187015
  Force max component initial, final = 0.76345965 2.7940128e-05
  Final line search alpha, max atom move = 1.0000000 2.7940128e-05
  Iterations, force evaluations = 261 522

MPI task timing breakdown:
Section |  min time  |  avg time  |  max time  |%varavg| %total
---------------------------------------------------------------
Pair    | 1.4871     | 4.1415     | 5.4276     |  56.1 | 73.00
Neigh   | 3.9043e-05 | 0.01146    | 0.016703   |   4.5 |  0.20
Comm    | 0.07098    | 0.91077    | 2.893      |  86.9 | 16.05
Output  | 0          | 0          | 0          |   0.0 |  0.00
Modify  | 9.1602e-05 | 0.0087146  | 0.018493   |   4.4 |  0.15
Other   |            | 0.601      |            |       | 10.59

Nlocal:        5552.90 ave        7869 max           0 min
Histogram: 4 2 2 0 2 6 4 0 14 18
Nghost:        6213.69 ave        8770 max         412 min
Histogram: 4 0 4 0 8 0 4 5 7 20
Neighs:       158427.0 ave      229197 max           0 min
Histogram: 4 2 2 0 4 4 4 4 10 18

Total # of neighbors = 8238204
Ave neighs/atom = 28.530478
Neighbor list builds = 2
Dangerous builds = 0
The dot product: -1.25207400829811e-07
Setting atom values ...
  1 settings made for x
  1 settings made for y
  1 settings made for z
Setting up cg style minimization ...
  Unit style    : metal
  Current step  : 6849
Per MPI rank memory allocation (min/avg/max) = 5.465 | 6.344 | 6.728 Mbytes
Step PotEng KinEng TotEng v_fx v_fy v_fz 
    6849   -1152449.2            0   -1152449.2   0.38115151  0.076120739  -0.23936539 
    7000   -1152449.2            0   -1152449.2 -0.00012798869 -0.00020802223 0.00027237593 
    7088   -1152449.2            0   -1152449.2 3.6905496e-06 1.6869507e-05 -1.9293365e-05 
Loop time of 5.19696 on 52 procs for 239 steps with 288751 atoms

99.9% CPU use with 52 MPI tasks x 1 OpenMP threads

Minimization stats:
  Stopping criterion = linesearch alpha is zero
  Energy initial, next-to-last, final = 
     -1152449.19775174  -1152449.22536818  -1152449.22536818
  Force two-norm initial, final = 0.48668891 9.2115413e-05
  Force max component initial, final = 0.38115151 1.9293365e-05
  Final line search alpha, max atom move = 0.5 9.6466826e-06
  Iterations, force evaluations = 239 479

MPI task timing breakdown:
Section |  min time  |  avg time  |  max time  |%varavg| %total
---------------------------------------------------------------
Pair    | 1.3572     | 3.8102     | 4.9788     |  54.0 | 73.32
Neigh   | 1.9459e-05 | 0.0057366  | 0.0083885  |   3.2 |  0.11
Comm    | 0.064444   | 0.83643    | 2.6771     |  83.5 | 16.09
Output  | 0.00012411 | 0.0001281  | 0.00028912 |   0.0 |  0.00
Modify  | 8.2686e-05 | 0.0080077  | 0.016935   |   4.2 |  0.15
Other   |            | 0.5365     |            |       | 10.32

Nlocal:        5552.90 ave        7864 max           0 min
Histogram: 4 2 2 0 2 6 4 0 13 19
Nghost:        6213.69 ave        8771 max         412 min
Histogram: 4 0 4 0 8 0 4 5 7 20
Neighs:       158427.0 ave      229039 max           0 min
Histogram: 4 2 2 0 4 4 4 4 10 18

Total # of neighbors = 8238197
Ave neighs/atom = 28.530454
Neighbor list builds = 1
Dangerous builds = 0
The dot product: 1.73922677480943e-06
Setting atom values ...
  1 settings made for x
  1 settings made for y
  1 settings made for z
Setting up cg style minimization ...
  Unit style    : metal
  Current step  : 7088
Per MPI rank memory allocation (min/avg/max) = 5.465 | 6.344 | 6.728 Mbytes
Step PotEng KinEng TotEng v_fx v_fy v_fz 
    7088   -1152449.2            0   -1152449.2 -0.090927821 0.0012974425  0.054815825 
    7322   -1152449.3            0   -1152449.3 -3.2727861e-06 1.2309975e-05 -1.2293126e-05 
Loop time of 5.09558 on 52 procs for 234 steps with 288751 atoms

99.9% CPU use with 52 MPI tasks x 1 OpenMP threads

Minimization stats:
  Stopping criterion = linesearch alpha is zero
  Energy initial, next-to-last, final = 
     -1152449.24712171  -1152449.25194091  -1152449.25194091
  Force two-norm initial, final = 0.19086516 4.8632815e-05
  Force max component initial, final = 0.090927821 1.3709253e-05
  Final line search alpha, max atom move = 0.5 6.8546265e-06
  Iterations, force evaluations = 234 471

MPI task timing breakdown:
Section |  min time  |  avg time  |  max time  |%varavg| %total
---------------------------------------------------------------
Pair    | 1.3286     | 3.7346     | 4.8958     |  53.6 | 73.29
Neigh   | 0          | 0          | 0          |   0.0 |  0.00
Comm    | 0.062103   | 0.82077    | 2.6076     |  82.8 | 16.11
Output  | 0          | 0          | 0          |   0.0 |  0.00
Modify  | 8.0886e-05 | 0.0078552  | 0.016626   |   4.1 |  0.15
Other   |            | 0.5323     |            |       | 10.45

Nlocal:        5552.90 ave        7866 max           0 min
Histogram: 4 2 2 0 2 6 4 0 13 19
Nghost:        6213.69 ave        8771 max         412 min
Histogram: 4 0 4 0 8 0 4 5 7 20
Neighs:       158427.0 ave      229107 max           0 min
Histogram: 4 2 2 0 4 4 4 4 10 18

Total # of neighbors = 8238205
Ave neighs/atom = 28.530481
Neighbor list builds = 0
Dangerous builds = 0
The dot product: -1.44226295114931e-07
Setting atom values ...
  1 settings made for x
  1 settings made for y
  1 settings made for z
Setting up cg style minimization ...
  Unit style    : metal
  Current step  : 7322
Per MPI rank memory allocation (min/avg/max) = 5.465 | 6.344 | 6.728 Mbytes
Step PotEng KinEng TotEng v_fx v_fy v_fz 
    7322   -1152449.3            0   -1152449.3   0.06775581 0.0062739169 -0.043856893 
    7438   -1152449.3            0   -1152449.3 3.619044e-05 3.5537336e-06 -2.3653528e-05 
Loop time of 2.52611 on 52 procs for 116 steps with 288751 atoms

99.9% CPU use with 52 MPI tasks x 1 OpenMP threads

Minimization stats:
  Stopping criterion = energy tolerance
  Energy initial, next-to-last, final = 
     -1152449.27280614  -1152449.27445219  -1152449.27445219
  Force two-norm initial, final = 0.18041496 0.00034164725
  Force max component initial, final = 0.089181449 8.8438059e-05
  Final line search alpha, max atom move = 1.0000000 8.8438059e-05
  Iterations, force evaluations = 116 232

MPI task timing breakdown:
Section |  min time  |  avg time  |  max time  |%varavg| %total
---------------------------------------------------------------
Pair    | 0.6568     | 1.8512     | 2.4237     |  37.8 | 73.28
Neigh   | 0          | 0          | 0          |   0.0 |  0.00
Comm    | 0.030474   | 0.40686    | 1.307      |  58.3 | 16.11
Output  | 0          | 0          | 0          |   0.0 |  0.00
Modify  | 4.0638e-05 | 0.0038742  | 0.0082219  |   2.9 |  0.15
Other   |            | 0.2642     |            |       | 10.46

Nlocal:        5552.90 ave        7865 max           0 min
Histogram: 4 2 2 0 2 6 4 0 13 19
Nghost:        6213.69 ave        8771 max         412 min
Histogram: 4 0 4 0 8 0 4 5 7 20
Neighs:       158427.0 ave      229073 max           0 min
Histogram: 4 2 2 0 4 4 4 4 10 18

Total # of neighbors = 8238203
Ave neighs/atom = 28.530474
Neighbor list builds = 0
Dangerous builds = 0
The dot product: 4.86283279330059e-07
Setting atom values ...
  1 settings made for x
  1 settings made for y
  1 settings made for z
Setting up cg style minimization ...
  Unit style    : metal
  Current step  : 7438
Per MPI rank memory allocation (min/avg/max) = 5.465 | 6.344 | 6.728 Mbytes
Step PotEng KinEng TotEng v_fx v_fy v_fz 
    7438   -1152449.3            0   -1152449.3   0.01719968 0.0072668051 -0.017890698 
    7586   -1152449.3            0   -1152449.3 2.3174126e-05 2.9303785e-05 -4.6222703e-05 
Loop time of 3.20851 on 52 procs for 148 steps with 288751 atoms

99.9% CPU use with 52 MPI tasks x 1 OpenMP threads

Minimization stats:
  Stopping criterion = energy tolerance
[...]
Nghost:        6213.58 ave        8769 max         412 min
Histogram: 4 0 4 0 8 0 4 5 7 20
Neighs:       158427.0 ave      229987 max           0 min
Histogram: 4 2 2 0 5 3 4 4 12 16

Total # of neighbors = 8238190
Ave neighs/atom = 28.530429
Neighbor list builds = 0
Dangerous builds = 0
The dot product: -6.33967161747112e-08
Setting atom values ...
  1 settings made for x
  1 settings made for y
  1 settings made for z
Setting up cg style minimization ...
  Unit style    : metal
  Current step  : 16720
Per MPI rank memory allocation (min/avg/max) = 5.465 | 6.344 | 6.728 Mbytes
Step PotEng KinEng TotEng v_fx v_fy v_fz 
   16720   -1152449.3            0   -1152449.3 -0.042419588  0.025205315 0.0019748978 
   16870   -1152449.3            0   -1152449.3 -4.6020929e-05 3.9664244e-05 -1.5497165e-05 
Loop time of 3.23612 on 52 procs for 150 steps with 288751 atoms

99.9% CPU use with 52 MPI tasks x 1 OpenMP threads

Minimization stats:
  Stopping criterion = energy tolerance
  Energy initial, next-to-last, final = 
     -1152449.33224629  -1152449.33327494  -1152449.33327494
  Force two-norm initial, final = 0.14051864 0.00031285018
  Force max component initial, final = 0.058455081 5.0031638e-05
  Final line search alpha, max atom move = 1.0000000 5.0031638e-05
  Iterations, force evaluations = 150 300

MPI task timing breakdown:
Section |  min time  |  avg time  |  max time  |%varavg| %total
---------------------------------------------------------------
Pair    | 0.84418    | 2.3629     | 3.1019     |  42.4 | 73.02
Neigh   | 0          | 0          | 0          |   0.0 |  0.00
Comm    | 0.038177   | 0.5178     | 1.6361     |  65.4 | 16.00
Output  | 0          | 0          | 0          |   0.0 |  0.00
Modify  | 4.7107e-05 | 0.0049837  | 0.010556   |   3.3 |  0.15
Other   |            | 0.3504     |            |       | 10.83

Nlocal:        5552.90 ave        7900 max           0 min
Histogram: 4 2 2 0 2 6 4 0 14 18
Nghost:        6213.58 ave        8769 max         412 min
Histogram: 4 0 4 0 8 0 4 5 7 20
Neighs:       158427.0 ave      230235 max           0 min
Histogram: 4 2 2 0 5 3 4 4 12 16

Total # of neighbors = 8238191
Ave neighs/atom = 28.530433
Neighbor list builds = 0
Dangerous builds = 0
The dot product: 1.66694126537066e-07
Setting atom values ...
  1 settings made for x
  1 settings made for y
  1 settings made for z
Setting up cg style minimization ...
  Unit style    : metal
  Current step  : 16870
Per MPI rank memory allocation (min/avg/max) = 5.465 | 6.344 | 6.728 Mbytes
Step PotEng KinEng TotEng v_fx v_fy v_fz 
   16870   -1152449.3            0   -1152449.3 -0.043189547  0.026008804 0.0013872749 
   17000   -1152449.3            0   -1152449.3  5.44772e-05 2.2612147e-05 -8.1155519e-05 
   17042   -1152449.3            0   -1152449.3 -2.2338264e-05 -2.9756946e-06 2.4255964e-05 
Loop time of 3.69658 on 52 procs for 172 steps with 288751 atoms

99.9% CPU use with 52 MPI tasks x 1 OpenMP threads

Minimization stats:
  Stopping criterion = energy tolerance
  Energy initial, next-to-last, final = 
     -1152449.33884213  -1152449.33988634  -1152449.33988634
  Force two-norm initial, final = 0.14150437 0.00017916876
  Force max component initial, final = 0.06019071 4.4196260e-05
  Final line search alpha, max atom move = 1.0000000 4.4196260e-05
  Iterations, force evaluations = 172 344

MPI task timing breakdown:
Section |  min time  |  avg time  |  max time  |%varavg| %total
---------------------------------------------------------------
Pair    | 0.96611    | 2.705      | 3.548      |  45.5 | 73.18
Neigh   | 0          | 0          | 0          |   0.0 |  0.00
Comm    | 0.043595   | 0.59124    | 1.8724     |  70.2 | 15.99
Output  | 0.00017046 | 0.00017513 | 0.00036808 |   0.0 |  0.00
Modify  | 5.781e-05  | 0.0057201  | 0.012111   |   3.5 |  0.15
Other   |            | 0.3945     |            |       | 10.67

Nlocal:        5552.90 ave        7904 max           0 min
Histogram: 4 2 2 0 2 6 4 0 15 17
Nghost:        6213.58 ave        8769 max         412 min
Histogram: 4 0 4 0 8 0 4 5 7 20
Neighs:       158427.0 ave      230361 max           0 min
Histogram: 4 2 2 0 5 3 4 4 12 16

Total # of neighbors = 8238192
Ave neighs/atom = 28.530436
Neighbor list builds = 0
Dangerous builds = 0
The dot product: 6.18623631620486e-08
Setting atom values ...
  1 settings made for x
  1 settings made for y
  1 settings made for z
Setting up cg style minimization ...
  Unit style    : metal
  Current step  : 17042
Per MPI rank memory allocation (min/avg/max) = 5.465 | 6.344 | 6.728 Mbytes
Step PotEng KinEng TotEng v_fx v_fy v_fz 
   17042   -1152449.3            0   -1152449.3 -0.043001216  0.026503068 0.00037704694 
   17223   -1152449.3            0   -1152449.3 1.1210916e-05 1.5631174e-05 -3.2415986e-05 
Loop time of 3.90387 on 52 procs for 181 steps with 288751 atoms

99.9% CPU use with 52 MPI tasks x 1 OpenMP threads

Minimization stats:
  Stopping criterion = linesearch alpha is zero
  Energy initial, next-to-last, final = 
     -1152449.34395973  -1152449.34501563  -1152449.34501563
  Force two-norm initial, final = 0.14199518 0.00012550471
  Force max component initial, final = 0.06179755 3.2415986e-05
  Final line search alpha, max atom move = 0.5 1.6207993e-05
  Iterations, force evaluations = 181 363

MPI task timing breakdown:
Section |  min time  |  avg time  |  max time  |%varavg| %total
---------------------------------------------------------------
Pair    | 1.0221     | 2.8555     | 3.7518     |  46.7 | 73.15
Neigh   | 0          | 0          | 0          |   0.0 |  0.00
Comm    | 0.046394   | 0.62377    | 1.9741     |  72.0 | 15.98
Output  | 0          | 0          | 0          |   0.0 |  0.00
Modify  | 5.8027e-05 | 0.0060186  | 0.012758   |   3.6 |  0.15
Other   |            | 0.4186     |            |       | 10.72

Nlocal:        5552.90 ave        7908 max           0 min
Histogram: 4 2 2 0 2 6 4 0 15 17
Nghost:        6213.54 ave        8769 max         412 min
Histogram: 4 0 4 0 8 0 4 5 7 20
Neighs:       158427.0 ave      230497 max           0 min
Histogram: 4 2 2 0 5 3 4 4 12 16

Total # of neighbors = 8238191
Ave neighs/atom = 28.530433
Neighbor list builds = 0
Dangerous builds = 0
The dot product: -1.5990203888976e-08
Setting atom values ...
  1 settings made for x
  1 settings made for y
  1 settings made for z
Setting up cg style minimization ...
  Unit style    : metal
  Current step  : 17223
Per MPI rank memory allocation (min/avg/max) = 5.465 | 6.344 | 6.728 Mbytes
Step PotEng KinEng TotEng v_fx v_fy v_fz 
   17223   -1152449.3            0   -1152449.3 -0.042069773  0.026879319 -0.0011269695 
   17367   -1152449.3            0   -1152449.3 -6.9636794e-05 1.4312295e-06 5.9914085e-05 
Loop time of 3.10271 on 52 procs for 144 steps with 288751 atoms

99.9% CPU use with 52 MPI tasks x 1 OpenMP threads

Minimization stats:
  Stopping criterion = energy tolerance
  Energy initial, next-to-last, final = 
     -1152449.34760221  -1152449.34866885  -1152449.34866885
  Force two-norm initial, final = 0.1422775 0.00033644882
  Force max component initial, final = 0.063424072 6.9636794e-05
  Final line search alpha, max atom move = 1.0000000 6.9636794e-05
  Iterations, force evaluations = 144 288

MPI task timing breakdown:
Section |  min time  |  avg time  |  max time  |%varavg| %total
---------------------------------------------------------------
Pair    | 0.8091     | 2.2661     | 2.9767     |  41.6 | 73.04
Neigh   | 0          | 0          | 0          |   0.0 |  0.00
Comm    | 0.036608   | 0.49509    | 1.5683     |  64.2 | 15.96
Output  | 0          | 0          | 0          |   0.0 |  0.00
Modify  | 4.6995e-05 | 0.0047952  | 0.01021    |   3.2 |  0.15
Other   |            | 0.3367     |            |       | 10.85

Nlocal:        5552.90 ave        7910 max           0 min
Histogram: 4 2 2 0 2 6 4 0 15 17
Nghost:        6213.54 ave        8769 max         412 min
Histogram: 4 0 4 0 8 0 4 5 7 20
Neighs:       158427.0 ave      230540 max           0 min
Histogram: 4 2 2 0 5 3 4 4 12 16

Total # of neighbors = 8238188
Ave neighs/atom = 28.530422
Neighbor list builds = 0
Dangerous builds = 0
The dot product: 2.02121742449993e-07
Setting atom values ...
  1 settings made for x
  1 settings made for y
  1 settings made for z
Setting up cg style minimization ...
  Unit style    : metal
  Current step  : 17367
Per MPI rank memory allocation (min/avg/max) = 5.465 | 6.344 | 6.728 Mbytes
Step PotEng KinEng TotEng v_fx v_fy v_fz 
   17367   -1152449.3            0   -1152449.3 -0.040787685   0.02710412 -0.002719891 
   17552   -1152449.4            0   -1152449.4 -9.0163242e-06 9.6802437e-06 -5.8973063e-06 
Loop time of 3.98709 on 52 procs for 185 steps with 288751 atoms

99.9% CPU use with 52 MPI tasks x 1 OpenMP threads

Minimization stats:
  Stopping criterion = energy tolerance
  Energy initial, next-to-last, final = 
     -1152449.34977485   -1152449.3508517   -1152449.3508517
  Force two-norm initial, final = 0.14243755 0.00010321107
  Force max component initial, final = 0.064975595 1.2303409e-05
  Final line search alpha, max atom move = 1.0000000 1.2303409e-05
  Iterations, force evaluations = 185 370

MPI task timing breakdown:
Section |  min time  |  avg time  |  max time  |%varavg| %total
---------------------------------------------------------------
Pair    | 1.042      | 2.9111     | 3.8243     |  47.1 | 73.01
Neigh   | 0          | 0          | 0          |   0.0 |  0.00
Comm    | 0.049944   | 0.63711    | 2.0121     |  72.6 | 15.98
Output  | 0          | 0          | 0          |   0.0 |  0.00
Modify  | 5.9886e-05 | 0.0061429  | 0.013123   |   3.6 |  0.15
Other   |            | 0.4328     |            |       | 10.85

Nlocal:        5552.90 ave        7913 max           0 min
Histogram: 4 2 2 0 2 6 4 1 14 17
Nghost:        6213.54 ave        8769 max         412 min
Histogram: 4 0 4 0 8 0 4 5 7 20
Neighs:       158427.0 ave      230625 max           0 min
Histogram: 4 2 2 0 5 3 4 4 12 16

Total # of neighbors = 8238188
Ave neighs/atom = 28.530422
Neighbor list builds = 0
Dangerous builds = 0
The dot product: 3.70466937857938e-08
Setting atom values ...
  1 settings made for x
  1 settings made for y
  1 settings made for z
Setting up cg style minimization ...
  Unit style    : metal
  Current step  : 17552
Per MPI rank memory allocation (min/avg/max) = 5.465 | 6.344 | 6.728 Mbytes
Step PotEng KinEng TotEng v_fx v_fy v_fz 
   17552   -1152449.4            0   -1152449.4 -0.039336417  0.027305589 -0.0044198247 
   17725   -1152449.4            0   -1152449.4 -3.1725384e-05 -2.3354581e-06 3.1431487e-05 
Loop time of 3.72617 on 52 procs for 173 steps with 288751 atoms

99.9% CPU use with 52 MPI tasks x 1 OpenMP threads

Minimization stats:
  Stopping criterion = energy tolerance
  Energy initial, next-to-last, final = 
     -1152449.35049094  -1152449.35157342  -1152449.35157342
  Force two-norm initial, final = 0.14246811 0.00016773747
  Force max component initial, final = 0.06647047 3.1725384e-05
  Final line search alpha, max atom move = 1.0000000 3.1725384e-05
  Iterations, force evaluations = 173 346

MPI task timing breakdown:
Section |  min time  |  avg time  |  max time  |%varavg| %total
---------------------------------------------------------------
Pair    | 0.9747     | 2.7225     | 3.5814     |  45.5 | 73.06
Neigh   | 0          | 0          | 0          |   0.0 |  0.00
Comm    | 0.043845   | 0.59617    | 1.8831     |  70.2 | 16.00
Output  | 0          | 0          | 0          |   0.0 |  0.00
Modify  | 5.4898e-05 | 0.0057474  | 0.012165   |   3.5 |  0.15
Other   |            | 0.4018     |            |       | 10.78

Nlocal:        5552.90 ave        7916 max           0 min
Histogram: 4 2 2 0 2 6 4 1 14 17
Nghost:        6213.54 ave        8769 max         412 min
Histogram: 4 0 4 0 8 0 4 5 7 20
Neighs:       158427.0 ave      230724 max           0 min
Histogram: 4 2 2 0 5 3 4 4 12 16

Total # of neighbors = 8238190
Ave neighs/atom = 28.530429
Neighbor list builds = 0
Dangerous builds = 0
The dot product: 8.1115259639257e-08
Setting atom values ...
  1 settings made for x
  1 settings made for y
  1 settings made for z
Setting up cg style minimization ...
  Unit style    : metal
  Current step  : 17725
Per MPI rank memory allocation (min/avg/max) = 5.465 | 6.344 | 6.728 Mbytes
Step PotEng KinEng TotEng v_fx v_fy v_fz 
   17725   -1152449.3            0   -1152449.3 -0.038602247  0.027570681 -0.0055687428 
   17933   -1152449.4            0   -1152449.4 -1.2013474e-05 -1.4443199e-07 1.0812233e-05 
Loop time of 4.51552 on 52 procs for 208 steps with 288751 atoms

99.9% CPU use with 52 MPI tasks x 1 OpenMP threads

Minimization stats:
  Stopping criterion = linesearch alpha is zero
  Energy initial, next-to-last, final = 
     -1152449.34977833  -1152449.35086477  -1152449.35086477
  Force two-norm initial, final = 0.14251868 5.5771919e-05
  Force max component initial, final = 0.067917754 1.6214603e-05
  Final line search alpha, max atom move = 0.5 8.1073015e-06
  Iterations, force evaluations = 208 417

MPI task timing breakdown:
Section |  min time  |  avg time  |  max time  |%varavg| %total
---------------------------------------------------------------
Pair    | 1.1709     | 3.29       | 4.3084     |  49.9 | 72.86
Neigh   | 0          | 0          | 0          |   0.0 |  0.00
Comm    | 0.053266   | 0.72249    | 2.2649     |  76.8 | 16.00
Output  | 0          | 0          | 0          |   0.0 |  0.00
Modify  | 6.4114e-05 | 0.0069225  | 0.014634   |   3.9 |  0.15
Other   |            | 0.4961     |            |       | 10.99

Nlocal:        5552.90 ave        7917 max           0 min
Histogram: 4 2 2 0 2 6 4 1 14 17
Nghost:        6213.54 ave        8769 max         412 min
Histogram: 4 0 4 0 8 0 4 5 7 20
Neighs:       158427.0 ave      230782 max           0 min
Histogram: 4 2 2 0 5 3 4 4 12 16

Total # of neighbors = 8238196
Ave neighs/atom = 28.530450
Neighbor list builds = 0
Dangerous builds = 0
The dot product: 3.16260008076045e-08
Setting atom values ...
  1 settings made for x
  1 settings made for y
  1 settings made for z
Setting up cg style minimization ...
  Unit style    : metal
  Current step  : 17933
Per MPI rank memory allocation (min/avg/max) = 5.465 | 6.344 | 6.728 Mbytes
Step PotEng KinEng TotEng v_fx v_fy v_fz 
   17933   -1152449.3            0   -1152449.3 -0.039251344  0.028069772 -0.0058341637 
   18000   -1152449.3            0   -1152449.3 0.00010361376 -0.00011639519 7.6271322e-05 
   18095   -1152449.3            0   -1152449.3 1.2754178e-05 -1.2961732e-05 7.4230566e-06 
Loop time of 3.4867 on 52 procs for 162 steps with 288751 atoms

99.9% CPU use with 52 MPI tasks x 1 OpenMP threads

Minimization stats:
  Stopping criterion = energy tolerance
  Energy initial, next-to-last, final = 
      -1152449.3477159  -1152449.34880795  -1152449.34880795
  Force two-norm initial, final = 0.14276099 0.00022887152
  Force max component initial, final = 0.06932346 3.9364079e-05
  Final line search alpha, max atom move = 1.0000000 3.9364079e-05
  Iterations, force evaluations = 162 324

MPI task timing breakdown:
Section |  min time  |  avg time  |  max time  |%varavg| %total
---------------------------------------------------------------
Pair    | 0.91167    | 2.5498     | 3.3506     |  44.1 | 73.13
Neigh   | 0          | 0          | 0          |   0.0 |  0.00
Comm    | 0.040795   | 0.55798    | 1.7617     |  68.0 | 16.00
Output  | 0.00012543 | 0.00013014 | 0.0003199  |   0.0 |  0.00
Modify  | 5.4437e-05 | 0.0053849  | 0.011394   |   3.4 |  0.15
Other   |            | 0.3734     |            |       | 10.71

Nlocal:        5552.90 ave        7917 max           0 min
Histogram: 4 2 2 0 2 6 4 1 14 17
Nghost:        6213.54 ave        8769 max         412 min
Histogram: 4 0 4 0 8 0 4 5 7 20
Neighs:       158427.0 ave      230793 max           0 min
Histogram: 4 2 2 0 5 3 4 4 12 16

Total # of neighbors = 8238193
Ave neighs/atom = 28.530440
Neighbor list builds = 0
Dangerous builds = 0
The dot product: -5.72837740415623e-08
Setting atom values ...
  1 settings made for x
  1 settings made for y
  1 settings made for z
Setting up cg style minimization ...
  Unit style    : metal
  Current step  : 18095
Per MPI rank memory allocation (min/avg/max) = 5.465 | 6.344 | 6.728 Mbytes
Step PotEng KinEng TotEng v_fx v_fy v_fz 
   18095   -1152449.3            0   -1152449.3 -0.042331185  0.028936263 -0.0045094095 
   18255   -1152449.3            0   -1152449.3 1.672464e-05 1.0831489e-05 -3.0286744e-05 
Loop time of 3.45107 on 52 procs for 160 steps with 288751 atoms

99.9% CPU use with 52 MPI tasks x 1 OpenMP threads

Minimization stats:
  Stopping criterion = energy tolerance
  Energy initial, next-to-last, final = 
     -1152449.34448242  -1152449.34561256  -1152449.34561256
  Force two-norm initial, final = 0.14406782 0.00017824216
  Force max component initial, final = 0.07067562 3.7998437e-05
  Final line search alpha, max atom move = 1.0000000 3.7998437e-05
  Iterations, force evaluations = 160 320

MPI task timing breakdown:
Section |  min time  |  avg time  |  max time  |%varavg| %total
---------------------------------------------------------------
Pair    | 0.90267    | 2.5188     | 3.315      |  43.8 | 72.99
Neigh   | 0          | 0          | 0          |   0.0 |  0.00
Comm    | 0.040829   | 0.55177    | 1.7408     |  67.4 | 15.99
Output  | 0          | 0          | 0          |   0.0 |  0.00
Modify  | 4.9766e-05 | 0.0053003  | 0.011215   |   3.4 |  0.15
Other   |            | 0.3752     |            |       | 10.87

Nlocal:        5552.90 ave        7918 max           0 min
Histogram: 4 2 2 0 2 6 4 1 14 17
Nghost:        6213.54 ave        8769 max         412 min
Histogram: 4 0 4 0 8 0 4 5 7 20
Neighs:       158427.0 ave      230835 max           0 min
Histogram: 4 2 2 0 5 3 4 4 12 16

Total # of neighbors = 8238193
Ave neighs/atom = 28.530440
Neighbor list builds = 0
Dangerous builds = 0
The dot product: -5.62527100824887e-08
Setting atom values ...
  1 settings made for x
  1 settings made for y
  1 settings made for z
Setting up cg style minimization ...
  Unit style    : metal
  Current step  : 18255
Per MPI rank memory allocation (min/avg/max) = 5.465 | 6.344 | 6.728 Mbytes
Step PotEng KinEng TotEng v_fx v_fy v_fz 
   18255   -1152449.3            0   -1152449.3 -0.049550014  0.030477732 -0.00060155554 
   18494   -1152449.3            0   -1152449.3 3.9028438e-05 -3.4162403e-05 1.5114671e-05 
Loop time of 5.13494 on 52 procs for 239 steps with 288751 atoms

99.9% CPU use with 52 MPI tasks x 1 OpenMP threads

Minimization stats:
  Stopping criterion = energy tolerance
  Energy initial, next-to-last, final = 
     -1152449.34053353  -1152449.34898539  -1152449.34898539
  Force two-norm initial, final = 0.1495001 0.00028993032
  Force max component initial, final = 0.071918668 6.0084777e-05
  Final line search alpha, max atom move = 1.0000000 6.0084777e-05
  Iterations, force evaluations = 239 478

MPI task timing breakdown:
Section |  min time  |  avg time  |  max time  |%varavg| %total
---------------------------------------------------------------
Pair    | 1.3495     | 3.7566     | 4.9256     |  53.4 | 73.16
Neigh   | 1.8862e-05 | 0.0057226  | 0.0084133  |   3.2 |  0.11
Comm    | 0.060956   | 0.82164    | 2.5979     |  82.6 | 16.00
Output  | 0          | 0          | 0          |   0.0 |  0.00
Modify  | 7.7142e-05 | 0.0079325  | 0.016826   |   4.1 |  0.15
Other   |            | 0.5431     |            |       | 10.58

Nlocal:        5552.90 ave        7908 max           0 min
Histogram: 4 2 2 0 2 6 4 0 15 17
Nghost:        6213.54 ave        8769 max         412 min
Histogram: 4 0 4 0 8 0 4 5 7 20
Neighs:       158427.0 ave      230480 max           0 min
Histogram: 4 2 2 0 5 3 4 4 12 16

Total # of neighbors = 8238201
Ave neighs/atom = 28.530467
Neighbor list builds = 1
Dangerous builds = 0
The dot product: -3.36541307042405e-06
