LAMMPS (29 Oct 2020)
OMP_NUM_THREADS environment is not set. Defaulting to 1 thread. (../comm.cpp:94)
  using 1 OpenMP thread(s) per MPI task
OMP_NUM_THREADS environment is not set. Defaulting to 1 thread. (../comm.cpp:94)
  using 1 OpenMP thread(s) per MPI task
Reading data file ...
  orthogonal box = (-122.39241 -121.13707 -37.090501) to (122.39241 121.13707 37.090501)
  13 by 4 by 1 MPI processor grid
  reading atoms ...
  288751 atoms
  read_data CPU = 0.471 seconds
199981 atoms in group inner
88770 atoms in group outer
1 atoms in group carbon
Neighbor list info ...
  update every 1 steps, delay 0 steps, check yes
  max neighbors/atom: 2000, page size: 100000
  master list distance cutoff = 5.6
  ghost atom cutoff = 5.6
  binsize = 2.8, bins = 88 87 27
  1 neighbor lists, perpetual/occasional/extra = 1 0 0
  (1) pair eam/alloy, perpetual
      attributes: half, newton on
      pair build: half/bin/atomonly/newton
      stencil: half/bin/3d/newton
      bin: standard
Setting up cg style minimization ...
  Unit style    : metal
  Current step  : 0
Per MPI rank memory allocation (min/avg/max) = 5.465 | 6.344 | 6.728 Mbytes
Step v_fx v_fy v_fz PotEng KinEng TotEng 
       0   -1.7454714  -0.79220858    2.6090364   -1152447.8            0   -1152447.8 
     160 3.6149461e-05 -1.9149595e-06 -4.1565343e-06   -1152449.5            0   -1152449.5 
Loop time of 3.57902 on 52 procs for 160 steps with 288751 atoms

99.9% CPU use with 52 MPI tasks x 1 OpenMP threads

Minimization stats:
  Stopping criterion = energy tolerance
  Energy initial, next-to-last, final = 
     -1152447.77477232  -1152449.45035283  -1152449.45035283
  Force two-norm initial, final = 10.234841 0.00012829895
  Force max component initial, final = 6.2416090 3.6149461e-05
  Final line search alpha, max atom move = 1.0000000 3.6149461e-05
  Iterations, force evaluations = 160 319

MPI task timing breakdown:
Section |  min time  |  avg time  |  max time  |%varavg| %total
---------------------------------------------------------------
Pair    | 0.92656    | 2.5532     | 3.3505     |  43.6 | 71.34
Neigh   | 5.9025e-05 | 0.018837   | 0.029258   |   5.9 |  0.53
Comm    | 0.059582   | 0.57736    | 1.8007     |  67.0 | 16.13
Output  | 0          | 0          | 0          |   0.0 |  0.00
Modify  | 4.3061e-05 | 0.0035201  | 0.0088408  |   3.6 |  0.10
Other   |            | 0.4261     |            |       | 11.90

Nlocal:        5552.90 ave        7912 max           0 min
Histogram: 4 2 2 0 2 6 4 0 15 17
Nghost:        6213.54 ave        8769 max         412 min
Histogram: 4 0 4 0 8 0 4 5 7 20
Neighs:       158427.0 ave      230634 max           0 min
Histogram: 4 2 2 0 5 3 4 4 12 16

Total # of neighbors = 8238206
Ave neighs/atom = 28.530485
Neighbor list builds = 3
Dangerous builds = 0
Setting atom values ...
  1 settings made for x
  1 settings made for y
  1 settings made for z
Setting up cg style minimization ...
  Unit style    : metal
  Current step  : 160
Per MPI rank memory allocation (min/avg/max) = 5.465 | 6.344 | 6.728 Mbytes
Step PotEng KinEng TotEng v_fx v_fy v_fz 
     160   -1152449.4            0   -1152449.4 0.00027723702 -0.0097003049 -0.0087344335 
     342   -1152449.5            0   -1152449.5 -1.3342448e-05 2.3102876e-06 2.2972827e-05 
Loop time of 4.07412 on 52 procs for 182 steps with 288751 atoms

99.8% CPU use with 52 MPI tasks x 1 OpenMP threads

Minimization stats:
  Stopping criterion = linesearch alpha is zero
  Energy initial, next-to-last, final = 
     -1152449.44959042  -1152449.45008256  -1152449.45008256
  Force two-norm initial, final = 0.10177626 8.4741267e-05
  Force max component initial, final = 0.051591767 2.2972827e-05
  Final line search alpha, max atom move = 0.5 1.1486413e-05
  Iterations, force evaluations = 182 365

MPI task timing breakdown:
Section |  min time  |  avg time  |  max time  |%varavg| %total
---------------------------------------------------------------
Pair    | 1.0266     | 2.9104     | 3.8161     |  47.3 | 71.44
Neigh   | 0          | 0          | 0          |   0.0 |  0.00
Comm    | 0.061534   | 0.65732    | 2.0499     |  71.6 | 16.13
Output  | 0          | 0          | 0          |   0.0 |  0.00
Modify  | 6.8628e-05 | 0.0061311  | 0.012844   |   3.6 |  0.15
Other   |            | 0.5002     |            |       | 12.28

Nlocal:        5552.90 ave        7913 max           0 min
Histogram: 4 2 2 0 2 6 4 1 14 17
Nghost:        6213.54 ave        8769 max         412 min
Histogram: 4 0 4 0 8 0 4 5 7 20
Neighs:       158427.0 ave      230666 max           0 min
Histogram: 4 2 2 0 5 3 4 4 12 16

Total # of neighbors = 8238197
Ave neighs/atom = 28.530454
Neighbor list builds = 0
Dangerous builds = 0
Setting atom values ...
  1 settings made for x
  1 settings made for y
  1 settings made for z
Setting up cg style minimization ...
  Unit style    : metal
  Current step  : 342
Per MPI rank memory allocation (min/avg/max) = 5.465 | 6.344 | 6.728 Mbytes
Step PotEng KinEng TotEng v_fx v_fy v_fz 
     342   -1152449.4            0   -1152449.4 -0.00048731993 -0.020421332 -0.018551963 
     572   -1152449.4            0   -1152449.4 2.2009562e-06  1.29943e-07 -3.8925121e-06 
Loop time of 5.10335 on 52 procs for 230 steps with 288751 atoms

99.9% CPU use with 52 MPI tasks x 1 OpenMP threads

Minimization stats:
  Stopping criterion = energy tolerance
  Energy initial, next-to-last, final = 
     -1152449.44665109   -1152449.4482575   -1152449.4482575
  Force two-norm initial, final = 0.1851812 2.6969162e-05
  Force max component initial, final = 0.093912729 3.8925121e-06
  Final line search alpha, max atom move = 1.0000000 3.8925121e-06
  Iterations, force evaluations = 230 460

MPI task timing breakdown:
Section |  min time  |  avg time  |  max time  |%varavg| %total
---------------------------------------------------------------
Pair    | 1.3112     | 3.653      | 4.798      |  52.6 | 71.58
Neigh   | 0          | 0          | 0          |   0.0 |  0.00
Comm    | 0.072139   | 0.81751    | 2.5553     |  80.6 | 16.02
Output  | 0          | 0          | 0          |   0.0 |  0.00
Modify  | 0.00010083 | 0.00775    | 0.01631    |   4.1 |  0.15
Other   |            | 0.625      |            |       | 12.25

Nlocal:        5552.90 ave        7913 max           0 min
Histogram: 4 2 2 0 2 6 4 1 14 17
Nghost:        6213.54 ave        8769 max         412 min
Histogram: 4 0 4 0 8 0 4 5 7 20
Neighs:       158427.0 ave      230666 max           0 min
Histogram: 4 2 2 0 5 3 4 4 12 16

Total # of neighbors = 8238198
Ave neighs/atom = 28.530457
Neighbor list builds = 0
Dangerous builds = 0
The dot product: 8.15867325240353e-09
Setting atom values ...
  1 settings made for x
  1 settings made for y
  1 settings made for z
Setting up cg style minimization ...
  Unit style    : metal
  Current step  : 572
Per MPI rank memory allocation (min/avg/max) = 5.465 | 6.344 | 6.728 Mbytes
Step PotEng KinEng TotEng v_fx v_fy v_fz 
     572   -1152449.4            0   -1152449.4 -0.0022142684 -0.026613337 -0.024918712 
     696   -1152449.4            0   -1152449.4 1.3761183e-05 1.3256989e-06 -2.8058606e-05 
Loop time of 2.77033 on 52 procs for 124 steps with 288751 atoms

99.9% CPU use with 52 MPI tasks x 1 OpenMP threads

Minimization stats:
  Stopping criterion = energy tolerance
  Energy initial, next-to-last, final = 
     -1152449.44328073  -1152449.44489421  -1152449.44489421
  Force two-norm initial, final = 0.18667051 0.00025804805
  Force max component initial, final = 0.092468495 3.7625678e-05
  Final line search alpha, max atom move = 1.0000000 3.7625678e-05
  Iterations, force evaluations = 124 248

MPI task timing breakdown:
Section |  min time  |  avg time  |  max time  |%varavg| %total
---------------------------------------------------------------
Pair    | 0.70024    | 1.9816     | 2.5896     |  39.0 | 71.53
Neigh   | 0          | 0          | 0          |   0.0 |  0.00
Comm    | 0.041445   | 0.4439     | 1.403      |  59.9 | 16.02
Output  | 0          | 0          | 0          |   0.0 |  0.00
Modify  | 5.2999e-05 | 0.0041716  | 0.0087293  |   3.0 |  0.15
Other   |            | 0.3406     |            |       | 12.30

Nlocal:        5552.90 ave        7912 max           0 min
Histogram: 4 2 2 0 2 6 4 0 15 17
Nghost:        6213.54 ave        8769 max         412 min
Histogram: 4 0 4 0 8 0 4 5 7 20
Neighs:       158427.0 ave      230616 max           0 min
Histogram: 4 2 2 0 5 3 4 4 12 16

Total # of neighbors = 8238196
Ave neighs/atom = 28.530450
Neighbor list builds = 0
Dangerous builds = 0
The dot product: 9.83038695008611e-08
Setting atom values ...
  1 settings made for x
  1 settings made for y
  1 settings made for z
Setting up cg style minimization ...
  Unit style    : metal
  Current step  : 696
Per MPI rank memory allocation (min/avg/max) = 5.465 | 6.344 | 6.728 Mbytes
Step PotEng KinEng TotEng v_fx v_fy v_fz 
     696   -1152449.4            0   -1152449.4 -0.0068142504 -0.031597253 -0.027052694 
     801   -1152449.4            0   -1152449.4 -3.2428421e-05 -8.084002e-08 8.4631932e-05 
Loop time of 2.33918 on 52 procs for 105 steps with 288751 atoms

99.9% CPU use with 52 MPI tasks x 1 OpenMP threads

Minimization stats:
  Stopping criterion = energy tolerance
  Energy initial, next-to-last, final = 
      -1152449.4385815  -1152449.44020473  -1152449.44020473
  Force two-norm initial, final = 0.18715732 0.00030834243
  Force max component initial, final = 0.089038487 8.4631932e-05
  Final line search alpha, max atom move = 1.0000000 8.4631932e-05
  Iterations, force evaluations = 105 210

MPI task timing breakdown:
Section |  min time  |  avg time  |  max time  |%varavg| %total
---------------------------------------------------------------
Pair    | 0.58987    | 1.6766     | 2.195      |  35.9 | 71.68
Neigh   | 0          | 0          | 0          |   0.0 |  0.00
Comm    | 0.033025   | 0.37628    | 1.1728     |  54.6 | 16.09
Output  | 0          | 0          | 0          |   0.0 |  0.00
Modify  | 3.7614e-05 | 0.003516   | 0.0073994  |   2.7 |  0.15
Other   |            | 0.2828     |            |       | 12.09

Nlocal:        5552.90 ave        7911 max           0 min
Histogram: 4 2 2 0 2 6 4 0 15 17
Nghost:        6213.54 ave        8769 max         412 min
Histogram: 4 0 4 0 8 0 4 5 7 20
Neighs:       158427.0 ave      230592 max           0 min
Histogram: 4 2 2 0 5 3 4 4 12 16

Total # of neighbors = 8238195
Ave neighs/atom = 28.530447
Neighbor list builds = 0
Dangerous builds = 0
The dot product: -3.41578082990186e-07
Setting atom values ...
  1 settings made for x
  1 settings made for y
  1 settings made for z
Setting up cg style minimization ...
  Unit style    : metal
  Current step  : 801
Per MPI rank memory allocation (min/avg/max) = 5.465 | 6.344 | 6.728 Mbytes
Step PotEng KinEng TotEng v_fx v_fy v_fz 
     801   -1152449.4            0   -1152449.4 -0.011253314 -0.032423128 -0.023778749 
     900   -1152449.4            0   -1152449.4 -2.9866827e-05 -5.1621944e-06 8.5367027e-05 
Loop time of 2.19195 on 52 procs for 99 steps with 288751 atoms

99.9% CPU use with 52 MPI tasks x 1 OpenMP threads

Minimization stats:
  Stopping criterion = energy tolerance
  Energy initial, next-to-last, final = 
     -1152449.43257852  -1152449.43418021  -1152449.43418021
  Force two-norm initial, final = 0.18573895 0.00031136305
  Force max component initial, final = 0.08489747 8.5367027e-05
  Final line search alpha, max atom move = 1.0000000 8.5367027e-05
  Iterations, force evaluations = 99 198

MPI task timing breakdown:
Section |  min time  |  avg time  |  max time  |%varavg| %total
---------------------------------------------------------------
Pair    | 0.55651    | 1.5759     | 2.0685     |  34.8 | 71.90
Neigh   | 0          | 0          | 0          |   0.0 |  0.00
Comm    | 0.030694   | 0.35284    | 1.1132     |  53.1 | 16.10
Output  | 0          | 0          | 0          |   0.0 |  0.00
Modify  | 3.7221e-05 | 0.0033296  | 0.0070269  |   2.7 |  0.15
Other   |            | 0.2599     |            |       | 11.86

Nlocal:        5552.90 ave        7909 max           0 min
Histogram: 4 2 2 0 2 6 4 0 15 17
Nghost:        6213.54 ave        8769 max         412 min
Histogram: 4 0 4 0 8 0 4 5 7 20
Neighs:       158427.0 ave      230530 max           0 min
Histogram: 4 2 2 0 5 3 4 4 12 16

Total # of neighbors = 8238197
Ave neighs/atom = 28.530454
Neighbor list builds = 0
Dangerous builds = 0
The dot product: -2.96336580748409e-07
Setting atom values ...
  1 settings made for x
  1 settings made for y
  1 settings made for z
Setting up cg style minimization ...
  Unit style    : metal
  Current step  : 900
Per MPI rank memory allocation (min/avg/max) = 5.465 | 6.344 | 6.728 Mbytes
Step PotEng KinEng TotEng v_fx v_fy v_fz 
     900   -1152449.4            0   -1152449.4 -0.013810374 -0.030703208 -0.018387067 
    1000   -1152449.4            0   -1152449.4 1.5530082e-05 1.3004912e-05 -2.841607e-05 
    1027   -1152449.4            0   -1152449.4 2.397691e-06 -4.3217515e-06 -1.8825551e-05 
Loop time of 2.82185 on 52 procs for 127 steps with 288751 atoms

99.9% CPU use with 52 MPI tasks x 1 OpenMP threads

Minimization stats:
  Stopping criterion = linesearch alpha is zero
  Energy initial, next-to-last, final = 
     -1152449.42520638  -1152449.42677522  -1152449.42677522
  Force two-norm initial, final = 0.18369175 0.00011355827
  Force max component initial, final = 0.08143475 1.8825551e-05
  Final line search alpha, max atom move = 0.5 9.4127755e-06
  Iterations, force evaluations = 127 255

MPI task timing breakdown:
Section |  min time  |  avg time  |  max time  |%varavg| %total
---------------------------------------------------------------
Pair    | 0.71381    | 2.0298     | 2.6613     |  39.5 | 71.93
Neigh   | 0          | 0          | 0          |   0.0 |  0.00
Comm    | 0.040675   | 0.45381    | 1.4243     |  60.5 | 16.08
Output  | 0.00017473 | 0.00017861 | 0.00034452 |   0.0 |  0.01
Modify  | 5.1767e-05 | 0.0042656  | 0.008973   |   3.0 |  0.15
Other   |            | 0.3338     |            |       | 11.83

Nlocal:        5552.90 ave        7907 max           0 min
Histogram: 4 2 2 0 2 6 4 0 15 17
Nghost:        6213.54 ave        8769 max         412 min
Histogram: 4 0 4 0 8 0 4 5 7 20
Neighs:       158427.0 ave      230465 max           0 min
Histogram: 4 2 2 0 5 3 4 4 12 16

Total # of neighbors = 8238198
Ave neighs/atom = 28.530457
Neighbor list builds = 0
Dangerous builds = 0
The dot product: 6.21486816853895e-08
Setting atom values ...
  1 settings made for x
  1 settings made for y
  1 settings made for z
Setting up cg style minimization ...
  Unit style    : metal
  Current step  : 1027
Per MPI rank memory allocation (min/avg/max) = 5.465 | 6.344 | 6.728 Mbytes
Step PotEng KinEng TotEng v_fx v_fy v_fz 
    1027   -1152449.4            0   -1152449.4 -0.014478377 -0.027669016 -0.012827026 
    1139   -1152449.4            0   -1152449.4 8.0580398e-07 2.2781027e-06 2.6860329e-06 
Loop time of 2.50842 on 52 procs for 112 steps with 288751 atoms

99.9% CPU use with 52 MPI tasks x 1 OpenMP threads

Minimization stats:
  Stopping criterion = linesearch alpha is zero
  Energy initial, next-to-last, final = 
     -1152449.41641396   -1152449.4179511   -1152449.4179511
  Force two-norm initial, final = 0.18160005 0.00020142533
  Force max component initial, final = 0.079038793 1.5865059e-05
  Final line search alpha, max atom move = 0.25 3.9662646e-06
  Iterations, force evaluations = 112 227

MPI task timing breakdown:
Section |  min time  |  avg time  |  max time  |%varavg| %total
---------------------------------------------------------------
Pair    | 0.63635    | 1.8067     | 2.3699     |  37.3 | 72.03
Neigh   | 0          | 0          | 0          |   0.0 |  0.00
Comm    | 0.034571   | 0.40513    | 1.2738     |  56.9 | 16.15
Output  | 0          | 0          | 0          |   0.0 |  0.00
Modify  | 4.5451e-05 | 0.0037947  | 0.007998   |   2.8 |  0.15
Other   |            | 0.2928     |            |       | 11.67

Nlocal:        5552.90 ave        7906 max           0 min
Histogram: 4 2 2 0 2 6 4 0 15 17
Nghost:        6213.54 ave        8769 max         412 min
Histogram: 4 0 4 0 8 0 4 5 7 20
Neighs:       158427.0 ave      230429 max           0 min
Histogram: 4 2 2 0 5 3 4 4 12 16

Total # of neighbors = 8238199
Ave neighs/atom = 28.530461
Neighbor list builds = 0
Dangerous builds = 0
The dot product: -8.18231641779332e-09
Setting atom values ...
  1 settings made for x
  1 settings made for y
  1 settings made for z
Setting up cg style minimization ...
  Unit style    : metal
  Current step  : 1139
Per MPI rank memory allocation (min/avg/max) = 5.465 | 6.344 | 6.728 Mbytes
Step PotEng KinEng TotEng v_fx v_fy v_fz 
    1139   -1152449.4            0   -1152449.4 -0.013550297 -0.023603336 -0.0076842641 
    1240   -1152449.4            0   -1152449.4 -1.3233482e-05 -3.1229831e-06 5.1111629e-05 
Loop time of 2.2537 on 52 procs for 101 steps with 288751 atoms

99.8% CPU use with 52 MPI tasks x 1 OpenMP threads

Minimization stats:
  Stopping criterion = energy tolerance
  Energy initial, next-to-last, final = 
     -1152449.40616708  -1152449.40768657  -1152449.40768657
  Force two-norm initial, final = 0.17970464 0.00028791783
  Force max component initial, final = 0.077726365 5.1111629e-05
  Final line search alpha, max atom move = 1.0000000 5.1111629e-05
  Iterations, force evaluations = 101 202

MPI task timing breakdown:
Section |  min time  |  avg time  |  max time  |%varavg| %total
---------------------------------------------------------------
Pair    | 0.57065    | 1.608      | 2.1124     |  35.1 | 71.35
Neigh   | 0          | 0          | 0          |   0.0 |  0.00
Comm    | 0.03093    | 0.36159    | 1.1332     |  53.6 | 16.04
Output  | 0          | 0          | 0          |   0.0 |  0.00
Modify  | 3.756e-05  | 0.0033926  | 0.0071837  |   2.7 |  0.15
Other   |            | 0.2807     |            |       | 12.46

Nlocal:        5552.90 ave        7904 max           0 min
Histogram: 4 2 2 0 2 6 4 0 15 17
Nghost:        6213.54 ave        8769 max         412 min
Histogram: 4 0 4 0 8 0 4 5 7 20
Neighs:       158427.0 ave      230381 max           0 min
Histogram: 4 2 2 0 5 3 4 4 12 16

Total # of neighbors = 8238202
Ave neighs/atom = 28.530471
Neighbor list builds = 0
Dangerous builds = 0
The dot product: -5.11770442449075e-08
Setting atom values ...
  1 settings made for x
  1 settings made for y
  1 settings made for z
Setting up cg style minimization ...
  Unit style    : metal
  Current step  : 1240
Per MPI rank memory allocation (min/avg/max) = 5.465 | 6.344 | 6.728 Mbytes
Step PotEng KinEng TotEng v_fx v_fy v_fz 
    1240   -1152449.4            0   -1152449.4 -0.010712701   -0.0175823 -0.0029176365 
    1384   -1152449.4            0   -1152449.4 -6.116763e-06 -3.8895952e-06 1.7065535e-05 
Loop time of 3.19327 on 52 procs for 144 steps with 288751 atoms

99.9% CPU use with 52 MPI tasks x 1 OpenMP threads

Minimization stats:
  Stopping criterion = linesearch alpha is zero
  Energy initial, next-to-last, final = 
     -1152449.39446663  -1152449.39599765  -1152449.39599765
  Force two-norm initial, final = 0.17803035 0.00014462371
  Force max component initial, final = 0.077566774 2.8066092e-05
  Final line search alpha, max atom move = 0.5 1.4033046e-05
  Iterations, force evaluations = 144 289

MPI task timing breakdown:
Section |  min time  |  avg time  |  max time  |%varavg| %total
---------------------------------------------------------------
Pair    | 0.80743    | 2.3053     | 3.0148     |  42.3 | 72.19
Neigh   | 0          | 0          | 0          |   0.0 |  0.00
Comm    | 0.043964   | 0.51846    | 1.6371     |  64.7 | 16.24
Output  | 0          | 0          | 0          |   0.0 |  0.00
Modify  | 5.4087e-05 | 0.004826   | 0.010149   |   3.2 |  0.15
Other   |            | 0.3647     |            |       | 11.42

Nlocal:        5552.90 ave        7902 max           0 min
Histogram: 4 2 2 0 2 6 4 0 15 17
Nghost:        6213.54 ave        8769 max         412 min
Histogram: 4 0 4 0 8 0 4 5 7 20
Neighs:       158427.0 ave      230319 max           0 min
Histogram: 4 2 2 0 5 3 4 4 12 16

Total # of neighbors = 8238203
Ave neighs/atom = 28.530474
Neighbor list builds = 0
Dangerous builds = 0
The dot product: -1.07989275323362e-08
Setting atom values ...
  1 settings made for x
  1 settings made for y
  1 settings made for z
Setting up cg style minimization ...
  Unit style    : metal
  Current step  : 1384
Per MPI rank memory allocation (min/avg/max) = 5.465 | 6.344 | 6.728 Mbytes
Step PotEng KinEng TotEng v_fx v_fy v_fz 
    1384   -1152449.4            0   -1152449.4 -0.0061552945 -0.0091523366  0.002097147 
    1565   -1152449.4            0   -1152449.4 7.2793003e-06 3.7028906e-06 -2.3460795e-05 
Loop time of 4.01771 on 52 procs for 181 steps with 288751 atoms

99.9% CPU use with 52 MPI tasks x 1 OpenMP threads

Minimization stats:
  Stopping criterion = linesearch alpha is zero
  Energy initial, next-to-last, final = 
     -1152449.38136086  -1152449.38295691  -1152449.38295691
  Force two-norm initial, final = 0.17689165 0.00012518772
  Force max component initial, final = 0.07885373 2.7031208e-05
  Final line search alpha, max atom move = 0.5 1.3515604e-05
  Iterations, force evaluations = 181 363

MPI task timing breakdown:
Section |  min time  |  avg time  |  max time  |%varavg| %total
---------------------------------------------------------------
Pair    | 1.03       | 2.8867     | 3.7945     |  46.9 | 71.85
Neigh   | 0          | 0          | 0          |   0.0 |  0.00
Comm    | 0.055637   | 0.64488    | 2.0207     |  71.8 | 16.05
Output  | 0          | 0          | 0          |   0.0 |  0.00
Modify  | 7.1921e-05 | 0.006121   | 0.012942   |   3.6 |  0.15
Other   |            | 0.4801     |            |       | 11.95

Nlocal:        5552.90 ave        7896 max           0 min
Histogram: 4 2 2 0 2 6 4 0 14 18
Nghost:        6213.50 ave        8769 max         412 min
Histogram: 4 0 4 0 8 0 4 5 7 20
Neighs:       158427.0 ave      230135 max           0 min
Histogram: 4 2 2 0 5 3 4 4 12 16

Total # of neighbors = 8238203
Ave neighs/atom = 28.530474
Neighbor list builds = 0
Dangerous builds = 0
The dot product: -1.70343209806647e-08
Setting atom values ...
  1 settings made for x
  1 settings made for y
  1 settings made for z
Setting up cg style minimization ...
  Unit style    : metal
  Current step  : 1565
Per MPI rank memory allocation (min/avg/max) = 5.465 | 6.344 | 6.728 Mbytes
Step PotEng KinEng TotEng v_fx v_fy v_fz 
    1565   -1152449.4            0   -1152449.4 -0.0003433255 0.0030453126 0.0095053746 
    1731   -1152449.4            0   -1152449.4 1.2977217e-07 4.2533184e-06 1.0541029e-05 
Loop time of 3.66627 on 52 procs for 166 steps with 288751 atoms

99.9% CPU use with 52 MPI tasks x 1 OpenMP threads

Minimization stats:
  Stopping criterion = energy tolerance
  Energy initial, next-to-last, final = 
     -1152449.36697808  -1152449.36885954  -1152449.36885954
  Force two-norm initial, final = 0.1767997 0.00020857012
  Force max component initial, final = 0.08180255 3.3448431e-05
  Final line search alpha, max atom move = 1.0000000 3.3448431e-05
  Iterations, force evaluations = 166 332

MPI task timing breakdown:
Section |  min time  |  avg time  |  max time  |%varavg| %total
---------------------------------------------------------------
Pair    | 0.92664    | 2.64       | 3.4596     |  45.1 | 72.01
Neigh   | 0          | 0          | 0          |   0.0 |  0.00
Comm    | 0.050072   | 0.59168    | 1.86       |  69.0 | 16.14
Output  | 0          | 0          | 0          |   0.0 |  0.00
Modify  | 6.7884e-05 | 0.0055358  | 0.011671   |   3.4 |  0.15
Other   |            | 0.429      |            |       | 11.70

Nlocal:        5552.90 ave        7894 max           0 min
Histogram: 4 2 2 0 2 6 4 0 14 18
Nghost:        6213.50 ave        8769 max         412 min
Histogram: 4 0 4 0 8 0 4 5 7 20
Neighs:       158427.0 ave      230077 max           0 min
Histogram: 4 2 2 0 5 3 4 4 12 16

Total # of neighbors = 8238205
Ave neighs/atom = 28.530481
Neighbor list builds = 0
Dangerous builds = 0
The dot product: 1.13212847628331e-07
Setting atom values ...
  1 settings made for x
  1 settings made for y
  1 settings made for z
Setting up cg style minimization ...
  Unit style    : metal
  Current step  : 1731
Per MPI rank memory allocation (min/avg/max) = 5.465 | 6.344 | 6.728 Mbytes
Step PotEng KinEng TotEng v_fx v_fy v_fz 
    1731   -1152449.4            0   -1152449.4 0.0056409333  0.022555021  0.023580718 
    1907   -1152449.4            0   -1152449.4 2.0069562e-05 4.8485926e-06 -6.9075911e-05 
Loop time of 3.91327 on 52 procs for 176 steps with 288751 atoms

99.8% CPU use with 52 MPI tasks x 1 OpenMP threads

Minimization stats:
  Stopping criterion = energy tolerance
  Energy initial, next-to-last, final = 
     -1152449.35178728  -1152449.35391206  -1152449.35391206
  Force two-norm initial, final = 0.17936778 0.00023261776
  Force max component initial, final = 0.086964888 6.9075911e-05
  Final line search alpha, max atom move = 1.0000000 6.9075911e-05
  Iterations, force evaluations = 176 352

MPI task timing breakdown:
Section |  min time  |  avg time  |  max time  |%varavg| %total
---------------------------------------------------------------
Pair    | 0.9844     | 2.8004     | 3.6714     |  46.4 | 71.56
Neigh   | 0          | 0          | 0          |   0.0 |  0.00
Comm    | 0.055489   | 0.62869    | 1.9633     |  70.7 | 16.07
Output  | 0          | 0          | 0          |   0.0 |  0.00
Modify  | 6.8526e-05 | 0.0058872  | 0.012386   |   3.5 |  0.15
Other   |            | 0.4783     |            |       | 12.22

Nlocal:        5552.90 ave        7894 max           0 min
Histogram: 4 2 2 0 2 6 4 0 14 18
Nghost:        6213.54 ave        8769 max         412 min
Histogram: 4 0 4 0 8 0 4 5 7 20
Neighs:       158427.0 ave      230078 max           0 min
Histogram: 4 2 2 0 5 3 4 4 12 16

Total # of neighbors = 8238204
Ave neighs/atom = 28.530478
Neighbor list builds = 0
Dangerous builds = 0
The dot product: -5.24919687476143e-07
Setting atom values ...
  1 settings made for x
  1 settings made for y
  1 settings made for z
Setting up cg style minimization ...
  Unit style    : metal
  Current step  : 1907
Per MPI rank memory allocation (min/avg/max) = 5.465 | 6.344 | 6.728 Mbytes
Step PotEng KinEng TotEng v_fx v_fy v_fz 
    1907   -1152449.3            0   -1152449.3 0.0073014176  0.037684757  0.031065964 
    2000   -1152449.3            0   -1152449.3 0.00011713642 -6.8333878e-06 -0.00040485963 
    2094   -1152449.3            0   -1152449.3 -3.404288e-07 3.3733577e-06 6.130836e-06 
Loop time of 4.13146 on 52 procs for 187 steps with 288751 atoms

99.9% CPU use with 52 MPI tasks x 1 OpenMP threads

Minimization stats:
  Stopping criterion = energy tolerance
  Energy initial, next-to-last, final = 
     -1152449.33585066  -1152449.33815105  -1152449.33815105
  Force two-norm initial, final = 0.18284901 0.00017354144
  Force max component initial, final = 0.093568998 4.1018294e-05
  Final line search alpha, max atom move = 1.0000000 4.1018294e-05
  Iterations, force evaluations = 187 374

MPI task timing breakdown:
Section |  min time  |  avg time  |  max time  |%varavg| %total
---------------------------------------------------------------
Pair    | 1.0474     | 2.9703     | 3.8961     |  47.9 | 71.90
Neigh   | 0          | 0          | 0          |   0.0 |  0.00
Comm    | 0.057054   | 0.66643    | 2.107      |  73.1 | 16.13
Output  | 0.00021749 | 0.00022137 | 0.00036477 |   0.0 |  0.01
Modify  | 6.8047e-05 | 0.0062622  | 0.01316    |   3.7 |  0.15
Other   |            | 0.4882     |            |       | 11.82

Nlocal:        5552.90 ave        7896 max           0 min
Histogram: 4 2 2 0 2 6 4 0 14 18
Nghost:        6213.62 ave        8769 max         412 min
Histogram: 4 0 4 0 8 0 4 5 7 20
Neighs:       158427.0 ave      230142 max           0 min
Histogram: 4 2 2 0 5 3 4 4 12 16

Total # of neighbors = 8238205
Ave neighs/atom = 28.530481
Neighbor list builds = 0
Dangerous builds = 0
The dot product: 1.10907276429556e-07
Setting atom values ...
  1 settings made for x
  1 settings made for y
  1 settings made for z
Setting up cg style minimization ...
  Unit style    : metal
  Current step  : 2094
Per MPI rank memory allocation (min/avg/max) = 5.465 | 6.344 | 6.728 Mbytes
Step PotEng KinEng TotEng v_fx v_fy v_fz 
    2094   -1152449.3            0   -1152449.3 0.0058127603  0.042152577  0.028569052 
    2286   -1152449.3            0   -1152449.3 1.8625989e-05 -8.8050416e-07 -5.6273526e-05 
Loop time of 4.2459 on 52 procs for 192 steps with 288751 atoms

99.9% CPU use with 52 MPI tasks x 1 OpenMP threads

Minimization stats:
  Stopping criterion = linesearch alpha is zero
  Energy initial, next-to-last, final = 
     -1152449.31901939  -1152449.32120709  -1152449.32120709
  Force two-norm initial, final = 0.18312746 0.00015140284
  Force max component initial, final = 0.099927912 5.6273526e-05
  Final line search alpha, max atom move = 0.5 2.8136763e-05
  Iterations, force evaluations = 192 385

MPI task timing breakdown:
Section |  min time  |  avg time  |  max time  |%varavg| %total
---------------------------------------------------------------
Pair    | 1.0719     | 3.0538     | 4.0106     |  48.5 | 71.92
Neigh   | 0          | 0          | 0          |   0.0 |  0.00
Comm    | 0.058805   | 0.68297    | 2.1446     |  74.2 | 16.09
Output  | 0          | 0          | 0          |   0.0 |  0.00
Modify  | 7.545e-05  | 0.0064116  | 0.013525   |   3.7 |  0.15
Other   |            | 0.5027     |            |       | 11.84

Nlocal:        5552.90 ave        7900 max           0 min
Histogram: 4 2 2 0 2 6 4 0 14 18
Nghost:        6213.62 ave        8769 max         412 min
Histogram: 4 0 4 0 8 0 4 5 7 20
Neighs:       158427.0 ave      230270 max           0 min
Histogram: 4 2 2 0 5 3 4 4 12 16

Total # of neighbors = 8238204
Ave neighs/atom = 28.530478
Neighbor list builds = 0
Dangerous builds = 0
The dot product: -4.70022021968424e-07
Setting atom values ...
  1 settings made for x
  1 settings made for y
  1 settings made for z
Setting up cg style minimization ...
  Unit style    : metal
  Current step  : 2286
Per MPI rank memory allocation (min/avg/max) = 5.465 | 6.344 | 6.728 Mbytes
Step PotEng KinEng TotEng v_fx v_fy v_fz 
    2286   -1152449.3            0   -1152449.3  0.003895563  0.039029265  0.021829739 
    2489   -1152449.3            0   -1152449.3 4.3120439e-06 -3.8042523e-06 -1.4821238e-05 
Loop time of 4.50652 on 52 procs for 203 steps with 288751 atoms

99.9% CPU use with 52 MPI tasks x 1 OpenMP threads

Minimization stats:
  Stopping criterion = linesearch alpha is zero
  Energy initial, next-to-last, final = 
     -1152449.30088771  -1152449.30294849  -1152449.30294849
  Force two-norm initial, final = 0.1810863 0.00011126524
  Force max component initial, final = 0.10522295 2.0987112e-05
  Final line search alpha, max atom move = 0.5 1.0493556e-05
  Iterations, force evaluations = 203 407

MPI task timing breakdown:
Section |  min time  |  avg time  |  max time  |%varavg| %total
---------------------------------------------------------------
Pair    | 1.1333     | 3.2268     | 4.24       |  50.0 | 71.60
Neigh   | 0          | 0          | 0          |   0.0 |  0.00
Comm    | 0.061485   | 0.72629    | 2.2821     |  75.9 | 16.12
Output  | 0          | 0          | 0          |   0.0 |  0.00
Modify  | 7.8566e-05 | 0.0067898  | 0.014276   |   3.8 |  0.15
Other   |            | 0.5467     |            |       | 12.13

Nlocal:        5552.90 ave        7904 max           0 min
Histogram: 4 2 2 0 2 6 4 0 15 17
Nghost:        6213.65 ave        8769 max         412 min
Histogram: 4 0 4 0 8 0 4 5 7 20
Neighs:       158427.0 ave      230389 max           0 min
Histogram: 4 2 2 0 5 3 4 4 12 16

Total # of neighbors = 8238209
Ave neighs/atom = 28.530495
Neighbor list builds = 0
Dangerous builds = 0
The dot product: -1.58872989829538e-07
Setting atom values ...
  1 settings made for x
  1 settings made for y
  1 settings made for z
Setting up cg style minimization ...
  Unit style    : metal
  Current step  : 2489
Per MPI rank memory allocation (min/avg/max) = 5.465 | 6.344 | 6.728 Mbytes
Step PotEng KinEng TotEng v_fx v_fy v_fz 
    2489   -1152449.3            0   -1152449.3 0.0019715596  0.033477663  0.016887671 
    2672   -1152449.3            0   -1152449.3 4.9408564e-06 -9.4406407e-07 -1.3032982e-05 
Loop time of 4.13192 on 52 procs for 183 steps with 288751 atoms

99.8% CPU use with 52 MPI tasks x 1 OpenMP threads

Minimization stats:
  Stopping criterion = linesearch alpha is zero
  Energy initial, next-to-last, final = 
     -1152449.28142323  -1152449.28342329  -1152449.28342329
  Force two-norm initial, final = 0.17883254 0.00018908702
  Force max component initial, final = 0.10941947 3.2805616e-05
  Final line search alpha, max atom move = 0.25 8.2014039e-06
  Iterations, force evaluations = 183 369

MPI task timing breakdown:
Section |  min time  |  avg time  |  max time  |%varavg| %total
---------------------------------------------------------------
Pair    | 1.0474     | 2.9344     | 3.8663     |  47.3 | 71.02
Neigh   | 0          | 0          | 0          |   0.0 |  0.00
Comm    | 0.064188   | 0.66108    | 2.056      |  71.9 | 16.00
Output  | 0          | 0          | 0          |   0.0 |  0.00
Modify  | 7.9392e-05 | 0.0062168  | 0.013027   |   3.6 |  0.15
Other   |            | 0.5302     |            |       | 12.83

Nlocal:        5552.90 ave        7906 max           0 min
Histogram: 4 2 2 0 2 6 4 0 15 17
Nghost:        6213.65 ave        8769 max         412 min
Histogram: 4 0 4 0 8 0 4 5 7 20
Neighs:       158427.0 ave      230460 max           0 min
Histogram: 4 2 2 0 5 3 4 4 12 16

Total # of neighbors = 8238212
Ave neighs/atom = 28.530506
Neighbor list builds = 0
Dangerous builds = 0
The dot product: -1.11467912889649e-07
Setting atom values ...
  1 settings made for x
  1 settings made for y
  1 settings made for z
Setting up cg style minimization ...
  Unit style    : metal
  Current step  : 2672
Per MPI rank memory allocation (min/avg/max) = 5.465 | 6.344 | 6.728 Mbytes
Step PotEng KinEng TotEng v_fx v_fy v_fz 
    2672   -1152449.3            0   -1152449.3 -0.00020886819  0.027824121  0.015087644 
    2876   -1152449.3            0   -1152449.3 2.1010602e-07 1.8290265e-07 -3.9790059e-07 
Loop time of 4.5104 on 52 procs for 204 steps with 288751 atoms

99.9% CPU use with 52 MPI tasks x 1 OpenMP threads

Minimization stats:
  Stopping criterion = linesearch alpha is zero
  Energy initial, next-to-last, final = 
     -1152449.26076298   -1152449.2626803   -1152449.2626803
  Force two-norm initial, final = 0.17682106 0.00010363666
  Force max component initial, final = 0.11280601 1.1010061e-05
  Final line search alpha, max atom move = 0.5 5.5050307e-06
  Iterations, force evaluations = 204 409

MPI task timing breakdown:
Section |  min time  |  avg time  |  max time  |%varavg| %total
---------------------------------------------------------------
Pair    | 1.1547     | 3.2576     | 4.2591     |  50.0 | 72.22
Neigh   | 0          | 0          | 0          |   0.0 |  0.00
Comm    | 0.062949   | 0.73043    | 2.3032     |  76.7 | 16.19
Output  | 0          | 0          | 0          |   0.0 |  0.00
Modify  | 8.1105e-05 | 0.0068733  | 0.014369   |   3.8 |  0.15
Other   |            | 0.5155     |            |       | 11.43

Nlocal:        5552.90 ave        7906 max           0 min
Histogram: 4 2 2 0 2 6 4 0 15 17
Nghost:        6213.65 ave        8769 max         412 min
Histogram: 4 0 4 0 8 0 4 5 7 20
Neighs:       158427.0 ave      230466 max           0 min
Histogram: 4 2 2 0 5 3 4 4 12 16

Total # of neighbors = 8238217
Ave neighs/atom = 28.530523
Neighbor list builds = 0
Dangerous builds = 0
The dot product: -1.67204739283911e-09
Setting atom values ...
  1 settings made for x
  1 settings made for y
  1 settings made for z
Setting up cg style minimization ...
  Unit style    : metal
  Current step  : 2876
Per MPI rank memory allocation (min/avg/max) = 5.465 | 6.344 | 6.728 Mbytes
Step PotEng KinEng TotEng v_fx v_fy v_fz 
    2876   -1152449.2            0   -1152449.2 -0.0019512326  0.022697845  0.014127771 
    3000   -1152449.2            0   -1152449.2 8.0546682e-05 1.0266524e-05 -0.00017369286 
    3060   -1152449.2            0   -1152449.2 -2.4474134e-05 -1.8736689e-06 5.3315209e-05 
Loop time of 4.10173 on 52 procs for 184 steps with 288751 atoms

99.9% CPU use with 52 MPI tasks x 1 OpenMP threads

Minimization stats:
  Stopping criterion = energy tolerance
  Energy initial, next-to-last, final = 
     -1152449.23885505  -1152449.24073497  -1152449.24073497
  Force two-norm initial, final = 0.1752096 0.00016828698
  Force max component initial, final = 0.11584572 5.3315209e-05
  Final line search alpha, max atom move = 1.0000000 5.3315209e-05
  Iterations, force evaluations = 184 368

MPI task timing breakdown:
Section |  min time  |  avg time  |  max time  |%varavg| %total
---------------------------------------------------------------
Pair    | 1.0438     | 2.9249     | 3.8603     |  47.2 | 71.31
Neigh   | 0          | 0          | 0          |   0.0 |  0.00
Comm    | 0.059956   | 0.65725    | 2.0433     |  71.8 | 16.02
Output  | 0.00018071 | 0.00018504 | 0.00033521 |   0.0 |  0.00
Modify  | 7.2818e-05 | 0.0062044  | 0.013117   |   3.6 |  0.15
Other   |            | 0.5132     |            |       | 12.51

Nlocal:        5552.90 ave        7907 max           0 min
Histogram: 4 2 2 0 2 6 4 0 15 17
Nghost:        6213.62 ave        8769 max         412 min
Histogram: 4 0 4 0 8 0 4 5 7 20
Neighs:       158427.0 ave      230494 max           0 min
Histogram: 4 2 2 0 5 3 4 4 12 16

Total # of neighbors = 8238212
Ave neighs/atom = 28.530506
Neighbor list builds = 0
Dangerous builds = 0
The dot product: 4.61333029486774e-07
Setting atom values ...
  1 settings made for x
  1 settings made for y
  1 settings made for z
Setting up cg style minimization ...
  Unit style    : metal
  Current step  : 3060
Per MPI rank memory allocation (min/avg/max) = 5.465 | 6.344 | 6.728 Mbytes
Step PotEng KinEng TotEng v_fx v_fy v_fz 
    3060   -1152449.2            0   -1152449.2 -0.0040885784  0.019870811   0.01568509 
    3266   -1152449.2            0   -1152449.2 8.712203e-06 2.1370531e-06 -1.7366416e-05 
Loop time of 4.55657 on 52 procs for 206 steps with 288751 atoms

99.9% CPU use with 52 MPI tasks x 1 OpenMP threads

Minimization stats:
  Stopping criterion = linesearch alpha is zero
  Energy initial, next-to-last, final = 
      -1152449.2157949  -1152449.21781489  -1152449.21781489
  Force two-norm initial, final = 0.17423606 9.9752142e-05
  Force max component initial, final = 0.11861704 1.7366416e-05
  Final line search alpha, max atom move = 0.5 8.6832080e-06
  Iterations, force evaluations = 206 413

MPI task timing breakdown:
Section |  min time  |  avg time  |  max time  |%varavg| %total
---------------------------------------------------------------
Pair    | 1.1783     | 3.2965     | 4.3017     |  50.1 | 72.35
Neigh   | 0          | 0          | 0          |   0.0 |  0.00
Comm    | 0.063218   | 0.73585    | 2.324      |  77.4 | 16.15
Output  | 0          | 0          | 0          |   0.0 |  0.00
Modify  | 7.8544e-05 | 0.0069588  | 0.014756   |   3.9 |  0.15
Other   |            | 0.5173     |            |       | 11.35

Nlocal:        5552.90 ave        7908 max           0 min
Histogram: 4 2 2 0 2 6 4 0 15 17
Nghost:        6213.63 ave        8769 max         412 min
Histogram: 4 0 4 0 8 0 4 5 7 20
Neighs:       158427.0 ave      230512 max           0 min
Histogram: 4 2 2 0 5 3 4 4 12 16

Total # of neighbors = 8238211
Ave neighs/atom = 28.530502
Neighbor list builds = 0
Dangerous builds = 0
The dot product: -1.92751682794214e-07
Setting atom values ...
  1 settings made for x
  1 settings made for y
  1 settings made for z
Setting up cg style minimization ...
  Unit style    : metal
  Current step  : 3266
Per MPI rank memory allocation (min/avg/max) = 5.465 | 6.344 | 6.728 Mbytes
Step PotEng KinEng TotEng v_fx v_fy v_fz 
    3266   -1152449.2            0   -1152449.2 -0.008590363   0.02169506  0.023037604 
    3419   -1152449.2            0   -1152449.2 2.9130494e-05 1.246417e-05 -5.2718208e-05 
Loop time of 3.40339 on 52 procs for 153 steps with 288751 atoms

99.9% CPU use with 52 MPI tasks x 1 OpenMP threads

Minimization stats:
  Stopping criterion = energy tolerance
  Energy initial, next-to-last, final = 
      -1152449.1920583  -1152449.19427817  -1152449.19427817
  Force two-norm initial, final = 0.17436308 0.00034207834
  Force max component initial, final = 0.12119028 8.2513128e-05
  Final line search alpha, max atom move = 1.0000000 8.2513128e-05
  Iterations, force evaluations = 153 306

MPI task timing breakdown:
Section |  min time  |  avg time  |  max time  |%varavg| %total
---------------------------------------------------------------
Pair    | 0.8672     | 2.4352     | 3.1886     |  43.1 | 71.55
Neigh   | 0          | 0          | 0          |   0.0 |  0.00
Comm    | 0.047523   | 0.54735    | 1.7102     |  65.7 | 16.08
Output  | 0          | 0          | 0          |   0.0 |  0.00
Modify  | 6.0898e-05 | 0.0051567  | 0.010812   |   3.3 |  0.15
Other   |            | 0.4157     |            |       | 12.21

Nlocal:        5552.90 ave        7908 max           0 min
Histogram: 4 2 2 0 2 6 4 0 15 17
Nghost:        6213.60 ave        8769 max         412 min
Histogram: 4 0 4 0 8 0 4 5 7 20
Neighs:       158427.0 ave      230510 max           0 min
Histogram: 4 2 2 0 5 3 4 4 12 16

Total # of neighbors = 8238212
Ave neighs/atom = 28.530506
Neighbor list builds = 0
Dangerous builds = 0
The dot product: -7.22398960478362e-07
Setting atom values ...
  1 settings made for x
  1 settings made for y
  1 settings made for z
Setting up cg style minimization ...
  Unit style    : metal
  Current step  : 3419
Per MPI rank memory allocation (min/avg/max) = 5.465 | 6.344 | 6.728 Mbytes
Step PotEng KinEng TotEng v_fx v_fy v_fz 
    3419   -1152449.2            0   -1152449.2 -0.013406172  0.024975298  0.029639135 
    3589   -1152449.2            0   -1152449.2 -6.269099e-06 -6.5598987e-06 9.6404892e-06 
Loop time of 3.77532 on 52 procs for 170 steps with 288751 atoms

99.9% CPU use with 52 MPI tasks x 1 OpenMP threads

Minimization stats:
  Stopping criterion = energy tolerance
  Energy initial, next-to-last, final = 
     -1152449.16788051  -1152449.17006627  -1152449.17006627
  Force two-norm initial, final = 0.17519553 0.00019940739
  Force max component initial, final = 0.12396021 4.0968362e-05
  Final line search alpha, max atom move = 1.0000000 4.0968362e-05
  Iterations, force evaluations = 170 340

MPI task timing breakdown:
Section |  min time  |  avg time  |  max time  |%varavg| %total
---------------------------------------------------------------
Pair    | 0.96363    | 2.7037     | 3.5631     |  45.5 | 71.62
Neigh   | 0          | 0          | 0          |   0.0 |  0.00
Comm    | 0.051776   | 0.60802    | 1.8917     |  69.1 | 16.11
Output  | 0          | 0          | 0          |   0.0 |  0.00
Modify  | 6.9914e-05 | 0.0057303  | 0.012038   |   3.5 |  0.15
Other   |            | 0.4579     |            |       | 12.13

Nlocal:        5552.90 ave        7907 max           0 min
Histogram: 4 2 2 0 2 6 4 0 15 17
Nghost:        6213.54 ave        8769 max         412 min
Histogram: 4 0 4 0 8 0 4 5 7 20
Neighs:       158427.0 ave      230485 max           0 min
Histogram: 4 2 2 0 5 3 4 4 12 16

Total # of neighbors = 8238215
Ave neighs/atom = 28.530516
Neighbor list builds = 0
Dangerous builds = 0
The dot product: 1.05795121395831e-07
Setting atom values ...
  1 settings made for x
  1 settings made for y
  1 settings made for z
Setting up cg style minimization ...
  Unit style    : metal
  Current step  : 3589
Per MPI rank memory allocation (min/avg/max) = 5.465 | 6.344 | 6.728 Mbytes
Step PotEng KinEng TotEng v_fx v_fy v_fz 
    3589   -1152449.1            0   -1152449.1 -0.014505919  0.023756338  0.028165311 
    3800   -1152449.1            0   -1152449.1 -2.5960854e-06 -1.062995e-06 4.0854452e-06 
Loop time of 4.68584 on 52 procs for 211 steps with 288751 atoms

99.9% CPU use with 52 MPI tasks x 1 OpenMP threads

Minimization stats:
  Stopping criterion = linesearch alpha is zero
  Energy initial, next-to-last, final = 
      -1152449.1428135  -1152449.14487043  -1152449.14487043
  Force two-norm initial, final = 0.17466434 8.0406836e-05
  Force max component initial, final = 0.12691729 8.9359327e-06
  Final line search alpha, max atom move = 0.5 4.4679663e-06
  Iterations, force evaluations = 211 423

MPI task timing breakdown:
Section |  min time  |  avg time  |  max time  |%varavg| %total
---------------------------------------------------------------
Pair    | 1.191      | 3.357      | 4.4078     |  50.7 | 71.64
Neigh   | 0          | 0          | 0          |   0.0 |  0.00
Comm    | 0.064516   | 0.75079    | 2.3569     |  77.8 | 16.02
Output  | 0          | 0          | 0          |   0.0 |  0.00
Modify  | 6.6598e-05 | 0.0070935  | 0.014849   |   3.9 |  0.15
Other   |            | 0.5709     |            |       | 12.18

Nlocal:        5552.90 ave        7909 max           0 min
Histogram: 4 2 2 0 2 6 4 0 15 17
Nghost:        6213.50 ave        8769 max         412 min
Histogram: 4 0 4 0 8 0 4 5 7 20
Neighs:       158427.0 ave      230563 max           0 min
Histogram: 4 2 2 0 5 3 4 4 12 16

Total # of neighbors = 8238215
Ave neighs/atom = 28.530516
Neighbor list builds = 0
Dangerous builds = 0
The dot product: 5.48444877068045e-08
Setting atom values ...
  1 settings made for x
  1 settings made for y
  1 settings made for z
Setting up cg style minimization ...
  Unit style    : metal
  Current step  : 3800
Per MPI rank memory allocation (min/avg/max) = 5.465 | 6.344 | 6.728 Mbytes
Step PotEng KinEng TotEng v_fx v_fy v_fz 
    3800   -1152449.1            0   -1152449.1 -0.013545133  0.020282547  0.023756038 
    4000   -1152449.1            0   -1152449.1 2.6551613e-06 2.7009682e-06 -3.7131772e-06 
    4022   -1152449.1            0   -1152449.1 1.3420522e-06 1.3067015e-06 -1.8850944e-06 
Loop time of 4.92289 on 52 procs for 222 steps with 288751 atoms

99.9% CPU use with 52 MPI tasks x 1 OpenMP threads

Minimization stats:
  Stopping criterion = energy tolerance
  Energy initial, next-to-last, final = 
     -1152449.11663183  -1152449.11849853  -1152449.11849853
  Force two-norm initial, final = 0.17383221 3.7838183e-05
  Force max component initial, final = 0.12991843 8.1118662e-06
  Final line search alpha, max atom move = 1.0000000 8.1118662e-06
  Iterations, force evaluations = 222 444

MPI task timing breakdown:
Section |  min time  |  avg time  |  max time  |%varavg| %total
---------------------------------------------------------------
Pair    | 1.2555     | 3.5363     | 4.6422     |  52.1 | 71.83
Neigh   | 0          | 0          | 0          |   0.0 |  0.00
Comm    | 0.067739   | 0.79343    | 2.4964     |  79.3 | 16.12
Output  | 0.00031215 | 0.00032011 | 0.00048832 |   0.0 |  0.01
Modify  | 8.4133e-05 | 0.0074729  | 0.015796   |   4.0 |  0.15
Other   |            | 0.5854     |            |       | 11.89

Nlocal:        5552.90 ave        7909 max           0 min
Histogram: 4 2 2 0 2 6 4 0 15 17
Nghost:        6213.50 ave        8769 max         412 min
Histogram: 4 0 4 0 8 0 4 5 7 20
Neighs:       158427.0 ave      230558 max           0 min
Histogram: 4 2 2 0 5 3 4 4 12 16

Total # of neighbors = 8238213
Ave neighs/atom = 28.530509
Neighbor list builds = 0
Dangerous builds = 0
The dot product: -1.81523367617394e-08
Setting atom values ...
  1 settings made for x
  1 settings made for y
  1 settings made for z
Setting up cg style minimization ...
  Unit style    : metal
  Current step  : 4022
Per MPI rank memory allocation (min/avg/max) = 5.465 | 6.344 | 6.728 Mbytes
Step PotEng KinEng TotEng v_fx v_fy v_fz 
    4022   -1152449.1            0   -1152449.1 -0.010939326  0.015846289  0.017821237 
    4219   -1152449.1            0   -1152449.1 -7.3497251e-07 1.0000802e-06 1.1899546e-06 
Loop time of 4.35984 on 52 procs for 197 steps with 288751 atoms

99.9% CPU use with 52 MPI tasks x 1 OpenMP threads

Minimization stats:
  Stopping criterion = linesearch alpha is zero
  Energy initial, next-to-last, final = 
     -1152449.08910987  -1152449.09084523  -1152449.09084523
  Force two-norm initial, final = 0.17328273 9.9254354e-05
  Force max component initial, final = 0.13281839 9.8437371e-06
  Final line search alpha, max atom move = 0.5 4.9218686e-06
  Iterations, force evaluations = 197 395

MPI task timing breakdown:
Section |  min time  |  avg time  |  max time  |%varavg| %total
---------------------------------------------------------------
Pair    | 1.1226     | 3.136      | 4.1161     |  48.9 | 71.93
Neigh   | 0          | 0          | 0          |   0.0 |  0.00
Comm    | 0.061832   | 0.69959    | 2.2016     |  75.3 | 16.05
Output  | 0          | 0          | 0          |   0.0 |  0.00
Modify  | 7.2988e-05 | 0.006632   | 0.013875   |   3.7 |  0.15
Other   |            | 0.5176     |            |       | 11.87

Nlocal:        5552.90 ave        7910 max           0 min
Histogram: 4 2 2 0 2 6 4 0 15 17
Nghost:        6213.50 ave        8769 max         412 min
Histogram: 4 0 4 0 8 0 4 5 7 20
Neighs:       158427.0 ave      230583 max           0 min
Histogram: 4 2 2 0 5 3 4 4 12 16

Total # of neighbors = 8238213
Ave neighs/atom = 28.530509
Neighbor list builds = 0
Dangerous builds = 0
The dot product: 1.69670572463406e-08
Setting atom values ...
  1 settings made for x
  1 settings made for y
  1 settings made for z
Setting up cg style minimization ...
  Unit style    : metal
  Current step  : 4219
Per MPI rank memory allocation (min/avg/max) = 5.465 | 6.344 | 6.728 Mbytes
Step PotEng KinEng TotEng v_fx v_fy v_fz 
    4219   -1152449.1            0   -1152449.1 -0.0080886678   0.01136615  0.012453669 
    4419   -1152449.1            0   -1152449.1 1.4486845e-06 7.8710141e-07 -1.9583717e-06 
Loop time of 4.43263 on 52 procs for 200 steps with 288751 atoms

99.9% CPU use with 52 MPI tasks x 1 OpenMP threads

Minimization stats:
  Stopping criterion = energy tolerance
  Energy initial, next-to-last, final = 
     -1152449.06024602  -1152449.06190423  -1152449.06190423
  Force two-norm initial, final = 0.17332761 9.3202798e-05
  Force max component initial, final = 0.13548729 9.8223789e-06
  Final line search alpha, max atom move = 1.0000000 9.8223789e-06
  Iterations, force evaluations = 200 400

MPI task timing breakdown:
Section |  min time  |  avg time  |  max time  |%varavg| %total
---------------------------------------------------------------
Pair    | 1.1331     | 3.192      | 4.1837     |  49.5 | 72.01
Neigh   | 0          | 0          | 0          |   0.0 |  0.00
Comm    | 0.060963   | 0.71536    | 2.2499     |  75.8 | 16.14
Output  | 0          | 0          | 0          |   0.0 |  0.00
Modify  | 6.9051e-05 | 0.0067388  | 0.014267   |   3.8 |  0.15
Other   |            | 0.5185     |            |       | 11.70

Nlocal:        5552.90 ave        7911 max           0 min
Histogram: 4 2 2 0 2 6 4 0 15 17
Nghost:        6213.46 ave        8769 max         412 min
Histogram: 4 0 4 0 8 0 4 5 7 20
Neighs:       158427.0 ave      230623 max           0 min
Histogram: 4 2 2 0 5 3 4 4 12 16

Total # of neighbors = 8238214
Ave neighs/atom = 28.530512
Neighbor list builds = 0
Dangerous builds = 0
The dot product: -1.66298740162373e-08
Setting atom values ...
  1 settings made for x
  1 settings made for y
  1 settings made for z
Setting up cg style minimization ...
  Unit style    : metal
  Current step  : 4419
Per MPI rank memory allocation (min/avg/max) = 5.465 | 6.344 | 6.728 Mbytes
Step PotEng KinEng TotEng v_fx v_fy v_fz 
    4419     -1152449            0     -1152449 -0.0055339142 0.0074734651 0.0081529929 
    4596     -1152449            0     -1152449 1.6183925e-05 2.3813856e-06 -2.1789035e-05 
Loop time of 3.98373 on 52 procs for 177 steps with 288751 atoms

99.9% CPU use with 52 MPI tasks x 1 OpenMP threads

Minimization stats:
  Stopping criterion = linesearch alpha is zero
  Energy initial, next-to-last, final = 
     -1152449.03009035  -1152449.03173155  -1152449.03173155
  Force two-norm initial, final = 0.17386743 0.00017910856
  Force max component initial, final = 0.13791726 2.1789035e-05
  Final line search alpha, max atom move = 0.25 5.4472587e-06
  Iterations, force evaluations = 177 357

MPI task timing breakdown:
Section |  min time  |  avg time  |  max time  |%varavg| %total
---------------------------------------------------------------
Pair    | 1.0133     | 2.8397     | 3.7506     |  46.5 | 71.28
Neigh   | 0          | 0          | 0          |   0.0 |  0.00
Comm    | 0.054272   | 0.64101    | 1.9892     |  70.5 | 16.09
Output  | 0          | 0          | 0          |   0.0 |  0.00
Modify  | 7.1749e-05 | 0.0060151  | 0.012698   |   3.6 |  0.15
Other   |            | 0.497      |            |       | 12.48

Nlocal:        5552.90 ave        7912 max           0 min
Histogram: 4 2 2 0 2 6 4 0 15 17
Nghost:        6213.40 ave        8770 max         412 min
Histogram: 4 0 4 0 8 0 4 5 7 20
Neighs:       158427.0 ave      230660 max           0 min
Histogram: 4 2 2 0 5 3 4 4 12 16

Total # of neighbors = 8238218
Ave neighs/atom = 28.530526
Neighbor list builds = 0
Dangerous builds = 0
The dot product: -1.79746746797124e-07
Setting atom values ...
  1 settings made for x
  1 settings made for y
  1 settings made for z
Setting up cg style minimization ...
  Unit style    : metal
  Current step  : 4596
Per MPI rank memory allocation (min/avg/max) = 5.465 | 6.344 | 6.728 Mbytes
Step PotEng KinEng TotEng v_fx v_fy v_fz 
    4596     -1152449            0     -1152449 -0.0036090524  0.004575005 0.0051251991 
    4755     -1152449            0     -1152449 -2.2805381e-05 -5.690031e-06 2.9709192e-05 
Loop time of 3.50999 on 52 procs for 159 steps with 288751 atoms

99.9% CPU use with 52 MPI tasks x 1 OpenMP threads

Minimization stats:
  Stopping criterion = energy tolerance
  Energy initial, next-to-last, final = 
     -1152448.99879337  -1152449.00044194  -1152449.00044194
  Force two-norm initial, final = 0.17460168 0.00028822961
  Force max component initial, final = 0.14002916 3.0023173e-05
  Final line search alpha, max atom move = 1.0000000 3.0023173e-05
  Iterations, force evaluations = 159 318

MPI task timing breakdown:
Section |  min time  |  avg time  |  max time  |%varavg| %total
---------------------------------------------------------------
Pair    | 0.90509    | 2.5393     | 3.3143     |  44.1 | 72.34
Neigh   | 0          | 0          | 0          |   0.0 |  0.00
Comm    | 0.049456   | 0.57014    | 1.7962     |  68.2 | 16.24
Output  | 0          | 0          | 0          |   0.0 |  0.00
Modify  | 5.9783e-05 | 0.0053451  | 0.011225   |   3.4 |  0.15
Other   |            | 0.3953     |            |       | 11.26

Nlocal:        5552.90 ave        7913 max           0 min
Histogram: 4 2 2 0 2 6 4 1 14 17
Nghost:        6213.37 ave        8770 max         412 min
Histogram: 4 0 4 0 8 0 4 5 7 20
Neighs:       158427.0 ave      230677 max           0 min
Histogram: 4 2 2 0 5 3 4 4 12 16

Total # of neighbors = 8238216
Ave neighs/atom = 28.530519
Neighbor list builds = 0
Dangerous builds = 0
The dot product: 2.1994101463884e-07
Setting atom values ...
  1 settings made for x
  1 settings made for y
  1 settings made for z
Setting up cg style minimization ...
  Unit style    : metal
  Current step  : 4755
Per MPI rank memory allocation (min/avg/max) = 5.465 | 6.344 | 6.728 Mbytes
Step PotEng KinEng TotEng v_fx v_fy v_fz 
    4755     -1152449            0     -1152449 -0.0018667799 0.0025518422 0.0025967485 
    4944     -1152449            0     -1152449 2.2864983e-05 2.3352988e-06 -2.936004e-05 
Loop time of 4.19202 on 52 procs for 189 steps with 288751 atoms

99.9% CPU use with 52 MPI tasks x 1 OpenMP threads

Minimization stats:
  Stopping criterion = linesearch alpha is zero
  Energy initial, next-to-last, final = 
     -1152448.96643576  -1152448.96809439  -1152448.96809439
  Force two-norm initial, final = 0.17545261 0.00012793
  Force max component initial, final = 0.14193197 3.0235284e-05
  Final line search alpha, max atom move = 0.5 1.5117642e-05
  Iterations, force evaluations = 189 379

MPI task timing breakdown:
Section |  min time  |  avg time  |  max time  |%varavg| %total
---------------------------------------------------------------
Pair    | 1.0786     | 3.0168     | 3.9553     |  47.9 | 71.97
Neigh   | 0          | 0          | 0          |   0.0 |  0.00
Comm    | 0.060816   | 0.67276    | 2.1167     |  73.6 | 16.05
Output  | 0          | 0          | 0          |   0.0 |  0.00
Modify  | 7.9369e-05 | 0.0063953  | 0.013585   |   3.7 |  0.15
Other   |            | 0.4961     |            |       | 11.83

Nlocal:        5552.90 ave        7913 max           0 min
Histogram: 4 2 2 0 2 6 4 1 14 17
Nghost:        6213.33 ave        8770 max         412 min
Histogram: 4 0 4 0 8 0 4 5 7 20
Neighs:       158427.0 ave      230683 max           0 min
Histogram: 4 2 2 0 5 3 4 4 12 16

Total # of neighbors = 8238218
Ave neighs/atom = 28.530526
Neighbor list builds = 0
Dangerous builds = 0
The dot product: -2.05661661957252e-07
Setting atom values ...
  1 settings made for x
  1 settings made for y
  1 settings made for z
Setting up cg style minimization ...
  Unit style    : metal
  Current step  : 4944
Per MPI rank memory allocation (min/avg/max) = 5.465 | 6.344 | 6.728 Mbytes
Step PotEng KinEng TotEng v_fx v_fy v_fz 
    4944   -1152448.9            0   -1152448.9 -0.00033227776 0.0013309495 0.00051365917 
    5000   -1152448.9            0   -1152448.9 0.00025296433 5.2278122e-05 -0.00031636806 
    5112   -1152448.9            0   -1152448.9 9.1342752e-06 3.2151009e-06 -1.1330681e-05 
Loop time of 3.73843 on 52 procs for 168 steps with 288751 atoms

99.9% CPU use with 52 MPI tasks x 1 OpenMP threads

Minimization stats:
  Stopping criterion = energy tolerance
  Energy initial, next-to-last, final = 
     -1152448.93311425  -1152448.93482916  -1152448.93482916
  Force two-norm initial, final = 0.17631483 0.000271286
  Force max component initial, final = 0.14365119 2.1119851e-05
  Final line search alpha, max atom move = 1.0000000 2.1119851e-05
  Iterations, force evaluations = 168 336

MPI task timing breakdown:
Section |  min time  |  avg time  |  max time  |%varavg| %total
---------------------------------------------------------------
Pair    | 0.952      | 2.6792     | 3.5208     |  45.3 | 71.67
Neigh   | 0          | 0          | 0          |   0.0 |  0.00
Comm    | 0.050821   | 0.60297    | 1.8826     |  68.6 | 16.13
Output  | 0.00017526 | 0.00017911 | 0.00031979 |   0.0 |  0.00
Modify  | 6.8144e-05 | 0.0056673  | 0.011987   |   3.5 |  0.15
Other   |            | 0.4504     |            |       | 12.05

Nlocal:        5552.90 ave        7911 max           0 min
Histogram: 4 2 2 0 2 6 4 0 15 17
Nghost:        6213.31 ave        8770 max         412 min
Histogram: 4 0 4 0 8 0 4 5 7 20
Neighs:       158427.0 ave      230629 max           0 min
Histogram: 4 2 2 0 5 3 4 4 12 16

Total # of neighbors = 8238215
Ave neighs/atom = 28.530516
Neighbor list builds = 0
Dangerous builds = 0
The dot product: -7.5194326082089e-08
Setting atom values ...
  1 settings made for x
  1 settings made for y
  1 settings made for z
Setting up cg style minimization ...
  Unit style    : metal
  Current step  : 5112
Per MPI rank memory allocation (min/avg/max) = 5.465 | 6.344 | 6.728 Mbytes
Step PotEng KinEng TotEng v_fx v_fy v_fz 
    5112   -1152448.9            0   -1152448.9 0.0010675052 0.00066924194 -0.0012797529 
    5278   -1152448.9            0   -1152448.9 2.4950766e-05 3.0682836e-06 -3.0773346e-05 
Loop time of 3.68318 on 52 procs for 166 steps with 288751 atoms

99.9% CPU use with 52 MPI tasks x 1 OpenMP threads

Minimization stats:
  Stopping criterion = energy tolerance
  Energy initial, next-to-last, final = 
     -1152448.89897706  -1152448.90061535  -1152448.90061535
  Force two-norm initial, final = 0.17705592 0.00025506037
  Force max component initial, final = 0.14509627 3.0773346e-05
  Final line search alpha, max atom move = 1.0000000 3.0773346e-05
  Iterations, force evaluations = 166 332

MPI task timing breakdown:
Section |  min time  |  avg time  |  max time  |%varavg| %total
---------------------------------------------------------------
Pair    | 0.94887    | 2.6416     | 3.4626     |  44.7 | 71.72
Neigh   | 0          | 0          | 0          |   0.0 |  0.00
Comm    | 0.05893    | 0.58977    | 1.8622     |  68.8 | 16.01
Output  | 0          | 0          | 0          |   0.0 |  0.00
Modify  | 6.5503e-05 | 0.0055905  | 0.011695   |   3.4 |  0.15
Other   |            | 0.4462     |            |       | 12.11

Nlocal:        5552.90 ave        7912 max           0 min
Histogram: 4 2 2 0 2 6 4 0 15 17
Nghost:        6213.27 ave        8770 max         412 min
Histogram: 4 0 4 0 8 0 4 5 7 20
Neighs:       158427.0 ave      230673 max           0 min
Histogram: 4 2 2 0 5 3 4 4 12 16

Total # of neighbors = 8238214
Ave neighs/atom = 28.530512
Neighbor list builds = 0
Dangerous builds = 0
The dot product: -1.73266898299309e-07
Setting atom values ...
  1 settings made for x
  1 settings made for y
  1 settings made for z
Setting up cg style minimization ...
  Unit style    : metal
  Current step  : 5278
Per MPI rank memory allocation (min/avg/max) = 5.465 | 6.344 | 6.728 Mbytes
Step PotEng KinEng TotEng v_fx v_fy v_fz 
    5278   -1152448.9            0   -1152448.9 0.0035378362 0.00028246868 -0.004308659 
    5450   -1152448.9            0   -1152448.9 -4.0209976e-05 -5.2684065e-06 4.8831164e-05 
Loop time of 3.85551 on 52 procs for 172 steps with 288751 atoms

99.9% CPU use with 52 MPI tasks x 1 OpenMP threads

Minimization stats:
  Stopping criterion = energy tolerance
  Energy initial, next-to-last, final = 
     -1152448.86373752  -1152448.86534742  -1152448.86534742
  Force two-norm initial, final = 0.17828463 0.00020836258
  Force max component initial, final = 0.1467766 4.8831164e-05
  Final line search alpha, max atom move = 1.0000000 4.8831164e-05
  Iterations, force evaluations = 172 346

MPI task timing breakdown:
Section |  min time  |  avg time  |  max time  |%varavg| %total
---------------------------------------------------------------
Pair    | 0.97945    | 2.7552     | 3.6419     |  46.0 | 71.46
Neigh   | 0          | 0          | 0          |   0.0 |  0.00
Comm    | 0.052747   | 0.62249    | 1.9285     |  69.3 | 16.15
Output  | 0          | 0          | 0          |   0.0 |  0.00
Modify  | 6.1539e-05 | 0.0058162  | 0.012198   |   3.5 |  0.15
Other   |            | 0.472      |            |       | 12.24

Nlocal:        5552.90 ave        7911 max           0 min
Histogram: 4 2 2 0 2 6 4 0 15 17
Nghost:        6213.29 ave        8770 max         412 min
Histogram: 4 0 4 0 8 0 4 5 7 20
Neighs:       158427.0 ave      230644 max           0 min
Histogram: 4 2 2 0 5 3 4 4 12 16

Total # of neighbors = 8238214
Ave neighs/atom = 28.530512
Neighbor list builds = 0
Dangerous builds = 0
The dot product: 2.25112924684044e-07
Setting atom values ...
  1 settings made for x
  1 settings made for y
  1 settings made for z
Setting up cg style minimization ...
  Unit style    : metal
  Current step  : 5450
Per MPI rank memory allocation (min/avg/max) = 5.465 | 6.344 | 6.728 Mbytes
Step PotEng KinEng TotEng v_fx v_fy v_fz 
    5450   -1152448.8            0   -1152448.8 0.0060128153 0.00021954234 -0.007254841 
    5650   -1152448.8            0   -1152448.8 2.3109745e-05 4.588726e-06 -2.7628948e-05 
Loop time of 4.44783 on 52 procs for 200 steps with 288751 atoms

99.9% CPU use with 52 MPI tasks x 1 OpenMP threads

Minimization stats:
  Stopping criterion = linesearch alpha is zero
  Energy initial, next-to-last, final = 
     -1152448.82742454  -1152448.82913742  -1152448.82913742
  Force two-norm initial, final = 0.17956647 0.00013957485
  Force max component initial, final = 0.14836897 2.7628948e-05
  Final line search alpha, max atom move = 0.5 1.3814474e-05
  Iterations, force evaluations = 200 401

MPI task timing breakdown:
Section |  min time  |  avg time  |  max time  |%varavg| %total
---------------------------------------------------------------
Pair    | 1.1351     | 3.1814     | 4.1997     |  49.3 | 71.53
Neigh   | 0          | 0          | 0          |   0.0 |  0.00
Comm    | 0.06112    | 0.71465    | 2.2292     |  75.1 | 16.07
Output  | 0          | 0          | 0          |   0.0 |  0.00
Modify  | 7.761e-05  | 0.0067665  | 0.01422    |   3.8 |  0.15
Other   |            | 0.545      |            |       | 12.25

Nlocal:        5552.90 ave        7910 max           0 min
Histogram: 4 2 2 0 2 6 4 0 15 17
Nghost:        6213.21 ave        8770 max         412 min
Histogram: 4 0 4 0 8 0 4 5 7 20
Neighs:       158427.0 ave      230623 max           0 min
Histogram: 4 2 2 0 5 3 4 4 12 16

Total # of neighbors = 8238216
Ave neighs/atom = 28.530519
Neighbor list builds = 0
Dangerous builds = 0
The dot product: -1.1853358796464e-07
Setting atom values ...
  1 settings made for x
  1 settings made for y
  1 settings made for z
Setting up cg style minimization ...
  Unit style    : metal
  Current step  : 5650
Per MPI rank memory allocation (min/avg/max) = 5.465 | 6.344 | 6.728 Mbytes
Step PotEng KinEng TotEng v_fx v_fy v_fz 
    5650   -1152448.8            0   -1152448.8  0.007810393 0.0004795415 -0.0093127813 
    5844   -1152448.8            0   -1152448.8 1.6825586e-05 1.6252053e-06 -2.0021612e-05 
Loop time of 4.29493 on 52 procs for 194 steps with 288751 atoms

99.9% CPU use with 52 MPI tasks x 1 OpenMP threads

Minimization stats:
  Stopping criterion = energy tolerance
  Energy initial, next-to-last, final = 
     -1152448.79039832  -1152448.79202228  -1152448.79202228
  Force two-norm initial, final = 0.1801614 0.00011730095
  Force max component initial, final = 0.14943484 2.4045384e-05
  Final line search alpha, max atom move = 1.0000000 2.4045384e-05
  Iterations, force evaluations = 194 388

MPI task timing breakdown:
Section |  min time  |  avg time  |  max time  |%varavg| %total
---------------------------------------------------------------
Pair    | 1.099      | 3.0967     | 4.0417     |  48.7 | 72.10
Neigh   | 0          | 0          | 0          |   0.0 |  0.00
Comm    | 0.059672   | 0.69336    | 2.1949     |  74.8 | 16.14
Output  | 0          | 0          | 0          |   0.0 |  0.00
Modify  | 7.9976e-05 | 0.0065449  | 0.013726   |   3.7 |  0.15
Other   |            | 0.4984     |            |       | 11.60

Nlocal:        5552.90 ave        7909 max           0 min
Histogram: 4 2 2 0 2 6 4 0 15 17
Nghost:        6213.23 ave        8770 max         412 min
Histogram: 4 0 4 0 8 0 4 5 7 20
Neighs:       158427.0 ave      230597 max           0 min
Histogram: 4 2 2 0 5 3 4 4 12 16

Total # of neighbors = 8238213
Ave neighs/atom = 28.530509
Neighbor list builds = 0
Dangerous builds = 0
The dot product: -5.88913858255361e-08
Setting atom values ...
  1 settings made for x
  1 settings made for y
  1 settings made for z
Setting up cg style minimization ...
  Unit style    : metal
  Current step  : 5844
Per MPI rank memory allocation (min/avg/max) = 5.465 | 6.344 | 6.728 Mbytes
Step PotEng KinEng TotEng v_fx v_fy v_fz 
    5844   -1152448.8            0   -1152448.8  0.010840983 0.0010316635 -0.012811447 
    6000   -1152448.8            0   -1152448.8 -5.9134349e-06 6.5269635e-07 7.0723961e-06 
    6026   -1152448.8            0   -1152448.8 -2.5351573e-05 -6.2075224e-06 2.9696804e-05 
Loop time of 4.08973 on 52 procs for 182 steps with 288751 atoms

99.9% CPU use with 52 MPI tasks x 1 OpenMP threads

Minimization stats:
  Stopping criterion = linesearch alpha is zero
  Energy initial, next-to-last, final = 
     -1152448.75226636  -1152448.75389541  -1152448.75389541
  Force two-norm initial, final = 0.18118268 0.00017768107
  Force max component initial, final = 0.15078099 3.5680330e-05
  Final line search alpha, max atom move = 0.25 8.9200825e-06
  Iterations, force evaluations = 182 367

MPI task timing breakdown:
Section |  min time  |  avg time  |  max time  |%varavg| %total
---------------------------------------------------------------
Pair    | 1.0423     | 2.9142     | 3.8355     |  47.1 | 71.26
Neigh   | 0          | 0          | 0          |   0.0 |  0.00
Comm    | 0.056476   | 0.6564     | 2.0347     |  71.7 | 16.05
Output  | 0.00017985 | 0.00018441 | 0.00033621 |   0.0 |  0.00
Modify  | 7.6613e-05 | 0.0061822  | 0.013081   |   3.6 |  0.15
Other   |            | 0.5128     |            |       | 12.54

Nlocal:        5552.90 ave        7908 max           0 min
Histogram: 4 2 2 0 2 6 4 0 15 17
Nghost:        6213.17 ave        8770 max         412 min
Histogram: 4 0 4 0 8 0 4 5 7 20
Neighs:       158427.0 ave      230567 max           0 min
Histogram: 4 2 2 0 5 3 4 4 12 16

Total # of neighbors = 8238212
Ave neighs/atom = 28.530506
Neighbor list builds = 0
Dangerous builds = 0
The dot product: 5.40841503515377e-08
Setting atom values ...
  1 settings made for x
  1 settings made for y
  1 settings made for z
Setting up cg style minimization ...
  Unit style    : metal
  Current step  : 6026
Per MPI rank memory allocation (min/avg/max) = 5.465 | 6.344 | 6.728 Mbytes
Step PotEng KinEng TotEng v_fx v_fy v_fz 
    6026   -1152448.7            0   -1152448.7  0.013616518 0.0018820839 -0.015985897 
    6188   -1152448.7            0   -1152448.7 2.1700728e-05 6.614481e-06 -2.5222555e-05 
Loop time of 3.59883 on 52 procs for 162 steps with 288751 atoms

99.9% CPU use with 52 MPI tasks x 1 OpenMP threads

Minimization stats:
  Stopping criterion = linesearch alpha is zero
  Energy initial, next-to-last, final = 
     -1152448.71320208  -1152448.71499146  -1152448.71499146
  Force two-norm initial, final = 0.1816577 0.00014332244
  Force max component initial, final = 0.15185017 3.4937038e-05
  Final line search alpha, max atom move = 0.5 1.7468519e-05
  Iterations, force evaluations = 162 325

MPI task timing breakdown:
Section |  min time  |  avg time  |  max time  |%varavg| %total
---------------------------------------------------------------
Pair    | 0.92337    | 2.5929     | 3.3925     |  44.4 | 72.05
Neigh   | 0          | 0          | 0          |   0.0 |  0.00
Comm    | 0.049416   | 0.57869    | 1.8199     |  68.4 | 16.08
Output  | 0          | 0          | 0          |   0.0 |  0.00
Modify  | 5.4279e-05 | 0.0054889  | 0.011638   |   3.4 |  0.15
Other   |            | 0.4218     |            |       | 11.72

Nlocal:        5552.90 ave        7906 max           0 min
Histogram: 4 2 2 0 2 6 4 0 15 17
Nghost:        6213.19 ave        8770 max         412 min
Histogram: 4 0 4 0 8 0 4 5 7 20
Neighs:       158427.0 ave      230510 max           0 min
Histogram: 4 2 2 0 5 3 4 4 12 16

Total # of neighbors = 8238212
Ave neighs/atom = 28.530506
Neighbor list builds = 0
Dangerous builds = 0
The dot product: -3.27611575002292e-08
Setting atom values ...
  1 settings made for x
  1 settings made for y
  1 settings made for z
Setting up cg style minimization ...
  Unit style    : metal
  Current step  : 6188
Per MPI rank memory allocation (min/avg/max) = 5.465 | 6.344 | 6.728 Mbytes
Step PotEng KinEng TotEng v_fx v_fy v_fz 
    6188   -1152448.7            0   -1152448.7  0.015601033  0.002559515 -0.018238904 
    6347   -1152448.7            0   -1152448.7 3.4506315e-05 3.8871087e-06 -4.0468688e-05 
Loop time of 3.58714 on 52 procs for 159 steps with 288751 atoms

99.9% CPU use with 52 MPI tasks x 1 OpenMP threads

Minimization stats:
  Stopping criterion = linesearch alpha is zero
  Energy initial, next-to-last, final = 
     -1152448.67382691  -1152448.67557122  -1152448.67557122
  Force two-norm initial, final = 0.18060966 0.00018470509
  Force max component initial, final = 0.15193584 4.0468688e-05
  Final line search alpha, max atom move = 0.25 1.0117172e-05
  Iterations, force evaluations = 159 325

MPI task timing breakdown:
Section |  min time  |  avg time  |  max time  |%varavg| %total
---------------------------------------------------------------
Pair    | 0.92184    | 2.5814     | 3.3872     |  44.4 | 71.96
Neigh   | 0          | 0          | 0          |   0.0 |  0.00
Comm    | 0.049743   | 0.57613    | 1.8062     |  68.0 | 16.06
Output  | 0          | 0          | 0          |   0.0 |  0.00
Modify  | 6.8647e-05 | 0.0054579  | 0.011405   |   3.4 |  0.15
Other   |            | 0.4241     |            |       | 11.82

Nlocal:        5552.90 ave        7906 max           0 min
Histogram: 4 2 2 0 2 6 4 0 15 17
Nghost:        6213.13 ave        8770 max         412 min
Histogram: 4 0 4 0 8 0 4 5 7 20
Neighs:       158427.0 ave      230513 max           0 min
Histogram: 4 2 2 0 5 3 4 4 12 16

Total # of neighbors = 8238205
Ave neighs/atom = 28.530481
Neighbor list builds = 0
Dangerous builds = 0
The dot product: 1.18488708800487e-08
Setting atom values ...
  1 settings made for x
  1 settings made for y
  1 settings made for z
Setting up cg style minimization ...
  Unit style    : metal
  Current step  : 6347
Per MPI rank memory allocation (min/avg/max) = 5.465 | 6.344 | 6.728 Mbytes
Step PotEng KinEng TotEng v_fx v_fy v_fz 
    6347   -1152448.6            0   -1152448.6  0.018328177 0.0037712942 -0.021381613 
    6523   -1152448.6            0   -1152448.6 1.1868176e-05 -4.0988855e-06 -1.4332592e-05 
Loop time of 3.91591 on 52 procs for 176 steps with 288751 atoms

99.9% CPU use with 52 MPI tasks x 1 OpenMP threads

Minimization stats:
  Stopping criterion = energy tolerance
  Energy initial, next-to-last, final = 
     -1152448.63407546  -1152448.63606254  -1152448.63606254
  Force two-norm initial, final = 0.17969612 0.00023852298
  Force max component initial, final = 0.15173574 3.7819869e-05
  Final line search alpha, max atom move = 1.0000000 3.7819869e-05
  Iterations, force evaluations = 176 352

MPI task timing breakdown:
Section |  min time  |  avg time  |  max time  |%varavg| %total
---------------------------------------------------------------
Pair    | 0.99719    | 2.804      | 3.6831     |  46.4 | 71.60
Neigh   | 0          | 0          | 0          |   0.0 |  0.00
Comm    | 0.053786   | 0.62903    | 1.9624     |  70.6 | 16.06
Output  | 0          | 0          | 0          |   0.0 |  0.00
Modify  | 7.1646e-05 | 0.0059188  | 0.012527   |   3.5 |  0.15
Other   |            | 0.477      |            |       | 12.18

Nlocal:        5552.90 ave        7905 max           0 min
Histogram: 4 2 2 0 2 6 4 0 15 17
Nghost:        6213.06 ave        8770 max         412 min
Histogram: 4 0 4 0 8 0 4 5 7 20
Neighs:       158427.0 ave      230477 max           0 min
Histogram: 4 2 2 0 5 3 4 4 12 16

Total # of neighbors = 8238200
Ave neighs/atom = 28.530464
Neighbor list builds = 0
Dangerous builds = 0
The dot product: 1.93916151885512e-08
Setting atom values ...
  1 settings made for x
  1 settings made for y
  1 settings made for z
Setting up cg style minimization ...
  Unit style    : metal
  Current step  : 6523
Per MPI rank memory allocation (min/avg/max) = 5.465 | 6.344 | 6.728 Mbytes
Step PotEng KinEng TotEng v_fx v_fy v_fz 
    6523   -1152448.6            0   -1152448.6   0.02094244  0.001408734 -0.024690737 
    6710   -1152448.6            0   -1152448.6 1.903564e-05 6.6326259e-07 -2.2490687e-05 
Loop time of 4.14271 on 52 procs for 187 steps with 288751 atoms

99.9% CPU use with 52 MPI tasks x 1 OpenMP threads

Minimization stats:
  Stopping criterion = energy tolerance
  Energy initial, next-to-last, final = 
     -1152448.59530357  -1152448.59744308  -1152448.59744308
  Force two-norm initial, final = 0.17777032 0.00022604915
  Force max component initial, final = 0.14919094 2.3232690e-05
  Final line search alpha, max atom move = 1.0000000 2.3232690e-05
  Iterations, force evaluations = 187 374

MPI task timing breakdown:
Section |  min time  |  avg time  |  max time  |%varavg| %total
---------------------------------------------------------------
Pair    | 1.0637     | 2.9754     | 3.9055     |  47.6 | 71.82
Neigh   | 0          | 0          | 0          |   0.0 |  0.00
Comm    | 0.057518   | 0.66342    | 2.082      |  73.0 | 16.01
Output  | 0          | 0          | 0          |   0.0 |  0.00
Modify  | 7.5492e-05 | 0.0062991  | 0.013374   |   3.7 |  0.15
Other   |            | 0.4976     |            |       | 12.01

Nlocal:        5552.90 ave        7903 max           0 min
Histogram: 4 2 2 0 2 6 4 0 15 17
Nghost:        6213.06 ave        8770 max         412 min
Histogram: 4 0 4 0 8 0 4 5 7 20
Neighs:       158427.0 ave      230414 max           0 min
Histogram: 4 2 2 0 5 3 4 4 12 16

Total # of neighbors = 8238205
Ave neighs/atom = 28.530481
Neighbor list builds = 0
Dangerous builds = 0
The dot product: 1.67473663251508e-08
Setting atom values ...
  1 settings made for x
  1 settings made for y
  1 settings made for z
Setting up cg style minimization ...
  Unit style    : metal
  Current step  : 6710
Per MPI rank memory allocation (min/avg/max) = 5.465 | 6.344 | 6.728 Mbytes
Step PotEng KinEng TotEng v_fx v_fy v_fz 
    6710   -1152448.6            0   -1152448.6  0.022030511 -0.00049749337 -0.026172376 
    6957   -1152448.6            0   -1152448.6 6.9057808e-06 -1.3925366e-07 -8.2027431e-06 
Loop time of 5.47959 on 52 procs for 247 steps with 288751 atoms

99.9% CPU use with 52 MPI tasks x 1 OpenMP threads

Minimization stats:
  Stopping criterion = linesearch alpha is zero
  Energy initial, next-to-last, final = 
     -1152448.55833786   -1152448.5700913   -1152448.5700913
  Force two-norm initial, final = 0.18457009 7.4928984e-05
  Force max component initial, final = 0.14667509 8.4814275e-06
  Final line search alpha, max atom move = 0.5 4.2407138e-06
  Iterations, force evaluations = 247 495

MPI task timing breakdown:
Section |  min time  |  avg time  |  max time  |%varavg| %total
---------------------------------------------------------------
Pair    | 1.4154     | 3.9448     | 5.1637     |  54.8 | 71.99
Neigh   | 1.89e-05   | 0.0057974  | 0.0086922  |   3.2 |  0.11
Comm    | 0.076437   | 0.88258    | 2.7706     |  83.8 | 16.11
Output  | 0          | 0          | 0          |   0.0 |  0.00
Modify  | 9.4405e-05 | 0.008327   | 0.017588   |   4.2 |  0.15
Other   |            | 0.6381     |            |       | 11.65

Nlocal:        5552.90 ave        7902 max           0 min
Histogram: 4 2 2 0 2 6 4 0 15 17
Nghost:        6213.06 ave        8769 max         412 min
Histogram: 4 0 4 0 8 0 4 5 7 20
Neighs:       158427.0 ave      230350 max           0 min
Histogram: 4 2 2 0 5 3 4 4 12 16

Total # of neighbors = 8238195
Ave neighs/atom = 28.530447
Neighbor list builds = 1
Dangerous builds = 0
The dot product: -1.49840477793733e-07
Setting atom values ...
  1 settings made for x
  1 settings made for y
  1 settings made for z
Setting up cg style minimization ...
  Unit style    : metal
  Current step  : 6957
Per MPI rank memory allocation (min/avg/max) = 5.465 | 6.344 | 6.728 Mbytes
Step PotEng KinEng TotEng v_fx v_fy v_fz 
    6957   -1152448.5            0   -1152448.5  0.014535759 0.0020528688 -0.016448463 
    7000   -1152448.5            0   -1152448.5 -0.00054955047 -9.6712621e-05 0.00062024074 
    7265   -1152448.5            0   -1152448.5 4.9761106e-05 4.3227374e-06 -5.6538823e-05 
Loop time of 6.84529 on 52 procs for 308 steps with 288751 atoms

99.9% CPU use with 52 MPI tasks x 1 OpenMP threads

Minimization stats:
  Stopping criterion = energy tolerance
  Energy initial, next-to-last, final = 
[...]
Other   |            | 0.4569     |            |       | 12.09

Nlocal:        5552.90 ave        7921 max           0 min
Histogram: 4 2 2 0 3 5 4 2 13 17
Nghost:        6213.62 ave        8769 max         412 min
Histogram: 4 0 4 0 8 0 4 5 7 20
Neighs:       158427.0 ave      230942 max           0 min
Histogram: 4 2 2 0 5 3 4 4 12 16

Total # of neighbors = 8238182
Ave neighs/atom = 28.530402
Neighbor list builds = 0
Dangerous builds = 0
The dot product: -1.17210853766381e-08
Setting atom values ...
  1 settings made for x
  1 settings made for y
  1 settings made for z
Setting up cg style minimization ...
  Unit style    : metal
  Current step  : 4165
Per MPI rank memory allocation (min/avg/max) = 5.465 | 6.344 | 6.728 Mbytes
Step PotEng KinEng TotEng v_fx v_fy v_fz 
    4165     -1152449            0     -1152449   -0.1010489  0.029206947 -0.056639365 
    4354     -1152449            0     -1152449 8.3020437e-06 -3.5371166e-06 1.3540298e-05 
Loop time of 4.19166 on 52 procs for 189 steps with 288751 atoms

99.9% CPU use with 52 MPI tasks x 1 OpenMP threads

Minimization stats:
  Stopping criterion = energy tolerance
  Energy initial, next-to-last, final = 
     -1152448.97632601  -1152448.97975924  -1152448.97975924
  Force two-norm initial, final = 0.22176804 0.00011287438
  Force max component initial, final = 0.16608146 1.3540298e-05
  Final line search alpha, max atom move = 1.0000000 1.3540298e-05
  Iterations, force evaluations = 189 380

MPI task timing breakdown:
Section |  min time  |  avg time  |  max time  |%varavg| %total
---------------------------------------------------------------
Pair    | 1.0636     | 3.0158     | 3.9636     |  48.1 | 71.95
Neigh   | 0          | 0          | 0          |   0.0 |  0.00
Comm    | 0.0575     | 0.67297    | 2.1153     |  73.6 | 16.06
Output  | 0          | 0          | 0          |   0.0 |  0.00
Modify  | 6.6129e-05 | 0.0063323  | 0.013409   |   3.7 |  0.15
Other   |            | 0.4966     |            |       | 11.85

Nlocal:        5552.90 ave        7921 max           0 min
Histogram: 4 2 2 0 3 5 4 2 13 17
Nghost:        6213.62 ave        8769 max         412 min
Histogram: 4 0 4 0 8 0 4 5 7 20
Neighs:       158427.0 ave      230952 max           0 min
Histogram: 4 2 2 0 5 3 4 4 12 16

Total # of neighbors = 8238181
Ave neighs/atom = 28.530398
Neighbor list builds = 0
Dangerous builds = 0
The dot product: -4.7636206723372e-07
Setting atom values ...
  1 settings made for x
  1 settings made for y
  1 settings made for z
Setting up cg style minimization ...
  Unit style    : metal
  Current step  : 4354
Per MPI rank memory allocation (min/avg/max) = 5.465 | 6.344 | 6.728 Mbytes
Step PotEng KinEng TotEng v_fx v_fy v_fz 
    4354   -1152448.9            0   -1152448.9  -0.11498164  0.026305591 -0.084737072 
    4536   -1152448.9            0   -1152448.9 2.6138124e-06 -1.8971536e-06 1.5786769e-05 
Loop time of 4.09149 on 52 procs for 182 steps with 288751 atoms

99.9% CPU use with 52 MPI tasks x 1 OpenMP threads

Minimization stats:
  Stopping criterion = linesearch alpha is zero
  Energy initial, next-to-last, final = 
     -1152448.94038474  -1152448.94447403  -1152448.94447403
  Force two-norm initial, final = 0.24024738 0.00022456445
  Force max component initial, final = 0.1743975 3.9002420e-05
  Final line search alpha, max atom move = 0.125 4.8753025e-06
  Iterations, force evaluations = 182 369

MPI task timing breakdown:
Section |  min time  |  avg time  |  max time  |%varavg| %total
---------------------------------------------------------------
Pair    | 1.0391     | 2.929      | 3.8536     |  47.3 | 71.59
Neigh   | 0          | 0          | 0          |   0.0 |  0.00
Comm    | 0.055977   | 0.65967    | 2.063      |  71.8 | 16.12
Output  | 0          | 0          | 0          |   0.0 |  0.00
Modify  | 4.7756e-05 | 0.0061685  | 0.013347   |   3.7 |  0.15
Other   |            | 0.4966     |            |       | 12.14

Nlocal:        5552.90 ave        7921 max           0 min
Histogram: 4 2 2 0 3 5 4 1 14 17
Nghost:        6213.62 ave        8769 max         412 min
Histogram: 4 0 4 0 8 0 4 5 7 20
Neighs:       158427.0 ave      230950 max           0 min
Histogram: 4 2 2 0 5 3 4 4 12 16

Total # of neighbors = 8238180
Ave neighs/atom = 28.530395
Neighbor list builds = 0
Dangerous builds = 0
The dot product: -4.25651033273456e-07
Setting atom values ...
  1 settings made for x
  1 settings made for y
  1 settings made for z
Setting up cg style minimization ...
  Unit style    : metal
  Current step  : 4536
Per MPI rank memory allocation (min/avg/max) = 5.465 | 6.344 | 6.728 Mbytes
Step PotEng KinEng TotEng v_fx v_fy v_fz 
    4536   -1152448.9            0   -1152448.9  -0.11781502  0.017947824  -0.10862876 
    4763     -1152449            0     -1152449 7.369229e-06 3.1078799e-06 -7.4202245e-05 
Loop time of 5.01483 on 52 procs for 227 steps with 288751 atoms

99.9% CPU use with 52 MPI tasks x 1 OpenMP threads

Minimization stats:
  Stopping criterion = energy tolerance
  Energy initial, next-to-last, final = 
     -1152448.90519388   -1152448.9582588   -1152448.9582588
  Force two-norm initial, final = 0.25783871 0.0002686588
  Force max component initial, final = 0.18218171 7.4202245e-05
  Final line search alpha, max atom move = 1.0000000 7.4202245e-05
  Iterations, force evaluations = 227 453

MPI task timing breakdown:
Section |  min time  |  avg time  |  max time  |%varavg| %total
---------------------------------------------------------------
Pair    | 1.2845     | 3.5938     | 4.7223     |  52.2 | 71.66
Neigh   | 4.1895e-05 | 0.011588   | 0.016992   |   4.6 |  0.23
Comm    | 0.069874   | 0.8042     | 2.5332     |  80.2 | 16.04
Output  | 0          | 0          | 0          |   0.0 |  0.00
Modify  | 7.5924e-05 | 0.007545   | 0.015975   |   4.0 |  0.15
Other   |            | 0.5977     |            |       | 11.92

Nlocal:        5552.90 ave        7918 max           0 min
Histogram: 4 2 2 0 2 6 4 1 14 17
Nghost:        6213.62 ave        8769 max         412 min
Histogram: 4 0 4 0 8 0 4 5 7 20
Neighs:       158427.0 ave      230859 max           0 min
Histogram: 4 2 2 0 5 3 4 4 12 16

Total # of neighbors = 8238180
Ave neighs/atom = 28.530395
Neighbor list builds = 2
Dangerous builds = 0
The dot product: 4.54500700859394e-06
Setting atom values ...
  1 settings made for x
  1 settings made for y
  1 settings made for z
Setting up cg style minimization ...
  Unit style    : metal
  Current step  : 4763
Per MPI rank memory allocation (min/avg/max) = 5.465 | 6.344 | 6.728 Mbytes
Step PotEng KinEng TotEng v_fx v_fy v_fz 
    4763   -1152448.9            0   -1152448.9 -0.092594561 -0.0069497405  -0.14450787 
    4980   -1152448.9            0   -1152448.9 -2.037441e-05 3.2044199e-07 -3.323417e-06 
Loop time of 4.81148 on 52 procs for 217 steps with 288751 atoms

99.9% CPU use with 52 MPI tasks x 1 OpenMP threads

Minimization stats:
  Stopping criterion = linesearch alpha is zero
  Energy initial, next-to-last, final = 
     -1152448.93515109  -1152448.93988952  -1152448.93988952
  Force two-norm initial, final = 0.27271237 0.00010542099
  Force max component initial, final = 0.19361456 3.1379216e-05
  Final line search alpha, max atom move = 0.5 1.5689608e-05
  Iterations, force evaluations = 217 435

MPI task timing breakdown:
Section |  min time  |  avg time  |  max time  |%varavg| %total
---------------------------------------------------------------
Pair    | 1.2197     | 3.451      | 4.5361     |  51.4 | 71.72
Neigh   | 0          | 0          | 0          |   0.0 |  0.00
Comm    | 0.065329   | 0.77694    | 2.4141     |  77.9 | 16.15
Output  | 0          | 0          | 0          |   0.0 |  0.00
Modify  | 7.3072e-05 | 0.0072516  | 0.015356   |   3.9 |  0.15
Other   |            | 0.5763     |            |       | 11.98

Nlocal:        5552.90 ave        7921 max           0 min
Histogram: 4 2 2 0 3 5 4 2 13 17
Nghost:        6213.62 ave        8769 max         412 min
Histogram: 4 0 4 0 8 0 4 5 7 20
Neighs:       158427.0 ave      230936 max           0 min
Histogram: 4 2 2 0 5 3 4 4 12 16

Total # of neighbors = 8238183
Ave neighs/atom = 28.530405
Neighbor list builds = 0
Dangerous builds = 0
The dot product: 4.71444598048247e-07
Setting atom values ...
  1 settings made for x
  1 settings made for y
  1 settings made for z
Setting up cg style minimization ...
  Unit style    : metal
  Current step  : 4980
Per MPI rank memory allocation (min/avg/max) = 5.465 | 6.344 | 6.728 Mbytes
Step PotEng KinEng TotEng v_fx v_fy v_fz 
    4980   -1152448.9            0   -1152448.9 -0.038825984 -0.0081931912 -0.069669881 
    5000   -1152448.9            0   -1152448.9 0.00013132405 1.1286306e-07 -5.4633732e-06 
    5134   -1152448.9            0   -1152448.9 -3.2566452e-05 6.0383207e-06 5.4350792e-05 
Loop time of 3.41172 on 52 procs for 154 steps with 288751 atoms

99.8% CPU use with 52 MPI tasks x 1 OpenMP threads

Minimization stats:
  Stopping criterion = energy tolerance
  Energy initial, next-to-last, final = 
     -1152448.91725518   -1152448.9199947   -1152448.9199947
  Force two-norm initial, final = 0.23156582 0.00028955498
  Force max component initial, final = 0.19626648 6.4234390e-05
  Final line search alpha, max atom move = 1.0000000 6.4234390e-05
  Iterations, force evaluations = 154 308

MPI task timing breakdown:
Section |  min time  |  avg time  |  max time  |%varavg| %total
---------------------------------------------------------------
Pair    | 0.8905     | 2.4494     | 3.2195     |  42.8 | 71.79
Neigh   | 0          | 0          | 0          |   0.0 |  0.00
Comm    | 0.050663   | 0.54754    | 1.727      |  65.9 | 16.05
Output  | 0.00014252 | 0.00014704 | 0.00030817 |   0.0 |  0.00
Modify  | 5.5424e-05 | 0.0051903  | 0.010913   |   3.3 |  0.15
Other   |            | 0.4094     |            |       | 12.00

Nlocal:        5552.90 ave        7921 max           0 min
Histogram: 4 2 2 0 3 5 4 2 13 17
Nghost:        6213.58 ave        8769 max         412 min
Histogram: 4 0 4 0 8 0 4 5 7 20
Neighs:       158427.0 ave      230924 max           0 min
Histogram: 4 2 2 0 5 3 4 4 12 16

Total # of neighbors = 8238183
Ave neighs/atom = 28.530405
Neighbor list builds = 0
Dangerous builds = 0
The dot product: -5.05249078305865e-07
Setting atom values ...
  1 settings made for x
  1 settings made for y
  1 settings made for z
Setting up cg style minimization ...
  Unit style    : metal
  Current step  : 5134
Per MPI rank memory allocation (min/avg/max) = 5.465 | 6.344 | 6.728 Mbytes
Step PotEng KinEng TotEng v_fx v_fy v_fz 
    5134   -1152448.9            0   -1152448.9 -0.016424684 -0.0057130788 -0.039294033 
    5309   -1152448.9            0   -1152448.9 4.2400879e-07 -3.7239203e-07 -2.7608985e-06 
Loop time of 3.87177 on 52 procs for 175 steps with 288751 atoms

99.9% CPU use with 52 MPI tasks x 1 OpenMP threads

Minimization stats:
  Stopping criterion = linesearch alpha is zero
  Energy initial, next-to-last, final = 
     -1152448.89765401  -1152448.89967853  -1152448.89967853
  Force two-norm initial, final = 0.22276978 0.0001449368
  Force max component initial, final = 0.19858716 5.4623864e-05
  Final line search alpha, max atom move = 0.5 2.7311932e-05
  Iterations, force evaluations = 175 351

MPI task timing breakdown:
Section |  min time  |  avg time  |  max time  |%varavg| %total
---------------------------------------------------------------
Pair    | 0.98747    | 2.7898     | 3.6616     |  46.3 | 72.06
Neigh   | 0          | 0          | 0          |   0.0 |  0.00
Comm    | 0.052354   | 0.62284    | 1.9453     |  70.3 | 16.09
Output  | 0          | 0          | 0          |   0.0 |  0.00
Modify  | 5.8362e-05 | 0.005878   | 0.01237    |   3.5 |  0.15
Other   |            | 0.4532     |            |       | 11.71

Nlocal:        5552.90 ave        7920 max           0 min
Histogram: 4 2 2 0 2 6 4 2 13 17
Nghost:        6213.58 ave        8769 max         412 min
Histogram: 4 0 4 0 8 0 4 5 7 20
Neighs:       158427.0 ave      230896 max           0 min
Histogram: 4 2 2 0 5 3 4 4 12 16

Total # of neighbors = 8238182
Ave neighs/atom = 28.530402
Neighbor list builds = 0
Dangerous builds = 0
The dot product: 1.66888402284436e-08
Setting atom values ...
  1 settings made for x
  1 settings made for y
  1 settings made for z
Setting up cg style minimization ...
  Unit style    : metal
  Current step  : 5309
Per MPI rank memory allocation (min/avg/max) = 5.465 | 6.344 | 6.728 Mbytes
Step PotEng KinEng TotEng v_fx v_fy v_fz 
    5309   -1152448.9            0   -1152448.9 -0.0078365254 -0.0035316365 -0.022617861 
    5518   -1152448.9            0   -1152448.9 3.587179e-06 -1.8764321e-06 -1.3213633e-05 
Loop time of 4.6355 on 52 procs for 209 steps with 288751 atoms

99.9% CPU use with 52 MPI tasks x 1 OpenMP threads

Minimization stats:
  Stopping criterion = linesearch alpha is zero
  Energy initial, next-to-last, final = 
     -1152448.87615273  -1152448.87797758  -1152448.87797758
  Force two-norm initial, final = 0.22009363 5.7577788e-05
  Force max component initial, final = 0.20113203 1.3213633e-05
  Final line search alpha, max atom move = 0.5 6.6068167e-06
  Iterations, force evaluations = 209 419

MPI task timing breakdown:
Section |  min time  |  avg time  |  max time  |%varavg| %total
---------------------------------------------------------------
Pair    | 1.1953     | 3.3257     | 4.3694     |  50.1 | 71.74
Neigh   | 0          | 0          | 0          |   0.0 |  0.00
Comm    | 0.064386   | 0.74697    | 2.3428     |  77.1 | 16.11
Output  | 0          | 0          | 0          |   0.0 |  0.00
Modify  | 7.0471e-05 | 0.0070166  | 0.014793   |   3.9 |  0.15
Other   |            | 0.5558     |            |       | 11.99

Nlocal:        5552.90 ave        7920 max           0 min
Histogram: 4 2 2 0 2 6 4 2 13 17
Nghost:        6213.65 ave        8769 max         412 min
Histogram: 4 0 4 0 8 0 4 5 7 20
Neighs:       158427.0 ave      230894 max           0 min
Histogram: 4 2 2 0 5 3 4 4 12 16

Total # of neighbors = 8238180
Ave neighs/atom = 28.530395
Neighbor list builds = 0
Dangerous builds = 0
The dot product: 3.21590896463715e-08
Setting atom values ...
  1 settings made for x
  1 settings made for y
  1 settings made for z
Setting up cg style minimization ...
  Unit style    : metal
  Current step  : 5518
Per MPI rank memory allocation (min/avg/max) = 5.465 | 6.344 | 6.728 Mbytes
Step PotEng KinEng TotEng v_fx v_fy v_fz 
    5518   -1152448.9            0   -1152448.9 -0.0043071506 -0.0022360943 -0.014011528 
    5644   -1152448.9            0   -1152448.9 -1.1114698e-06 7.8610149e-07 5.3352358e-06 
Loop time of 2.83795 on 52 procs for 126 steps with 288751 atoms

99.9% CPU use with 52 MPI tasks x 1 OpenMP threads

Minimization stats:
  Stopping criterion = linesearch alpha is zero
  Energy initial, next-to-last, final = 
     -1152448.85240949   -1152448.8543422   -1152448.8543422
  Force two-norm initial, final = 0.22380017 0.00026611271
  Force max component initial, final = 0.20359838 6.0268977e-05
  Final line search alpha, max atom move = 0.125 7.5336221e-06
  Iterations, force evaluations = 126 257

MPI task timing breakdown:
Section |  min time  |  avg time  |  max time  |%varavg| %total
---------------------------------------------------------------
Pair    | 0.72297    | 2.039      | 2.6848     |  39.5 | 71.85
Neigh   | 0          | 0          | 0          |   0.0 |  0.00
Comm    | 0.039441   | 0.45695    | 1.4351     |  60.3 | 16.10
Output  | 0          | 0          | 0          |   0.0 |  0.00
Modify  | 4.6314e-05 | 0.0043031  | 0.0090834  |   3.0 |  0.15
Other   |            | 0.3377     |            |       | 11.90

Nlocal:        5552.90 ave        7920 max           0 min
Histogram: 4 2 2 0 2 6 4 2 13 17
Nghost:        6213.65 ave        8769 max         412 min
Histogram: 4 0 4 0 8 0 4 5 7 20
Neighs:       158427.0 ave      230892 max           0 min
Histogram: 4 2 2 0 5 3 4 4 12 16

Total # of neighbors = 8238179
Ave neighs/atom = 28.530391
Neighbor list builds = 0
Dangerous builds = 0
The dot product: -4.7075375446055e-09
Setting atom values ...
  1 settings made for x
  1 settings made for y
  1 settings made for z
Setting up cg style minimization ...
  Unit style    : metal
  Current step  : 5644
Per MPI rank memory allocation (min/avg/max) = 5.465 | 6.344 | 6.728 Mbytes
Step PotEng KinEng TotEng v_fx v_fy v_fz 
    5644   -1152448.8            0   -1152448.8 -0.002882242 -0.0015715786 -0.0098012612 
    5837   -1152448.8            0   -1152448.8 -3.1399376e-07 -2.073088e-07 -1.3029002e-06 
Loop time of 4.29018 on 52 procs for 193 steps with 288751 atoms

99.9% CPU use with 52 MPI tasks x 1 OpenMP threads

Minimization stats:
  Stopping criterion = linesearch alpha is zero
  Energy initial, next-to-last, final = 
     -1152448.82652577  -1152448.82856969  -1152448.82856969
  Force two-norm initial, final = 0.22834616 9.5826776e-05
  Force max component initial, final = 0.206128 3.3032767e-05
  Final line search alpha, max atom move = 0.5 1.6516384e-05
  Iterations, force evaluations = 193 389

MPI task timing breakdown:
Section |  min time  |  avg time  |  max time  |%varavg| %total
---------------------------------------------------------------
Pair    | 1.0919     | 3.0905     | 4.0576     |  48.6 | 72.04
Neigh   | 0          | 0          | 0          |   0.0 |  0.00
Comm    | 0.058825   | 0.69061    | 2.1715     |  74.4 | 16.10
Output  | 0          | 0          | 0          |   0.0 |  0.00
Modify  | 6.8298e-05 | 0.0064783  | 0.013751   |   3.7 |  0.15
Other   |            | 0.5026     |            |       | 11.72

Nlocal:        5552.90 ave        7920 max           0 min
Histogram: 4 2 2 0 2 6 4 2 13 17
Nghost:        6213.65 ave        8769 max         412 min
Histogram: 4 0 4 0 8 0 4 5 7 20
Neighs:       158426.0 ave      230889 max           0 min
Histogram: 4 2 2 0 5 3 4 4 12 16

Total # of neighbors = 8238176
Ave neighs/atom = 28.530381
Neighbor list builds = 0
Dangerous builds = 0
The dot product: -8.8637808441625e-11
Setting up cg style minimization ...
  Unit style    : metal
  Current step  : 5837
Per MPI rank memory allocation (min/avg/max) = 5.465 | 6.344 | 6.728 Mbytes
Step PotEng KinEng TotEng v_fx v_fy v_fz 
    5837   -1152448.8            0   -1152448.8  0.030815221   -1.3283578    0.2039317 
    6000   -1152449.5            0   -1152449.5 9.8529006e-05 2.743449e-05 -0.00012568638 
    6114   -1152449.5            0   -1152449.5 -1.5190603e-06 -1.1392271e-06 1.0141732e-05 
Loop time of 6.10246 on 52 procs for 277 steps with 288751 atoms

99.9% CPU use with 52 MPI tasks x 1 OpenMP threads

Minimization stats:
  Stopping criterion = linesearch alpha is zero
  Energy initial, next-to-last, final = 
     -1152448.82856969  -1152449.45035285  -1152449.45035285
  Force two-norm initial, final = 1.3442739 7.4196035e-05
  Force max component initial, final = 1.3283578 1.0141732e-05
  Final line search alpha, max atom move = 0.5 5.0708659e-06
  Iterations, force evaluations = 277 550

MPI task timing breakdown:
Section |  min time  |  avg time  |  max time  |%varavg| %total
---------------------------------------------------------------
Pair    | 1.588      | 4.3645     | 5.7391     |  57.1 | 71.52
Neigh   | 7.7608e-05 | 0.023216   | 0.034035   |   6.4 |  0.38
Comm    | 0.086218   | 0.98316    | 3.0733     |  87.5 | 16.11
Output  | 0.0002115  | 0.00021677 | 0.0003915  |   0.0 |  0.00
Modify  | 5.9719e-05 | 0.0060459  | 0.015269   |   4.7 |  0.10
Other   |            | 0.7253     |            |       | 11.89

Nlocal:        5552.90 ave        7919 max           0 min
Histogram: 4 2 2 0 2 6 4 2 13 17
Nghost:        6213.65 ave        8769 max         412 min
Histogram: 4 0 4 0 8 0 4 5 7 20
Neighs:       158427.0 ave      230862 max           0 min
Histogram: 4 2 2 0 5 3 4 4 12 16

Total # of neighbors = 8238189
Ave neighs/atom = 28.530426
Neighbor list builds = 4
Dangerous builds = 0
