LAMMPS (29 Oct 2020)
OMP_NUM_THREADS environment is not set. Defaulting to 1 thread. (../comm.cpp:94)
  using 1 OpenMP thread(s) per MPI task
Reading data file ...
  orthogonal box = (-122.39241 -121.13707 -37.090501) to (122.39241 121.13707 37.090501)
  13 by 4 by 1 MPI processor grid
  reading atoms ...
  288751 atoms
  read_data CPU = 0.421 seconds
199981 atoms in group inner
88770 atoms in group outer
1 atoms in group carbon
Neighbor list info ...
  update every 1 steps, delay 0 steps, check yes
  max neighbors/atom: 2000, page size: 100000
  master list distance cutoff = 5.6
  ghost atom cutoff = 5.6
  binsize = 2.8, bins = 88 87 27
  1 neighbor lists, perpetual/occasional/extra = 1 0 0
  (1) pair eam/alloy, perpetual
      attributes: half, newton on
      pair build: half/bin/atomonly/newton
      stencil: half/bin/3d/newton
      bin: standard
Setting up cg style minimization ...
  Unit style    : metal
  Current step  : 0
Per MPI rank memory allocation (min/avg/max) = 5.465 | 6.344 | 6.728 Mbytes
Step v_fx v_fy v_fz PotEng KinEng TotEng 
       0   0.26593027   -0.4886395  -0.39936452   -1152447.8            0   -1152447.8 
     175 -6.7569564e-06 1.5825466e-06 9.5375444e-06   -1152449.5            0   -1152449.5 
Loop time of 3.86602 on 52 procs for 175 steps with 288751 atoms

99.9% CPU use with 52 MPI tasks x 1 OpenMP threads

Minimization stats:
  Stopping criterion = linesearch alpha is zero
  Energy initial, next-to-last, final = 
     -1152447.84845493  -1152449.45035284  -1152449.45035284
  Force two-norm initial, final = 9.7663153 5.2237787e-05
  Force max component initial, final = 5.1924105 1.2557985e-05
  Final line search alpha, max atom move = 0.5 6.2789926e-06
  Iterations, force evaluations = 175 350

MPI task timing breakdown:
Section |  min time  |  avg time  |  max time  |%varavg| %total
---------------------------------------------------------------
Pair    | 1.0177     | 2.8071     | 3.667      |  45.9 | 72.61
Neigh   | 3.8645e-05 | 0.012781   | 0.019215   |   4.9 |  0.33
Comm    | 0.062644   | 0.62522    | 1.97       |  70.4 | 16.17
Output  | 0          | 0          | 0          |   0.0 |  0.00
Modify  | 4.2564e-05 | 0.0038524  | 0.0096952  |   3.8 |  0.10
Other   |            | 0.4171     |            |       | 10.79

Nlocal:        5552.90 ave        7909 max           0 min
Histogram: 4 2 2 0 2 6 4 0 15 17
Nghost:        6213.65 ave        8769 max         412 min
Histogram: 4 0 4 0 8 0 4 5 7 20
Neighs:       158427.0 ave      230572 max           0 min
Histogram: 4 2 2 0 5 3 4 4 12 16

Total # of neighbors = 8238222
Ave neighs/atom = 28.530540
Neighbor list builds = 2
Dangerous builds = 0
-0.01 2.01 -31.91 -0.0115755037685216 2.01217743036196 -31.9059051800232
Total wall time: 0:00:04
