LAMMPS (29 Oct 2020)
OMP_NUM_THREADS environment is not set. Defaulting to 1 thread. (../comm.cpp:94)
  using 1 OpenMP thread(s) per MPI task
OMP_NUM_THREADS environment is not set. Defaulting to 1 thread. (../comm.cpp:94)
  using 1 OpenMP thread(s) per MPI task
Reading data file ...
  orthogonal box = (-122.39241 -121.13707 -37.090501) to (122.39241 121.13707 37.090501)
  13 by 4 by 1 MPI processor grid
  reading atoms ...
  288751 atoms
  read_data CPU = 0.465 seconds
199981 atoms in group inner
88770 atoms in group outer
1 atoms in group carbon
Neighbor list info ...
  update every 1 steps, delay 0 steps, check yes
  max neighbors/atom: 2000, page size: 100000
  master list distance cutoff = 5.6
  ghost atom cutoff = 5.6
  binsize = 2.8, bins = 88 87 27
  1 neighbor lists, perpetual/occasional/extra = 1 0 0
  (1) pair eam/alloy, perpetual
      attributes: half, newton on
      pair build: half/bin/atomonly/newton
      stencil: half/bin/3d/newton
      bin: standard
Setting up cg style minimization ...
  Unit style    : metal
  Current step  : 0
Per MPI rank memory allocation (min/avg/max) = 5.465 | 6.344 | 6.728 Mbytes
Step v_fx v_fy v_fz PotEng KinEng TotEng 
       0   0.13383697 -0.018588625  0.067148582   -1152444.6            0   -1152444.6 
     257 -1.0659708e-07 -4.2614896e-06 3.8357251e-07     -1152449            0     -1152449 
Loop time of 5.67849 on 52 procs for 257 steps with 288751 atoms

99.9% CPU use with 52 MPI tasks x 1 OpenMP threads

Minimization stats:
  Stopping criterion = linesearch alpha is zero
  Energy initial, next-to-last, final = 
     -1152444.63018186  -1152448.97218785  -1152448.97218785
  Force two-norm initial, final = 23.793969 0.00013324944
  Force max component initial, final = 12.028177 2.8053009e-05
  Final line search alpha, max atom move = 0.5 1.4026505e-05
  Iterations, force evaluations = 257 512

MPI task timing breakdown:
Section |  min time  |  avg time  |  max time  |%varavg| %total
---------------------------------------------------------------
Pair    | 1.5095     | 4.0956     | 5.3789     |  55.1 | 72.12
Neigh   | 0.00016085 | 0.042178   | 0.06295    |   8.7 |  0.74
Comm    | 0.07332    | 0.9143     | 2.8692     |  84.5 | 16.10
Output  | 0          | 0          | 0          |   0.0 |  0.00
Modify  | 9.9655e-05 | 0.0056355  | 0.014333   |   4.6 |  0.10
Other   |            | 0.6208     |            |       | 10.93

Nlocal:        5552.90 ave        7908 max           0 min
Histogram: 4 2 2 0 2 6 4 0 15 17
Nghost:        6213.58 ave        8769 max         412 min
Histogram: 4 0 4 0 8 0 4 5 7 20
Neighs:       158427.0 ave      230552 max           0 min
Histogram: 4 2 2 0 5 3 4 4 12 16

Total # of neighbors = 8238212
Ave neighs/atom = 28.530506
Neighbor list builds = 7
Dangerous builds = 0
Setting atom values ...
  1 settings made for x
  1 settings made for y
  1 settings made for z
Setting up cg style minimization ...
  Unit style    : metal
  Current step  : 257
Per MPI rank memory allocation (min/avg/max) = 5.465 | 6.344 | 6.728 Mbytes
Step PotEng KinEng TotEng v_fx v_fy v_fz 
     257     -1152449            0     -1152449 -0.0057284709 -2.1040065e-05  0.010004555 
     623     -1152449            0     -1152449 2.0182851e-05 4.374748e-05 4.7667658e-05 
Loop time of 8.01361 on 52 procs for 366 steps with 288751 atoms

99.9% CPU use with 52 MPI tasks x 1 OpenMP threads

Minimization stats:
  Stopping criterion = energy tolerance
  Energy initial, next-to-last, final = 
     -1152448.96871978  -1152448.97097153  -1152448.97097153
  Force two-norm initial, final = 0.20131143 0.00026960854
  Force max component initial, final = 0.11390729 5.8382584e-05
  Final line search alpha, max atom move = 1.0000000 5.8382584e-05
  Iterations, force evaluations = 366 732

MPI task timing breakdown:
Section |  min time  |  avg time  |  max time  |%varavg| %total
---------------------------------------------------------------
Pair    | 2.0578     | 5.8194     | 7.684      |  67.1 | 72.62
Neigh   | 0          | 0          | 0          |   0.0 |  0.00
Comm    | 0.10263    | 1.2936     | 4.0776     | 101.5 | 16.14
Output  | 0          | 0          | 0          |   0.0 |  0.00
Modify  | 0.00016856 | 0.012209   | 0.025992   |   5.2 |  0.15
Other   |            | 0.8884     |            |       | 11.09

Nlocal:        5552.90 ave        7906 max           0 min
Histogram: 4 2 2 0 2 6 4 0 15 17
Nghost:        6213.62 ave        8769 max         412 min
Histogram: 4 0 4 0 8 0 4 5 7 20
Neighs:       158427.0 ave      230480 max           0 min
Histogram: 4 2 2 0 5 3 4 4 12 16

Total # of neighbors = 8238206
Ave neighs/atom = 28.530485
Neighbor list builds = 0
Dangerous builds = 0
Setting atom values ...
  1 settings made for x
  1 settings made for y
  1 settings made for z
Setting up cg style minimization ...
  Unit style    : metal
  Current step  : 623
Per MPI rank memory allocation (min/avg/max) = 5.465 | 6.344 | 6.728 Mbytes
Step PotEng KinEng TotEng v_fx v_fy v_fz 
     623     -1152449            0     -1152449 -0.016177169  -0.01244778 0.00032586294 
     821     -1152449            0     -1152449 -7.7587861e-06 -3.141218e-05 -2.0751532e-05 
Loop time of 4.39138 on 52 procs for 198 steps with 288751 atoms

99.9% CPU use with 52 MPI tasks x 1 OpenMP threads

Minimization stats:
  Stopping criterion = energy tolerance
  Energy initial, next-to-last, final = 
     -1152448.96772939  -1152448.96931233  -1152448.96931233
  Force two-norm initial, final = 0.14657547 0.00015533344
  Force max component initial, final = 0.071094969 3.9976422e-05
  Final line search alpha, max atom move = 1.0000000 3.9976422e-05
  Iterations, force evaluations = 198 400

MPI task timing breakdown:
Section |  min time  |  avg time  |  max time  |%varavg| %total
---------------------------------------------------------------
Pair    | 1.1266     | 3.1818     | 4.2232     |  49.8 | 72.46
Neigh   | 0          | 0          | 0          |   0.0 |  0.00
Comm    | 0.052001   | 0.70548    | 2.2228     |  75.1 | 16.07
Output  | 0          | 0          | 0          |   0.0 |  0.00
Modify  | 8.0491e-05 | 0.0066875  | 0.014282   |   3.8 |  0.15
Other   |            | 0.4974     |            |       | 11.33

Nlocal:        5552.90 ave        7907 max           0 min
Histogram: 4 2 2 0 2 6 4 0 15 17
Nghost:        6213.69 ave        8770 max         412 min
Histogram: 4 0 4 0 8 0 4 5 7 20
Neighs:       158427.0 ave      230506 max           0 min
Histogram: 4 2 2 0 5 3 4 4 12 16

Total # of neighbors = 8238200
Ave neighs/atom = 28.530464
Neighbor list builds = 0
Dangerous builds = 0
The dot product: -4.09442832654242e-07
Setting atom values ...
  1 settings made for x
  1 settings made for y
  1 settings made for z
Setting up cg style minimization ...
  Unit style    : metal
  Current step  : 821
Per MPI rank memory allocation (min/avg/max) = 5.465 | 6.344 | 6.728 Mbytes
Step PotEng KinEng TotEng v_fx v_fy v_fz 
     821     -1152449            0     -1152449 -0.014263322 -0.030218866 -0.0093878713 
     992     -1152449            0     -1152449 -3.5025074e-06 -2.0212801e-05 -8.2020777e-06 
Loop time of 3.74084 on 52 procs for 171 steps with 288751 atoms

99.9% CPU use with 52 MPI tasks x 1 OpenMP threads

Minimization stats:
  Stopping criterion = linesearch alpha is zero
  Energy initial, next-to-last, final = 
     -1152448.96515779  -1152448.96739913  -1152448.96739913
  Force two-norm initial, final = 0.1618518 0.00012420687
  Force max component initial, final = 0.08398328 3.1630525e-05
  Final line search alpha, max atom move = 0.5 1.5815263e-05
  Iterations, force evaluations = 171 343

MPI task timing breakdown:
Section |  min time  |  avg time  |  max time  |%varavg| %total
---------------------------------------------------------------
Pair    | 0.96715    | 2.7364     | 3.5952     |  46.0 | 73.15
Neigh   | 0          | 0          | 0          |   0.0 |  0.00
Comm    | 0.045872   | 0.60341    | 1.9061     |  70.1 | 16.13
Output  | 0          | 0          | 0          |   0.0 |  0.00
Modify  | 7.2592e-05 | 0.005745   | 0.012221   |   3.5 |  0.15
Other   |            | 0.3953     |            |       | 10.57

Nlocal:        5552.90 ave        7907 max           0 min
Histogram: 4 2 2 0 2 6 4 0 15 17
Nghost:        6213.62 ave        8769 max         412 min
Histogram: 4 0 4 0 8 0 4 5 7 20
Neighs:       158427.0 ave      230528 max           0 min
Histogram: 4 2 2 0 5 3 4 4 12 16

Total # of neighbors = 8238205
Ave neighs/atom = 28.530481
Neighbor list builds = 0
Dangerous builds = 0
The dot product: -5.6804310776551e-07
Setting atom values ...
  1 settings made for x
  1 settings made for y
  1 settings made for z
Setting up cg style minimization ...
  Unit style    : metal
  Current step  : 992
Per MPI rank memory allocation (min/avg/max) = 5.465 | 6.344 | 6.728 Mbytes
Step PotEng KinEng TotEng v_fx v_fy v_fz 
     992     -1152449            0     -1152449 -0.008292619 -0.041178776 -0.0016194998 
    1000     -1152449            0     -1152449 0.00054281559 -0.00022112149 -0.00010729792 
    1164     -1152449            0     -1152449 -2.2630803e-06 -7.3212769e-06 -1.5552808e-07 
Loop time of 3.7797 on 52 procs for 172 steps with 288751 atoms

99.8% CPU use with 52 MPI tasks x 1 OpenMP threads

Minimization stats:
  Stopping criterion = linesearch alpha is zero
  Energy initial, next-to-last, final = 
     -1152448.96315885  -1152448.96579192  -1152448.96579192
  Force two-norm initial, final = 0.18829223 4.6100114e-05
  Force max component initial, final = 0.07977519 1.4062074e-05
  Final line search alpha, max atom move = 0.5 7.0310372e-06
  Iterations, force evaluations = 172 345

MPI task timing breakdown:
Section |  min time  |  avg time  |  max time  |%varavg| %total
---------------------------------------------------------------
Pair    | 0.97569    | 2.7449     | 3.6103     |  45.9 | 72.62
Neigh   | 0          | 0          | 0          |   0.0 |  0.00
Comm    | 0.050688   | 0.6086     | 1.9197     |  70.1 | 16.10
Output  | 0.00011721 | 0.00012105 | 0.00025963 |   0.0 |  0.00
Modify  | 8.0684e-05 | 0.0057947  | 0.012367   |   3.6 |  0.15
Other   |            | 0.4203     |            |       | 11.12

Nlocal:        5552.90 ave        7910 max           0 min
Histogram: 4 2 2 0 2 6 4 0 15 17
Nghost:        6213.62 ave        8769 max         412 min
Histogram: 4 0 4 0 8 0 4 5 7 20
Neighs:       158427.0 ave      230615 max           0 min
Histogram: 4 2 2 0 5 3 4 4 12 16

Total # of neighbors = 8238212
Ave neighs/atom = 28.530506
Neighbor list builds = 0
Dangerous builds = 0
The dot product: -1.19837322359134e-07
Setting atom values ...
  1 settings made for x
  1 settings made for y
  1 settings made for z
Setting up cg style minimization ...
  Unit style    : metal
  Current step  : 1164
Per MPI rank memory allocation (min/avg/max) = 5.465 | 6.344 | 6.728 Mbytes
Step PotEng KinEng TotEng v_fx v_fy v_fz 
    1164     -1152449            0     -1152449 -0.0033027839 -0.055176535  0.006016641 
    1389     -1152449            0     -1152449 -1.6705026e-06 -3.1000749e-06 5.4666265e-07 
Loop time of 4.91028 on 52 procs for 225 steps with 288751 atoms

99.9% CPU use with 52 MPI tasks x 1 OpenMP threads

Minimization stats:
  Stopping criterion = energy tolerance
  Energy initial, next-to-last, final = 
     -1152448.96125801  -1152448.96437207  -1152448.96437207
  Force two-norm initial, final = 0.20437913 0.00011642373
  Force max component initial, final = 0.087560779 3.2347456e-05
  Final line search alpha, max atom move = 1.0000000 3.2347456e-05
  Iterations, force evaluations = 225 452

MPI task timing breakdown:
Section |  min time  |  avg time  |  max time  |%varavg| %total
---------------------------------------------------------------
Pair    | 1.2731     | 3.5891     | 4.7201     |  52.7 | 73.09
Neigh   | 0          | 0          | 0          |   0.0 |  0.00
Comm    | 0.061651   | 0.79155    | 2.5218     |  80.5 | 16.12
Output  | 0          | 0          | 0          |   0.0 |  0.00
Modify  | 9.0616e-05 | 0.0075729  | 0.016283   |   4.1 |  0.15
Other   |            | 0.522      |            |       | 10.63

Nlocal:        5552.90 ave        7908 max           0 min
Histogram: 4 2 2 0 2 6 4 0 15 17
Nghost:        6213.62 ave        8769 max         412 min
Histogram: 4 0 4 0 8 0 4 5 7 20
Neighs:       158427.0 ave      230538 max           0 min
Histogram: 4 2 2 0 5 3 4 4 12 16

Total # of neighbors = 8238216
Ave neighs/atom = 28.530519
Neighbor list builds = 0
Dangerous builds = 0
The dot product: -4.0184717037996e-08
Setting atom values ...
  1 settings made for x
  1 settings made for y
  1 settings made for z
Setting up cg style minimization ...
  Unit style    : metal
  Current step  : 1389
Per MPI rank memory allocation (min/avg/max) = 5.465 | 6.344 | 6.728 Mbytes
Step PotEng KinEng TotEng v_fx v_fy v_fz 
    1389     -1152449            0     -1152449 -0.0019329134 -0.060734211   0.01268676 
    1582     -1152449            0     -1152449 6.2318207e-06 1.3183451e-05 -3.6471817e-06 
Loop time of 4.21593 on 52 procs for 193 steps with 288751 atoms

99.9% CPU use with 52 MPI tasks x 1 OpenMP threads

Minimization stats:
  Stopping criterion = energy tolerance
  Energy initial, next-to-last, final = 
     -1152448.96023601  -1152448.96282854  -1152448.96282854
  Force two-norm initial, final = 0.21448624 0.00012992896
  Force max component initial, final = 0.095771795 3.9415404e-05
  Final line search alpha, max atom move = 1.0000000 3.9415404e-05
  Iterations, force evaluations = 193 386

MPI task timing breakdown:
Section |  min time  |  avg time  |  max time  |%varavg| %total
---------------------------------------------------------------
Pair    | 1.0886     | 3.0675     | 4.0406     |  48.6 | 72.76
Neigh   | 0          | 0          | 0          |   0.0 |  0.00
Comm    | 0.052673   | 0.67905    | 2.1369     |  74.0 | 16.11
Output  | 0          | 0          | 0          |   0.0 |  0.00
Modify  | 7.8154e-05 | 0.0064519  | 0.013707   |   3.7 |  0.15
Other   |            | 0.463      |            |       | 10.98

Nlocal:        5552.90 ave        7909 max           0 min
Histogram: 4 2 2 0 2 6 4 0 15 17
Nghost:        6213.62 ave        8769 max         412 min
Histogram: 4 0 4 0 8 0 4 5 7 20
Neighs:       158427.0 ave      230567 max           0 min
Histogram: 4 2 2 0 5 3 4 4 12 16

Total # of neighbors = 8238213
Ave neighs/atom = 28.530509
Neighbor list builds = 0
Dangerous builds = 0
The dot product: -1.71703498566929e-08
Setting atom values ...
  1 settings made for x
  1 settings made for y
  1 settings made for z
Setting up cg style minimization ...
  Unit style    : metal
  Current step  : 1582
Per MPI rank memory allocation (min/avg/max) = 5.465 | 6.344 | 6.728 Mbytes
Step PotEng KinEng TotEng v_fx v_fy v_fz 
    1582     -1152449            0     -1152449 -0.0033015336 -0.070445868  0.014237223 
    1771     -1152449            0     -1152449 9.4734224e-06 2.1099323e-05 -5.5600595e-06 
Loop time of 4.1413 on 52 procs for 189 steps with 288751 atoms

99.9% CPU use with 52 MPI tasks x 1 OpenMP threads

Minimization stats:
  Stopping criterion = linesearch alpha is zero
  Energy initial, next-to-last, final = 
      -1152448.9581559  -1152448.96062486  -1152448.96062486
  Force two-norm initial, final = 0.21709744 0.00015635182
  Force max component initial, final = 0.096029147 3.1327933e-05
  Final line search alpha, max atom move = 0.5 1.5663967e-05
  Iterations, force evaluations = 189 379

MPI task timing breakdown:
Section |  min time  |  avg time  |  max time  |%varavg| %total
---------------------------------------------------------------
Pair    | 1.07       | 3.0161     | 3.9627     |  48.3 | 72.83
Neigh   | 0          | 0          | 0          |   0.0 |  0.00
Comm    | 0.051548   | 0.6706     | 2.136      |  73.6 | 16.19
Output  | 0          | 0          | 0          |   0.0 |  0.00
Modify  | 8.7712e-05 | 0.0063137  | 0.013439   |   3.7 |  0.15
Other   |            | 0.4483     |            |       | 10.83

Nlocal:        5552.90 ave        7909 max           0 min
Histogram: 4 2 2 0 2 6 4 0 15 17
Nghost:        6213.62 ave        8769 max         412 min
Histogram: 4 0 4 0 8 0 4 5 7 20
Neighs:       158427.0 ave      230563 max           0 min
Histogram: 4 2 2 0 5 3 4 4 12 16

Total # of neighbors = 8238210
Ave neighs/atom = 28.530499
Neighbor list builds = 0
Dangerous builds = 0
The dot product: -1.23974534740818e-07
Setting atom values ...
  1 settings made for x
  1 settings made for y
  1 settings made for z
Setting up cg style minimization ...
  Unit style    : metal
  Current step  : 1771
Per MPI rank memory allocation (min/avg/max) = 5.465 | 6.344 | 6.728 Mbytes
Step PotEng KinEng TotEng v_fx v_fy v_fz 
    1771     -1152449            0     -1152449 -0.0045217036  -0.07790044  0.013168793 
    1901     -1152449            0     -1152449 1.244918e-05 2.9965756e-05 -6.631767e-06 
Loop time of 2.84893 on 52 procs for 130 steps with 288751 atoms

99.9% CPU use with 52 MPI tasks x 1 OpenMP threads

Minimization stats:
  Stopping criterion = energy tolerance
  Energy initial, next-to-last, final = 
     -1152448.95537021  -1152448.95797747  -1152448.95797747
  Force two-norm initial, final = 0.21705981 0.00036212777
  Force max component initial, final = 0.094110192 6.1454694e-05
  Final line search alpha, max atom move = 1.0000000 6.1454694e-05
  Iterations, force evaluations = 130 260

MPI task timing breakdown:
Section |  min time  |  avg time  |  max time  |%varavg| %total
---------------------------------------------------------------
Pair    | 0.73712    | 2.07       | 2.7314     |  40.0 | 72.66
Neigh   | 0          | 0          | 0          |   0.0 |  0.00
Comm    | 0.036563   | 0.45905    | 1.4501     |  60.7 | 16.11
Output  | 0          | 0          | 0          |   0.0 |  0.00
Modify  | 5.5057e-05 | 0.0043546  | 0.0092678  |   3.1 |  0.15
Other   |            | 0.3156     |            |       | 11.08

Nlocal:        5552.90 ave        7908 max           0 min
Histogram: 4 2 2 0 2 6 4 0 15 17
Nghost:        6213.62 ave        8769 max         412 min
Histogram: 4 0 4 0 8 0 4 5 7 20
Neighs:       158427.0 ave      230540 max           0 min
Histogram: 4 2 2 0 5 3 4 4 12 16

Total # of neighbors = 8238206
Ave neighs/atom = 28.530485
Neighbor list builds = 0
Dangerous builds = 0
The dot product: -1.48376138241585e-07
Setting atom values ...
  1 settings made for x
  1 settings made for y
  1 settings made for z
Setting up cg style minimization ...
  Unit style    : metal
  Current step  : 1901
Per MPI rank memory allocation (min/avg/max) = 5.465 | 6.344 | 6.728 Mbytes
Step PotEng KinEng TotEng v_fx v_fy v_fz 
    1901     -1152449            0     -1152449 -0.0043622847 -0.081330343  0.011470151 
    2000     -1152449            0     -1152449 4.3440655e-05 0.00011280186 -2.1327667e-05 
    2063     -1152449            0     -1152449 2.0408122e-06 3.7544428e-06 -7.9608742e-07 
Loop time of 3.53698 on 52 procs for 162 steps with 288751 atoms

99.9% CPU use with 52 MPI tasks x 1 OpenMP threads

Minimization stats:
  Stopping criterion = energy tolerance
  Energy initial, next-to-last, final = 
     -1152448.95242286  -1152448.95472562  -1152448.95472562
  Force two-norm initial, final = 0.21621888 0.00026222913
  Force max component initial, final = 0.0925537 2.7266600e-05
  Final line search alpha, max atom move = 1.0000000 2.7266600e-05
  Iterations, force evaluations = 162 324

MPI task timing breakdown:
Section |  min time  |  avg time  |  max time  |%varavg| %total
---------------------------------------------------------------
Pair    | 0.91439    | 2.5845     | 3.3946     |  44.6 | 73.07
Neigh   | 0          | 0          | 0          |   0.0 |  0.00
Comm    | 0.042599   | 0.57195    | 1.811      |  67.9 | 16.17
Output  | 0.00012079 | 0.00012472 | 0.00027975 |   0.0 |  0.00
Modify  | 6.3911e-05 | 0.0054088  | 0.011571   |   3.4 |  0.15
Other   |            | 0.375      |            |       | 10.60

Nlocal:        5552.90 ave        7908 max           0 min
Histogram: 4 2 2 0 2 6 4 0 15 17
Nghost:        6213.62 ave        8769 max         412 min
Histogram: 4 0 4 0 8 0 4 5 7 20
Neighs:       158427.0 ave      230539 max           0 min
Histogram: 4 2 2 0 5 3 4 4 12 16

Total # of neighbors = 8238203
Ave neighs/atom = 28.530474
Neighbor list builds = 0
Dangerous builds = 0
The dot product: -2.75033994223145e-08
Setting atom values ...
  1 settings made for x
  1 settings made for y
  1 settings made for z
Setting up cg style minimization ...
  Unit style    : metal
  Current step  : 2063
Per MPI rank memory allocation (min/avg/max) = 5.465 | 6.344 | 6.728 Mbytes
Step PotEng KinEng TotEng v_fx v_fy v_fz 
    2063   -1152448.9            0   -1152448.9 -0.005162281  -0.08673514 0.0092774437 
    2234     -1152449            0     -1152449 6.9960597e-06 1.7679307e-05 -2.7280359e-06 
Loop time of 3.73601 on 52 procs for 171 steps with 288751 atoms

99.9% CPU use with 52 MPI tasks x 1 OpenMP threads

Minimization stats:
  Stopping criterion = energy tolerance
  Energy initial, next-to-last, final = 
     -1152448.94844353   -1152448.9506811   -1152448.9506811
  Force two-norm initial, final = 0.21531906 0.00015403774
  Force max component initial, final = 0.090170546 2.1969427e-05
  Final line search alpha, max atom move = 1.0000000 2.1969427e-05
  Iterations, force evaluations = 171 342

MPI task timing breakdown:
Section |  min time  |  avg time  |  max time  |%varavg| %total
---------------------------------------------------------------
Pair    | 0.96438    | 2.7207     | 3.5882     |  45.9 | 72.82
Neigh   | 0          | 0          | 0          |   0.0 |  0.00
Comm    | 0.045616   | 0.59929    | 1.9041     |  70.2 | 16.04
Output  | 0          | 0          | 0          |   0.0 |  0.00
Modify  | 7.0357e-05 | 0.0057258  | 0.012008   |   3.5 |  0.15
Other   |            | 0.4103     |            |       | 10.98

Nlocal:        5552.90 ave        7908 max           0 min
Histogram: 4 2 2 0 2 6 4 0 15 17
Nghost:        6213.62 ave        8769 max         412 min
Histogram: 4 0 4 0 8 0 4 5 7 20
Neighs:       158427.0 ave      230531 max           0 min
Histogram: 4 2 2 0 5 3 4 4 12 16

Total # of neighbors = 8238200
Ave neighs/atom = 28.530464
Neighbor list builds = 0
Dangerous builds = 0
The dot product: -1.5344303798514e-07
Setting atom values ...
  1 settings made for x
  1 settings made for y
  1 settings made for z
Setting up cg style minimization ...
  Unit style    : metal
  Current step  : 2234
Per MPI rank memory allocation (min/avg/max) = 5.465 | 6.344 | 6.728 Mbytes
Step PotEng KinEng TotEng v_fx v_fy v_fz 
    2234   -1152448.9            0   -1152448.9 -0.0061973123 -0.090918395 0.0064259115 
    2402   -1152448.9            0   -1152448.9 1.9880769e-06 2.6315331e-06 -4.2908048e-07 
Loop time of 3.67019 on 52 procs for 168 steps with 288751 atoms

99.9% CPU use with 52 MPI tasks x 1 OpenMP threads

Minimization stats:
  Stopping criterion = energy tolerance
  Energy initial, next-to-last, final = 
     -1152448.94369125   -1152448.9458955   -1152448.9458955
  Force two-norm initial, final = 0.21364544 0.00016077107
  Force max component initial, final = 0.090918395 2.0619187e-05
  Final line search alpha, max atom move = 1.0000000 2.0619187e-05
  Iterations, force evaluations = 168 336

MPI task timing breakdown:
Section |  min time  |  avg time  |  max time  |%varavg| %total
---------------------------------------------------------------
Pair    | 0.94797    | 2.673      | 3.5221     |  45.4 | 72.83
Neigh   | 0          | 0          | 0          |   0.0 |  0.00
Comm    | 0.049037   | 0.59194    | 1.8805     |  69.1 | 16.13
Output  | 0          | 0          | 0          |   0.0 |  0.00
Modify  | 6.7092e-05 | 0.0056019  | 0.011823   |   3.5 |  0.15
Other   |            | 0.3996     |            |       | 10.89

Nlocal:        5552.90 ave        7908 max           0 min
Histogram: 4 2 2 0 2 6 4 0 15 17
Nghost:        6213.62 ave        8769 max         412 min
Histogram: 4 0 4 0 8 0 4 5 7 20
Neighs:       158427.0 ave      230527 max           0 min
Histogram: 4 2 2 0 5 3 4 4 12 16

Total # of neighbors = 8238209
Ave neighs/atom = 28.530495
Neighbor list builds = 0
Dangerous builds = 0
The dot product: -2.58266804206771e-08
Setting atom values ...
  1 settings made for x
  1 settings made for y
  1 settings made for z
Setting up cg style minimization ...
  Unit style    : metal
  Current step  : 2402
Per MPI rank memory allocation (min/avg/max) = 5.465 | 6.344 | 6.728 Mbytes
Step PotEng KinEng TotEng v_fx v_fy v_fz 
    2402   -1152448.9            0   -1152448.9 -0.0068313912 -0.093524525 0.0032581886 
    2652   -1152448.9            0   -1152448.9 -1.0069195e-06 -2.4940483e-06 1.9234751e-07 
Loop time of 5.43286 on 52 procs for 250 steps with 288751 atoms

99.9% CPU use with 52 MPI tasks x 1 OpenMP threads

Minimization stats:
  Stopping criterion = energy tolerance
  Energy initial, next-to-last, final = 
     -1152448.93824023  -1152448.94032631  -1152448.94032631
  Force two-norm initial, final = 0.21149165 1.0278788e-05
  Force max component initial, final = 0.093524525 2.4940483e-06
  Final line search alpha, max atom move = 1.0000000 2.4940483e-06
  Iterations, force evaluations = 250 500

MPI task timing breakdown:
Section |  min time  |  avg time  |  max time  |%varavg| %total
---------------------------------------------------------------
Pair    | 1.4121     | 3.9706     | 5.2231     |  55.3 | 73.08
Neigh   | 0          | 0          | 0          |   0.0 |  0.00
Comm    | 0.067234   | 0.87685    | 2.7822     |  84.4 | 16.14
Output  | 0          | 0          | 0          |   0.0 |  0.00
Modify  | 0.00011835 | 0.0084027  | 0.017858   |   4.3 |  0.15
Other   |            | 0.5771     |            |       | 10.62

Nlocal:        5552.90 ave        7908 max           0 min
Histogram: 4 2 2 0 2 6 4 0 15 17
Nghost:        6213.62 ave        8769 max         412 min
Histogram: 4 0 4 0 8 0 4 5 7 20
Neighs:       158427.0 ave      230532 max           0 min
Histogram: 4 2 2 0 5 3 4 4 12 16

Total # of neighbors = 8238204
Ave neighs/atom = 28.530478
Neighbor list builds = 0
Dangerous builds = 0
The dot product: 2.04263642300532e-08
Setting atom values ...
  1 settings made for x
  1 settings made for y
  1 settings made for z
Setting up cg style minimization ...
  Unit style    : metal
  Current step  : 2652
Per MPI rank memory allocation (min/avg/max) = 5.465 | 6.344 | 6.728 Mbytes
Step PotEng KinEng TotEng v_fx v_fy v_fz 
    2652   -1152448.9            0   -1152448.9 -0.0059073397  -0.09399716 0.00024773145 
    2810   -1152448.9            0   -1152448.9 6.4155392e-06 2.3765856e-05 -6.828735e-07 
Loop time of 3.4393 on 52 procs for 158 steps with 288751 atoms

99.9% CPU use with 52 MPI tasks x 1 OpenMP threads

Minimization stats:
  Stopping criterion = energy tolerance
  Energy initial, next-to-last, final = 
      -1152448.9319214  -1152448.93392043  -1152448.93392043
  Force two-norm initial, final = 0.20912663 0.00019979465
  Force max component initial, final = 0.09399716 2.3765856e-05
  Final line search alpha, max atom move = 1.0000000 2.3765856e-05
  Iterations, force evaluations = 158 316

MPI task timing breakdown:
Section |  min time  |  avg time  |  max time  |%varavg| %total
---------------------------------------------------------------
Pair    | 0.89344    | 2.5136     | 3.3053     |  44.1 | 73.09
Neigh   | 0          | 0          | 0          |   0.0 |  0.00
Comm    | 0.042458   | 0.55389    | 1.7659     |  67.4 | 16.10
Output  | 0          | 0          | 0          |   0.0 |  0.00
Modify  | 6.7009e-05 | 0.0052806  | 0.011177   |   3.4 |  0.15
Other   |            | 0.3665     |            |       | 10.66

Nlocal:        5552.90 ave        7908 max           0 min
Histogram: 4 2 2 0 2 6 4 0 15 17
Nghost:        6213.62 ave        8769 max         412 min
Histogram: 4 0 4 0 8 0 4 5 7 20
Neighs:       158427.0 ave      230529 max           0 min
Histogram: 4 2 2 0 5 3 4 4 12 16

Total # of neighbors = 8238201
Ave neighs/atom = 28.530467
Neighbor list builds = 0
Dangerous builds = 0
The dot product: -1.7480514987784e-07
Setting atom values ...
  1 settings made for x
  1 settings made for y
  1 settings made for z
Setting up cg style minimization ...
  Unit style    : metal
  Current step  : 2810
Per MPI rank memory allocation (min/avg/max) = 5.465 | 6.344 | 6.728 Mbytes
Step PotEng KinEng TotEng v_fx v_fy v_fz 
    2810   -1152448.9            0   -1152448.9 -0.0090926525 -0.091184865 -0.0017655008 
    2952   -1152448.9            0   -1152448.9 2.4557985e-05 5.9052932e-05 -1.2450208e-06 
Loop time of 3.10017 on 52 procs for 142 steps with 288751 atoms

99.9% CPU use with 52 MPI tasks x 1 OpenMP threads

Minimization stats:
  Stopping criterion = energy tolerance
  Energy initial, next-to-last, final = 
     -1152448.92465408  -1152448.92655543  -1152448.92655543
  Force two-norm initial, final = 0.20567212 0.00032134309
  Force max component initial, final = 0.091184865 9.2672448e-05
  Final line search alpha, max atom move = 1.0000000 9.2672448e-05
  Iterations, force evaluations = 142 284

MPI task timing breakdown:
Section |  min time  |  avg time  |  max time  |%varavg| %total
---------------------------------------------------------------
Pair    | 0.80104    | 2.2548     | 2.9741     |  41.7 | 72.73
Neigh   | 0          | 0          | 0          |   0.0 |  0.00
Comm    | 0.037731   | 0.49903    | 1.5852     |  63.6 | 16.10
Output  | 0          | 0          | 0          |   0.0 |  0.00
Modify  | 7.413e-05  | 0.0047595  | 0.01018    |   3.2 |  0.15
Other   |            | 0.3416     |            |       | 11.02

Nlocal:        5552.90 ave        7908 max           0 min
Histogram: 4 2 2 0 2 6 4 0 15 17
Nghost:        6213.58 ave        8769 max         412 min
Histogram: 4 0 4 0 8 0 4 5 7 20
Neighs:       158427.0 ave      230522 max           0 min
Histogram: 4 2 2 0 5 3 4 4 12 16

Total # of neighbors = 8238199
Ave neighs/atom = 28.530461
Neighbor list builds = 0
Dangerous builds = 0
The dot product: -3.77137762299018e-07
Setting atom values ...
  1 settings made for x
  1 settings made for y
  1 settings made for z
Setting up cg style minimization ...
  Unit style    : metal
  Current step  : 2952
Per MPI rank memory allocation (min/avg/max) = 5.465 | 6.344 | 6.728 Mbytes
Step PotEng KinEng TotEng v_fx v_fy v_fz 
    2952   -1152448.9            0   -1152448.9 -0.017479697 -0.085493632 -0.0023307539 
    3000   -1152448.9            0   -1152448.9 0.00016065381 0.00044690494 3.3370872e-06 
    3116   -1152448.9            0   -1152448.9 -1.0576911e-06 -5.1633355e-06 -1.4050709e-07 
Loop time of 3.58775 on 52 procs for 164 steps with 288751 atoms

99.9% CPU use with 52 MPI tasks x 1 OpenMP threads

Minimization stats:
  Stopping criterion = linesearch alpha is zero
  Energy initial, next-to-last, final = 
     -1152448.91610691  -1152448.91797825  -1152448.91797825
  Force two-norm initial, final = 0.20233833 0.00014414044
  Force max component initial, final = 0.085493632 1.1142362e-05
  Final line search alpha, max atom move = 0.5 5.5711809e-06
  Iterations, force evaluations = 164 329

MPI task timing breakdown:
Section |  min time  |  avg time  |  max time  |%varavg| %total
---------------------------------------------------------------
Pair    | 0.9315     | 2.6186     | 3.4389     |  44.9 | 72.99
Neigh   | 0          | 0          | 0          |   0.0 |  0.00
Comm    | 0.047744   | 0.58125    | 1.8405     |  68.1 | 16.20
Output  | 0.00011927 | 0.00012342 | 0.0002803  |   0.0 |  0.00
Modify  | 6.5027e-05 | 0.0055271  | 0.011776   |   3.5 |  0.15
Other   |            | 0.3822     |            |       | 10.65

Nlocal:        5552.90 ave        7908 max           0 min
Histogram: 4 2 2 0 2 6 4 0 15 17
Nghost:        6213.56 ave        8769 max         412 min
Histogram: 4 0 4 0 8 0 4 5 7 20
Neighs:       158427.0 ave      230529 max           0 min
Histogram: 4 2 2 0 5 3 4 4 12 16

Total # of neighbors = 8238198
Ave neighs/atom = 28.530457
Neighbor list builds = 0
Dangerous builds = 0
The dot product: 2.63304592384078e-08
Setting atom values ...
  1 settings made for x
  1 settings made for y
  1 settings made for z
Setting up cg style minimization ...
  Unit style    : metal
  Current step  : 3116
Per MPI rank memory allocation (min/avg/max) = 5.465 | 6.344 | 6.728 Mbytes
Step PotEng KinEng TotEng v_fx v_fy v_fz 
    3116   -1152448.9            0   -1152448.9  -0.02286548 -0.081999011 -0.0027942885 
    3269   -1152448.9            0   -1152448.9 -5.3328162e-07 -6.8814055e-06 -4.0541637e-07 
Loop time of 3.40317 on 52 procs for 153 steps with 288751 atoms

99.9% CPU use with 52 MPI tasks x 1 OpenMP threads

Minimization stats:
  Stopping criterion = linesearch alpha is zero
  Energy initial, next-to-last, final = 
      -1152448.9061893    -1152448.908054    -1152448.908054
  Force two-norm initial, final = 0.20069122 0.00022476179
  Force max component initial, final = 0.08217741 5.3746724e-05
  Final line search alpha, max atom move = 0.125 6.7183405e-06
  Iterations, force evaluations = 153 311

MPI task timing breakdown:
Section |  min time  |  avg time  |  max time  |%varavg| %total
---------------------------------------------------------------
Pair    | 0.87819    | 2.47       | 3.2602     |  43.7 | 72.58
Neigh   | 0          | 0          | 0          |   0.0 |  0.00
Comm    | 0.043923   | 0.54803    | 1.7256     |  66.4 | 16.10
Output  | 0          | 0          | 0          |   0.0 |  0.00
Modify  | 6.3605e-05 | 0.0052034  | 0.011041   |   3.4 |  0.15
Other   |            | 0.38       |            |       | 11.16

Nlocal:        5552.90 ave        7908 max           0 min
Histogram: 4 2 2 0 2 6 4 0 15 17
Nghost:        6213.62 ave        8769 max         412 min
Histogram: 4 0 4 0 8 0 4 5 7 20
Neighs:       158427.0 ave      230531 max           0 min
Histogram: 4 2 2 0 5 3 4 4 12 16

Total # of neighbors = 8238198
Ave neighs/atom = 28.530457
Neighbor list builds = 0
Dangerous builds = 0
The dot product: 2.70314697290368e-08
Setting atom values ...
  1 settings made for x
  1 settings made for y
  1 settings made for z
Setting up cg style minimization ...
  Unit style    : metal
  Current step  : 3269
Per MPI rank memory allocation (min/avg/max) = 5.465 | 6.344 | 6.728 Mbytes
Step PotEng KinEng TotEng v_fx v_fy v_fz 
    3269   -1152448.9            0   -1152448.9 -0.025827949 -0.079833789 -0.0033244222 
    3446   -1152448.9            0   -1152448.9 5.6132115e-06 1.5140759e-05 5.4659654e-07 
Loop time of 3.8699 on 52 procs for 177 steps with 288751 atoms

99.9% CPU use with 52 MPI tasks x 1 OpenMP threads

Minimization stats:
  Stopping criterion = linesearch alpha is zero
  Energy initial, next-to-last, final = 
     -1152448.89490887  -1152448.89677709  -1152448.89677709
  Force two-norm initial, final = 0.19964985 0.00011279528
  Force max component initial, final = 0.083865021 1.5140759e-05
  Final line search alpha, max atom move = 0.5 7.5703795e-06
  Iterations, force evaluations = 177 355

MPI task timing breakdown:
Section |  min time  |  avg time  |  max time  |%varavg| %total
---------------------------------------------------------------
Pair    | 0.99994    | 2.8265     | 3.7155     |  46.7 | 73.04
Neigh   | 0          | 0          | 0          |   0.0 |  0.00
Comm    | 0.046098   | 0.62656    | 1.9834     |  70.9 | 16.19
Output  | 0          | 0          | 0          |   0.0 |  0.00
Modify  | 6.7482e-05 | 0.0059006  | 0.012503   |   3.6 |  0.15
Other   |            | 0.411      |            |       | 10.62

Nlocal:        5552.90 ave        7908 max           0 min
Histogram: 4 2 2 0 2 6 4 0 15 17
Nghost:        6213.62 ave        8769 max         412 min
Histogram: 4 0 4 0 8 0 4 5 7 20
Neighs:       158427.0 ave      230537 max           0 min
Histogram: 4 2 2 0 5 3 4 4 12 16

Total # of neighbors = 8238200
Ave neighs/atom = 28.530464
Neighbor list builds = 0
Dangerous builds = 0
The dot product: -5.19735710354529e-08
Setting atom values ...
  1 settings made for x
  1 settings made for y
  1 settings made for z
Setting up cg style minimization ...
  Unit style    : metal
  Current step  : 3446
Per MPI rank memory allocation (min/avg/max) = 5.465 | 6.344 | 6.728 Mbytes
Step PotEng KinEng TotEng v_fx v_fy v_fz 
    3446   -1152448.9            0   -1152448.9 -0.027530995 -0.077449659 -0.0036700454 
    3606   -1152448.9            0   -1152448.9 -1.152246e-06 -3.7439731e-06 -1.9741024e-07 
Loop time of 3.54588 on 52 procs for 160 steps with 288751 atoms

99.9% CPU use with 52 MPI tasks x 1 OpenMP threads

Minimization stats:
  Stopping criterion = linesearch alpha is zero
  Energy initial, next-to-last, final = 
     -1152448.88230218  -1152448.88423131  -1152448.88423131
  Force two-norm initial, final = 0.19875045 0.00028938085
  Force max component initial, final = 0.085390982 2.2408495e-05
  Final line search alpha, max atom move = 0.125 2.8010618e-06
  Iterations, force evaluations = 160 325

MPI task timing breakdown:
Section |  min time  |  avg time  |  max time  |%varavg| %total
---------------------------------------------------------------
Pair    | 0.91615    | 2.5821     | 3.4095     |  44.6 | 72.82
Neigh   | 0          | 0          | 0          |   0.0 |  0.00
Comm    | 0.043357   | 0.5701     | 1.8068     |  68.0 | 16.08
Output  | 0          | 0          | 0          |   0.0 |  0.00
Modify  | 7.8426e-05 | 0.0054428  | 0.011471   |   3.4 |  0.15
Other   |            | 0.3882     |            |       | 10.95

Nlocal:        5552.90 ave        7909 max           0 min
Histogram: 4 2 2 0 2 6 4 0 15 17
Nghost:        6213.62 ave        8769 max         412 min
Histogram: 4 0 4 0 8 0 4 5 7 20
Neighs:       158427.0 ave      230558 max           0 min
Histogram: 4 2 2 0 5 3 4 4 12 16

Total # of neighbors = 8238197
Ave neighs/atom = 28.530454
Neighbor list builds = 0
Dangerous builds = 0
The dot product: -2.63819804898831e-09
Setting atom values ...
  1 settings made for x
  1 settings made for y
  1 settings made for z
Setting up cg style minimization ...
  Unit style    : metal
  Current step  : 3606
Per MPI rank memory allocation (min/avg/max) = 5.465 | 6.344 | 6.728 Mbytes
Step PotEng KinEng TotEng v_fx v_fy v_fz 
    3606   -1152448.9            0   -1152448.9 -0.025887092  -0.07154537 -0.0032075542 
    3745   -1152448.9            0   -1152448.9 -1.423514e-05 -4.3335935e-05 -2.1040816e-06 
Loop time of 3.1032 on 52 procs for 139 steps with 288751 atoms

99.9% CPU use with 52 MPI tasks x 1 OpenMP threads

Minimization stats:
  Stopping criterion = linesearch alpha is zero
  Energy initial, next-to-last, final = 
     -1152448.86865735  -1152448.87125951  -1152448.87125951
  Force two-norm initial, final = 0.19700168 0.000247582
  Force max component initial, final = 0.085849058 4.3335935e-05
  Final line search alpha, max atom move = 0.125 5.4169918e-06
  Iterations, force evaluations = 139 283

MPI task timing breakdown:
Section |  min time  |  avg time  |  max time  |%varavg| %total
---------------------------------------------------------------
Pair    | 0.79911    | 2.2564     | 2.9688     |  41.7 | 72.71
Neigh   | 0          | 0          | 0          |   0.0 |  0.00
Comm    | 0.038108   | 0.4998     | 1.5781     |  63.5 | 16.11
Output  | 0          | 0          | 0          |   0.0 |  0.00
Modify  | 5.344e-05  | 0.0047217  | 0.010021   |   3.2 |  0.15
Other   |            | 0.3422     |            |       | 11.03

Nlocal:        5552.90 ave        7910 max           0 min
Histogram: 4 2 2 0 2 6 4 0 15 17
Nghost:        6213.62 ave        8769 max         412 min
Histogram: 4 0 4 0 8 0 4 5 7 20
Neighs:       158427.0 ave      230578 max           0 min
Histogram: 4 2 2 0 5 3 4 4 12 16

Total # of neighbors = 8238193
Ave neighs/atom = 28.530440
Neighbor list builds = 0
Dangerous builds = 0
The dot product: -8.20007326236005e-07
Setting atom values ...
  1 settings made for x
  1 settings made for y
  1 settings made for z
Setting up cg style minimization ...
  Unit style    : metal
  Current step  : 3745
Per MPI rank memory allocation (min/avg/max) = 5.465 | 6.344 | 6.728 Mbytes
Step PotEng KinEng TotEng v_fx v_fy v_fz 
    3745   -1152448.9            0   -1152448.9 -0.012801216  -0.04917436 -0.00049632195 
    3920   -1152448.9            0   -1152448.9 -2.2866275e-05 -6.3181644e-05 2.1086948e-07 
Loop time of 3.8069 on 52 procs for 175 steps with 288751 atoms

99.9% CPU use with 52 MPI tasks x 1 OpenMP threads

Minimization stats:
  Stopping criterion = energy tolerance
  Energy initial, next-to-last, final = 
     -1152448.85549867  -1152448.85775127  -1152448.85775127
  Force two-norm initial, final = 0.19288481 0.00024970587
  Force max component initial, final = 0.081663596 6.3181644e-05
  Final line search alpha, max atom move = 1.0000000 6.3181644e-05
  Iterations, force evaluations = 175 350

MPI task timing breakdown:
Section |  min time  |  avg time  |  max time  |%varavg| %total
---------------------------------------------------------------
Pair    | 0.98742    | 2.7828     | 3.6599     |  46.3 | 73.10
Neigh   | 0          | 0          | 0          |   0.0 |  0.00
Comm    | 0.047341   | 0.61379    | 1.9541     |  71.0 | 16.12
Output  | 0          | 0          | 0          |   0.0 |  0.00
Modify  | 8.4757e-05 | 0.0058718  | 0.012527   |   3.6 |  0.15
Other   |            | 0.4044     |            |       | 10.62

Nlocal:        5552.90 ave        7909 max           0 min
Histogram: 4 2 2 0 2 6 4 0 15 17
Nghost:        6213.69 ave        8770 max         412 min
Histogram: 4 0 4 0 8 0 4 5 7 20
Neighs:       158427.0 ave      230529 max           0 min
Histogram: 4 2 2 0 5 3 4 4 12 16

Total # of neighbors = 8238193
Ave neighs/atom = 28.530440
Neighbor list builds = 0
Dangerous builds = 0
The dot product: -9.10907909591471e-07
Setting atom values ...
  1 settings made for x
  1 settings made for y
  1 settings made for z
Setting up cg style minimization ...
  Unit style    : metal
  Current step  : 3920
Per MPI rank memory allocation (min/avg/max) = 5.465 | 6.344 | 6.728 Mbytes
Step PotEng KinEng TotEng v_fx v_fy v_fz 
    3920   -1152448.8            0   -1152448.8 -0.018002391  -0.05483346 0.0018058203 
    4000   -1152448.8            0   -1152448.8 -8.8543561e-05 -0.00019736602 9.9443428e-06 
    4107   -1152448.8            0   -1152448.8 -1.0982527e-05 -3.2001349e-05 1.1229632e-06 
Loop time of 4.07968 on 52 procs for 187 steps with 288751 atoms

99.9% CPU use with 52 MPI tasks x 1 OpenMP threads

Minimization stats:
  Stopping criterion = linesearch alpha is zero
  Energy initial, next-to-last, final = 
     -1152448.84074519  -1152448.84281625  -1152448.84281625
  Force two-norm initial, final = 0.19757511 0.00013210696
  Force max component initial, final = 0.081613809 3.2001349e-05
  Final line search alpha, max atom move = 0.5 1.6000674e-05
  Iterations, force evaluations = 187 375

MPI task timing breakdown:
Section |  min time  |  avg time  |  max time  |%varavg| %total
---------------------------------------------------------------
Pair    | 1.0583     | 2.9796     | 3.9215     |  47.9 | 73.04
Neigh   | 0          | 0          | 0          |   0.0 |  0.00
Comm    | 0.05033    | 0.66061    | 2.1001     |  72.9 | 16.19
Output  | 0.00012426 | 0.00012789 | 0.00028044 |   0.0 |  0.00
Modify  | 7.5461e-05 | 0.0062607  | 0.013381   |   3.7 |  0.15
Other   |            | 0.4331     |            |       | 10.62

Nlocal:        5552.90 ave        7909 max           0 min
Histogram: 4 2 2 0 2 6 4 0 15 17
Nghost:        6213.69 ave        8770 max         412 min
Histogram: 4 0 4 0 8 0 4 5 7 20
Neighs:       158427.0 ave      230522 max           0 min
Histogram: 4 2 2 0 5 3 4 4 12 16

Total # of neighbors = 8238191
Ave neighs/atom = 28.530433
Neighbor list builds = 0
Dangerous builds = 0
The dot product: -3.67523911174379e-07
Setting atom values ...
  1 settings made for x
  1 settings made for y
  1 settings made for z
Setting up cg style minimization ...
  Unit style    : metal
  Current step  : 4107
Per MPI rank memory allocation (min/avg/max) = 5.465 | 6.344 | 6.728 Mbytes
Step PotEng KinEng TotEng v_fx v_fy v_fz 
    4107   -1152448.8            0   -1152448.8 -0.022571667 -0.057292492 0.0039564738 
    4264   -1152448.8            0   -1152448.8 -2.2412559e-05 -6.3909101e-05 3.992334e-06 
Loop time of 3.47564 on 52 procs for 157 steps with 288751 atoms

99.9% CPU use with 52 MPI tasks x 1 OpenMP threads

Minimization stats:
  Stopping criterion = linesearch alpha is zero
  Energy initial, next-to-last, final = 
      -1152448.8244713  -1152448.82662056  -1152448.82662056
  Force two-norm initial, final = 0.20075443 0.00030557326
  Force max component initial, final = 0.085552792 7.9983290e-05
  Final line search alpha, max atom move = 0.125 9.9979113e-06
  Iterations, force evaluations = 157 319

MPI task timing breakdown:
Section |  min time  |  avg time  |  max time  |%varavg| %total
---------------------------------------------------------------
Pair    | 0.90147    | 2.5348     | 3.337      |  44.2 | 72.93
Neigh   | 0          | 0          | 0          |   0.0 |  0.00
Comm    | 0.04194    | 0.56071    | 1.7813     |  67.4 | 16.13
Output  | 0          | 0          | 0          |   0.0 |  0.00
Modify  | 6.6241e-05 | 0.0053455  | 0.011522   |   3.4 |  0.15
Other   |            | 0.3747     |            |       | 10.78

Nlocal:        5552.90 ave        7908 max           0 min
Histogram: 4 2 2 0 2 6 4 0 15 17
Nghost:        6213.65 ave        8770 max         412 min
Histogram: 4 0 4 0 8 0 4 5 7 20
Neighs:       158427.0 ave      230473 max           0 min
Histogram: 4 2 2 0 5 3 4 4 12 16

Total # of neighbors = 8238191
Ave neighs/atom = 28.530433
Neighbor list builds = 0
Dangerous builds = 0
The dot product: -6.16911418476042e-07
Setting atom values ...
  1 settings made for x
  1 settings made for y
  1 settings made for z
Setting up cg style minimization ...
  Unit style    : metal
  Current step  : 4264
Per MPI rank memory allocation (min/avg/max) = 5.465 | 6.344 | 6.728 Mbytes
Step PotEng KinEng TotEng v_fx v_fy v_fz 
    4264   -1152448.8            0   -1152448.8 -0.025342581 -0.059924159 0.0056874448 
    4434   -1152448.8            0   -1152448.8 1.4841884e-06 9.6996928e-06 -5.1004226e-07 
Loop time of 3.73682 on 52 procs for 170 steps with 288751 atoms

99.9% CPU use with 52 MPI tasks x 1 OpenMP threads

Minimization stats:
  Stopping criterion = linesearch alpha is zero
  Energy initial, next-to-last, final = 
     -1152448.80698465  -1152448.80900014  -1152448.80900014
  Force two-norm initial, final = 0.20348018 0.00015287385
  Force max component initial, final = 0.088791369 2.5228217e-05
  Final line search alpha, max atom move = 0.5 1.2614109e-05
  Iterations, force evaluations = 170 341

MPI task timing breakdown:
Section |  min time  |  avg time  |  max time  |%varavg| %total
---------------------------------------------------------------
Pair    | 0.96359    | 2.7235     | 3.5838     |  46.0 | 72.88
Neigh   | 0          | 0          | 0          |   0.0 |  0.00
Comm    | 0.046107   | 0.6022     | 1.9109     |  70.0 | 16.12
Output  | 0          | 0          | 0          |   0.0 |  0.00
Modify  | 6.5631e-05 | 0.0057073  | 0.012005   |   3.5 |  0.15
Other   |            | 0.4054     |            |       | 10.85

Nlocal:        5552.90 ave        7908 max           0 min
Histogram: 4 2 2 0 2 6 4 0 15 17
Nghost:        6213.65 ave        8770 max         412 min
Histogram: 4 0 4 0 8 0 4 5 7 20
Neighs:       158427.0 ave      230478 max           0 min
Histogram: 4 2 2 0 5 3 4 4 12 16

Total # of neighbors = 8238191
Ave neighs/atom = 28.530433
Neighbor list builds = 0
Dangerous builds = 0
The dot product: 4.9084674432537e-08
Setting atom values ...
  1 settings made for x
  1 settings made for y
  1 settings made for z
Setting up cg style minimization ...
  Unit style    : metal
  Current step  : 4434
Per MPI rank memory allocation (min/avg/max) = 5.465 | 6.344 | 6.728 Mbytes
Step PotEng KinEng TotEng v_fx v_fy v_fz 
    4434   -1152448.8            0   -1152448.8 -0.028934009 -0.067104821 0.0071895971 
    4606   -1152448.8            0   -1152448.8 -1.4711015e-05 -3.8581939e-05  3.82964e-06 
Loop time of 3.74379 on 52 procs for 172 steps with 288751 atoms

99.9% CPU use with 52 MPI tasks x 1 OpenMP threads

Minimization stats:
  Stopping criterion = energy tolerance
  Energy initial, next-to-last, final = 
     -1152448.78797818  -1152448.78994471  -1152448.78994471
  Force two-norm initial, final = 0.20682767 0.00013155349
  Force max component initial, final = 0.090328435 4.7824264e-05
  Final line search alpha, max atom move = 1.0000000 4.7824264e-05
  Iterations, force evaluations = 172 344

MPI task timing breakdown:
Section |  min time  |  avg time  |  max time  |%varavg| %total
---------------------------------------------------------------
Pair    | 0.97156    | 2.7318     | 3.5985     |  45.9 | 72.97
Neigh   | 0          | 0          | 0          |   0.0 |  0.00
Comm    | 0.044846   | 0.60373    | 1.9092     |  69.9 | 16.13
Output  | 0          | 0          | 0          |   0.0 |  0.00
Modify  | 7.2013e-05 | 0.0057538  | 0.012363   |   3.6 |  0.15
Other   |            | 0.4025     |            |       | 10.75

Nlocal:        5552.90 ave        7906 max           0 min
Histogram: 4 2 2 0 2 6 4 0 15 17
Nghost:        6213.58 ave        8770 max         412 min
Histogram: 4 0 4 0 8 0 4 5 7 20
Neighs:       158427.0 ave      230396 max           0 min
Histogram: 4 2 2 0 5 3 4 4 12 16

Total # of neighbors = 8238191
Ave neighs/atom = 28.530433
Neighbor list builds = 0
Dangerous builds = 0
The dot product: -5.79689635797132e-08
Setting atom values ...
  1 settings made for x
  1 settings made for y
  1 settings made for z
Setting up cg style minimization ...
  Unit style    : metal
  Current step  : 4606
Per MPI rank memory allocation (min/avg/max) = 5.465 | 6.344 | 6.728 Mbytes
Step PotEng KinEng TotEng v_fx v_fy v_fz 
    4606   -1152448.8            0   -1152448.8 -0.032242091 -0.073063499 0.0081573938 
    4776   -1152448.8            0   -1152448.8 4.7079906e-07 2.4750637e-06 -1.7936924e-07 
Loop time of 3.73936 on 52 procs for 170 steps with 288751 atoms

99.9% CPU use with 52 MPI tasks x 1 OpenMP threads

Minimization stats:
  Stopping criterion = linesearch alpha is zero
  Energy initial, next-to-last, final = 
     -1152448.76749026  -1152448.76937512  -1152448.76937512
  Force two-norm initial, final = 0.20930139 9.9102514e-05
  Force max component initial, final = 0.090831437 9.0109015e-06
  Final line search alpha, max atom move = 0.5 4.5054508e-06
  Iterations, force evaluations = 170 343

MPI task timing breakdown:
Section |  min time  |  avg time  |  max time  |%varavg| %total
---------------------------------------------------------------
Pair    | 0.96784    | 2.7375     | 3.589      |  45.9 | 73.21
Neigh   | 0          | 0          | 0          |   0.0 |  0.00
Comm    | 0.046391   | 0.60315    | 1.9014     |  69.9 | 16.13
Output  | 0          | 0          | 0          |   0.0 |  0.00
Modify  | 7.1091e-05 | 0.0057103  | 0.012026   |   3.5 |  0.15
Other   |            | 0.393      |            |       | 10.51

Nlocal:        5552.90 ave        7906 max           0 min
Histogram: 4 2 2 0 2 6 4 0 15 17
Nghost:        6213.63 ave        8769 max         412 min
Histogram: 4 0 4 0 8 0 4 5 7 20
Neighs:       158427.0 ave      230393 max           0 min
Histogram: 4 2 2 0 5 3 4 4 12 16

Total # of neighbors = 8238188
Ave neighs/atom = 28.530422
Neighbor list builds = 0
Dangerous builds = 0
The dot product: -3.74570007551345e-09
Setting atom values ...
  1 settings made for x
  1 settings made for y
  1 settings made for z
Setting up cg style minimization ...
  Unit style    : metal
  Current step  : 4776
Per MPI rank memory allocation (min/avg/max) = 5.465 | 6.344 | 6.728 Mbytes
Step PotEng KinEng TotEng v_fx v_fy v_fz 
    4776   -1152448.7            0   -1152448.7    -0.035677 -0.078340756 0.0085798403 
    4939   -1152448.7            0   -1152448.7 -3.7679095e-06 -4.8671969e-06 7.6692149e-07 
Loop time of 3.57258 on 52 procs for 163 steps with 288751 atoms

99.9% CPU use with 52 MPI tasks x 1 OpenMP threads

Minimization stats:
  Stopping criterion = linesearch alpha is zero
  Energy initial, next-to-last, final = 
     -1152448.74541921  -1152448.74727776  -1152448.74727776
  Force two-norm initial, final = 0.21095693 0.00011547167
  Force max component initial, final = 0.090041715 2.5898000e-05
  Final line search alpha, max atom move = 0.5 1.2949000e-05
  Iterations, force evaluations = 163 327

MPI task timing breakdown:
Section |  min time  |  avg time  |  max time  |%varavg| %total
---------------------------------------------------------------
Pair    | 0.92167    | 2.597      | 3.4324     |  44.8 | 72.69
Neigh   | 0          | 0          | 0          |   0.0 |  0.00
Comm    | 0.043585   | 0.57434    | 1.814      |  68.2 | 16.08
Output  | 0          | 0          | 0          |   0.0 |  0.00
Modify  | 6.4895e-05 | 0.005468   | 0.011521   |   3.4 |  0.15
Other   |            | 0.3958     |            |       | 11.08

Nlocal:        5552.90 ave        7906 max           0 min
Histogram: 4 2 2 0 2 6 4 0 15 17
Nghost:        6213.60 ave        8768 max         412 min
Histogram: 4 0 4 0 8 0 4 5 7 20
Neighs:       158427.0 ave      230393 max           0 min
Histogram: 4 2 2 0 5 3 4 4 12 16

Total # of neighbors = 8238188
Ave neighs/atom = 28.530422
Neighbor list builds = 0
Dangerous builds = 0
The dot product: 2.82720390807708e-08
Setting atom values ...
  1 settings made for x
  1 settings made for y
  1 settings made for z
Setting up cg style minimization ...
  Unit style    : metal
  Current step  : 4939
Per MPI rank memory allocation (min/avg/max) = 5.465 | 6.344 | 6.728 Mbytes
Step PotEng KinEng TotEng v_fx v_fy v_fz 
    4939   -1152448.7            0   -1152448.7 -0.037555301 -0.081656824 0.0083024031 
    5000   -1152448.7            0   -1152448.7 -0.0002711795 -0.00073820344 6.5253028e-05 
    5082   -1152448.7            0   -1152448.7 -2.4437266e-05 -6.843926e-05 5.9486544e-06 
Loop time of 3.12419 on 52 procs for 143 steps with 288751 atoms

99.9% CPU use with 52 MPI tasks x 1 OpenMP threads

Minimization stats:
  Stopping criterion = energy tolerance
  Energy initial, next-to-last, final = 
     -1152448.72182648   -1152448.7236622   -1152448.7236622
  Force two-norm initial, final = 0.21135249 0.00026452688
  Force max component initial, final = 0.088589043 7.6217416e-05
  Final line search alpha, max atom move = 1.0000000 7.6217416e-05
  Iterations, force evaluations = 143 286

MPI task timing breakdown:
Section |  min time  |  avg time  |  max time  |%varavg| %total
---------------------------------------------------------------
Pair    | 0.80906    | 2.2834     | 2.9957     |  42.0 | 73.09
Neigh   | 0          | 0          | 0          |   0.0 |  0.00
Comm    | 0.039769   | 0.50915    | 1.5945     |  63.4 | 16.30
Output  | 0.0002011  | 0.00020642 | 0.0003655  |   0.0 |  0.01
Modify  | 6.7161e-05 | 0.0047794  | 0.010074   |   3.2 |  0.15
Other   |            | 0.3266     |            |       | 10.45

Nlocal:        5552.90 ave        7906 max           0 min
Histogram: 4 2 2 0 2 6 4 0 15 17
Nghost:        6213.60 ave        8768 max         412 min
Histogram: 4 0 4 0 8 0 4 5 7 20
Neighs:       158427.0 ave      230363 max           0 min
Histogram: 4 2 2 0 5 3 4 4 12 16

Total # of neighbors = 8238185
Ave neighs/atom = 28.530412
Neighbor list builds = 0
Dangerous builds = 0
The dot product: 3.80206383263767e-07
Setting atom values ...
  1 settings made for x
  1 settings made for y
  1 settings made for z
Setting up cg style minimization ...
  Unit style    : metal
  Current step  : 5082
Per MPI rank memory allocation (min/avg/max) = 5.465 | 6.344 | 6.728 Mbytes
Step PotEng KinEng TotEng v_fx v_fy v_fz 
    5082   -1152448.7            0   -1152448.7 -0.037902154 -0.083774986 0.0075269693 
    5248   -1152448.7            0   -1152448.7 -1.2042653e-05 -3.268764e-05 2.565711e-06 
Loop time of 3.65034 on 52 procs for 166 steps with 288751 atoms

99.9% CPU use with 52 MPI tasks x 1 OpenMP threads

Minimization stats:
  Stopping criterion = energy tolerance
  Energy initial, next-to-last, final = 
     -1152448.69673825  -1152448.69854506  -1152448.69854506
  Force two-norm initial, final = 0.21084758 0.00010781678
  Force max component initial, final = 0.086657471 3.2687640e-05
  Final line search alpha, max atom move = 1.0000000 3.2687640e-05
  Iterations, force evaluations = 166 334

MPI task timing breakdown:
Section |  min time  |  avg time  |  max time  |%varavg| %total
---------------------------------------------------------------
Pair    | 0.95634    | 2.6675     | 3.4927     |  44.9 | 73.07
Neigh   | 0          | 0          | 0          |   0.0 |  0.00
Comm    | 0.045172   | 0.58995    | 1.8672     |  69.0 | 16.16
Output  | 0          | 0          | 0          |   0.0 |  0.00
Modify  | 7.2396e-05 | 0.0056099  | 0.011955   |   3.5 |  0.15
Other   |            | 0.3873     |            |       | 10.61

Nlocal:        5552.90 ave        7905 max           0 min
Histogram: 4 2 2 0 2 6 4 0 15 17
Nghost:        6213.62 ave        8768 max         412 min
Histogram: 4 0 4 0 8 0 4 5 7 20
Neighs:       158427.0 ave      230336 max           0 min
Histogram: 4 2 2 0 5 3 4 4 12 16

Total # of neighbors = 8238188
Ave neighs/atom = 28.530422
Neighbor list builds = 0
Dangerous builds = 0
The dot product: 2.13364666830217e-07
Setting atom values ...
  1 settings made for x
  1 settings made for y
  1 settings made for z
Setting up cg style minimization ...
  Unit style    : metal
  Current step  : 5248
Per MPI rank memory allocation (min/avg/max) = 5.465 | 6.344 | 6.728 Mbytes
Step PotEng KinEng TotEng v_fx v_fy v_fz 
    5248   -1152448.7            0   -1152448.7 -0.036738249 -0.085061878 0.0063997315 
    5412   -1152448.7            0   -1152448.7 1.8506128e-06 1.6949942e-06 -2.6903361e-07 
Loop time of 3.57921 on 52 procs for 164 steps with 288751 atoms

99.9% CPU use with 52 MPI tasks x 1 OpenMP threads

Minimization stats:
  Stopping criterion = linesearch alpha is zero
  Energy initial, next-to-last, final = 
     -1152448.67017907  -1152448.67194897  -1152448.67194897
  Force two-norm initial, final = 0.20959865 0.00011695386
  Force max component initial, final = 0.085061878 7.8408823e-06
  Final line search alpha, max atom move = 0.5 3.9204412e-06
  Iterations, force evaluations = 164 329

MPI task timing breakdown:
Section |  min time  |  avg time  |  max time  |%varavg| %total
---------------------------------------------------------------
Pair    | 0.92895    | 2.619      | 3.4406     |  45.0 | 73.17
Neigh   | 0          | 0          | 0          |   0.0 |  0.00
Comm    | 0.044085   | 0.58041    | 1.8547     |  68.7 | 16.22
Output  | 0          | 0          | 0          |   0.0 |  0.00
Modify  | 6.6773e-05 | 0.0055109  | 0.011783   |   3.5 |  0.15
Other   |            | 0.3743     |            |       | 10.46

Nlocal:        5552.90 ave        7905 max           0 min
Histogram: 4 2 2 0 2 6 4 0 15 17
Nghost:        6213.63 ave        8768 max         412 min
Histogram: 4 0 4 0 8 0 4 5 7 20
Neighs:       158427.0 ave      230336 max           0 min
Histogram: 4 2 2 0 5 3 4 4 12 16

Total # of neighbors = 8238186
Ave neighs/atom = 28.530415
Neighbor list builds = 0
Dangerous builds = 0
The dot product: -1.84270562261295e-08
Setting atom values ...
  1 settings made for x
  1 settings made for y
  1 settings made for z
Setting up cg style minimization ...
  Unit style    : metal
  Current step  : 5412
Per MPI rank memory allocation (min/avg/max) = 5.465 | 6.344 | 6.728 Mbytes
Step PotEng KinEng TotEng v_fx v_fy v_fz 
    5412   -1152448.6            0   -1152448.6 -0.034034976 -0.085861449 0.0050245114 
    5585   -1152448.6            0   -1152448.6 -7.9100678e-07 7.1422557e-07 8.4937854e-08 
Loop time of 3.77989 on 52 procs for 173 steps with 288751 atoms

99.9% CPU use with 52 MPI tasks x 1 OpenMP threads

Minimization stats:
  Stopping criterion = linesearch alpha is zero
  Energy initial, next-to-last, final = 
     -1152448.64217537  -1152448.64390285  -1152448.64390285
  Force two-norm initial, final = 0.20793451 9.1071446e-05
  Force max component initial, final = 0.085861449 1.3211846e-05
  Final line search alpha, max atom move = 0.5 6.6059230e-06
  Iterations, force evaluations = 173 347

MPI task timing breakdown:
Section |  min time  |  avg time  |  max time  |%varavg| %total
---------------------------------------------------------------
Pair    | 0.98049    | 2.7586     | 3.6278     |  46.1 | 72.98
Neigh   | 0          | 0          | 0          |   0.0 |  0.00
Comm    | 0.045912   | 0.61145    | 1.9269     |  70.2 | 16.18
Output  | 0          | 0          | 0          |   0.0 |  0.00
Modify  | 7.1203e-05 | 0.0058277  | 0.012479   |   3.6 |  0.15
Other   |            | 0.404      |            |       | 10.69

Nlocal:        5552.90 ave        7905 max           0 min
Histogram: 4 2 2 0 2 6 4 1 14 17
Nghost:        6213.63 ave        8768 max         412 min
Histogram: 4 0 4 0 8 0 4 5 7 20
Neighs:       158427.0 ave      230338 max           0 min
Histogram: 4 2 2 0 5 3 4 4 12 16

Total # of neighbors = 8238188
Ave neighs/atom = 28.530422
Neighbor list builds = 0
Dangerous builds = 0
The dot product: -3.23298667389222e-10
Setting atom values ...
  1 settings made for x
  1 settings made for y
  1 settings made for z
Setting up cg style minimization ...
  Unit style    : metal
  Current step  : 5585
Per MPI rank memory allocation (min/avg/max) = 5.465 | 6.344 | 6.728 Mbytes
Step PotEng KinEng TotEng v_fx v_fy v_fz 
    5585   -1152448.6            0   -1152448.6 -0.029576141 -0.086378834 0.0034508217 
    5768   -1152448.6            0   -1152448.6 -3.7738942e-06 -9.3999427e-06 4.3665871e-07 
Loop time of 4.00551 on 52 procs for 183 steps with 288751 atoms

99.9% CPU use with 52 MPI tasks x 1 OpenMP threads

Minimization stats:
  Stopping criterion = linesearch alpha is zero
  Energy initial, next-to-last, final = 
     -1152448.61276084  -1152448.61444411  -1152448.61444411
  Force two-norm initial, final = 0.20606373 6.5130987e-05
  Force max component initial, final = 0.086378834 1.5614830e-05
  Final line search alpha, max atom move = 0.5 7.8074151e-06
  Iterations, force evaluations = 183 367

MPI task timing breakdown:
Section |  min time  |  avg time  |  max time  |%varavg| %total
---------------------------------------------------------------
Pair    | 1.035      | 2.9197     | 3.8422     |  47.5 | 72.89
Neigh   | 0          | 0          | 0          |   0.0 |  0.00
Comm    | 0.049217   | 0.64914    | 2.0618     |  72.3 | 16.21
Output  | 0          | 0          | 0          |   0.0 |  0.00
Modify  | 6.8774e-05 | 0.0061017  | 0.01287    |   3.6 |  0.15
Other   |            | 0.4306     |            |       | 10.75

Nlocal:        5552.90 ave        7904 max           0 min
Histogram: 4 2 2 0 2 6 4 1 14 17
Nghost:        6213.63 ave        8768 max         412 min
Histogram: 4 0 4 0 8 0 4 5 7 20
Neighs:       158427.0 ave      230294 max           0 min
Histogram: 4 2 2 0 5 3 4 4 12 16

Total # of neighbors = 8238187
Ave neighs/atom = 28.530419
Neighbor list builds = 0
Dangerous builds = 0
The dot product: 7.79031116383086e-08
Setting atom values ...
  1 settings made for x
  1 settings made for y
  1 settings made for z
Setting up cg style minimization ...
  Unit style    : metal
  Current step  : 5768
Per MPI rank memory allocation (min/avg/max) = 5.465 | 6.344 | 6.728 Mbytes
Step PotEng KinEng TotEng v_fx v_fy v_fz 
    5768   -1152448.6            0   -1152448.6 -0.023716472 -0.086487206 0.0017594956 
    5949   -1152448.6            0   -1152448.6 -1.0037611e-05 -2.2909712e-05 8.5425812e-07 
Loop time of 3.9919 on 52 procs for 181 steps with 288751 atoms

99.9% CPU use with 52 MPI tasks x 1 OpenMP threads

Minimization stats:
  Stopping criterion = linesearch alpha is zero
  Energy initial, next-to-last, final = 
     -1152448.58198565   -1152448.5836266   -1152448.5836266
  Force two-norm initial, final = 0.20410264 7.8293258e-05
  Force max component initial, final = 0.086487206 2.2909712e-05
  Final line search alpha, max atom move = 0.5 1.1454856e-05
  Iterations, force evaluations = 181 367

MPI task timing breakdown:
Section |  min time  |  avg time  |  max time  |%varavg| %total
---------------------------------------------------------------
Pair    | 1.0355     | 2.9101     | 3.8381     |  47.4 | 72.90
Neigh   | 0          | 0          | 0          |   0.0 |  0.00
Comm    | 0.047731   | 0.64418    | 2.0403     |  72.1 | 16.14
Output  | 0          | 0          | 0          |   0.0 |  0.00
Modify  | 7.4073e-05 | 0.0061437  | 0.013311   |   3.7 |  0.15
Other   |            | 0.4314     |            |       | 10.81

Nlocal:        5552.90 ave        7904 max           0 min
Histogram: 4 2 2 0 2 6 4 1 14 17
Nghost:        6213.63 ave        8768 max         412 min
Histogram: 4 0 4 0 8 0 4 5 7 20
Neighs:       158427.0 ave      230312 max           0 min
Histogram: 4 2 2 0 5 3 4 4 12 16

Total # of neighbors = 8238187
Ave neighs/atom = 28.530419
Neighbor list builds = 0
Dangerous builds = 0
The dot product: 2.04352304198169e-07
Setting atom values ...
  1 settings made for x
  1 settings made for y
  1 settings made for z
Setting up cg style minimization ...
  Unit style    : metal
  Current step  : 5949
Per MPI rank memory allocation (min/avg/max) = 5.465 | 6.344 | 6.728 Mbytes
Step PotEng KinEng TotEng v_fx v_fy v_fz 
    5949   -1152448.5            0   -1152448.5 -0.015555628 -0.086707948 -0.00015405372 
    6000   -1152448.6            0   -1152448.6 -3.2998093e-05 -2.0668828e-05 2.8553796e-06 
    6101   -1152448.6            0   -1152448.6 3.266357e-05 7.3320526e-05 -1.7961188e-06 
Loop time of 3.346 on 52 procs for 152 steps with 288751 atoms

99.9% CPU use with 52 MPI tasks x 1 OpenMP threads

Minimization stats:
  Stopping criterion = linesearch alpha is zero
  Energy initial, next-to-last, final = 
      -1152448.5499754  -1152448.55160227  -1152448.55160227
  Force two-norm initial, final = 0.20216712 0.00022088109
  Force max component initial, final = 0.088047544 9.2572890e-05
  Final line search alpha, max atom move = 0.25 2.3143223e-05
  Iterations, force evaluations = 152 307

MPI task timing breakdown:
Section |  min time  |  avg time  |  max time  |%varavg| %total
---------------------------------------------------------------
Pair    | 0.86787    | 2.4486     | 3.2106     |  43.5 | 73.18
Neigh   | 0          | 0          | 0          |   0.0 |  0.00
Comm    | 0.041315   | 0.53976    | 1.7141     |  66.5 | 16.13
Output  | 0.00011645 | 0.00012036 | 0.00026759 |   0.0 |  0.00
Modify  | 6.6314e-05 | 0.0051302  | 0.010773   |   3.3 |  0.15
Other   |            | 0.3524     |            |       | 10.53

Nlocal:        5552.90 ave        7903 max           0 min
Histogram: 4 2 2 0 2 6 4 1 14 17
Nghost:        6213.50 ave        8768 max         412 min
Histogram: 4 0 4 0 8 0 4 5 7 20
Neighs:       158427.0 ave      230277 max           0 min
Histogram: 4 2 2 0 5 3 4 4 12 16

Total # of neighbors = 8238193
Ave neighs/atom = 28.530440
Neighbor list builds = 0
Dangerous builds = 0
The dot product: -8.0176277119877e-07
Setting atom values ...
  1 settings made for x
  1 settings made for y
  1 settings made for z
Setting up cg style minimization ...
  Unit style    : metal
  Current step  : 6101
Per MPI rank memory allocation (min/avg/max) = 5.465 | 6.344 | 6.728 Mbytes
Step PotEng KinEng TotEng v_fx v_fy v_fz 
    6101   -1152448.5            0   -1152448.5  0.012679993 -0.098650182 -0.0049415617 
    6369   -1152448.6            0   -1152448.6 1.3541376e-05 3.7537853e-05 8.8377865e-09 
Loop time of 5.86215 on 52 procs for 268 steps with 288751 atoms

99.9% CPU use with 52 MPI tasks x 1 OpenMP threads

Minimization stats:
  Stopping criterion = energy tolerance
  Energy initial, next-to-last, final = 
     -1152448.51721212  -1152448.61332109  -1152448.61332109
  Force two-norm initial, final = 0.20739942 0.00015745589
  Force max component initial, final = 0.098650182 3.7537853e-05
  Final line search alpha, max atom move = 1.0000000 3.7537853e-05
  Iterations, force evaluations = 268 536

MPI task timing breakdown:
Section |  min time  |  avg time  |  max time  |%varavg| %total
---------------------------------------------------------------
Pair    | 1.5333     | 4.2584     | 5.6107     |  56.9 | 72.64
Neigh   | 5.5388e-05 | 0.017222   | 0.025198   |   5.5 |  0.29
Comm    | 0.074127   | 0.94254    | 2.9764     |  87.0 | 16.08
Output  | 0          | 0          | 0          |   0.0 |  0.00
Modify  | 0.00011089 | 0.0089516  | 0.01911    |   4.4 |  0.15
Other   |            | 0.635      |            |       | 10.83

Nlocal:        5552.90 ave        7906 max           0 min
Histogram: 4 2 2 0 2 6 4 1 14 17
Nghost:        6213.50 ave        8768 max         412 min
Histogram: 4 0 4 0 8 0 4 5 7 20
Neighs:       158427.0 ave      230393 max           0 min
Histogram: 4 2 2 0 5 3 4 4 12 16

Total # of neighbors = 8238191
Ave neighs/atom = 28.530433
Neighbor list builds = 3
Dangerous builds = 0
The dot product: -3.81811373913608e-06
Setting atom values ...
  1 settings made for x
  1 settings made for y
  1 settings made for z
Setting up cg style minimization ...
  Unit style    : metal
  Current step  : 6369
Per MPI rank memory allocation (min/avg/max) = 5.465 | 6.344 | 6.728 Mbytes
Step PotEng KinEng TotEng v_fx v_fy v_fz 
    6369   -1152448.6            0   -1152448.6   0.07004076  -0.14013953 -0.080142476 
    6660     -1152449            0     -1152449 -1.1623365e-05 5.0595823e-06 7.3215508e-06 
Loop time of 6.41232 on 52 procs for 291 steps with 288751 atoms

99.9% CPU use with 52 MPI tasks x 1 OpenMP threads

Minimization stats:
  Stopping criterion = linesearch alpha is zero
  Energy initial, next-to-last, final = 
     -1152448.60700326  -1152449.00001862  -1152449.00001862
  Force two-norm initial, final = 0.22729825 0.00012334973
  Force max component initial, final = 0.14013953 3.4278567e-05
  Final line search alpha, max atom move = 0.5 1.7139284e-05
  Iterations, force evaluations = 291 582

MPI task timing breakdown:
Section |  min time  |  avg time  |  max time  |%varavg| %total
---------------------------------------------------------------
Pair    | 1.6806     | 4.6428     | 6.1082     |  59.2 | 72.40
Neigh   | 0.00010932 | 0.03442    | 0.050816   |   7.8 |  0.54
Comm    | 0.086165   | 1.0263     | 3.2329     |  90.7 | 16.01
Output  | 0          | 0          | 0          |   0.0 |  0.00
Modify  | 0.00010914 | 0.0097315  | 0.020669   |   4.6 |  0.15
Other   |            | 0.6991     |            |       | 10.90

Nlocal:        5552.90 ave        7918 max           0 min
Histogram: 4 2 2 0 2 6 4 1 14 17
Nghost:        6213.62 ave        8769 max         412 min
Histogram: 4 0 4 0 8 0 4 5 7 20
Neighs:       158427.0 ave      230810 max           0 min
Histogram: 4 2 2 0 5 3 4 4 12 16

Total # of neighbors = 8238211
Ave neighs/atom = 28.530502
Neighbor list builds = 6
Dangerous builds = 0
The dot product: -4.99783510566548e-06
Setting atom values ...
  1 settings made for x
  1 settings made for y
  1 settings made for z
Setting up cg style minimization ...
  Unit style    : metal
  Current step  : 6660
Per MPI rank memory allocation (min/avg/max) = 5.465 | 6.344 | 6.728 Mbytes
Step PotEng KinEng TotEng v_fx v_fy v_fz 
    6660     -1152449            0     -1152449   0.19214364   0.55829681   0.80528152 
    6911   -1152449.2            0   -1152449.2 5.1065858e-05 -3.7098097e-06 -4.6983419e-05 
Loop time of 5.48285 on 52 procs for 251 steps with 288751 atoms

99.9% CPU use with 52 MPI tasks x 1 OpenMP threads

Minimization stats:
  Stopping criterion = energy tolerance
  Energy initial, next-to-last, final = 
     -1152449.02366818   -1152449.1811189   -1152449.1811189
  Force two-norm initial, final = 1.0102954 0.00020209213
  Force max component initial, final = 0.80528152 5.1065858e-05
  Final line search alpha, max atom move = 1.0000000 5.1065858e-05
  Iterations, force evaluations = 251 502

MPI task timing breakdown:
Section |  min time  |  avg time  |  max time  |%varavg| %total
---------------------------------------------------------------
Pair    | 1.4301     | 3.9874     | 5.2548     |  55.2 | 72.72
Neigh   | 3.7177e-05 | 0.011451   | 0.016914   |   4.5 |  0.21
Comm    | 0.067169   | 0.88044    | 2.7848     |  84.5 | 16.06
Output  | 0          | 0          | 0          |   0.0 |  0.00
Modify  | 0.00012013 | 0.0083981  | 0.017927   |   4.3 |  0.15
Other   |            | 0.5952     |            |       | 10.86

Nlocal:        5552.90 ave        7921 max           0 min
Histogram: 4 2 2 0 3 5 4 2 13 17
Nghost:        6213.50 ave        8770 max         412 min
Histogram: 4 0 4 0 8 0 4 5 7 20
Neighs:       158427.0 ave      230933 max           0 min
Histogram: 4 2 2 0 5 3 4 4 12 16

Total # of neighbors = 8238205
Ave neighs/atom = 28.530481
Neighbor list builds = 2
Dangerous builds = 0
The dot product: -5.81867026596035e-06
Setting atom values ...
  1 settings made for x
  1 settings made for y
  1 settings made for z
Setting up cg style minimization ...
  Unit style    : metal
  Current step  : 6911
Per MPI rank memory allocation (min/avg/max) = 5.465 | 6.344 | 6.728 Mbytes
Step PotEng KinEng TotEng v_fx v_fy v_fz 
    6911   -1152449.2            0   -1152449.2   -0.1020208  -0.35550675  -0.24582417 
    7000   -1152449.2            0   -1152449.2 -0.00081619543 -7.189805e-05 0.00050372031 
    7145   -1152449.2            0   -1152449.2 2.0312773e-06 -1.2213064e-05 -1.2296238e-05 
Loop time of 5.13858 on 52 procs for 234 steps with 288751 atoms

99.9% CPU use with 52 MPI tasks x 1 OpenMP threads

Minimization stats:
  Stopping criterion = energy tolerance
  Energy initial, next-to-last, final = 
     -1152449.20513564  -1152449.23075805  -1152449.23075805
  Force two-norm initial, final = 0.47496962 0.00010666548
  Force max component initial, final = 0.35550675 2.2301287e-05
  Final line search alpha, max atom move = 1.0000000 2.2301287e-05
  Iterations, force evaluations = 234 468

MPI task timing breakdown:
Section |  min time  |  avg time  |  max time  |%varavg| %total
---------------------------------------------------------------
Pair    | 1.3289     | 3.732      | 4.9073     |  53.5 | 72.63
Neigh   | 1.8185e-05 | 0.005744   | 0.0084472  |   3.2 |  0.11
Comm    | 0.069316   | 0.83625    | 2.6454     |  81.0 | 16.27
Output  | 0.00012003 | 0.0001242  | 0.00028116 |   0.0 |  0.00
Modify  | 9.1249e-05 | 0.0078221  | 0.016486   |   4.1 |  0.15
Other   |            | 0.5566     |            |       | 10.83

Nlocal:        5552.90 ave        7921 max           0 min
Histogram: 4 2 2 0 3 5 4 2 13 17
Nghost:        6213.65 ave        8771 max         412 min
Histogram: 4 0 4 0 8 0 4 5 7 20
Neighs:       158427.0 ave      230892 max           0 min
Histogram: 4 2 2 0 5 3 4 4 12 16

Total # of neighbors = 8238197
Ave neighs/atom = 28.530454
Neighbor list builds = 1
Dangerous builds = 0
The dot product: 1.82256587120127e-06
Setting atom values ...
  1 settings made for x
  1 settings made for y
  1 settings made for z
Setting up cg style minimization ...
  Unit style    : metal
  Current step  : 7145
Per MPI rank memory allocation (min/avg/max) = 5.465 | 6.344 | 6.728 Mbytes
Step PotEng KinEng TotEng v_fx v_fy v_fz 
    7145   -1152449.3            0   -1152449.3  0.038963521  0.072042972  0.052991615 
    7390   -1152449.3            0   -1152449.3 -8.067615e-09 -2.116993e-06 -2.3524654e-06 
Loop time of 5.37395 on 52 procs for 245 steps with 288751 atoms

99.9% CPU use with 52 MPI tasks x 1 OpenMP threads

Minimization stats:
  Stopping criterion = energy tolerance
  Energy initial, next-to-last, final = 
     -1152449.25226163  -1152449.25669068  -1152449.25669068
  Force two-norm initial, final = 0.18624026 2.6765625e-05
  Force max component initial, final = 0.088026489 3.8898256e-06
  Final line search alpha, max atom move = 1.0000000 3.8898256e-06
  Iterations, force evaluations = 245 490

MPI task timing breakdown:
Section |  min time  |  avg time  |  max time  |%varavg| %total
---------------------------------------------------------------
Pair    | 1.3806     | 3.8952     | 5.1512     |  54.8 | 72.48
Neigh   | 0          | 0          | 0          |   0.0 |  0.00
Comm    | 0.064739   | 0.86629    | 2.738      |  83.3 | 16.12
Output  | 0          | 0          | 0          |   0.0 |  0.00
Modify  | 0.00010868 | 0.0081942  | 0.01747    |   4.2 |  0.15
Other   |            | 0.6043     |            |       | 11.24

Nlocal:        5552.90 ave        7921 max           0 min
Histogram: 4 2 2 0 3 5 4 2 13 17
Nghost:        6213.58 ave        8770 max         412 min
Histogram: 4 0 4 0 8 0 4 5 7 20
Neighs:       158427.0 ave      230916 max           0 min
Histogram: 4 2 2 0 5 3 4 4 12 16

Total # of neighbors = 8238205
Ave neighs/atom = 28.530481
Neighbor list builds = 0
Dangerous builds = 0
The dot product: -1.18762665685398e-07
Setting atom values ...
  1 settings made for x
  1 settings made for y
  1 settings made for z
Setting up cg style minimization ...
  Unit style    : metal
  Current step  : 7390
Per MPI rank memory allocation (min/avg/max) = 5.465 | 6.344 | 6.728 Mbytes
Step PotEng KinEng TotEng v_fx v_fy v_fz 
    7390   -1152449.3            0   -1152449.3 -0.025847819 -0.059150663 -0.042982519 
    7595   -1152449.3            0   -1152449.3 -1.7263473e-06 7.6630565e-06 9.1379913e-06 
Loop time of 4.47341 on 52 procs for 205 steps with 288751 atoms

99.9% CPU use with 52 MPI tasks x 1 OpenMP threads

Minimization stats:
  Stopping criterion = energy tolerance
  Energy initial, next-to-last, final = 
     -1152449.27726676  -1152449.27886867  -1152449.27886867
  Force two-norm initial, final = 0.17881107 5.2998168e-05
  Force max component initial, final = 0.089186975 9.1379913e-06
  Final line search alpha, max atom move = 1.0000000 9.1379913e-06
  Iterations, force evaluations = 205 410

MPI task timing breakdown:
Section |  min time  |  avg time  |  max time  |%varavg| %total
---------------------------------------------------------------
Pair    | 1.1556     | 3.2636     | 4.2975     |  50.3 | 72.95
Neigh   | 0          | 0          | 0          |   0.0 |  0.00
Comm    | 0.055481   | 0.72489    | 2.3123     |  76.7 | 16.20
Output  | 0          | 0          | 0          |   0.0 |  0.00
Modify  | 7.9604e-05 | 0.0068629  | 0.014492   |   3.9 |  0.15
Other   |            | 0.4781     |            |       | 10.69

Nlocal:        5552.90 ave        7921 max           0 min
Histogram: 4 2 2 0 3 5 4 2 13 17
Nghost:        6213.58 ave        8770 max         412 min
Histogram: 4 0 4 0 8 0 4 5 7 20
Neighs:       158427.0 ave      230923 max           0 min
Histogram: 4 2 2 0 5 3 4 4 12 16

Total # of neighbors = 8238202
Ave neighs/atom = 28.530471
Neighbor list builds = 0
Dangerous builds = 0
The dot product: -9.32748142558827e-08
Setting atom values ...
  1 settings made for x
  1 settings made for y
  1 settings made for z
Setting up cg style minimization ...
  Unit style    : metal
  Current step  : 7595
Per MPI rank memory allocation (min/avg/max) = 5.465 | 6.344 | 6.728 Mbytes
Step PotEng KinEng TotEng v_fx v_fy v_fz 
    7595   -1152449.3            0   -1152449.3 -0.0029032497 -0.019611895 -0.018589605 
    7784   -1152449.3            0   -1152449.3 -8.2604442e-07 -7.31519e-06 -7.1139694e-06 
Loop time of 4.16758 on 52 procs for 189 steps with 288751 atoms

99.9% CPU use with 52 MPI tasks x 1 OpenMP threads

Minimization stats:
[...]
Nghost:        6213.62 ave        8769 max         412 min
Histogram: 4 0 4 0 8 0 4 5 7 20
Neighs:       158427.0 ave      230782 max           0 min
Histogram: 4 2 2 0 5 3 4 4 12 16

Total # of neighbors = 8238190
Ave neighs/atom = 28.530429
Neighbor list builds = 0
Dangerous builds = 0
The dot product: 8.49734086089914e-08
Setting atom values ...
  1 settings made for x
  1 settings made for y
  1 settings made for z
Setting up cg style minimization ...
  Unit style    : metal
  Current step  : 16577
Per MPI rank memory allocation (min/avg/max) = 5.465 | 6.344 | 6.728 Mbytes
Step PotEng KinEng TotEng v_fx v_fy v_fz 
   16577   -1152449.3            0   -1152449.3  0.043122687  0.024165868 0.0019533237 
   16753   -1152449.3            0   -1152449.3 2.5935672e-05 1.0939429e-05 -4.1926325e-06 
Loop time of 3.96008 on 52 procs for 176 steps with 288751 atoms

99.9% CPU use with 52 MPI tasks x 1 OpenMP threads

Minimization stats:
  Stopping criterion = linesearch alpha is zero
  Energy initial, next-to-last, final = 
     -1152449.33240353  -1152449.33343287  -1152449.33343287
  Force two-norm initial, final = 0.140585 0.00015680313
  Force max component initial, final = 0.058509052 2.5935672e-05
  Final line search alpha, max atom move = 0.5 1.2967836e-05
  Iterations, force evaluations = 176 353

MPI task timing breakdown:
Section |  min time  |  avg time  |  max time  |%varavg| %total
---------------------------------------------------------------
Pair    | 0.99873    | 2.8119     | 3.8128     |  46.8 | 71.01
Neigh   | 0          | 0          | 0          |   0.0 |  0.00
Comm    | 0.043937   | 0.67656    | 2.2789     |  73.4 | 17.08
Output  | 0          | 0          | 0          |   0.0 |  0.00
Modify  | 5.8712e-05 | 0.0058881  | 0.012394   |   3.6 |  0.15
Other   |            | 0.4658     |            |       | 11.76

Nlocal:        5552.90 ave        7916 max           0 min
Histogram: 4 2 2 0 2 6 4 2 13 17
Nghost:        6213.62 ave        8769 max         412 min
Histogram: 4 0 4 0 8 0 4 5 7 20
Neighs:       158427.0 ave      230755 max           0 min
Histogram: 4 2 2 0 5 3 4 4 12 16

Total # of neighbors = 8238191
Ave neighs/atom = 28.530433
Neighbor list builds = 0
Dangerous builds = 0
The dot product: 7.89634831511558e-08
Setting atom values ...
  1 settings made for x
  1 settings made for y
  1 settings made for z
Setting up cg style minimization ...
  Unit style    : metal
  Current step  : 16753
Per MPI rank memory allocation (min/avg/max) = 5.465 | 6.344 | 6.728 Mbytes
Step PotEng KinEng TotEng v_fx v_fy v_fz 
   16753   -1152449.3            0   -1152449.3  0.044101851  0.024385828 0.0013784628 
   16934   -1152449.3            0   -1152449.3 -2.5249808e-06 -9.2275512e-06 -1.1758975e-05 
Loop time of 4.05848 on 52 procs for 181 steps with 288751 atoms

99.9% CPU use with 52 MPI tasks x 1 OpenMP threads

Minimization stats:
  Stopping criterion = linesearch alpha is zero
  Energy initial, next-to-last, final = 
     -1152449.33896814  -1152449.34001215  -1152449.34001215
  Force two-norm initial, final = 0.14148937 0.00012079658
  Force max component initial, final = 0.060203724 1.5817731e-05
  Final line search alpha, max atom move = 0.5 7.9088657e-06
  Iterations, force evaluations = 181 363

MPI task timing breakdown:
Section |  min time  |  avg time  |  max time  |%varavg| %total
---------------------------------------------------------------
Pair    | 1.0242     | 2.8885     | 3.9065     |  47.5 | 71.17
Neigh   | 0          | 0          | 0          |   0.0 |  0.00
Comm    | 0.044783   | 0.69545    | 2.3272     |  74.2 | 17.14
Output  | 0          | 0          | 0          |   0.0 |  0.00
Modify  | 6.3627e-05 | 0.0060642  | 0.012784   |   3.6 |  0.15
Other   |            | 0.4685     |            |       | 11.54

Nlocal:        5552.90 ave        7916 max           0 min
Histogram: 4 2 2 0 2 6 4 1 14 17
Nghost:        6213.62 ave        8769 max         412 min
Histogram: 4 0 4 0 8 0 4 5 7 20
Neighs:       158427.0 ave      230764 max           0 min
Histogram: 4 2 2 0 5 3 4 4 12 16

Total # of neighbors = 8238192
Ave neighs/atom = 28.530436
Neighbor list builds = 0
Dangerous builds = 0
The dot product: -2.42083816191332e-08
Setting atom values ...
  1 settings made for x
  1 settings made for y
  1 settings made for z
Setting up cg style minimization ...
  Unit style    : metal
  Current step  : 16934
Per MPI rank memory allocation (min/avg/max) = 5.465 | 6.344 | 6.728 Mbytes
Step PotEng KinEng TotEng v_fx v_fy v_fz 
   16934   -1152449.3            0   -1152449.3  0.044443328  0.023944071 0.00031524883 
   17000   -1152449.3            0   -1152449.3 6.4903712e-05 1.4372612e-06 -4.9489423e-05 
   17105   -1152449.3            0   -1152449.3 -3.0574189e-05 -1.6845186e-05 -7.7280751e-07 
Loop time of 3.83525 on 52 procs for 171 steps with 288751 atoms

99.8% CPU use with 52 MPI tasks x 1 OpenMP threads

Minimization stats:
  Stopping criterion = energy tolerance
  Energy initial, next-to-last, final = 
     -1152449.34405347  -1152449.34510954  -1152449.34510954
  Force two-norm initial, final = 0.14199876 0.00018178667
  Force max component initial, final = 0.061849348 3.0574189e-05
  Final line search alpha, max atom move = 1.0000000 3.0574189e-05
  Iterations, force evaluations = 171 342

MPI task timing breakdown:
Section |  min time  |  avg time  |  max time  |%varavg| %total
---------------------------------------------------------------
Pair    | 0.9681     | 2.7217     | 3.6862     |  46.0 | 70.97
Neigh   | 0          | 0          | 0          |   0.0 |  0.00
Comm    | 0.042054   | 0.65593    | 2.199      |  71.8 | 17.10
Output  | 0.00011572 | 0.00012027 | 0.00031305 |   0.0 |  0.00
Modify  | 5.9733e-05 | 0.0057096  | 0.01208    |   3.5 |  0.15
Other   |            | 0.4517     |            |       | 11.78

Nlocal:        5552.90 ave        7915 max           0 min
Histogram: 4 2 2 0 2 6 4 1 14 17
Nghost:        6213.62 ave        8769 max         412 min
Histogram: 4 0 4 0 8 0 4 5 7 20
Neighs:       158427.0 ave      230731 max           0 min
Histogram: 4 2 2 0 5 3 4 4 12 16

Total # of neighbors = 8238191
Ave neighs/atom = 28.530433
Neighbor list builds = 0
Dangerous builds = 0
The dot product: -1.07828014952117e-07
Setting atom values ...
  1 settings made for x
  1 settings made for y
  1 settings made for z
Setting up cg style minimization ...
  Unit style    : metal
  Current step  : 17105
Per MPI rank memory allocation (min/avg/max) = 5.465 | 6.344 | 6.728 Mbytes
Step PotEng KinEng TotEng v_fx v_fy v_fz 
   17105   -1152449.3            0   -1152449.3  0.044267157  0.022970029 -0.0011288788 
   17296   -1152449.3            0   -1152449.3 -6.6949838e-06 1.1886034e-05 2.3026119e-05 
Loop time of 4.31329 on 52 procs for 191 steps with 288751 atoms

99.9% CPU use with 52 MPI tasks x 1 OpenMP threads

Minimization stats:
  Stopping criterion = linesearch alpha is zero
  Energy initial, next-to-last, final = 
     -1152449.34766427  -1152449.34873122  -1152449.34873122
  Force two-norm initial, final = 0.14225912 9.8443705e-05
  Force max component initial, final = 0.063452488 2.6709402e-05
  Final line search alpha, max atom move = 0.5 1.3354701e-05
  Iterations, force evaluations = 191 383

MPI task timing breakdown:
Section |  min time  |  avg time  |  max time  |%varavg| %total
---------------------------------------------------------------
Pair    | 1.0815     | 3.0489     | 4.1401     |  48.7 | 70.69
Neigh   | 0          | 0          | 0          |   0.0 |  0.00
Comm    | 0.047327   | 0.73295    | 2.4743     |  76.3 | 16.99
Output  | 0          | 0          | 0          |   0.0 |  0.00
Modify  | 6.9853e-05 | 0.0063866  | 0.0135     |   3.7 |  0.15
Other   |            | 0.5251     |            |       | 12.17

Nlocal:        5552.90 ave        7915 max           0 min
Histogram: 4 2 2 0 2 6 4 1 14 17
Nghost:        6213.54 ave        8769 max         412 min
Histogram: 4 0 4 0 8 0 4 5 7 20
Neighs:       158427.0 ave      230736 max           0 min
Histogram: 4 2 2 0 5 3 4 4 12 16

Total # of neighbors = 8238188
Ave neighs/atom = 28.530422
Neighbor list builds = 0
Dangerous builds = 0
The dot product: 6.72166697667209e-09
Setting atom values ...
  1 settings made for x
  1 settings made for y
  1 settings made for z
Setting up cg style minimization ...
  Unit style    : metal
  Current step  : 17296
Per MPI rank memory allocation (min/avg/max) = 5.465 | 6.344 | 6.728 Mbytes
Step PotEng KinEng TotEng v_fx v_fy v_fz 
   17296   -1152449.3            0   -1152449.3  0.043812674  0.021691967 -0.0027972403 
   17474   -1152449.4            0   -1152449.4 -5.7649801e-06 1.280421e-06 6.5134734e-06 
Loop time of 4.00985 on 52 procs for 178 steps with 288751 atoms

99.9% CPU use with 52 MPI tasks x 1 OpenMP threads

Minimization stats:
  Stopping criterion = linesearch alpha is zero
  Energy initial, next-to-last, final = 
     -1152449.34980598  -1152449.35088227  -1152449.35088227
  Force two-norm initial, final = 0.14240968 0.00013463086
  Force max component initial, final = 0.065011168 1.2865017e-05
  Final line search alpha, max atom move = 0.5 6.4325083e-06
  Iterations, force evaluations = 178 357

MPI task timing breakdown:
Section |  min time  |  avg time  |  max time  |%varavg| %total
---------------------------------------------------------------
Pair    | 1.0105     | 2.843      | 3.8562     |  47.0 | 70.90
Neigh   | 0          | 0          | 0          |   0.0 |  0.00
Comm    | 0.044285   | 0.68492    | 2.3018     |  73.4 | 17.08
Output  | 0          | 0          | 0          |   0.0 |  0.00
Modify  | 6.19e-05   | 0.005957   | 0.012563   |   3.6 |  0.15
Other   |            | 0.476      |            |       | 11.87

Nlocal:        5552.90 ave        7914 max           0 min
Histogram: 4 2 2 0 2 6 4 1 14 17
Nghost:        6213.54 ave        8769 max         412 min
Histogram: 4 0 4 0 8 0 4 5 7 20
Neighs:       158427.0 ave      230706 max           0 min
Histogram: 4 2 2 0 5 3 4 4 12 16

Total # of neighbors = 8238188
Ave neighs/atom = 28.530422
Neighbor list builds = 0
Dangerous builds = 0
The dot product: -1.20038969575155e-08
Setting atom values ...
  1 settings made for x
  1 settings made for y
  1 settings made for z
Setting up cg style minimization ...
  Unit style    : metal
  Current step  : 17474
Per MPI rank memory allocation (min/avg/max) = 5.465 | 6.344 | 6.728 Mbytes
Step PotEng KinEng TotEng v_fx v_fy v_fz 
   17474   -1152449.4            0   -1152449.4   0.04328774  0.020388361 -0.0044377699 
   17631   -1152449.4            0   -1152449.4 -2.485722e-05 -7.7810008e-06 8.3784957e-06 
Loop time of 3.53186 on 52 procs for 157 steps with 288751 atoms

99.8% CPU use with 52 MPI tasks x 1 OpenMP threads

Minimization stats:
  Stopping criterion = energy tolerance
  Energy initial, next-to-last, final = 
     -1152449.35049023  -1152449.35157267  -1152449.35157267
  Force two-norm initial, final = 0.14245241 0.00027501651
  Force max component initial, final = 0.066491628 5.4237478e-05
  Final line search alpha, max atom move = 1.0000000 5.4237478e-05
  Iterations, force evaluations = 157 314

MPI task timing breakdown:
Section |  min time  |  avg time  |  max time  |%varavg| %total
---------------------------------------------------------------
Pair    | 0.89997    | 2.5047     | 3.4        |  43.9 | 70.92
Neigh   | 0          | 0          | 0          |   0.0 |  0.00
Comm    | 0.038964   | 0.60232    | 2.0168     |  68.8 | 17.05
Output  | 0          | 0          | 0          |   0.0 |  0.00
Modify  | 5.4039e-05 | 0.005262   | 0.01103    |   3.4 |  0.15
Other   |            | 0.4196     |            |       | 11.88

Nlocal:        5552.90 ave        7914 max           0 min
Histogram: 4 2 2 0 2 6 4 1 14 17
Nghost:        6213.54 ave        8769 max         412 min
Histogram: 4 0 4 0 8 0 4 5 7 20
Neighs:       158427.0 ave      230706 max           0 min
Histogram: 4 2 2 0 5 3 4 4 12 16

Total # of neighbors = 8238190
Ave neighs/atom = 28.530429
Neighbor list builds = 0
Dangerous builds = 0
The dot product: -7.48701708653576e-08
Setting atom values ...
  1 settings made for x
  1 settings made for y
  1 settings made for z
Setting up cg style minimization ...
  Unit style    : metal
  Current step  : 17631
Per MPI rank memory allocation (min/avg/max) = 5.465 | 6.344 | 6.728 Mbytes
Step PotEng KinEng TotEng v_fx v_fy v_fz 
   17631   -1152449.3            0   -1152449.3   0.04314398   0.01960227 -0.0056079257 
   17806   -1152449.4            0   -1152449.4 1.4985353e-05 3.154297e-07 -1.1579752e-05 
Loop time of 3.9342 on 52 procs for 175 steps with 288751 atoms

99.9% CPU use with 52 MPI tasks x 1 OpenMP threads

Minimization stats:
  Stopping criterion = linesearch alpha is zero
  Energy initial, next-to-last, final = 
     -1152449.34974753  -1152449.35083387  -1152449.35083387
  Force two-norm initial, final = 0.14246881 0.00015769006
  Force max component initial, final = 0.067908509 1.7416920e-05
  Final line search alpha, max atom move = 0.5 8.7084598e-06
  Iterations, force evaluations = 175 351

MPI task timing breakdown:
Section |  min time  |  avg time  |  max time  |%varavg| %total
---------------------------------------------------------------
Pair    | 0.99383    | 2.7952     | 3.7881     |  46.6 | 71.05
Neigh   | 0          | 0          | 0          |   0.0 |  0.00
Comm    | 0.043497   | 0.66836    | 2.2629     |  73.1 | 16.99
Output  | 0          | 0          | 0          |   0.0 |  0.00
Modify  | 6.0412e-05 | 0.0058602  | 0.012382   |   3.6 |  0.15
Other   |            | 0.4647     |            |       | 11.81

Nlocal:        5552.90 ave        7912 max           0 min
Histogram: 4 2 2 0 2 6 4 0 15 17
Nghost:        6213.54 ave        8769 max         412 min
Histogram: 4 0 4 0 8 0 4 5 7 20
Neighs:       158427.0 ave      230647 max           0 min
Histogram: 4 2 2 0 5 3 4 4 12 16

Total # of neighbors = 8238196
Ave neighs/atom = 28.530450
Neighbor list builds = 0
Dangerous builds = 0
The dot product: 3.877155604441e-08
Setting atom values ...
  1 settings made for x
  1 settings made for y
  1 settings made for z
Setting up cg style minimization ...
  Unit style    : metal
  Current step  : 17806
Per MPI rank memory allocation (min/avg/max) = 5.465 | 6.344 | 6.728 Mbytes
Step PotEng KinEng TotEng v_fx v_fy v_fz 
   17806   -1152449.3            0   -1152449.3   0.04397411   0.01997324 -0.0058458432 
   17977   -1152449.3            0   -1152449.3 2.2000012e-05 2.1219958e-05 1.3715327e-05 
Loop time of 3.84352 on 52 procs for 171 steps with 288751 atoms

99.9% CPU use with 52 MPI tasks x 1 OpenMP threads

Minimization stats:
  Stopping criterion = energy tolerance
  Energy initial, next-to-last, final = 
     -1152449.34765732  -1152449.34874966  -1152449.34874966
  Force two-norm initial, final = 0.14277082 0.00017406177
  Force max component initial, final = 0.06934568 2.5050218e-05
  Final line search alpha, max atom move = 1.0000000 2.5050218e-05
  Iterations, force evaluations = 171 342

MPI task timing breakdown:
Section |  min time  |  avg time  |  max time  |%varavg| %total
---------------------------------------------------------------
Pair    | 0.96762    | 2.724      | 3.6953     |  46.0 | 70.87
Neigh   | 0          | 0          | 0          |   0.0 |  0.00
Comm    | 0.042217   | 0.65658    | 2.1995     |  72.0 | 17.08
Output  | 0          | 0          | 0          |   0.0 |  0.00
Modify  | 6.0088e-05 | 0.0057041  | 0.012016   |   3.5 |  0.15
Other   |            | 0.4572     |            |       | 11.90

Nlocal:        5552.90 ave        7909 max           0 min
Histogram: 4 2 2 0 2 6 4 0 15 17
Nghost:        6213.58 ave        8769 max         412 min
Histogram: 4 0 4 0 8 0 4 5 7 20
Neighs:       158427.0 ave      230528 max           0 min
Histogram: 4 2 2 0 5 3 4 4 12 16

Total # of neighbors = 8238193
Ave neighs/atom = 28.530440
Neighbor list builds = 0
Dangerous builds = 0
The dot product: 9.94723280358075e-08
Setting atom values ...
  1 settings made for x
  1 settings made for y
  1 settings made for z
Setting up cg style minimization ...
  Unit style    : metal
  Current step  : 17977
Per MPI rank memory allocation (min/avg/max) = 5.465 | 6.344 | 6.728 Mbytes
Step PotEng KinEng TotEng v_fx v_fy v_fz 
   17977   -1152449.3            0   -1152449.3  0.046336721  0.022295264 -0.004449731 
   18000   -1152449.3            0   -1152449.3 -0.0002323043 -4.765237e-05 0.00011724722 
   18098   -1152449.3            0   -1152449.3 -3.9655857e-05 9.8725718e-06 4.6675964e-05 
Loop time of 2.71835 on 52 procs for 121 steps with 288751 atoms

99.9% CPU use with 52 MPI tasks x 1 OpenMP threads

Minimization stats:
  Stopping criterion = energy tolerance
  Energy initial, next-to-last, final = 
     -1152449.34440198   -1152449.3455339   -1152449.3455339
  Force two-norm initial, final = 0.14413807 0.00033686666
  Force max component initial, final = 0.070695757 4.6675964e-05
  Final line search alpha, max atom move = 1.0000000 4.6675964e-05
  Iterations, force evaluations = 121 242

MPI task timing breakdown:
Section |  min time  |  avg time  |  max time  |%varavg| %total
---------------------------------------------------------------
Pair    | 0.68569    | 1.9296     | 2.6143     |  38.7 | 70.98
Neigh   | 0          | 0          | 0          |   0.0 |  0.00
Comm    | 0.030559   | 0.46246    | 1.5607     |  60.9 | 17.01
Output  | 0.00011377 | 0.00011809 | 0.00029221 |   0.0 |  0.00
Modify  | 4.3298e-05 | 0.0040333  | 0.0084684  |   3.0 |  0.15
Other   |            | 0.3222     |            |       | 11.85

Nlocal:        5552.90 ave        7908 max           0 min
Histogram: 4 2 2 0 2 6 4 0 15 17
Nghost:        6213.58 ave        8769 max         412 min
Histogram: 4 0 4 0 8 0 4 5 7 20
Neighs:       158427.0 ave      230506 max           0 min
Histogram: 4 2 2 0 5 3 4 4 12 16

Total # of neighbors = 8238193
Ave neighs/atom = 28.530440
Neighbor list builds = 0
Dangerous builds = 0
The dot product: -1.06173529470065e-07
Setting atom values ...
  1 settings made for x
  1 settings made for y
  1 settings made for z
Setting up cg style minimization ...
  Unit style    : metal
  Current step  : 18098
Per MPI rank memory allocation (min/avg/max) = 5.465 | 6.344 | 6.728 Mbytes
Step PotEng KinEng TotEng v_fx v_fy v_fz 
   18098   -1152449.3            0   -1152449.3  0.051283008  0.027879383 -0.00039433464 
   18356   -1152449.3            0   -1152449.3 -9.6851439e-07 8.796303e-07 2.0858982e-06 
Loop time of 5.79597 on 52 procs for 258 steps with 288751 atoms

99.9% CPU use with 52 MPI tasks x 1 OpenMP threads

Minimization stats:
  Stopping criterion = linesearch alpha is zero
  Energy initial, next-to-last, final = 
     -1152449.34044782  -1152449.34921378  -1152449.34921378
  Force two-norm initial, final = 0.1497157 0.00012264641
  Force max component initial, final = 0.071943961 3.3745656e-06
  Final line search alpha, max atom move = 0.5 1.6872828e-06
  Iterations, force evaluations = 258 517

MPI task timing breakdown:
Section |  min time  |  avg time  |  max time  |%varavg| %total
---------------------------------------------------------------
Pair    | 1.4665     | 4.1147     | 5.5667     |  56.5 | 70.99
Neigh   | 1.8563e-05 | 0.0057228  | 0.0084915  |   3.2 |  0.10
Comm    | 0.064127   | 0.99133    | 3.3194     |  88.3 | 17.10
Output  | 0          | 0          | 0          |   0.0 |  0.00
Modify  | 8.5084e-05 | 0.0086187  | 0.018166   |   4.3 |  0.15
Other   |            | 0.6756     |            |       | 11.66

Nlocal:        5552.90 ave        7905 max           0 min
Histogram: 4 2 2 0 2 6 4 0 15 17
Nghost:        6213.58 ave        8769 max         412 min
Histogram: 4 0 4 0 8 0 4 5 7 20
Neighs:       158427.0 ave      230417 max           0 min
Histogram: 4 2 2 0 5 3 4 4 12 16

Total # of neighbors = 8238209
Ave neighs/atom = 28.530495
Neighbor list builds = 1
Dangerous builds = 0
The dot product: 3.77498925522695e-08
