LAMMPS (29 Oct 2020)
OMP_NUM_THREADS environment is not set. Defaulting to 1 thread. (../comm.cpp:94)
  using 1 OpenMP thread(s) per MPI task
Reading data file ...
  orthogonal box = (-122.39241 -121.13707 -37.090501) to (122.39241 121.13707 37.090501)
  13 by 4 by 1 MPI processor grid
  reading atoms ...
  288751 atoms
  read_data CPU = 0.447 seconds
199981 atoms in group inner
88770 atoms in group outer
1 atoms in group carbon
Neighbor list info ...
  update every 1 steps, delay 0 steps, check yes
  max neighbors/atom: 2000, page size: 100000
  master list distance cutoff = 5.6
  ghost atom cutoff = 5.6
  binsize = 2.8, bins = 88 87 27
  1 neighbor lists, perpetual/occasional/extra = 1 0 0
  (1) pair eam/alloy, perpetual
      attributes: half, newton on
      pair build: half/bin/atomonly/newton
      stencil: half/bin/3d/newton
      bin: standard
Setting up cg style minimization ...
  Unit style    : metal
  Current step  : 0
Per MPI rank memory allocation (min/avg/max) = 5.465 | 6.344 | 6.728 Mbytes
Step v_fx v_fy v_fz PotEng KinEng TotEng 
       0    26.200326    15.556484   -51.502292     -1152433            0     -1152433 
     183 4.2272483e-06 6.8713926e-06 -1.8500325e-06   -1152449.5            0   -1152449.5 
Loop time of 4.01532 on 52 procs for 183 steps with 288751 atoms

99.8% CPU use with 52 MPI tasks x 1 OpenMP threads

Minimization stats:
  Stopping criterion = linesearch alpha is zero
  Energy initial, next-to-last, final = 
     -1152432.95242746   -1152449.4503526   -1152449.4503526
  Force two-norm initial, final = 89.525148 4.8219770e-05
  Force max component initial, final = 58.590528 6.8713926e-06
  Final line search alpha, max atom move = 0.5 3.4356963e-06
  Iterations, force evaluations = 183 358

MPI task timing breakdown:
Section |  min time  |  avg time  |  max time  |%varavg| %total
---------------------------------------------------------------
Pair    | 1.0688     | 2.8776     | 3.7603     |  45.9 | 71.67
Neigh   | 0.0001004  | 0.032145   | 0.049025   |   7.6 |  0.80
Comm    | 0.05455    | 0.64391    | 2.0459     |  71.0 | 16.04
Output  | 0          | 0          | 0          |   0.0 |  0.00
Modify  | 6.2628e-05 | 0.0039458  | 0.0098545  |   3.8 |  0.10
Other   |            | 0.4577     |            |       | 11.40

Nlocal:        5552.90 ave        7911 max           0 min
Histogram: 4 2 2 0 2 6 4 0 15 17
Nghost:        6213.54 ave        8769 max         412 min
Histogram: 4 0 4 0 8 0 4 5 7 20
Neighs:       158427.0 ave      230578 max           0 min
Histogram: 4 2 2 0 5 3 4 4 12 16

Total # of neighbors = 8238207
Ave neighs/atom = 28.530488
Neighbor list builds = 5
Dangerous builds = 0
2.73 0.24 11.47 2.91402195714679 1.02288037960447 10.9542315524265
Total wall time: 0:00:04
