LAMMPS (29 Oct 2020)
OMP_NUM_THREADS environment is not set. Defaulting to 1 thread. (../comm.cpp:94)
  using 1 OpenMP thread(s) per MPI task
OMP_NUM_THREADS environment is not set. Defaulting to 1 thread. (../comm.cpp:94)
  using 1 OpenMP thread(s) per MPI task
Reading data file ...
  orthogonal box = (-122.39241 -121.13707 -37.090501) to (122.39241 121.13707 37.090501)
  13 by 4 by 2 MPI processor grid
  reading atoms ...
  288751 atoms
  read_data CPU = 0.421 seconds
199981 atoms in group inner
88770 atoms in group outer
1 atoms in group carbon
Neighbor list info ...
  update every 1 steps, delay 0 steps, check yes
  max neighbors/atom: 2000, page size: 100000
  master list distance cutoff = 5.6
  ghost atom cutoff = 5.6
  binsize = 2.8, bins = 88 87 27
  1 neighbor lists, perpetual/occasional/extra = 1 0 0
  (1) pair eam/alloy, perpetual
      attributes: half, newton on
      pair build: half/bin/atomonly/newton
      stencil: half/bin/3d/newton
      bin: standard
Setting up cg style minimization ...
  Unit style    : metal
  Current step  : 0
Per MPI rank memory allocation (min/avg/max) = 5.441 | 5.816 | 6.074 Mbytes
Step v_fx v_fy v_fz PotEng KinEng TotEng 
       0   -12.661887    22.762506   -13.187292   -1152441.8            0   -1152441.8 
     285 -4.2640907e-06 1.2377362e-05 -1.1436868e-05     -1152449            0     -1152449 
Loop time of 3.45442 on 104 procs for 285 steps with 288751 atoms

99.8% CPU use with 104 MPI tasks x 1 OpenMP threads

Minimization stats:
  Stopping criterion = energy tolerance
  Energy initial, next-to-last, final = 
     -1152441.77476638  -1152448.97218788  -1152448.97218788
  Force two-norm initial, final = 47.526669 7.1501243e-05
  Force max component initial, final = 28.805225 1.7774181e-05
  Final line search alpha, max atom move = 1.0000000 1.7774181e-05
  Iterations, force evaluations = 285 567

MPI task timing breakdown:
Section |  min time  |  avg time  |  max time  |%varavg| %total
---------------------------------------------------------------
Pair    | 0.90417    | 2.402      | 3.1277     |  41.0 | 69.53
Neigh   | 9.3288e-05 | 0.026309   | 0.038266   |   6.7 |  0.76
Comm    | 0.06788    | 0.55429    | 1.6178     |  59.7 | 16.05
Output  | 0          | 0          | 0          |   0.0 |  0.00
Modify  | 3.0618e-05 | 0.0030719  | 0.0078499  |   3.4 |  0.09
Other   |            | 0.4688     |            |       | 13.57

Nlocal:        2776.45 ave        3957 max           0 min
Histogram: 8 4 4 0 4 12 8 2 28 34
Nghost:        3879.06 ave        5424 max         232 min
Histogram: 8 0 8 0 16 0 8 8 16 40
Neighs:        79213.7 ave      115384 max           0 min
Histogram: 8 4 4 0 10 6 8 8 24 32

Total # of neighbors = 8238220
Ave neighs/atom = 28.530533
Neighbor list builds = 9
Dangerous builds = 1
Setting atom values ...
  1 settings made for x
  1 settings made for y
  1 settings made for z
Setting up cg style minimization ...
  Unit style    : metal
  Current step  : 285
Per MPI rank memory allocation (min/avg/max) = 5.441 | 5.816 | 6.074 Mbytes
Step PotEng KinEng TotEng v_fx v_fy v_fz 
     285     -1152449            0     -1152449  0.019024047  0.019201392   -0.0135115 
     415     -1152449            0     -1152449 2.4149768e-05 1.3831534e-05 -2.6171308e-05 
Loop time of 1.55659 on 104 procs for 130 steps with 288751 atoms

99.9% CPU use with 104 MPI tasks x 1 OpenMP threads

Minimization stats:
  Stopping criterion = energy tolerance
  Energy initial, next-to-last, final = 
     -1152448.97137134  -1152448.97198043  -1152448.97198043
  Force two-norm initial, final = 0.11378392 0.00022367814
  Force max component initial, final = 0.053791824 5.4502319e-05
  Final line search alpha, max atom move = 1.0000000 5.4502319e-05
  Iterations, force evaluations = 130 260

MPI task timing breakdown:
Section |  min time  |  avg time  |  max time  |%varavg| %total
---------------------------------------------------------------
Pair    | 0.39796    | 1.1044     | 1.4378     |  28.3 | 70.95
Neigh   | 0          | 0          | 0          |   0.0 |  0.00
Comm    | 0.030436   | 0.25244    | 0.75126    |  41.6 | 16.22
Output  | 0          | 0          | 0          |   0.0 |  0.00
Modify  | 1.5195e-05 | 0.0021604  | 0.0046376  |   2.2 |  0.14
Other   |            | 0.1976     |            |       | 12.69

Nlocal:        2776.45 ave        3955 max           0 min
Histogram: 8 4 4 0 4 12 8 0 30 34
Nghost:        3879.09 ave        5424 max         232 min
Histogram: 8 0 8 0 16 0 8 8 16 40
Neighs:        79213.5 ave      115327 max           0 min
Histogram: 8 4 4 0 10 6 8 8 24 32

Total # of neighbors = 8238206
Ave neighs/atom = 28.530485
Neighbor list builds = 0
Dangerous builds = 0
Setting atom values ...
  1 settings made for x
  1 settings made for y
  1 settings made for z
Setting up cg style minimization ...
  Unit style    : metal
  Current step  : 415
Per MPI rank memory allocation (min/avg/max) = 5.441 | 5.816 | 6.074 Mbytes
Step PotEng KinEng TotEng v_fx v_fy v_fz 
     415     -1152449            0     -1152449  0.032116474  0.037895072 -0.015492016 
     645     -1152449            0     -1152449 -1.0251981e-07 -8.5514808e-07 -3.787196e-07 
Loop time of 2.73971 on 104 procs for 230 steps with 288751 atoms

99.9% CPU use with 104 MPI tasks x 1 OpenMP threads

Minimization stats:
  Stopping criterion = energy tolerance
  Energy initial, next-to-last, final = 
     -1152448.96843263  -1152448.97052848  -1152448.97052848
  Force two-norm initial, final = 0.2073255 4.1363180e-05
  Force max component initial, final = 0.09640509 7.8145323e-06
  Final line search alpha, max atom move = 1.0000000 7.8145323e-06
  Iterations, force evaluations = 230 460

MPI task timing breakdown:
Section |  min time  |  avg time  |  max time  |%varavg| %total
---------------------------------------------------------------
Pair    | 0.69568    | 1.9351     | 2.537      |  37.7 | 70.63
Neigh   | 0          | 0          | 0          |   0.0 |  0.00
Comm    | 0.04227    | 0.44409    | 1.3079     |  54.4 | 16.21
Output  | 0          | 0          | 0          |   0.0 |  0.00
Modify  | 2.8541e-05 | 0.0038054  | 0.008084   |   2.9 |  0.14
Other   |            | 0.3568     |            |       | 13.02

Nlocal:        2776.45 ave        3955 max           0 min
Histogram: 8 4 4 0 4 12 8 0 30 34
Nghost:        3879.09 ave        5424 max         232 min
Histogram: 8 0 8 0 16 0 8 8 16 40
Neighs:        79213.5 ave      115327 max           0 min
Histogram: 8 4 4 0 10 6 8 8 24 32

Total # of neighbors = 8238203
Ave neighs/atom = 28.530474
Neighbor list builds = 0
Dangerous builds = 0
The dot product: -3.72006867222205e-09
Setting atom values ...
  1 settings made for x
  1 settings made for y
  1 settings made for z
Setting up cg style minimization ...
  Unit style    : metal
  Current step  : 645
Per MPI rank memory allocation (min/avg/max) = 5.441 | 5.816 | 6.074 Mbytes
Step PotEng KinEng TotEng v_fx v_fy v_fz 
     645     -1152449            0     -1152449  0.013453061  0.045483894 0.0056818645 
     902     -1152449            0     -1152449 -7.4414098e-06 -1.1897268e-05 1.5844672e-06 
Loop time of 3.05898 on 104 procs for 257 steps with 288751 atoms

99.9% CPU use with 104 MPI tasks x 1 OpenMP threads

Minimization stats:
  Stopping criterion = energy tolerance
  Energy initial, next-to-last, final = 
     -1152448.96539752  -1152448.96889632  -1152448.96889632
  Force two-norm initial, final = 0.20783049 0.00017853098
  Force max component initial, final = 0.094079142 3.7004002e-05
  Final line search alpha, max atom move = 1.0000000 3.7004002e-05
  Iterations, force evaluations = 257 514

MPI task timing breakdown:
Section |  min time  |  avg time  |  max time  |%varavg| %total
---------------------------------------------------------------
Pair    | 0.78075    | 2.1772     | 2.8448     |  40.0 | 71.17
Neigh   | 0          | 0          | 0          |   0.0 |  0.00
Comm    | 0.05167    | 0.49794    | 1.4646     |  57.7 | 16.28
Output  | 0          | 0          | 0          |   0.0 |  0.00
Modify  | 2.9798e-05 | 0.0042504  | 0.0090424  |   3.1 |  0.14
Other   |            | 0.3796     |            |       | 12.41

Nlocal:        2776.45 ave        3955 max           0 min
Histogram: 8 4 4 0 4 12 8 0 30 34
Nghost:        3879.09 ave        5424 max         232 min
Histogram: 8 0 8 0 16 0 8 8 16 40
Neighs:        79213.5 ave      115340 max           0 min
Histogram: 8 4 4 0 10 6 8 8 24 32

Total # of neighbors = 8238203
Ave neighs/atom = 28.530474
Neighbor list builds = 0
Dangerous builds = 0
The dot product: 6.21279062823114e-08
Setting atom values ...
  1 settings made for x
  1 settings made for y
  1 settings made for z
Setting up cg style minimization ...
  Unit style    : metal
  Current step  : 902
Per MPI rank memory allocation (min/avg/max) = 5.441 | 5.816 | 6.074 Mbytes
Step PotEng KinEng TotEng v_fx v_fy v_fz 
     902     -1152449            0     -1152449 -0.072151854  0.077902562 -0.00068282767 
    1000   -1152449.2            0   -1152449.2 -0.0016292409 0.0070260925 -0.0002100471 
    1224   -1152449.2            0   -1152449.2 -2.7977624e-06 1.2266321e-05 -3.6812366e-07 
Loop time of 3.78071 on 104 procs for 322 steps with 288751 atoms

99.9% CPU use with 104 MPI tasks x 1 OpenMP threads

Minimization stats:
  Stopping criterion = energy tolerance
  Energy initial, next-to-last, final = 
     -1152448.96459374   -1152449.1963617   -1152449.1963617
  Force two-norm initial, final = 0.2174471 0.00012844342
  Force max component initial, final = 0.078166075 2.3860306e-05
  Final line search alpha, max atom move = 1.0000000 2.3860306e-05
  Iterations, force evaluations = 322 644

MPI task timing breakdown:
Section |  min time  |  avg time  |  max time  |%varavg| %total
---------------------------------------------------------------
Pair    | 0.98986    | 2.7032     | 3.5253     |  44.0 | 71.50
Neigh   | 4.1573e-05 | 0.01171    | 0.017086   |   4.5 |  0.31
Comm    | 0.063278   | 0.61271    | 1.8324     |  65.0 | 16.21
Output  | 0.00023553 | 0.00023924 | 0.00039149 |   0.0 |  0.01
Modify  | 3.8906e-05 | 0.0053179  | 0.011319   |   3.4 |  0.14
Other   |            | 0.4475     |            |       | 11.84

Nlocal:        2776.45 ave        3935 max           0 min
Histogram: 8 4 4 0 4 12 8 0 28 36
Nghost:        3878.98 ave        5425 max         232 min
Histogram: 8 0 8 0 16 0 8 8 16 40
Neighs:        79214.2 ave      114737 max           0 min
Histogram: 8 4 4 0 9 7 8 8 22 34

Total # of neighbors = 8238273
Ave neighs/atom = 28.530717
Neighbor list builds = 4
Dangerous builds = 0
The dot product: 7.26462268919564e-08
Setting atom values ...
  1 settings made for x
  1 settings made for y
  1 settings made for z
Setting up cg style minimization ...
  Unit style    : metal
  Current step  : 1224
Per MPI rank memory allocation (min/avg/max) = 5.441 | 5.816 | 6.074 Mbytes
Step PotEng KinEng TotEng v_fx v_fy v_fz 
    1224   -1152449.2            0   -1152449.2  0.012358856   0.03984249 0.0015515395 
    1383   -1152449.2            0   -1152449.2 8.498893e-06 -1.8397762e-05 2.8717998e-06 
Loop time of 1.87148 on 104 procs for 159 steps with 288751 atoms

99.9% CPU use with 104 MPI tasks x 1 OpenMP threads

Minimization stats:
  Stopping criterion = energy tolerance
  Energy initial, next-to-last, final = 
      -1152449.1961067  -1152449.19863746  -1152449.19863746
  Force two-norm initial, final = 0.19155781 0.00022081721
  Force max component initial, final = 0.086417621 2.6121400e-05
  Final line search alpha, max atom move = 1.0000000 2.6121400e-05
  Iterations, force evaluations = 159 318

MPI task timing breakdown:
Section |  min time  |  avg time  |  max time  |%varavg| %total
---------------------------------------------------------------
Pair    | 0.48459    | 1.3445     | 1.7495     |  31.2 | 71.84
Neigh   | 0          | 0          | 0          |   0.0 |  0.00
Comm    | 0.037499   | 0.30337    | 0.90726    |  46.1 | 16.21
Output  | 0          | 0          | 0          |   0.0 |  0.00
Modify  | 1.8536e-05 | 0.0026293  | 0.00563    |   2.4 |  0.14
Other   |            | 0.221      |            |       | 11.81

Nlocal:        2776.45 ave        3930 max           0 min
Histogram: 8 4 4 0 4 12 8 0 26 38
Nghost:        3879.05 ave        5427 max         232 min
Histogram: 8 0 8 0 16 0 8 8 16 40
Neighs:        79214.8 ave      114583 max           0 min
Histogram: 8 4 4 0 8 8 8 8 20 36

Total # of neighbors = 8238334
Ave neighs/atom = 28.530928
Neighbor list builds = 0
Dangerous builds = 0
The dot product: 1.90554501474768e-07
Setting atom values ...
  1 settings made for x
  1 settings made for y
  1 settings made for z
Setting up cg style minimization ...
  Unit style    : metal
  Current step  : 1383
Per MPI rank memory allocation (min/avg/max) = 5.441 | 5.816 | 6.074 Mbytes
Step PotEng KinEng TotEng v_fx v_fy v_fz 
    1383   -1152449.2            0   -1152449.2 -0.026624452  0.042692217 -0.003265595 
    1581   -1152449.2            0   -1152449.2 1.3051316e-05 -2.1140271e-05 1.6068226e-06 
Loop time of 2.32608 on 104 procs for 198 steps with 288751 atoms

99.9% CPU use with 104 MPI tasks x 1 OpenMP threads

Minimization stats:
  Stopping criterion = energy tolerance
  Energy initial, next-to-last, final = 
     -1152449.19758186  -1152449.19987785  -1152449.19987785
  Force two-norm initial, final = 0.19917683 0.00010641787
  Force max component initial, final = 0.084461946 2.5181186e-05
  Final line search alpha, max atom move = 1.0000000 2.5181186e-05
  Iterations, force evaluations = 198 396

MPI task timing breakdown:
Section |  min time  |  avg time  |  max time  |%varavg| %total
---------------------------------------------------------------
Pair    | 0.60235    | 1.6644     | 2.168      |  34.8 | 71.55
Neigh   | 0          | 0          | 0          |   0.0 |  0.00
Comm    | 0.035423   | 0.37774    | 1.1203     |  50.7 | 16.24
Output  | 0          | 0          | 0          |   0.0 |  0.00
Modify  | 2.3335e-05 | 0.0032795  | 0.006998   |   2.7 |  0.14
Other   |            | 0.2807     |            |       | 12.07

Nlocal:        2776.45 ave        3930 max           0 min
Histogram: 8 4 4 0 4 12 8 0 26 38
Nghost:        3878.97 ave        5427 max         232 min
Histogram: 8 0 8 0 16 0 8 8 16 40
Neighs:        79214.7 ave      114585 max           0 min
Histogram: 8 4 4 0 8 8 8 8 20 36

Total # of neighbors = 8238328
Ave neighs/atom = 28.530907
Neighbor list builds = 0
Dangerous builds = 0
The dot product: -1.48809367390021e-07
Setting atom values ...
  1 settings made for x
  1 settings made for y
  1 settings made for z
Setting up cg style minimization ...
  Unit style    : metal
  Current step  : 1581
Per MPI rank memory allocation (min/avg/max) = 5.441 | 5.816 | 6.074 Mbytes
Step PotEng KinEng TotEng v_fx v_fy v_fz 
    1581   -1152449.2            0   -1152449.2 -0.017971093  0.038910465 -0.0043955232 
    2000   -1152449.4            0   -1152449.4 -5.2984849e-05 -0.00067708407 3.7986987e-05 
    2159   -1152449.4            0   -1152449.4 2.665491e-06 3.5993577e-06 4.9023861e-08 
Loop time of 6.81787 on 104 procs for 578 steps with 288751 atoms

99.9% CPU use with 104 MPI tasks x 1 OpenMP threads

Minimization stats:
  Stopping criterion = energy tolerance
  Energy initial, next-to-last, final = 
     -1152449.19769992  -1152449.39847908  -1152449.39847908
  Force two-norm initial, final = 0.19618807 0.00013529
  Force max component initial, final = 0.085903584 2.5504079e-05
  Final line search alpha, max atom move = 1.0000000 2.5504079e-05
  Iterations, force evaluations = 578 1156

MPI task timing breakdown:
Section |  min time  |  avg time  |  max time  |%varavg| %total
---------------------------------------------------------------
Pair    | 1.7889     | 4.8798     | 6.3552     |  58.9 | 71.57
Neigh   | 0.00010294 | 0.029292   | 0.042544   |   7.1 |  0.43
Comm    | 0.11058    | 1.1042     | 3.3033     |  87.3 | 16.20
Output  | 0.00028692 | 0.00029536 | 0.00046808 |   0.0 |  0.00
Modify  | 6.665e-05  | 0.0095474  | 0.020305   |   4.6 |  0.14
Other   |            | 0.7947     |            |       | 11.66

Nlocal:        2776.45 ave        3943 max           0 min
Histogram: 8 4 4 0 4 12 8 0 27 37
Nghost:        3878.74 ave        5428 max         232 min
Histogram: 8 0 8 0 16 0 8 8 16 40
Neighs:        79213.2 ave      114950 max           0 min
Histogram: 8 4 4 0 10 6 8 8 22 34

Total # of neighbors = 8238174
Ave neighs/atom = 28.530374
Neighbor list builds = 10
Dangerous builds = 0
The dot product: 1.57156212307187e-07
Setting atom values ...
  1 settings made for x
  1 settings made for y
  1 settings made for z
Setting up cg style minimization ...
  Unit style    : metal
  Current step  : 2159
Per MPI rank memory allocation (min/avg/max) = 5.441 | 5.816 | 6.074 Mbytes
Step PotEng KinEng TotEng v_fx v_fy v_fz 
    2159   -1152449.4            0   -1152449.4  0.087473046   -0.1954429   0.12897355 
    2385   -1152449.4            0   -1152449.4 -1.8526883e-06 5.2615662e-06 -3.3151057e-06 
Loop time of 2.64958 on 104 procs for 226 steps with 288751 atoms

99.9% CPU use with 104 MPI tasks x 1 OpenMP threads

Minimization stats:
  Stopping criterion = energy tolerance
  Energy initial, next-to-last, final = 
     -1152449.40722908   -1152449.4171771   -1152449.4171771
  Force two-norm initial, final = 0.31623737 8.0848279e-05
  Force max component initial, final = 0.1954429 7.1863240e-06
  Final line search alpha, max atom move = 1.0000000 7.1863240e-06
  Iterations, force evaluations = 226 452

MPI task timing breakdown:
Section |  min time  |  avg time  |  max time  |%varavg| %total
---------------------------------------------------------------
Pair    | 0.68628    | 1.897      | 2.483      |  37.1 | 71.60
Neigh   | 1.0177e-05 | 0.0029431  | 0.0043287  |   2.2 |  0.11
Comm    | 0.041597   | 0.42837    | 1.2751     |  54.7 | 16.17
Output  | 0          | 0          | 0          |   0.0 |  0.00
Modify  | 2.5965e-05 | 0.0037352  | 0.0079821  |   2.9 |  0.14
Other   |            | 0.3175     |            |       | 11.98

Nlocal:        2776.45 ave        3943 max           0 min
Histogram: 8 4 4 0 4 12 8 0 26 38
Nghost:        3878.64 ave        5429 max         232 min
Histogram: 8 0 8 0 16 0 8 8 16 40
Neighs:        79213.4 ave      114948 max           0 min
Histogram: 8 4 4 0 10 6 8 8 22 34

Total # of neighbors = 8238194
Ave neighs/atom = 28.530443
Neighbor list builds = 1
Dangerous builds = 0
The dot product: -4.15812229932786e-07
Setting atom values ...
  1 settings made for x
  1 settings made for y
  1 settings made for z
Setting up cg style minimization ...
  Unit style    : metal
  Current step  : 2385
Per MPI rank memory allocation (min/avg/max) = 5.441 | 5.816 | 6.074 Mbytes
Step PotEng KinEng TotEng v_fx v_fy v_fz 
    2385   -1152449.4            0   -1152449.4 -0.072148928   0.15792975 -0.037690476 
    2574   -1152449.4            0   -1152449.4 -1.2833061e-05 1.4803814e-05 -4.3319225e-06 
Loop time of 2.22229 on 104 procs for 189 steps with 288751 atoms

99.9% CPU use with 104 MPI tasks x 1 OpenMP threads

Minimization stats:
  Stopping criterion = energy tolerance
  Energy initial, next-to-last, final = 
     -1152449.42288611  -1152449.42834771  -1152449.42834771
  Force two-norm initial, final = 0.27013715 0.00016291535
  Force max component initial, final = 0.15792975 3.9043821e-05
  Final line search alpha, max atom move = 1.0000000 3.9043821e-05
  Iterations, force evaluations = 189 378

MPI task timing breakdown:
Section |  min time  |  avg time  |  max time  |%varavg| %total
---------------------------------------------------------------
Pair    | 0.57311    | 1.5978     | 2.0859     |  34.1 | 71.90
Neigh   | 0          | 0          | 0          |   0.0 |  0.00
Comm    | 0.037457   | 0.36429    | 1.0817     |  50.0 | 16.39
Output  | 0          | 0          | 0          |   0.0 |  0.00
Modify  | 2.1972e-05 | 0.0031263  | 0.0067229  |   2.6 |  0.14
Other   |            | 0.2571     |            |       | 11.57

Nlocal:        2776.45 ave        3942 max           0 min
Histogram: 8 4 4 0 4 12 8 0 28 36
Nghost:        3878.53 ave        5429 max         232 min
Histogram: 8 0 8 0 16 0 8 8 16 40
Neighs:        79213.5 ave      114940 max           0 min
Histogram: 8 4 4 0 10 6 8 8 22 34

Total # of neighbors = 8238200
Ave neighs/atom = 28.530464
Neighbor list builds = 0
Dangerous builds = 0
The dot product: 8.05631441068812e-07
Setting atom values ...
  1 settings made for x
  1 settings made for y
  1 settings made for z
Setting up cg style minimization ...
  Unit style    : metal
  Current step  : 2574
Per MPI rank memory allocation (min/avg/max) = 5.441 | 5.816 | 6.074 Mbytes
Step PotEng KinEng TotEng v_fx v_fy v_fz 
    2574   -1152449.4            0   -1152449.4  0.023958954 -0.028619707  0.015748321 
    2744   -1152449.4            0   -1152449.4 -2.9086586e-06 6.3423875e-06 -2.9364228e-06 
Loop time of 2.0006 on 104 procs for 170 steps with 288751 atoms

99.9% CPU use with 104 MPI tasks x 1 OpenMP threads

Minimization stats:
  Stopping criterion = energy tolerance
  Energy initial, next-to-last, final = 
     -1152449.43248095  -1152449.43483338  -1152449.43483338
  Force two-norm initial, final = 0.20235009 0.00011983272
  Force max component initial, final = 0.10435914 6.3423875e-06
  Final line search alpha, max atom move = 1.0000000 6.3423875e-06
  Iterations, force evaluations = 170 340

MPI task timing breakdown:
Section |  min time  |  avg time  |  max time  |%varavg| %total
---------------------------------------------------------------
Pair    | 0.51404    | 1.4314     | 1.8741     |  32.4 | 71.55
Neigh   | 0          | 0          | 0          |   0.0 |  0.00
Comm    | 0.033397   | 0.32629    | 0.96986    |  47.3 | 16.31
Output  | 0          | 0          | 0          |   0.0 |  0.00
Modify  | 1.956e-05  | 0.0028114  | 0.0060472  |   2.5 |  0.14
Other   |            | 0.2401     |            |       | 12.00

Nlocal:        2776.45 ave        3943 max           0 min
Histogram: 8 4 4 0 4 12 8 0 28 36
Nghost:        3878.51 ave        5428 max         232 min
Histogram: 8 0 8 0 16 0 8 8 16 40
Neighs:        79213.5 ave      114962 max           0 min
Histogram: 8 4 4 0 10 6 8 8 22 34

Total # of neighbors = 8238199
Ave neighs/atom = 28.530461
Neighbor list builds = 0
Dangerous builds = 0
The dot product: -1.06431871547681e-07
Setting atom values ...
  1 settings made for x
  1 settings made for y
  1 settings made for z
Setting up cg style minimization ...
  Unit style    : metal
  Current step  : 2744
Per MPI rank memory allocation (min/avg/max) = 5.441 | 5.816 | 6.074 Mbytes
Step PotEng KinEng TotEng v_fx v_fy v_fz 
    2744   -1152449.4            0   -1152449.4 -0.018655892  0.035841658 -0.014397282 
    2895   -1152449.4            0   -1152449.4 2.5461327e-05 -3.8576813e-05 1.6516855e-05 
Loop time of 1.79598 on 104 procs for 151 steps with 288751 atoms

99.9% CPU use with 104 MPI tasks x 1 OpenMP threads

Minimization stats:
  Stopping criterion = energy tolerance
  Energy initial, next-to-last, final = 
     -1152449.43704174  -1152449.43902762  -1152449.43902762
  Force two-norm initial, final = 0.20465136 0.00031024964
  Force max component initial, final = 0.10189068 5.2058363e-05
  Final line search alpha, max atom move = 1.0000000 5.2058363e-05
  Iterations, force evaluations = 151 302

MPI task timing breakdown:
Section |  min time  |  avg time  |  max time  |%varavg| %total
---------------------------------------------------------------
Pair    | 0.4584     | 1.2766     | 1.6775     |  30.5 | 71.08
Neigh   | 0          | 0          | 0          |   0.0 |  0.00
Comm    | 0.027732   | 0.2925     | 0.87113    |  44.6 | 16.29
Output  | 0          | 0          | 0          |   0.0 |  0.00
Modify  | 1.7422e-05 | 0.0025011  | 0.0053601  |   2.4 |  0.14
Other   |            | 0.2244     |            |       | 12.49

Nlocal:        2776.45 ave        3943 max           0 min
Histogram: 8 4 4 0 4 12 8 0 28 36
Nghost:        3878.55 ave        5428 max         232 min
Histogram: 8 0 8 0 16 0 8 8 16 40
Neighs:        79213.4 ave      114968 max           0 min
Histogram: 8 4 4 0 10 6 8 8 24 32

Total # of neighbors = 8238197
Ave neighs/atom = 28.530454
Neighbor list builds = 0
Dangerous builds = 0
The dot product: -2.138952896091e-07
Setting atom values ...
  1 settings made for x
  1 settings made for y
  1 settings made for z
Setting up cg style minimization ...
  Unit style    : metal
  Current step  : 2895
Per MPI rank memory allocation (min/avg/max) = 5.441 | 5.816 | 6.074 Mbytes
Step PotEng KinEng TotEng v_fx v_fy v_fz 
    2895   -1152449.4            0   -1152449.4 -0.012919475  0.023775719 -0.010160936 
    3000   -1152449.4            0   -1152449.4 4.3495236e-05 -9.3927496e-05 3.8639127e-05 
    3055   -1152449.4            0   -1152449.4 -8.0636558e-06 1.2064748e-05 -5.4563254e-06 
Loop time of 1.88307 on 104 procs for 160 steps with 288751 atoms

99.9% CPU use with 104 MPI tasks x 1 OpenMP threads

Minimization stats:
  Stopping criterion = energy tolerance
  Energy initial, next-to-last, final = 
     -1152449.43931779   -1152449.4412637   -1152449.4412637
  Force two-norm initial, final = 0.20174248 0.00016638518
  Force max component initial, final = 0.10043196 1.5645752e-05
  Final line search alpha, max atom move = 1.0000000 1.5645752e-05
  Iterations, force evaluations = 160 320

MPI task timing breakdown:
Section |  min time  |  avg time  |  max time  |%varavg| %total
---------------------------------------------------------------
Pair    | 0.48524    | 1.3438     | 1.7613     |  31.3 | 71.36
Neigh   | 0          | 0          | 0          |   0.0 |  0.00
Comm    | 0.02922    | 0.30415    | 0.90897    |  45.7 | 16.15
Output  | 0.00034439 | 0.00035269 | 0.00047853 |   0.0 |  0.02
Modify  | 1.9275e-05 | 0.0026572  | 0.005643   |   2.4 |  0.14
Other   |            | 0.2321     |            |       | 12.33

Nlocal:        2776.45 ave        3943 max           0 min
Histogram: 8 4 4 0 4 12 8 0 28 36
Nghost:        3878.78 ave        5428 max         232 min
Histogram: 8 0 8 0 16 0 8 8 16 40
Neighs:        79213.4 ave      114965 max           0 min
Histogram: 8 4 4 0 10 6 8 8 24 32

Total # of neighbors = 8238197
Ave neighs/atom = 28.530454
Neighbor list builds = 0
Dangerous builds = 0
The dot product: 1.28733181588133e-08
Setting atom values ...
  1 settings made for x
  1 settings made for y
  1 settings made for z
Setting up cg style minimization ...
  Unit style    : metal
  Current step  : 3055
Per MPI rank memory allocation (min/avg/max) = 5.441 | 5.816 | 6.074 Mbytes
Step PotEng KinEng TotEng v_fx v_fy v_fz 
    3055   -1152449.4            0   -1152449.4 -0.017916943  0.027119593 -0.012331958 
    3232   -1152449.4            0   -1152449.4 1.7783037e-05 -2.6285567e-05 1.2036472e-05 
Loop time of 2.09811 on 104 procs for 177 steps with 288751 atoms

99.9% CPU use with 104 MPI tasks x 1 OpenMP threads

Minimization stats:
  Stopping criterion = energy tolerance
  Energy initial, next-to-last, final = 
     -1152449.43954072  -1152449.44150375  -1152449.44150375
  Force two-norm initial, final = 0.20277364 0.00012791637
  Force max component initial, final = 0.098664579 2.6285567e-05
  Final line search alpha, max atom move = 1.0000000 2.6285567e-05
  Iterations, force evaluations = 177 354

MPI task timing breakdown:
Section |  min time  |  avg time  |  max time  |%varavg| %total
---------------------------------------------------------------
Pair    | 0.53698    | 1.495      | 1.9565     |  33.0 | 71.25
Neigh   | 0          | 0          | 0          |   0.0 |  0.00
Comm    | 0.034504   | 0.3383     | 1.011      |  48.2 | 16.12
Output  | 0          | 0          | 0          |   0.0 |  0.00
Modify  | 2.2204e-05 | 0.0029255  | 0.00627    |   2.5 |  0.14
Other   |            | 0.2619     |            |       | 12.48

Nlocal:        2776.45 ave        3945 max           0 min
Histogram: 8 4 4 0 4 12 8 0 28 36
Nghost:        3878.75 ave        5428 max         232 min
Histogram: 8 0 8 0 16 0 8 8 16 40
Neighs:        79213.4 ave      115000 max           0 min
Histogram: 8 4 4 0 10 6 8 8 24 32

Total # of neighbors = 8238197
Ave neighs/atom = 28.530454
Neighbor list builds = 0
Dangerous builds = 0
The dot product: -6.50204589937404e-08
Setting atom values ...
  1 settings made for x
  1 settings made for y
  1 settings made for z
Setting up cg style minimization ...
  Unit style    : metal
  Current step  : 3232
Per MPI rank memory allocation (min/avg/max) = 5.441 | 5.816 | 6.074 Mbytes
Step PotEng KinEng TotEng v_fx v_fy v_fz 
    3232   -1152449.4            0   -1152449.4  -0.01820184  0.029421366   -0.0133795 
    3402   -1152449.4            0   -1152449.4 -3.37795e-08 2.6166967e-06 -8.6456733e-07 
Loop time of 1.99251 on 104 procs for 170 steps with 288751 atoms

99.9% CPU use with 104 MPI tasks x 1 OpenMP threads

Minimization stats:
  Stopping criterion = energy tolerance
  Energy initial, next-to-last, final = 
     -1152449.43776243   -1152449.4397242   -1152449.4397242
  Force two-norm initial, final = 0.20298988 0.00015763932
  Force max component initial, final = 0.096801383 1.6870000e-05
  Final line search alpha, max atom move = 1.0000000 1.6870000e-05
  Iterations, force evaluations = 170 340

MPI task timing breakdown:
Section |  min time  |  avg time  |  max time  |%varavg| %total
---------------------------------------------------------------
Pair    | 0.51516    | 1.4306     | 1.8614     |  32.2 | 71.80
Neigh   | 0          | 0          | 0          |   0.0 |  0.00
Comm    | 0.033299   | 0.32306    | 0.96116    |  47.5 | 16.21
Output  | 0          | 0          | 0          |   0.0 |  0.00
Modify  | 2.0913e-05 | 0.0028135  | 0.0059963  |   2.5 |  0.14
Other   |            | 0.236      |            |       | 11.85

Nlocal:        2776.45 ave        3944 max           0 min
Histogram: 8 4 4 0 4 12 8 0 28 36
Nghost:        3878.70 ave        5428 max         232 min
Histogram: 8 0 8 0 16 0 8 8 16 40
Neighs:        79213.5 ave      114975 max           0 min
Histogram: 8 4 4 0 10 6 8 8 24 32

Total # of neighbors = 8238199
Ave neighs/atom = 28.530461
Neighbor list builds = 0
Dangerous builds = 0
The dot product: 6.10035256507504e-09
Setting atom values ...
  1 settings made for x
  1 settings made for y
  1 settings made for z
Setting up cg style minimization ...
  Unit style    : metal
  Current step  : 3402
Per MPI rank memory allocation (min/avg/max) = 5.441 | 5.816 | 6.074 Mbytes
Step PotEng KinEng TotEng v_fx v_fy v_fz 
    3402   -1152449.4            0   -1152449.4  -0.01762456  0.030774352 -0.014016571 
    3604   -1152449.4            0   -1152449.4 -2.0972545e-06 3.2947585e-06 -1.5447224e-06 
Loop time of 2.37312 on 104 procs for 202 steps with 288751 atoms

99.9% CPU use with 104 MPI tasks x 1 OpenMP threads

Minimization stats:
  Stopping criterion = energy tolerance
  Energy initial, next-to-last, final = 
     -1152449.43397947  -1152449.43593248  -1152449.43593248
  Force two-norm initial, final = 0.20281619 6.8011428e-05
  Force max component initial, final = 0.097494802 4.2112397e-06
  Final line search alpha, max atom move = 1.0000000 4.2112397e-06
  Iterations, force evaluations = 202 404

MPI task timing breakdown:
Section |  min time  |  avg time  |  max time  |%varavg| %total
---------------------------------------------------------------
Pair    | 0.61111    | 1.7034     | 2.22       |  35.3 | 71.78
Neigh   | 0          | 0          | 0          |   0.0 |  0.00
Comm    | 0.040707   | 0.38326    | 1.1422     |  51.8 | 16.15
Output  | 0          | 0          | 0          |   0.0 |  0.00
Modify  | 2.377e-05  | 0.0033395  | 0.0071813  |   2.7 |  0.14
Other   |            | 0.2831     |            |       | 11.93

Nlocal:        2776.45 ave        3943 max           0 min
Histogram: 8 4 4 0 4 12 8 0 28 36
Nghost:        3878.68 ave        5427 max         232 min
Histogram: 8 0 8 0 16 0 8 8 16 40
Neighs:        79213.5 ave      114967 max           0 min
Histogram: 8 4 4 0 10 6 8 8 22 34

Total # of neighbors = 8238199
Ave neighs/atom = 28.530461
Neighbor list builds = 0
Dangerous builds = 0
The dot product: 1.1395836996134e-08
Setting atom values ...
  1 settings made for x
  1 settings made for y
  1 settings made for z
Setting up cg style minimization ...
  Unit style    : metal
  Current step  : 3604
Per MPI rank memory allocation (min/avg/max) = 5.441 | 5.816 | 6.074 Mbytes
Step PotEng KinEng TotEng v_fx v_fy v_fz 
    3604   -1152449.4            0   -1152449.4 -0.016731421  0.031319618  -0.01433908 
    3792   -1152449.4            0   -1152449.4 -1.4814376e-05 2.2917606e-05 -1.1041621e-05 
Loop time of 2.19292 on 104 procs for 188 steps with 288751 atoms

99.9% CPU use with 104 MPI tasks x 1 OpenMP threads

Minimization stats:
  Stopping criterion = energy tolerance
  Energy initial, next-to-last, final = 
     -1152449.42818566   -1152449.4301292   -1152449.4301292
  Force two-norm initial, final = 0.20238583 0.00012669953
  Force max component initial, final = 0.099926078 3.3891123e-05
  Final line search alpha, max atom move = 1.0000000 3.3891123e-05
  Iterations, force evaluations = 188 376

MPI task timing breakdown:
Section |  min time  |  avg time  |  max time  |%varavg| %total
---------------------------------------------------------------
Pair    | 0.56926    | 1.5761     | 2.0662     |  33.9 | 71.87
Neigh   | 0          | 0          | 0          |   0.0 |  0.00
Comm    | 0.033343   | 0.35391    | 1.0541     |  49.8 | 16.14
Output  | 0          | 0          | 0          |   0.0 |  0.00
Modify  | 2.1748e-05 | 0.0031045  | 0.0066293  |   2.6 |  0.14
Other   |            | 0.2598     |            |       | 11.85

Nlocal:        2776.45 ave        3943 max           0 min
Histogram: 8 4 4 0 4 12 8 0 28 36
Nghost:        3878.68 ave        5427 max         232 min
Histogram: 8 0 8 0 16 0 8 8 16 40
Neighs:        79213.5 ave      114970 max           0 min
Histogram: 8 4 4 0 10 6 8 8 22 34

Total # of neighbors = 8238200
Ave neighs/atom = 28.530464
Neighbor list builds = 0
Dangerous builds = 0
The dot product: 8.27496057455537e-08
Setting atom values ...
  1 settings made for x
  1 settings made for y
  1 settings made for z
Setting up cg style minimization ...
  Unit style    : metal
  Current step  : 3792
Per MPI rank memory allocation (min/avg/max) = 5.441 | 5.816 | 6.074 Mbytes
Step PotEng KinEng TotEng v_fx v_fy v_fz 
    3792   -1152449.4            0   -1152449.4 -0.015415607  0.031789547 -0.014540683 
    3964   -1152449.4            0   -1152449.4 -7.8397224e-06 1.3252116e-05 -6.3689967e-06 
Loop time of 2.01787 on 104 procs for 172 steps with 288751 atoms

99.9% CPU use with 104 MPI tasks x 1 OpenMP threads

Minimization stats:
  Stopping criterion = energy tolerance
  Energy initial, next-to-last, final = 
     -1152449.42038708  -1152449.42231988  -1152449.42231988
  Force two-norm initial, final = 0.2019021 0.000162848
  Force max component initial, final = 0.10231274 1.3252116e-05
  Final line search alpha, max atom move = 1.0000000 1.3252116e-05
  Iterations, force evaluations = 172 344

MPI task timing breakdown:
Section |  min time  |  avg time  |  max time  |%varavg| %total
---------------------------------------------------------------
Pair    | 0.52019    | 1.453      | 1.8985     |  32.6 | 72.01
Neigh   | 0          | 0          | 0          |   0.0 |  0.00
Comm    | 0.035606   | 0.32851    | 0.98256    |  48.0 | 16.28
Output  | 0          | 0          | 0          |   0.0 |  0.00
Modify  | 2.0113e-05 | 0.0028518  | 0.0060883  |   2.5 |  0.14
Other   |            | 0.2335     |            |       | 11.57

Nlocal:        2776.45 ave        3943 max           0 min
Histogram: 8 4 4 0 4 12 8 0 28 36
Nghost:        3878.76 ave        5428 max         232 min
Histogram: 8 0 8 0 16 0 8 8 16 40
Neighs:        79213.5 ave      114990 max           0 min
Histogram: 8 4 4 0 10 6 8 8 24 32

Total # of neighbors = 8238205
Ave neighs/atom = 28.530481
Neighbor list builds = 0
Dangerous builds = 0
The dot product: 4.7886262260211e-08
Setting atom values ...
  1 settings made for x
  1 settings made for y
  1 settings made for z
Setting up cg style minimization ...
  Unit style    : metal
  Current step  : 3964
Per MPI rank memory allocation (min/avg/max) = 5.441 | 5.816 | 6.074 Mbytes
Step PotEng KinEng TotEng v_fx v_fy v_fz 
    3964   -1152449.4            0   -1152449.4  -0.01360365  0.032172323 -0.014589664 
    4000   -1152449.4            0   -1152449.4 -0.00036854968 0.00061489612 -0.00030285961 
    4151   -1152449.4            0   -1152449.4 9.6145777e-06 -1.2694348e-05 6.6962152e-06 
Loop time of 2.21049 on 104 procs for 187 steps with 288751 atoms

99.9% CPU use with 104 MPI tasks x 1 OpenMP threads

Minimization stats:
  Stopping criterion = energy tolerance
  Energy initial, next-to-last, final = 
     -1152449.41059389   -1152449.4125152   -1152449.4125152
  Force two-norm initial, final = 0.20137242 0.00011815187
  Force max component initial, final = 0.10471507 1.2694348e-05
  Final line search alpha, max atom move = 1.0000000 1.2694348e-05
  Iterations, force evaluations = 187 374

MPI task timing breakdown:
Section |  min time  |  avg time  |  max time  |%varavg| %total
---------------------------------------------------------------
Pair    | 0.56574    | 1.5723     | 2.0678     |  34.0 | 71.13
Neigh   | 0          | 0          | 0          |   0.0 |  0.00
Comm    | 0.032719   | 0.35847    | 1.0587     |  49.3 | 16.22
Output  | 0.00015056 | 0.00015327 | 0.00023646 |   0.0 |  0.01
Modify  | 2.1729e-05 | 0.0030937  | 0.0066496  |   2.6 |  0.14
Other   |            | 0.2765     |            |       | 12.51

Nlocal:        2776.45 ave        3944 max           0 min
Histogram: 8 4 4 0 4 12 8 0 28 36
Nghost:        3878.76 ave        5428 max         232 min
Histogram: 8 0 8 0 16 0 8 8 16 40
Neighs:        79213.6 ave      115008 max           0 min
Histogram: 8 4 4 0 10 6 8 8 24 32

Total # of neighbors = 8238210
Ave neighs/atom = 28.530499
Neighbor list builds = 0
Dangerous builds = 0
The dot product: -4.86856286521798e-08
Setting atom values ...
  1 settings made for x
  1 settings made for y
  1 settings made for z
Setting up cg style minimization ...
  Unit style    : metal
  Current step  : 4151
Per MPI rank memory allocation (min/avg/max) = 5.441 | 5.816 | 6.074 Mbytes
Step PotEng KinEng TotEng v_fx v_fy v_fz 
    4151   -1152449.4            0   -1152449.4 -0.011283955  0.032474575 -0.014475448 
    4324   -1152449.4            0   -1152449.4 1.3446459e-05 -1.8745659e-05 9.9132046e-06 
Loop time of 2.05539 on 104 procs for 173 steps with 288751 atoms

99.9% CPU use with 104 MPI tasks x 1 OpenMP threads

Minimization stats:
  Stopping criterion = energy tolerance
  Energy initial, next-to-last, final = 
     -1152449.39882157  -1152449.40073001  -1152449.40073001
  Force two-norm initial, final = 0.20084038 0.00016436558
  Force max component initial, final = 0.10707394 1.8745659e-05
  Final line search alpha, max atom move = 1.0000000 1.8745659e-05
  Iterations, force evaluations = 173 346

MPI task timing breakdown:
Section |  min time  |  avg time  |  max time  |%varavg| %total
---------------------------------------------------------------
Pair    | 0.52441    | 1.4632     | 1.9149     |  32.7 | 71.19
Neigh   | 0          | 0          | 0          |   0.0 |  0.00
Comm    | 0.043051   | 0.33658    | 0.98931    |  47.4 | 16.38
Output  | 0          | 0          | 0          |   0.0 |  0.00
Modify  | 2.0068e-05 | 0.0028637  | 0.0061585  |   2.5 |  0.14
Other   |            | 0.2528     |            |       | 12.30

Nlocal:        2776.45 ave        3944 max           0 min
Histogram: 8 4 4 0 4 12 8 0 28 36
Nghost:        3878.84 ave        5428 max         232 min
Histogram: 8 0 8 0 16 0 8 8 16 40
Neighs:        79213.6 ave      115009 max           0 min
Histogram: 8 4 4 0 10 6 8 8 24 32

Total # of neighbors = 8238214
Ave neighs/atom = 28.530512
Neighbor list builds = 0
Dangerous builds = 0
The dot product: -7.05540529143742e-08
Setting atom values ...
  1 settings made for x
  1 settings made for y
  1 settings made for z
Setting up cg style minimization ...
  Unit style    : metal
  Current step  : 4324
Per MPI rank memory allocation (min/avg/max) = 5.441 | 5.816 | 6.074 Mbytes
Step PotEng KinEng TotEng v_fx v_fy v_fz 
    4324   -1152449.4            0   -1152449.4 -0.0084611977  0.032780996 -0.014226626 
    4469   -1152449.4            0   -1152449.4 1.0096089e-05 -1.6198738e-05 8.3765325e-06 
Loop time of 1.71565 on 104 procs for 145 steps with 288751 atoms

99.9% CPU use with 104 MPI tasks x 1 OpenMP threads

Minimization stats:
  Stopping criterion = energy tolerance
  Energy initial, next-to-last, final = 
     -1152449.38508893  -1152449.38698555  -1152449.38698555
  Force two-norm initial, final = 0.20037139 0.00029931384
  Force max component initial, final = 0.10938118 1.8433241e-05
  Final line search alpha, max atom move = 1.0000000 1.8433241e-05
  Iterations, force evaluations = 145 290

MPI task timing breakdown:
Section |  min time  |  avg time  |  max time  |%varavg| %total
---------------------------------------------------------------
Pair    | 0.43905    | 1.2246     | 1.6028     |  30.1 | 71.38
Neigh   | 0          | 0          | 0          |   0.0 |  0.00
Comm    | 0.025373   | 0.28072    | 0.83412    |  43.8 | 16.36
Output  | 0          | 0          | 0          |   0.0 |  0.00
Modify  | 1.6682e-05 | 0.0024024  | 0.0051578  |   2.3 |  0.14
Other   |            | 0.2079     |            |       | 12.12

Nlocal:        2776.45 ave        3944 max           0 min
Histogram: 8 4 4 0 4 12 8 0 28 36
Nghost:        3878.80 ave        5428 max         232 min
Histogram: 8 0 8 0 16 0 8 8 16 40
Neighs:        79213.6 ave      115009 max           0 min
Histogram: 8 4 4 0 10 6 8 8 24 32

Total # of neighbors = 8238211
Ave neighs/atom = 28.530502
Neighbor list builds = 0
Dangerous builds = 0
The dot product: -5.82414623837987e-08
Setting atom values ...
  1 settings made for x
  1 settings made for y
  1 settings made for z
Setting up cg style minimization ...
  Unit style    : metal
  Current step  : 4469
Per MPI rank memory allocation (min/avg/max) = 5.441 | 5.816 | 6.074 Mbytes
Step PotEng KinEng TotEng v_fx v_fy v_fz 
    4469   -1152449.4            0   -1152449.4 -0.0050434438  0.033081903 -0.013817808 
    4651   -1152449.4            0   -1152449.4 -6.3280922e-06 8.6305346e-06 -4.757731e-06 
Loop time of 2.13065 on 104 procs for 182 steps with 288751 atoms

99.9% CPU use with 104 MPI tasks x 1 OpenMP threads

Minimization stats:
  Stopping criterion = energy tolerance
  Energy initial, next-to-last, final = 
     -1152449.36942424  -1152449.37130853  -1152449.37130853
  Force two-norm initial, final = 0.20000407 0.00012398195
  Force max component initial, final = 0.11162992 1.2640151e-05
  Final line search alpha, max atom move = 1.0000000 1.2640151e-05
  Iterations, force evaluations = 182 364

MPI task timing breakdown:
Section |  min time  |  avg time  |  max time  |%varavg| %total
---------------------------------------------------------------
Pair    | 0.54867    | 1.5312     | 2.008      |  33.4 | 71.86
Neigh   | 0          | 0          | 0          |   0.0 |  0.00
Comm    | 0.036992   | 0.34559    | 1.0294     |  49.0 | 16.22
Output  | 0          | 0          | 0          |   0.0 |  0.00
Modify  | 2.1296e-05 | 0.0030015  | 0.0064211  |   2.6 |  0.14
Other   |            | 0.2509     |            |       | 11.78

Nlocal:        2776.45 ave        3944 max           0 min
Histogram: 8 4 4 0 4 12 8 0 28 36
Nghost:        3878.82 ave        5428 max         232 min
Histogram: 8 0 8 0 16 0 8 8 16 40
Neighs:        79213.6 ave      114998 max           0 min
Histogram: 8 4 4 0 10 6 8 8 24 32

Total # of neighbors = 8238211
Ave neighs/atom = 28.530502
Neighbor list builds = 0
Dangerous builds = 0
The dot product: 2.97577165281746e-08
Setting atom values ...
  1 settings made for x
  1 settings made for y
  1 settings made for z
Setting up cg style minimization ...
  Unit style    : metal
  Current step  : 4651
Per MPI rank memory allocation (min/avg/max) = 5.441 | 5.816 | 6.074 Mbytes
Step PotEng KinEng TotEng v_fx v_fy v_fz 
    4651   -1152449.4            0   -1152449.4 -0.0021475661  0.033569063 -0.013580169 
    4809   -1152449.4            0   -1152449.4 2.105511e-05 -3.9569954e-05 2.0294601e-05 
Loop time of 1.84357 on 104 procs for 158 steps with 288751 atoms

99.9% CPU use with 104 MPI tasks x 1 OpenMP threads

Minimization stats:
  Stopping criterion = energy tolerance
  Energy initial, next-to-last, final = 
     -1152449.35186214  -1152449.35372747  -1152449.35372747
  Force two-norm initial, final = 0.19979541 0.00024667332
  Force max component initial, final = 0.11378632 5.6689606e-05
  Final line search alpha, max atom move = 1.0000000 5.6689606e-05
  Iterations, force evaluations = 158 316

MPI task timing breakdown:
Section |  min time  |  avg time  |  max time  |%varavg| %total
---------------------------------------------------------------
Pair    | 0.47792    | 1.326      | 1.7306     |  31.1 | 71.93
Neigh   | 0          | 0          | 0          |   0.0 |  0.00
Comm    | 0.027552   | 0.29903    | 0.89313    |  45.8 | 16.22
Output  | 0          | 0          | 0          |   0.0 |  0.00
Modify  | 1.8701e-05 | 0.0026109  | 0.0056002  |   2.4 |  0.14
Other   |            | 0.2159     |            |       | 11.71

Nlocal:        2776.45 ave        3944 max           0 min
Histogram: 8 4 4 0 4 12 8 0 28 36
Nghost:        3878.84 ave        5428 max         232 min
Histogram: 8 0 8 0 16 0 8 8 16 40
Neighs:        79213.6 ave      115004 max           0 min
Histogram: 8 4 4 0 10 6 8 8 24 32

Total # of neighbors = 8238213
Ave neighs/atom = 28.530509
Neighbor list builds = 0
Dangerous builds = 0
The dot product: -1.32112079022032e-07
Setting atom values ...
  1 settings made for x
  1 settings made for y
  1 settings made for z
Setting up cg style minimization ...
  Unit style    : metal
  Current step  : 4809
Per MPI rank memory allocation (min/avg/max) = 5.441 | 5.816 | 6.074 Mbytes
Step PotEng KinEng TotEng v_fx v_fy v_fz 
    4809   -1152449.3            0   -1152449.3 0.0011919995  0.034737068 -0.013512364 
    4964   -1152449.3            0   -1152449.3 1.0857955e-05 -1.554061e-05 8.6893472e-06 
Loop time of 1.81728 on 104 procs for 155 steps with 288751 atoms

99.9% CPU use with 104 MPI tasks x 1 OpenMP threads

Minimization stats:
  Stopping criterion = energy tolerance
  Energy initial, next-to-last, final = 
     -1152449.33245503  -1152449.33429555  -1152449.33429555
  Force two-norm initial, final = 0.19984523 0.00023577137
  Force max component initial, final = 0.11594572 4.1892344e-05
  Final line search alpha, max atom move = 1.0000000 4.1892344e-05
  Iterations, force evaluations = 155 310

MPI task timing breakdown:
Section |  min time  |  avg time  |  max time  |%varavg| %total
---------------------------------------------------------------
Pair    | 0.46925    | 1.3087     | 1.7104     |  30.9 | 72.01
Neigh   | 0          | 0          | 0          |   0.0 |  0.00
Comm    | 0.02899    | 0.29464    | 0.88633    |  45.7 | 16.21
Output  | 0          | 0          | 0          |   0.0 |  0.00
Modify  | 1.8213e-05 | 0.0025686  | 0.0055102  |   2.4 |  0.14
Other   |            | 0.2114     |            |       | 11.63

Nlocal:        2776.45 ave        3945 max           0 min
Histogram: 8 4 4 0 4 12 8 0 28 36
Nghost:        3878.76 ave        5427 max         232 min
Histogram: 8 0 8 0 16 0 8 8 16 40
Neighs:        79213.6 ave      115039 max           0 min
Histogram: 8 4 4 0 10 6 8 8 24 32

Total # of neighbors = 8238215
Ave neighs/atom = 28.530516
Neighbor list builds = 0
Dangerous builds = 0
The dot product: -5.49357941897381e-08
Setting atom values ...
  1 settings made for x
  1 settings made for y
  1 settings made for z
Setting up cg style minimization ...
  Unit style    : metal
  Current step  : 4964
Per MPI rank memory allocation (min/avg/max) = 5.441 | 5.816 | 6.074 Mbytes
Step PotEng KinEng TotEng v_fx v_fy v_fz 
    4964   -1152449.3            0   -1152449.3 0.0067117106  0.036703196 -0.013305947 
    5000   -1152449.3            0   -1152449.3 8.2386148e-06 0.00015953962 -6.2690588e-05 
    5125   -1152449.3            0   -1152449.3 4.5985271e-06 -1.2456752e-06 1.570358e-06 
Loop time of 1.90574 on 104 procs for 161 steps with 288751 atoms

99.9% CPU use with 104 MPI tasks x 1 OpenMP threads

Minimization stats:
  Stopping criterion = energy tolerance
  Energy initial, next-to-last, final = 
     -1152449.31128505   -1152449.3131241   -1152449.3131241
  Force two-norm initial, final = 0.20061361 0.00019736889
  Force max component initial, final = 0.11821114 3.3334725e-05
  Final line search alpha, max atom move = 1.0000000 3.3334725e-05
  Iterations, force evaluations = 161 322

MPI task timing breakdown:
Section |  min time  |  avg time  |  max time  |%varavg| %total
---------------------------------------------------------------
Pair    | 0.49234    | 1.3535     | 1.7692     |  31.3 | 71.02
Neigh   | 0          | 0          | 0          |   0.0 |  0.00
Comm    | 0.031703   | 0.3087     | 0.92615    |  46.0 | 16.20
Output  | 0.00015588 | 0.00016083 | 0.0002485  |   0.0 |  0.01
Modify  | 2.1235e-05 | 0.0026629  | 0.0057029  |   2.4 |  0.14
Other   |            | 0.2407     |            |       | 12.63

Nlocal:        2776.45 ave        3945 max           0 min
Histogram: 8 4 4 0 4 12 8 0 28 36
Nghost:        3878.76 ave        5427 max         232 min
Histogram: 8 0 8 0 16 0 8 8 16 40
Neighs:        79213.6 ave      115047 max           0 min
Histogram: 8 4 4 0 10 6 8 8 24 32

Total # of neighbors = 8238217
Ave neighs/atom = 28.530523
Neighbor list builds = 0
Dangerous builds = 0
The dot product: 1.52854601817669e-08
Setting atom values ...
  1 settings made for x
  1 settings made for y
  1 settings made for z
Setting up cg style minimization ...
  Unit style    : metal
  Current step  : 5125
Per MPI rank memory allocation (min/avg/max) = 5.441 | 5.816 | 6.074 Mbytes
Step PotEng KinEng TotEng v_fx v_fy v_fz 
    5125   -1152449.3            0   -1152449.3  0.027306568  0.042088873 -0.011466153 
    5372   -1152449.3            0   -1152449.3 1.2673365e-06 -1.9925463e-06 1.1104365e-06 
Loop time of 2.91446 on 104 procs for 247 steps with 288751 atoms

99.9% CPU use with 104 MPI tasks x 1 OpenMP threads

Minimization stats:
  Stopping criterion = energy tolerance
  Energy initial, next-to-last, final = 
     -1152449.28856845  -1152449.29493951  -1152449.29493951
  Force two-norm initial, final = 0.20429818 2.2964391e-05
  Force max component initial, final = 0.12019619 3.6294269e-06
  Final line search alpha, max atom move = 1.0000000 3.6294269e-06
  Iterations, force evaluations = 247 494

MPI task timing breakdown:
Section |  min time  |  avg time  |  max time  |%varavg| %total
---------------------------------------------------------------
Pair    | 0.74927    | 2.0919     | 2.7282     |  39.1 | 71.78
Neigh   | 1.0321e-05 | 0.0029529  | 0.0043185  |   2.2 |  0.10
Comm    | 0.055566   | 0.47531    | 1.4154     |  57.4 | 16.31
Output  | 0          | 0          | 0          |   0.0 |  0.00
Modify  | 2.8733e-05 | 0.0040878  | 0.0087972  |   3.0 |  0.14
Other   |            | 0.3402     |            |       | 11.67

Nlocal:        2776.45 ave        3945 max           0 min
Histogram: 8 4 4 0 4 12 8 0 28 36
Nghost:        3878.76 ave        5427 max         232 min
Histogram: 8 0 8 0 16 0 8 8 16 40
Neighs:        79213.7 ave      115041 max           0 min
Histogram: 8 4 4 0 10 6 8 8 24 32

Total # of neighbors = 8238221
Ave neighs/atom = 28.530537
Neighbor list builds = 1
Dangerous builds = 0
The dot product: 4.99307104934594e-08
Setting atom values ...
  1 settings made for x
  1 settings made for y
  1 settings made for z
Setting up cg style minimization ...
  Unit style    : metal
  Current step  : 5372
Per MPI rank memory allocation (min/avg/max) = 5.441 | 5.816 | 6.074 Mbytes
Step PotEng KinEng TotEng v_fx v_fy v_fz 
    5372   -1152449.3            0   -1152449.3   0.21024607  0.080885646 -0.029418876 
    5602   -1152449.3            0   -1152449.3 1.6528112e-05 -6.7768369e-05 3.3177902e-05 
Loop time of 2.70858 on 104 procs for 230 steps with 288751 atoms

99.9% CPU use with 104 MPI tasks x 1 OpenMP threads

Minimization stats:
  Stopping criterion = energy tolerance
  Energy initial, next-to-last, final = 
     -1152449.27312034  -1152449.33817963  -1152449.33817963
  Force two-norm initial, final = 0.29642397 0.00020822553
  Force max component initial, final = 0.21024607 6.7768369e-05
  Final line search alpha, max atom move = 1.0000000 6.7768369e-05
  Iterations, force evaluations = 230 460

MPI task timing breakdown:
Section |  min time  |  avg time  |  max time  |%varavg| %total
---------------------------------------------------------------
Pair    | 0.70108    | 1.9312     | 2.5426     |  37.4 | 71.30
Neigh   | 2.0186e-05 | 0.0058859  | 0.0085571  |   3.2 |  0.22
Comm    | 0.042989   | 0.43888    | 1.2988     |  54.8 | 16.20
Output  | 0          | 0          | 0          |   0.0 |  0.00
Modify  | 2.6518e-05 | 0.0038031  | 0.0081347  |   2.9 |  0.14
Other   |            | 0.3288     |            |       | 12.14

Nlocal:        2776.45 ave        3945 max           0 min
Histogram: 8 4 4 0 4 12 8 0 28 36
Nghost:        3878.76 ave        5427 max         232 min
Histogram: 8 0 8 0 16 0 8 8 16 40
Neighs:        79213.6 ave      115039 max           0 min
Histogram: 8 4 4 0 10 6 8 8 24 32

Total # of neighbors = 8238212
Ave neighs/atom = 28.530506
Neighbor list builds = 2
Dangerous builds = 0
The dot product: 8.28316931182896e-07
Setting atom values ...
  1 settings made for x
  1 settings made for y
  1 settings made for z
Setting up cg style minimization ...
  Unit style    : metal
  Current step  : 5602
Per MPI rank memory allocation (min/avg/max) = 5.441 | 5.816 | 6.074 Mbytes
Step PotEng KinEng TotEng v_fx v_fy v_fz 
    5602   -1152449.3            0   -1152449.3   0.12211818  0.019098504 -0.064797795 
    5761   -1152449.3            0   -1152449.3 -1.6708431e-05 3.1820456e-05 -1.086388e-05 
Loop time of 1.85619 on 104 procs for 159 steps with 288751 atoms

99.9% CPU use with 104 MPI tasks x 1 OpenMP threads

Minimization stats:
  Stopping criterion = energy tolerance
  Energy initial, next-to-last, final = 
     -1152449.33255507  -1152449.33472842  -1152449.33472842
  Force two-norm initial, final = 0.20063258 0.00019693099
  Force max component initial, final = 0.12211818 3.1820456e-05
  Final line search alpha, max atom move = 1.0000000 3.1820456e-05
  Iterations, force evaluations = 159 318

MPI task timing breakdown:
Section |  min time  |  avg time  |  max time  |%varavg| %total
---------------------------------------------------------------
Pair    | 0.48168    | 1.3424     | 1.7501     |  31.3 | 72.32
Neigh   | 0          | 0          | 0          |   0.0 |  0.00
Comm    | 0.033115   | 0.30392    | 0.90773    |  46.0 | 16.37
Output  | 0          | 0          | 0          |   0.0 |  0.00
Modify  | 1.8415e-05 | 0.0026294  | 0.0056203  |   2.4 |  0.14
Other   |            | 0.2073     |            |       | 11.17

Nlocal:        2776.45 ave        3943 max           0 min
Histogram: 8 4 4 0 4 12 8 0 28 36
Nghost:        3878.68 ave        5427 max         232 min
Histogram: 8 0 8 0 16 0 8 8 16 40
Neighs:        79213.3 ave      114973 max           0 min
Histogram: 8 4 4 0 10 6 8 8 24 32

Total # of neighbors = 8238187
Ave neighs/atom = 28.530419
Neighbor list builds = 0
Dangerous builds = 0
The dot product: -2.31915312658192e-07
Setting atom values ...
  1 settings made for x
  1 settings made for y
  1 settings made for z
Setting up cg style minimization ...
  Unit style    : metal
  Current step  : 5761
Per MPI rank memory allocation (min/avg/max) = 5.441 | 5.816 | 6.074 Mbytes
Step PotEng KinEng TotEng v_fx v_fy v_fz 
    5761   -1152449.3            0   -1152449.3  0.052975488  0.018558542 -0.036508234 
    5930   -1152449.3            0   -1152449.3 -1.5416831e-05 -1.5022182e-06 8.3554357e-06 
Loop time of 1.97881 on 104 procs for 169 steps with 288751 atoms

99.9% CPU use with 104 MPI tasks x 1 OpenMP threads

Minimization stats:
  Stopping criterion = energy tolerance
  Energy initial, next-to-last, final = 
     -1152449.32794905  -1152449.32911882  -1152449.32911882
  Force two-norm initial, final = 0.1556848 0.00018327649
  Force max component initial, final = 0.06105155 2.0764141e-05
  Final line search alpha, max atom move = 1.0000000 2.0764141e-05
  Iterations, force evaluations = 169 338

MPI task timing breakdown:
Section |  min time  |  avg time  |  max time  |%varavg| %total
---------------------------------------------------------------
Pair    | 0.51104    | 1.4226     | 1.864      |  32.3 | 71.89
Neigh   | 0          | 0          | 0          |   0.0 |  0.00
Comm    | 0.028701   | 0.32284    | 0.96362    |  47.4 | 16.31
Output  | 0          | 0          | 0          |   0.0 |  0.00
Modify  | 1.9482e-05 | 0.0027947  | 0.0060178  |   2.5 |  0.14
Other   |            | 0.2306     |            |       | 11.65

Nlocal:        2776.45 ave        3943 max           0 min
Histogram: 8 4 4 0 4 12 8 0 28 36
Nghost:        3878.68 ave        5427 max         232 min
Histogram: 8 0 8 0 16 0 8 8 16 40
Neighs:        79213.3 ave      114974 max           0 min
Histogram: 8 4 4 0 10 6 8 8 24 32

Total # of neighbors = 8238187
Ave neighs/atom = 28.530419
Neighbor list builds = 0
Dangerous builds = 0
The dot product: -8.80893887250324e-08
Setting atom values ...
  1 settings made for x
  1 settings made for y
  1 settings made for z
Setting up cg style minimization ...
  Unit style    : metal
  Current step  : 5930
Per MPI rank memory allocation (min/avg/max) = 5.441 | 5.816 | 6.074 Mbytes
Step PotEng KinEng TotEng v_fx v_fy v_fz 
    5930   -1152449.3            0   -1152449.3  0.046878885  0.018132876 -0.033858241 
    6000   -1152449.3            0   -1152449.3 -9.1374969e-05 -0.00020880794 0.00016757314 
    6134   -1152449.3            0   -1152449.3 1.0289898e-05 1.7769967e-06 -6.141735e-06 
Loop time of 2.39384 on 104 procs for 204 steps with 288751 atoms

99.9% CPU use with 104 MPI tasks x 1 OpenMP threads

Minimization stats:
  Stopping criterion = energy tolerance
  Energy initial, next-to-last, final = 
     -1152449.32089607  -1152449.32201444  -1152449.32201444
  Force two-norm initial, final = 0.15157809 5.5191299e-05
  Force max component initial, final = 0.059135968 1.0289898e-05
  Final line search alpha, max atom move = 1.0000000 1.0289898e-05
  Iterations, force evaluations = 204 408

MPI task timing breakdown:
Section |  min time  |  avg time  |  max time  |%varavg| %total
---------------------------------------------------------------
Pair    | 0.61698    | 1.7227     | 2.2513     |  35.4 | 71.96
Neigh   | 0          | 0          | 0          |   0.0 |  0.00
Comm    | 0.037952   | 0.39037    | 1.178      |  52.3 | 16.31
Output  | 0.00015264 | 0.00016257 | 0.00028639 |   0.0 |  0.01
Modify  | 2.3565e-05 | 0.0033731  | 0.007295   |   2.7 |  0.14
Other   |            | 0.2772     |            |       | 11.58

Nlocal:        2776.45 ave        3943 max           0 min
Histogram: 8 4 4 0 4 12 8 0 28 36
Nghost:        3878.68 ave        5427 max         232 min
Histogram: 8 0 8 0 16 0 8 8 16 40
Neighs:        79213.3 ave      114974 max           0 min
Histogram: 8 4 4 0 10 6 8 8 24 32

Total # of neighbors = 8238188
Ave neighs/atom = 28.530422
Neighbor list builds = 0
Dangerous builds = 0
The dot product: 4.51823303812576e-08
Setting atom values ...
  1 settings made for x
  1 settings made for y
  1 settings made for z
Setting up cg style minimization ...
  Unit style    : metal
  Current step  : 6134
Per MPI rank memory allocation (min/avg/max) = 5.441 | 5.816 | 6.074 Mbytes
Step PotEng KinEng TotEng v_fx v_fy v_fz 
    6134   -1152449.3            0   -1152449.3  0.045358327  0.017874573 -0.033352158 
    6312   -1152449.3            0   -1152449.3 2.8038299e-05 -2.4037685e-05 3.8174011e-08 
Loop time of 2.0783 on 104 procs for 178 steps with 288751 atoms

99.9% CPU use with 104 MPI tasks x 1 OpenMP threads

Minimization stats:
  Stopping criterion = energy tolerance
  Energy initial, next-to-last, final = 
     -1152449.31230737   -1152449.3134053   -1152449.3134053
  Force two-norm initial, final = 0.14989746 0.00014578241
  Force max component initial, final = 0.057195717 2.8038299e-05
  Final line search alpha, max atom move = 1.0000000 2.8038299e-05
  Iterations, force evaluations = 178 356

MPI task timing breakdown:
Section |  min time  |  avg time  |  max time  |%varavg| %total
---------------------------------------------------------------
Pair    | 0.53921    | 1.4964     | 1.9508     |  33.1 | 72.00
Neigh   | 0          | 0          | 0          |   0.0 |  0.00
Comm    | 0.031493   | 0.33818    | 1.0104     |  48.8 | 16.27
Output  | 0          | 0          | 0          |   0.0 |  0.00
Modify  | 2.0591e-05 | 0.002948   | 0.0062998  |   2.6 |  0.14
Other   |            | 0.2407     |            |       | 11.58

Nlocal:        2776.45 ave        3943 max           0 min
Histogram: 8 4 4 0 4 12 8 0 28 36
Nghost:        3878.72 ave        5427 max         232 min
Histogram: 8 0 8 0 16 0 8 8 16 40
Neighs:        79213.4 ave      114983 max           0 min
Histogram: 8 4 4 0 10 6 8 8 24 32

Total # of neighbors = 8238189
Ave neighs/atom = 28.530426
Neighbor list builds = 0
Dangerous builds = 0
The dot product: 6.81610793767716e-08
Setting atom values ...
  1 settings made for x
  1 settings made for y
  1 settings made for z
Setting up cg style minimization ...
  Unit style    : metal
  Current step  : 6312
Per MPI rank memory allocation (min/avg/max) = 5.441 | 5.816 | 6.074 Mbytes
Step PotEng KinEng TotEng v_fx v_fy v_fz 
    6312   -1152449.3            0   -1152449.3  0.043956316  0.017943129 -0.033049082 
    6514   -1152449.3            0   -1152449.3 -1.1737849e-05 8.2544871e-06 1.1055838e-06 
Loop time of 2.38195 on 104 procs for 202 steps with 288751 atoms

99.9% CPU use with 104 MPI tasks x 1 OpenMP threads

Minimization stats:
  Stopping criterion = energy tolerance
  Energy initial, next-to-last, final = 
     -1152449.30218519  -1152449.30326884  -1152449.30326884
  Force two-norm initial, final = 0.14858537 7.0711359e-05
  Force max component initial, final = 0.055248158 1.1737849e-05
  Final line search alpha, max atom move = 1.0000000 1.1737849e-05
  Iterations, force evaluations = 202 404

MPI task timing breakdown:
Section |  min time  |  avg time  |  max time  |%varavg| %total
---------------------------------------------------------------
Pair    | 0.61152    | 1.7026     | 2.2347     |  35.2 | 71.48
Neigh   | 0          | 0          | 0          |   0.0 |  0.00
Comm    | 0.045132   | 0.38615    | 1.154      |  51.8 | 16.21
Output  | 0          | 0          | 0          |   0.0 |  0.00
Modify  | 2.3059e-05 | 0.0033465  | 0.0071445  |   2.7 |  0.14
Other   |            | 0.2898     |            |       | 12.17

Nlocal:        2776.45 ave        3943 max           0 min
Histogram: 8 4 4 0 4 12 8 0 28 36
Nghost:        3878.72 ave        5427 max         232 min
Histogram: 8 0 8 0 16 0 8 8 16 40
Neighs:        79213.4 ave      114984 max           0 min
Histogram: 8 4 4 0 10 6 8 8 24 32

Total # of neighbors = 8238189
Ave neighs/atom = 28.530426
Neighbor list builds = 0
Dangerous builds = 0
The dot product: -2.9491266123835e-08
Setting atom values ...
  1 settings made for x
  1 settings made for y
  1 settings made for z
Setting up cg style minimization ...
  Unit style    : metal
  Current step  : 6514
Per MPI rank memory allocation (min/avg/max) = 5.441 | 5.816 | 6.074 Mbytes
Step PotEng KinEng TotEng v_fx v_fy v_fz 
    6514   -1152449.3            0   -1152449.3  0.042299924  0.018423871 -0.032820428 
    6805   -1152449.3            0   -1152449.3 -8.0119548e-08 3.1918164e-07 -1.4842305e-07 
Loop time of 3.39491 on 104 procs for 291 steps with 288751 atoms

99.9% CPU use with 104 MPI tasks x 1 OpenMP threads

Minimization stats:
  Stopping criterion = energy tolerance
  Energy initial, next-to-last, final = 
     -1152449.29050915  -1152449.29158005  -1152449.29158005
  Force two-norm initial, final = 0.14747939 1.0675618e-06
  Force max component initial, final = 0.053269171 3.1918164e-07
  Final line search alpha, max atom move = 1.0000000 3.1918164e-07
  Iterations, force evaluations = 291 582

MPI task timing breakdown:
Section |  min time  |  avg time  |  max time  |%varavg| %total
---------------------------------------------------------------
Pair    | 0.88168    | 2.4366     | 3.1914     |  42.1 | 71.77
Neigh   | 0          | 0          | 0          |   0.0 |  0.00
Comm    | 0.052848   | 0.55037    | 1.6347     |  61.8 | 16.21
Output  | 0          | 0          | 0          |   0.0 |  0.00
Modify  | 3.3138e-05 | 0.0047981  | 0.010253   |   3.3 |  0.14
Other   |            | 0.4031     |            |       | 11.87

Nlocal:        2776.45 ave        3944 max           0 min
Histogram: 8 4 4 0 4 12 8 0 28 36
Nghost:        3878.80 ave        5428 max         232 min
Histogram: 8 0 8 0 16 0 8 8 16 40
Neighs:        79213.4 ave      115010 max           0 min
Histogram: 8 4 4 0 10 6 8 8 24 32

Total # of neighbors = 8238190
Ave neighs/atom = 28.530429
Neighbor list builds = 0
Dangerous builds = 0
The dot product: 2.8506577170226e-10
Setting atom values ...
  1 settings made for x
  1 settings made for y
  1 settings made for z
Setting up cg style minimization ...
  Unit style    : metal
  Current step  : 6805
Per MPI rank memory allocation (min/avg/max) = 5.441 | 5.816 | 6.074 Mbytes
Step PotEng KinEng TotEng v_fx v_fy v_fz 
    6805   -1152449.3            0   -1152449.3  0.040572278    0.0192722  -0.03273916 
    6989   -1152449.3            0   -1152449.3 2.4603424e-05 -3.2763409e-05 6.7197056e-06 
Loop time of 2.16898 on 104 procs for 184 steps with 288751 atoms

99.9% CPU use with 104 MPI tasks x 1 OpenMP threads

Minimization stats:
  Stopping criterion = energy tolerance
  Energy initial, next-to-last, final = 
     -1152449.27725649  -1152449.27831642  -1152449.27831642
  Force two-norm initial, final = 0.14662975 0.00013817744
  Force max component initial, final = 0.05128783 3.4528392e-05
  Final line search alpha, max atom move = 1.0000000 3.4528392e-05
  Iterations, force evaluations = 184 368

MPI task timing breakdown:
Section |  min time  |  avg time  |  max time  |%varavg| %total
---------------------------------------------------------------
Pair    | 0.56091    | 1.5591     | 2.0303     |  33.7 | 71.88
Neigh   | 0          | 0          | 0          |   0.0 |  0.00
Comm    | 0.040948   | 0.35305    | 1.0576     |  49.8 | 16.28
Output  | 0          | 0          | 0          |   0.0 |  0.00
Modify  | 2.1307e-05 | 0.0030465  | 0.0065237  |   2.6 |  0.14
Other   |            | 0.2538     |            |       | 11.70

Nlocal:        2776.45 ave        3944 max           0 min
Histogram: 8 4 4 0 4 12 8 0 28 36
Nghost:        3878.82 ave        5428 max         232 min
Histogram: 8 0 8 0 16 0 8 8 16 40
Neighs:        79213.4 ave      115009 max           0 min
Histogram: 8 4 4 0 10 6 8 8 24 32

Total # of neighbors = 8238189
Ave neighs/atom = 28.530426
Neighbor list builds = 0
Dangerous builds = 0
The dot product: 2.19108944306871e-08
Setting atom values ...
  1 settings made for x
  1 settings made for y
  1 settings made for z
Setting up cg style minimization ...
  Unit style    : metal
  Current step  : 6989
Per MPI rank memory allocation (min/avg/max) = 5.441 | 5.816 | 6.074 Mbytes
Step PotEng KinEng TotEng v_fx v_fy v_fz 
    6989   -1152449.3            0   -1152449.3  0.038873816  0.020513254 -0.032881063 
    7000   -1152449.3            0   -1152449.3 0.00075286484 0.00040498509 -0.0006414359 
    7171   -1152449.3            0   -1152449.3 -1.3920149e-05 4.2301977e-07 7.1053461e-06 
Loop time of 2.14637 on 104 procs for 182 steps with 288751 atoms

99.9% CPU use with 104 MPI tasks x 1 OpenMP threads

Minimization stats:
  Stopping criterion = energy tolerance
  Energy initial, next-to-last, final = 
     -1152449.26241168  -1152449.26346125  -1152449.26346125
  Force two-norm initial, final = 0.14602517 0.00014574813
  Force max component initial, final = 0.049300425 1.6813072e-05
  Final line search alpha, max atom move = 1.0000000 1.6813072e-05
  Iterations, force evaluations = 182 364

MPI task timing breakdown:
Section |  min time  |  avg time  |  max time  |%varavg| %total
---------------------------------------------------------------
Pair    | 0.54958    | 1.5283     | 2.0043     |  33.5 | 71.20
Neigh   | 0          | 0          | 0          |   0.0 |  0.00
Comm    | 0.033897   | 0.34911    | 1.0279     |  48.3 | 16.26
Output  | 0.00022284 | 0.00022483 | 0.00028892 |   0.0 |  0.01
Modify  | 2.136e-05  | 0.0030131  | 0.006429   |   2.6 |  0.14
Other   |            | 0.2657     |            |       | 12.38

Nlocal:        2776.45 ave        3945 max           0 min
Histogram: 8 4 4 0 4 12 8 0 28 36
Nghost:        3878.86 ave        5428 max         232 min
Histogram: 8 0 8 0 16 0 8 8 16 40
Neighs:        79213.4 ave      115037 max           0 min
Histogram: 8 4 4 0 10 6 8 8 24 32

Total # of neighbors = 8238189
Ave neighs/atom = 28.530426
Neighbor list builds = 0
Dangerous builds = 0
The dot product: -4.50010983980639e-08
Setting atom values ...
  1 settings made for x
  1 settings made for y
  1 settings made for z
Setting up cg style minimization ...
  Unit style    : metal
  Current step  : 7171
Per MPI rank memory allocation (min/avg/max) = 5.441 | 5.816 | 6.074 Mbytes
Step PotEng KinEng TotEng v_fx v_fy v_fz 
    7171   -1152449.2            0   -1152449.2  0.037312894  0.022175879 -0.033330092 
    7377   -1152449.2            0   -1152449.2 1.1470627e-05 -1.8337765e-05  4.95565e-06 
Loop time of 2.42037 on 104 procs for 206 steps with 288751 atoms

99.9% CPU use with 104 MPI tasks x 1 OpenMP threads

Minimization stats:
  Stopping criterion = energy tolerance
  Energy initial, next-to-last, final = 
     -1152449.24596498  -1152449.24700141  -1152449.24700141
  Force two-norm initial, final = 0.14567716 7.4527442e-05
  Force max component initial, final = 0.048855262 1.8337765e-05
  Final line search alpha, max atom move = 1.0000000 1.8337765e-05
  Iterations, force evaluations = 206 412

MPI task timing breakdown:
Section |  min time  |  avg time  |  max time  |%varavg| %total
---------------------------------------------------------------
Pair    | 0.62251    | 1.7422     | 2.2718     |  35.6 | 71.98
Neigh   | 0          | 0          | 0          |   0.0 |  0.00
Comm    | 0.041029   | 0.39419    | 1.1733     |  52.7 | 16.29
Output  | 0          | 0          | 0          |   0.0 |  0.00
Modify  | 2.384e-05  | 0.0034016  | 0.007296   |   2.8 |  0.14
Other   |            | 0.2806     |            |       | 11.59

Nlocal:        2776.45 ave        3945 max           0 min
Histogram: 8 4 4 0 4 12 8 0 28 36
Nghost:        3878.88 ave        5428 max         232 min
Histogram: 8 0 8 0 16 0 8 8 16 40
Neighs:        79213.3 ave      115038 max           0 min
Histogram: 8 4 4 0 10 6 8 8 24 32

Total # of neighbors = 8238188
Ave neighs/atom = 28.530422
Neighbor list builds = 0
Dangerous builds = 0
The dot product: -2.6474675241225e-09
Setting atom values ...
  1 settings made for x
  1 settings made for y
  1 settings made for z
Setting up cg style minimization ...
  Unit style    : metal
  Current step  : 7377
Per MPI rank memory allocation (min/avg/max) = 5.441 | 5.816 | 6.074 Mbytes
Step PotEng KinEng TotEng v_fx v_fy v_fz 
    7377   -1152449.2            0   -1152449.2  0.036265489  0.024347547   -0.0343555 
    7563   -1152449.2            0   -1152449.2 -6.6445031e-07 -2.7483914e-05 1.7063059e-05 
Loop time of 2.16916 on 104 procs for 186 steps with 288751 atoms

99.9% CPU use with 104 MPI tasks x 1 OpenMP threads

Minimization stats:
  Stopping criterion = energy tolerance
  Energy initial, next-to-last, final = 
     -1152449.22790985  -1152449.22893169  -1152449.22893169
  Force two-norm initial, final = 0.14574768 0.00014536397
  Force max component initial, final = 0.049176033 3.2141858e-05
  Final line search alpha, max atom move = 1.0000000 3.2141858e-05
  Iterations, force evaluations = 186 372

MPI task timing breakdown:
Section |  min time  |  avg time  |  max time  |%varavg| %total
---------------------------------------------------------------
Pair    | 0.56545    | 1.5627     | 2.0457     |  33.8 | 72.04
Neigh   | 0          | 0          | 0          |   0.0 |  0.00
Comm    | 0.032698   | 0.35349    | 1.0584     |  49.8 | 16.30
Output  | 0          | 0          | 0          |   0.0 |  0.00
Modify  | 2.1752e-05 | 0.0030754  | 0.0066091  |   2.6 |  0.14
Other   |            | 0.2499     |            |       | 11.52

Nlocal:        2776.45 ave        3945 max           0 min
Histogram: 8 4 4 0 4 12 8 0 28 36
Nghost:        3878.86 ave        5428 max         232 min
Histogram: 8 0 8 0 16 0 8 8 16 40
Neighs:        79213.4 ave      115034 max           0 min
Histogram: 8 4 4 0 10 6 8 8 24 32

Total # of neighbors = 8238189
Ave neighs/atom = 28.530426
Neighbor list builds = 0
Dangerous builds = 0
The dot product: -6.90411907609721e-08
Setting atom values ...
  1 settings made for x
  1 settings made for y
  1 settings made for z
Setting up cg style minimization ...
  Unit style    : metal
  Current step  : 7563
Per MPI rank memory allocation (min/avg/max) = 5.441 | 5.816 | 6.074 Mbytes
Step PotEng KinEng TotEng v_fx v_fy v_fz 
    7563   -1152449.2            0   -1152449.2  0.035929964  0.027307005 -0.036263561 
    7731   -1152449.2            0   -1152449.2 -4.0565434e-05 -5.426419e-05 5.5274706e-05 
Loop time of 1.96953 on 104 procs for 168 steps with 288751 atoms

99.9% CPU use with 104 MPI tasks x 1 OpenMP threads

Minimization stats:
  Stopping criterion = energy tolerance
  Energy initial, next-to-last, final = 
     -1152449.20826036  -1152449.20926716  -1152449.20926716
  Force two-norm initial, final = 0.14638659 0.00026800377
  Force max component initial, final = 0.051194961 5.8437478e-05
  Final line search alpha, max atom move = 1.0000000 5.8437478e-05
  Iterations, force evaluations = 168 336

MPI task timing breakdown:
Section |  min time  |  avg time  |  max time  |%varavg| %total
---------------------------------------------------------------
Pair    | 0.50851    | 1.4177     | 1.856      |  32.2 | 71.98
Neigh   | 0          | 0          | 0          |   0.0 |  0.00
Comm    | 0.035962   | 0.32164    | 0.9642     |  46.9 | 16.33
Output  | 0          | 0          | 0          |   0.0 |  0.00
Modify  | 1.9681e-05 | 0.0027782  | 0.0059524  |   2.5 |  0.14
Other   |            | 0.2274     |            |       | 11.55

Nlocal:        2776.45 ave        3945 max           0 min
Histogram: 8 4 4 0 4 12 8 0 27 37
Nghost:        3878.84 ave        5428 max         232 min
Histogram: 8 0 8 0 16 0 8 8 16 40
Neighs:        79213.4 ave      115039 max           0 min
Histogram: 8 4 4 0 10 6 8 8 24 32

Total # of neighbors = 8238190
Ave neighs/atom = 28.530429
Neighbor list builds = 0
Dangerous builds = 0
The dot product: -3.0256135105111e-07
Setting atom values ...
  1 settings made for x
  1 settings made for y
  1 settings made for z
Setting up cg style minimization ...
  Unit style    : metal
  Current step  : 7731
Per MPI rank memory allocation (min/avg/max) = 5.441 | 5.816 | 6.074 Mbytes
Step PotEng KinEng TotEng v_fx v_fy v_fz 
    7731   -1152449.2            0   -1152449.2  0.036763091   0.03125161  -0.03947054 
    7908   -1152449.2            0   -1152449.2 7.0546905e-07 -3.9117257e-05 2.371153e-05 
Loop time of 2.07518 on 104 procs for 177 steps with 288751 atoms

99.9% CPU use with 104 MPI tasks x 1 OpenMP threads

Minimization stats:
  Stopping criterion = energy tolerance
  Energy initial, next-to-last, final = 
     -1152449.18706343  -1152449.18806014  -1152449.18806014
  Force two-norm initial, final = 0.14799158 0.00019358974
  Force max component initial, final = 0.054411474 4.5947322e-05
  Final line search alpha, max atom move = 1.0000000 4.5947322e-05
  Iterations, force evaluations = 177 354

MPI task timing breakdown:
Section |  min time  |  avg time  |  max time  |%varavg| %total
---------------------------------------------------------------
Pair    | 0.53381    | 1.4876     | 1.9459     |  33.0 | 71.69
Neigh   | 0          | 0          | 0          |   0.0 |  0.00
Comm    | 0.031008   | 0.33751    | 1.0084     |  48.4 | 16.26
Output  | 0          | 0          | 0          |   0.0 |  0.00
Modify  | 2.0396e-05 | 0.0029232  | 0.0062867  |   2.6 |  0.14
Other   |            | 0.2471     |            |       | 11.91

Nlocal:        2776.45 ave        3945 max           0 min
Histogram: 8 4 4 0 4 12 8 0 26 38
Nghost:        3878.78 ave        5428 max         232 min
Histogram: 8 0 8 0 16 0 8 8 16 40
Neighs:        79213.4 ave      115033 max           0 min
Histogram: 8 4 4 0 10 6 8 8 24 32

Total # of neighbors = 8238194
Ave neighs/atom = 28.530443
Neighbor list builds = 0
Dangerous builds = 0
The dot product: -1.46191751964511e-07
Setting atom values ...
  1 settings made for x
  1 settings made for y
  1 settings made for z
Setting up cg style minimization ...
  Unit style    : metal
  Current step  : 7908
Per MPI rank memory allocation (min/avg/max) = 5.441 | 5.816 | 6.074 Mbytes
Step PotEng KinEng TotEng v_fx v_fy v_fz 
    7908   -1152449.2            0   -1152449.2  0.039737419  0.036731691 -0.044946738 
    8000   -1152449.2            0   -1152449.2 -2.4917505e-06 -8.6072817e-05 5.4908531e-05 
    8060   -1152449.2            0   -1152449.2 1.3805776e-05 2.547756e-05 -2.3522802e-05 
Loop time of 1.8053 on 104 procs for 152 steps with 288751 atoms

99.9% CPU use with 104 MPI tasks x 1 OpenMP threads

Minimization stats:
  Stopping criterion = energy tolerance
  Energy initial, next-to-last, final = 
     -1152449.16443328  -1152449.16545739  -1152449.16545739
  Force two-norm initial, final = 0.1517135 0.00027277945
  Force max component initial, final = 0.057623607 2.6871166e-05
  Final line search alpha, max atom move = 1.0000000 2.6871166e-05
  Iterations, force evaluations = 152 304

MPI task timing breakdown:
Section |  min time  |  avg time  |  max time  |%varavg| %total
---------------------------------------------------------------
Pair    | 0.46038    | 1.2882     | 1.6733     |  30.7 | 71.36
Neigh   | 0          | 0          | 0          |   0.0 |  0.00
Comm    | 0.028545   | 0.29508    | 0.89223    |  45.0 | 16.35
Output  | 0.00015398 | 0.00016417 | 0.00029581 |   0.0 |  0.01
Modify  | 1.7428e-05 | 0.0025181  | 0.0054372  |   2.4 |  0.14
Other   |            | 0.2193     |            |       | 12.15

Nlocal:        2776.45 ave        3945 max           0 min
Histogram: 8 4 4 0 4 12 8 0 26 38
Nghost:        3878.76 ave        5427 max         232 min
Histogram: 8 0 8 0 16 0 8 8 16 40
Neighs:        79213.4 ave      115034 max           0 min
Histogram: 8 4 4 0 10 6 8 8 24 32

Total # of neighbors = 8238193
Ave neighs/atom = 28.530440
Neighbor list builds = 0
Dangerous builds = 0
The dot product: 2.4544647569298e-07
Setting atom values ...
  1 settings made for x
  1 settings made for y
  1 settings made for z
Setting up cg style minimization ...
  Unit style    : metal
  Current step  : 8060
Per MPI rank memory allocation (min/avg/max) = 5.441 | 5.816 | 6.074 Mbytes
Step PotEng KinEng TotEng v_fx v_fy v_fz 
    8060   -1152449.1            0   -1152449.1  0.047112902  0.047590915 -0.056686587 
[...]
Histogram: 8 0 8 0 16 0 8 8 16 40
Neighs:        79213.5 ave      114530 max           0 min
Histogram: 8 4 4 0 8 8 8 8 20 36

Total # of neighbors = 8238208
Ave neighs/atom = 28.530492
Neighbor list builds = 0
Dangerous builds = 0
The dot product: 3.55236024400673e-08
Setting atom values ...
  1 settings made for x
  1 settings made for y
  1 settings made for z
Setting up cg style minimization ...
  Unit style    : metal
  Current step  : 26966
Per MPI rank memory allocation (min/avg/max) = 5.441 | 5.816 | 6.074 Mbytes
Step PotEng KinEng TotEng v_fx v_fy v_fz 
   26966   -1152448.9            0   -1152448.9 0.0031527189 -0.018968456  0.023751047 
   27000   -1152448.9            0   -1152448.9 0.00029451273 1.5125096e-05 -0.00026795232 
   27165   -1152448.9            0   -1152448.9 -8.2811058e-07 -1.3819348e-05 1.9923536e-05 
Loop time of 2.33513 on 104 procs for 199 steps with 288751 atoms

99.9% CPU use with 104 MPI tasks x 1 OpenMP threads

Minimization stats:
  Stopping criterion = energy tolerance
  Energy initial, next-to-last, final = 
     -1152448.89202771  -1152448.89327306  -1152448.89327306
  Force two-norm initial, final = 0.15503414 9.7840718e-05
  Force max component initial, final = 0.08419965 1.9923536e-05
  Final line search alpha, max atom move = 1.0000000 1.9923536e-05
  Iterations, force evaluations = 199 398

MPI task timing breakdown:
Section |  min time  |  avg time  |  max time  |%varavg| %total
---------------------------------------------------------------
Pair    | 0.59922    | 1.678      | 2.1741     |  35.2 | 71.86
Neigh   | 0          | 0          | 0          |   0.0 |  0.00
Comm    | 0.035529   | 0.38814    | 1.133      |  50.3 | 16.62
Output  | 0.00015405 | 0.00016246 | 0.00027249 |   0.0 |  0.01
Modify  | 2.4249e-05 | 0.0032941  | 0.0070485  |   2.7 |  0.14
Other   |            | 0.2655     |            |       | 11.37

Nlocal:        2776.45 ave        3932 max           0 min
Histogram: 8 4 4 0 4 12 8 0 26 38
Nghost:        3879.07 ave        5425 max         232 min
Histogram: 8 0 8 0 16 0 8 8 16 40
Neighs:        79213.6 ave      114530 max           0 min
Histogram: 8 4 4 0 8 8 8 8 20 36

Total # of neighbors = 8238212
Ave neighs/atom = 28.530506
Neighbor list builds = 0
Dangerous builds = 0
The dot product: -6.65083613064153e-09
Setting atom values ...
  1 settings made for x
  1 settings made for y
  1 settings made for z
Setting up cg style minimization ...
  Unit style    : metal
  Current step  : 27165
Per MPI rank memory allocation (min/avg/max) = 5.441 | 5.816 | 6.074 Mbytes
Step PotEng KinEng TotEng v_fx v_fy v_fz 
   27165   -1152448.9            0   -1152448.9 0.0067179685 -0.024439755  0.028398056 
   27373   -1152448.9            0   -1152448.9 -8.9010455e-06 1.4210689e-07 7.2321554e-06 
Loop time of 2.43639 on 104 procs for 208 steps with 288751 atoms

99.9% CPU use with 104 MPI tasks x 1 OpenMP threads

Minimization stats:
  Stopping criterion = energy tolerance
  Energy initial, next-to-last, final = 
     -1152448.85143468  -1152448.85258789  -1152448.85258789
  Force two-norm initial, final = 0.15388572 6.7658250e-05
  Force max component initial, final = 0.083984624 1.6989387e-05
  Final line search alpha, max atom move = 1.0000000 1.6989387e-05
  Iterations, force evaluations = 208 416

MPI task timing breakdown:
Section |  min time  |  avg time  |  max time  |%varavg| %total
---------------------------------------------------------------
Pair    | 0.62755    | 1.746      | 2.2752     |  35.7 | 71.66
Neigh   | 0          | 0          | 0          |   0.0 |  0.00
Comm    | 0.038777   | 0.39962    | 1.1923     |  52.1 | 16.40
Output  | 0          | 0          | 0          |   0.0 |  0.00
Modify  | 2.52e-05   | 0.0034425  | 0.0074194  |   2.8 |  0.14
Other   |            | 0.2873     |            |       | 11.79

Nlocal:        2776.45 ave        3930 max           0 min
Histogram: 8 4 4 0 4 12 8 0 26 38
Nghost:        3879.12 ave        5425 max         232 min
Histogram: 8 0 8 0 16 0 8 8 16 40
Neighs:        79213.6 ave      114455 max           0 min
Histogram: 8 4 4 0 8 8 8 8 20 36

Total # of neighbors = 8238212
Ave neighs/atom = 28.530506
Neighbor list builds = 0
Dangerous builds = 0
The dot product: -3.58940452014721e-08
Setting atom values ...
  1 settings made for x
  1 settings made for y
  1 settings made for z
Setting up cg style minimization ...
  Unit style    : metal
  Current step  : 27373
Per MPI rank memory allocation (min/avg/max) = 5.441 | 5.816 | 6.074 Mbytes
Step PotEng KinEng TotEng v_fx v_fy v_fz 
   27373   -1152448.8            0   -1152448.8  0.011738467 -0.032956555  0.036184499 
   27577   -1152448.8            0   -1152448.8 -1.4877681e-05 7.4305549e-06 2.0227271e-06 
Loop time of 2.35384 on 104 procs for 204 steps with 288751 atoms

99.9% CPU use with 104 MPI tasks x 1 OpenMP threads

Minimization stats:
  Stopping criterion = energy tolerance
  Energy initial, next-to-last, final = 
     -1152448.80994778  -1152448.81161432  -1152448.81161432
  Force two-norm initial, final = 0.15701908 8.7600995e-05
  Force max component initial, final = 0.083911694 1.6231603e-05
  Final line search alpha, max atom move = 1.0000000 1.6231603e-05
  Iterations, force evaluations = 204 408

MPI task timing breakdown:
Section |  min time  |  avg time  |  max time  |%varavg| %total
---------------------------------------------------------------
Pair    | 0.61076    | 1.7111     | 2.2165     |  35.4 | 72.69
Neigh   | 0          | 0          | 0          |   0.0 |  0.00
Comm    | 0.044918   | 0.3867     | 1.1476     |  51.6 | 16.43
Output  | 0          | 0          | 0          |   0.0 |  0.00
Modify  | 2.4916e-05 | 0.0033777  | 0.0072674  |   2.7 |  0.14
Other   |            | 0.2527     |            |       | 10.73

Nlocal:        2776.45 ave        3930 max           0 min
Histogram: 8 4 4 0 4 12 8 0 26 38
Nghost:        3879.12 ave        5425 max         232 min
Histogram: 8 0 8 0 16 0 8 8 16 40
Neighs:        79213.6 ave      114426 max           0 min
Histogram: 8 4 4 0 8 8 8 8 20 36

Total # of neighbors = 8238211
Ave neighs/atom = 28.530502
Neighbor list builds = 0
Dangerous builds = 0
The dot product: -2.64414285480093e-07
Setting atom values ...
  1 settings made for x
  1 settings made for y
  1 settings made for z
Setting up cg style minimization ...
  Unit style    : metal
  Current step  : 27577
Per MPI rank memory allocation (min/avg/max) = 5.441 | 5.816 | 6.074 Mbytes
Step PotEng KinEng TotEng v_fx v_fy v_fz 
   27577   -1152448.8            0   -1152448.8  0.021644422 -0.048780852  0.051039263 
   27795   -1152448.8            0   -1152448.8 -1.1862893e-05 -5.2894014e-06 1.7364454e-05 
Loop time of 2.53371 on 104 procs for 218 steps with 288751 atoms

99.9% CPU use with 104 MPI tasks x 1 OpenMP threads

Minimization stats:
  Stopping criterion = energy tolerance
  Energy initial, next-to-last, final = 
     -1152448.77041084  -1152448.77284568  -1152448.77284568
  Force two-norm initial, final = 0.16684907 6.5169744e-05
  Force max component initial, final = 0.083832418 1.7364454e-05
  Final line search alpha, max atom move = 1.0000000 1.7364454e-05
  Iterations, force evaluations = 218 436

MPI task timing breakdown:
Section |  min time  |  avg time  |  max time  |%varavg| %total
---------------------------------------------------------------
Pair    | 0.65262    | 1.8284     | 2.3843     |  36.6 | 72.16
Neigh   | 0          | 0          | 0          |   0.0 |  0.00
Comm    | 0.039001   | 0.41429    | 1.241      |  53.6 | 16.35
Output  | 0          | 0          | 0          |   0.0 |  0.00
Modify  | 2.6226e-05 | 0.0036052  | 0.0077267  |   2.8 |  0.14
Other   |            | 0.2874     |            |       | 11.34

Nlocal:        2776.45 ave        3930 max           0 min
Histogram: 8 4 4 0 4 12 8 0 26 38
Nghost:        3879.12 ave        5425 max         232 min
Histogram: 8 0 8 0 16 0 8 8 16 40
Neighs:        79213.5 ave      114449 max           0 min
Histogram: 8 4 4 0 8 8 8 8 20 36

Total # of neighbors = 8238209
Ave neighs/atom = 28.530495
Neighbor list builds = 0
Dangerous builds = 0
The dot product: 2.41115490546607e-07
Setting atom values ...
  1 settings made for x
  1 settings made for y
  1 settings made for z
Setting up cg style minimization ...
  Unit style    : metal
  Current step  : 27795
Per MPI rank memory allocation (min/avg/max) = 5.441 | 5.816 | 6.074 Mbytes
Step PotEng KinEng TotEng v_fx v_fy v_fz 
   27795   -1152448.7            0   -1152448.7  0.022636301 -0.047633282  0.049766896 
   27934   -1152448.7            0   -1152448.7 2.1451749e-05 1.9607475e-06 -2.0702219e-05 
Loop time of 1.60828 on 104 procs for 139 steps with 288751 atoms

99.9% CPU use with 104 MPI tasks x 1 OpenMP threads

Minimization stats:
  Stopping criterion = energy tolerance
  Energy initial, next-to-last, final = 
     -1152448.73304342  -1152448.73461899  -1152448.73461899
  Force two-norm initial, final = 0.1622433 0.00017692927
  Force max component initial, final = 0.083506427 5.9216542e-05
  Final line search alpha, max atom move = 1.0000000 5.9216542e-05
  Iterations, force evaluations = 139 278

MPI task timing breakdown:
Section |  min time  |  avg time  |  max time  |%varavg| %total
---------------------------------------------------------------
Pair    | 0.41938    | 1.1697     | 1.5145     |  29.4 | 72.73
Neigh   | 0          | 0          | 0          |   0.0 |  0.00
Comm    | 0.027271   | 0.2674     | 0.80311    |  42.9 | 16.63
Output  | 0          | 0          | 0          |   0.0 |  0.00
Modify  | 1.6655e-05 | 0.0023078  | 0.0049317  |   2.3 |  0.14
Other   |            | 0.1688     |            |       | 10.50

Nlocal:        2776.45 ave        3932 max           0 min
Histogram: 8 4 4 0 4 12 8 0 26 38
Nghost:        3879.11 ave        5426 max         232 min
Histogram: 8 0 8 0 16 0 8 8 16 40
Neighs:        79213.6 ave      114534 max           0 min
Histogram: 8 4 4 0 8 8 8 8 20 36

Total # of neighbors = 8238212
Ave neighs/atom = 28.530506
Neighbor list builds = 0
Dangerous builds = 0
The dot product: -3.94886061594427e-08
Setting atom values ...
  1 settings made for x
  1 settings made for y
  1 settings made for z
Setting up cg style minimization ...
  Unit style    : metal
  Current step  : 27934
Per MPI rank memory allocation (min/avg/max) = 5.441 | 5.816 | 6.074 Mbytes
Step PotEng KinEng TotEng v_fx v_fy v_fz 
   27934   -1152448.7            0   -1152448.7  0.021544315 -0.042724351  0.044266895 
   28000   -1152448.7            0   -1152448.7 3.4760843e-05 -4.4506869e-05 3.5852532e-05 
   28027   -1152448.7            0   -1152448.7 1.9265954e-05 -1.4787283e-05 5.4834529e-06 
Loop time of 1.08079 on 104 procs for 93 steps with 288751 atoms

99.9% CPU use with 104 MPI tasks x 1 OpenMP threads

Minimization stats:
  Stopping criterion = energy tolerance
  Energy initial, next-to-last, final = 
     -1152448.69502666  -1152448.69638453  -1152448.69638453
  Force two-norm initial, final = 0.15682703 0.00022915656
  Force max component initial, final = 0.082990231 3.2825946e-05
  Final line search alpha, max atom move = 1.0000000 3.2825946e-05
  Iterations, force evaluations = 93 186

MPI task timing breakdown:
Section |  min time  |  avg time  |  max time  |%varavg| %total
---------------------------------------------------------------
Pair    | 0.28022    | 0.7814     | 1.0171     |  23.9 | 72.30
Neigh   | 0          | 0          | 0          |   0.0 |  0.00
Comm    | 0.016856   | 0.17656    | 0.5292     |  35.1 | 16.34
Output  | 0.00015056 | 0.00015904 | 0.00033012 |   0.0 |  0.01
Modify  | 1.1449e-05 | 0.0015443  | 0.0033064  |   1.8 |  0.14
Other   |            | 0.1211     |            |       | 11.21

Nlocal:        2776.45 ave        3930 max           0 min
Histogram: 8 4 4 0 4 12 8 0 26 38
Nghost:        3879.14 ave        5426 max         232 min
Histogram: 8 0 8 0 16 0 8 8 16 40
Neighs:        79213.6 ave      114429 max           0 min
Histogram: 8 4 4 0 8 8 8 8 20 36

Total # of neighbors = 8238210
Ave neighs/atom = 28.530499
Neighbor list builds = 0
Dangerous builds = 0
The dot product: 3.4121119930093e-07
Setting atom values ...
  1 settings made for x
  1 settings made for y
  1 settings made for z
Setting up cg style minimization ...
  Unit style    : metal
  Current step  : 28027
Per MPI rank memory allocation (min/avg/max) = 5.441 | 5.816 | 6.074 Mbytes
Step PotEng KinEng TotEng v_fx v_fy v_fz 
   28027   -1152448.7            0   -1152448.7  0.024107789 -0.044534124  0.045347968 
   28274   -1152448.7            0   -1152448.7 3.8798394e-06 1.3249416e-05 -2.2690044e-05 
Loop time of 2.86856 on 104 procs for 247 steps with 288751 atoms

99.9% CPU use with 104 MPI tasks x 1 OpenMP threads

Minimization stats:
  Stopping criterion = energy tolerance
  Energy initial, next-to-last, final = 
     -1152448.65697283  -1152448.67839683  -1152448.67839683
  Force two-norm initial, final = 0.15728859 9.9596523e-05
  Force max component initial, final = 0.082260591 2.7754445e-05
  Final line search alpha, max atom move = 1.0000000 2.7754445e-05
  Iterations, force evaluations = 247 494

MPI task timing breakdown:
Section |  min time  |  avg time  |  max time  |%varavg| %total
---------------------------------------------------------------
Pair    | 0.74636    | 2.0778     | 2.6941     |  38.9 | 72.43
Neigh   | 1.0198e-05 | 0.0029428  | 0.0042621  |   2.2 |  0.10
Comm    | 0.04281    | 0.47768    | 1.4216     |  57.1 | 16.65
Output  | 0          | 0          | 0          |   0.0 |  0.00
Modify  | 2.9832e-05 | 0.0040796  | 0.008809   |   3.0 |  0.14
Other   |            | 0.306      |            |       | 10.67

Nlocal:        2776.45 ave        3931 max           0 min
Histogram: 8 4 4 0 4 12 8 0 26 38
Nghost:        3879.14 ave        5426 max         232 min
Histogram: 8 0 8 0 16 0 8 8 16 40
Neighs:        79213.6 ave      114495 max           0 min
Histogram: 8 4 4 0 8 8 8 8 20 36

Total # of neighbors = 8238214
Ave neighs/atom = 28.530512
Neighbor list builds = 1
Dangerous builds = 0
The dot product: -2.24410051868258e-06
Setting atom values ...
  1 settings made for x
  1 settings made for y
  1 settings made for z
Setting up cg style minimization ...
  Unit style    : metal
  Current step  : 28274
Per MPI rank memory allocation (min/avg/max) = 5.441 | 5.816 | 6.074 Mbytes
Step PotEng KinEng TotEng v_fx v_fy v_fz 
   28274   -1152448.7            0   -1152448.7  0.045384014 -0.068613705  0.070261033 
   28392   -1152448.7            0   -1152448.7 7.7712295e-06 -4.4771172e-07 -5.7449919e-06 
Loop time of 1.37529 on 104 procs for 118 steps with 288751 atoms

99.9% CPU use with 104 MPI tasks x 1 OpenMP threads

Minimization stats:
  Stopping criterion = energy tolerance
  Energy initial, next-to-last, final = 
     -1152448.65431098  -1152448.65564454  -1152448.65564454
  Force two-norm initial, final = 0.17243069 0.00014905747
  Force max component initial, final = 0.074830287 3.5703691e-05
  Final line search alpha, max atom move = 1.0000000 3.5703691e-05
  Iterations, force evaluations = 118 236

MPI task timing breakdown:
Section |  min time  |  avg time  |  max time  |%varavg| %total
---------------------------------------------------------------
Pair    | 0.3553     | 0.99193    | 1.2966     |  27.0 | 72.13
Neigh   | 0          | 0          | 0          |   0.0 |  0.00
Comm    | 0.021203   | 0.22444    | 0.66862    |  39.4 | 16.32
Output  | 0          | 0          | 0          |   0.0 |  0.00
Modify  | 1.4391e-05 | 0.0019581  | 0.004185   |   2.1 |  0.14
Other   |            | 0.157      |            |       | 11.41

Nlocal:        2776.45 ave        3941 max           0 min
Histogram: 8 4 4 0 4 12 8 2 26 36
Nghost:        3879.17 ave        5426 max         232 min
Histogram: 8 0 8 0 16 0 8 8 16 40
Neighs:        79213.7 ave      114816 max           0 min
Histogram: 8 4 4 0 10 6 8 8 22 34

Total # of neighbors = 8238221
Ave neighs/atom = 28.530537
Neighbor list builds = 0
Dangerous builds = 0
The dot product: 4.13403750082573e-08
Setting atom values ...
  1 settings made for x
  1 settings made for y
  1 settings made for z
Setting up cg style minimization ...
  Unit style    : metal
  Current step  : 28392
Per MPI rank memory allocation (min/avg/max) = 5.441 | 5.816 | 6.074 Mbytes
Step PotEng KinEng TotEng v_fx v_fy v_fz 
   28392   -1152448.6            0   -1152448.6  0.026747396 -0.045958142  0.050648112 
   28527   -1152448.6            0   -1152448.6 2.5774763e-05 1.3640678e-05 -4.2922319e-05 
Loop time of 1.56476 on 104 procs for 135 steps with 288751 atoms

99.9% CPU use with 104 MPI tasks x 1 OpenMP threads

Minimization stats:
  Stopping criterion = energy tolerance
  Energy initial, next-to-last, final = 
     -1152448.63069509  -1152448.63169271  -1152448.63169271
  Force two-norm initial, final = 0.15217954 0.00028537037
  Force max component initial, final = 0.073726117 7.9928243e-05
  Final line search alpha, max atom move = 1.0000000 7.9928243e-05
  Iterations, force evaluations = 135 270

MPI task timing breakdown:
Section |  min time  |  avg time  |  max time  |%varavg| %total
---------------------------------------------------------------
Pair    | 0.40388    | 1.1373     | 1.4749     |  29.0 | 72.68
Neigh   | 0          | 0          | 0          |   0.0 |  0.00
Comm    | 0.023844   | 0.26038    | 0.77921    |  42.4 | 16.64
Output  | 0          | 0          | 0          |   0.0 |  0.00
Modify  | 1.6126e-05 | 0.0022361  | 0.0048165  |   2.2 |  0.14
Other   |            | 0.1649     |            |       | 10.54

Nlocal:        2776.45 ave        3941 max           0 min
Histogram: 8 4 4 0 4 12 8 2 26 36
Nghost:        3879.17 ave        5426 max         232 min
Histogram: 8 0 8 0 16 0 8 8 16 40
Neighs:        79213.7 ave      114817 max           0 min
Histogram: 8 4 4 0 10 6 8 8 22 34

Total # of neighbors = 8238220
Ave neighs/atom = 28.530533
Neighbor list builds = 0
Dangerous builds = 0
The dot product: 3.78211420771856e-08
Setting atom values ...
  1 settings made for x
  1 settings made for y
  1 settings made for z
Setting up cg style minimization ...
  Unit style    : metal
  Current step  : 28527
Per MPI rank memory allocation (min/avg/max) = 5.441 | 5.816 | 6.074 Mbytes
Step PotEng KinEng TotEng v_fx v_fy v_fz 
   28527   -1152448.6            0   -1152448.6  0.022537522  -0.04300762  0.049653591 
   28772   -1152448.6            0   -1152448.6 1.4079091e-07 1.3901179e-06 -2.321794e-06 
Loop time of 2.88492 on 104 procs for 245 steps with 288751 atoms

99.9% CPU use with 104 MPI tasks x 1 OpenMP threads

Minimization stats:
  Stopping criterion = energy tolerance
  Energy initial, next-to-last, final = 
     -1152448.60579279  -1152448.60673745  -1152448.60673745
  Force two-norm initial, final = 0.14877672 1.1662177e-05
  Force max component initial, final = 0.072761592 3.0385954e-06
  Final line search alpha, max atom move = 1.0000000 3.0385954e-06
  Iterations, force evaluations = 245 490

MPI task timing breakdown:
Section |  min time  |  avg time  |  max time  |%varavg| %total
---------------------------------------------------------------
Pair    | 0.73728    | 2.0629     | 2.6906     |  38.6 | 71.51
Neigh   | 0          | 0          | 0          |   0.0 |  0.00
Comm    | 0.047948   | 0.4732     | 1.4078     |  56.6 | 16.40
Output  | 0          | 0          | 0          |   0.0 |  0.00
Modify  | 2.9534e-05 | 0.0040546  | 0.0087053  |   3.0 |  0.14
Other   |            | 0.3448     |            |       | 11.95

Nlocal:        2776.45 ave        3941 max           0 min
Histogram: 8 4 4 0 4 12 8 2 26 36
Nghost:        3879.17 ave        5426 max         232 min
Histogram: 8 0 8 0 16 0 8 8 16 40
Neighs:        79213.6 ave      114814 max           0 min
Histogram: 8 4 4 0 10 6 8 8 22 34

Total # of neighbors = 8238218
Ave neighs/atom = 28.530526
Neighbor list builds = 0
Dangerous builds = 0
The dot product: -5.76446586497752e-09
