LAMMPS (29 Oct 2020)
OMP_NUM_THREADS environment is not set. Defaulting to 1 thread. (../comm.cpp:94)
  using 1 OpenMP thread(s) per MPI task
OMP_NUM_THREADS environment is not set. Defaulting to 1 thread. (../comm.cpp:94)
  using 1 OpenMP thread(s) per MPI task
Reading data file ...
  orthogonal box = (-122.39241 -121.13707 -37.090501) to (122.39241 121.13707 37.090501)
  13 by 4 by 2 MPI processor grid
  reading atoms ...
  288751 atoms
  read_data CPU = 0.421 seconds
199981 atoms in group inner
88770 atoms in group outer
1 atoms in group carbon
Neighbor list info ...
  update every 1 steps, delay 0 steps, check yes
  max neighbors/atom: 2000, page size: 100000
  master list distance cutoff = 5.6
  ghost atom cutoff = 5.6
  binsize = 2.8, bins = 88 87 27
  1 neighbor lists, perpetual/occasional/extra = 1 0 0
  (1) pair eam/alloy, perpetual
      attributes: half, newton on
      pair build: half/bin/atomonly/newton
      stencil: half/bin/3d/newton
      bin: standard
Setting up cg style minimization ...
  Unit style    : metal
  Current step  : 0
Per MPI rank memory allocation (min/avg/max) = 5.441 | 5.816 | 6.074 Mbytes
Step v_fx v_fy v_fz PotEng KinEng TotEng 
       0    25.858258  -0.40606332   -13.158595   -1152441.8            0   -1152441.8 
     244 2.2730308e-05 -3.4103189e-06 -2.0600435e-05     -1152449            0     -1152449 
Loop time of 2.8499 on 104 procs for 244 steps with 288751 atoms

99.8% CPU use with 104 MPI tasks x 1 OpenMP threads

Minimization stats:
  Stopping criterion = energy tolerance
  Energy initial, next-to-last, final = 
     -1152441.80916565  -1152448.97218899  -1152448.97218899
  Force two-norm initial, final = 47.307645 0.00010762673
  Force max component initial, final = 32.874968 3.1551859e-05
  Final line search alpha, max atom move = 1.0000000 3.1551859e-05
  Iterations, force evaluations = 244 484

MPI task timing breakdown:
Section |  min time  |  avg time  |  max time  |%varavg| %total
---------------------------------------------------------------
Pair    | 0.76804    | 2.0387     | 2.642      |  37.7 | 71.54
Neigh   | 8.2452e-05 | 0.023521   | 0.034044   |   6.3 |  0.83
Comm    | 0.050959   | 0.45794    | 1.3635     |  56.4 | 16.07
Output  | 0          | 0          | 0          |   0.0 |  0.00
Modify  | 2.6771e-05 | 0.0026073  | 0.0066583  |   3.2 |  0.09
Other   |            | 0.3271     |            |       | 11.48

Nlocal:        2776.45 ave        3958 max           0 min
Histogram: 8 4 4 0 4 12 8 2 28 34
Nghost:        3879.08 ave        5425 max         232 min
Histogram: 8 0 8 0 16 0 8 8 16 40
Neighs:        79213.6 ave      115390 max           0 min
Histogram: 8 4 4 0 10 6 8 8 24 32

Total # of neighbors = 8238214
Ave neighs/atom = 28.530512
Neighbor list builds = 8
Dangerous builds = 0
Setting atom values ...
  1 settings made for x
  1 settings made for y
  1 settings made for z
Setting up cg style minimization ...
  Unit style    : metal
  Current step  : 244
Per MPI rank memory allocation (min/avg/max) = 5.441 | 5.816 | 6.074 Mbytes
Step PotEng KinEng TotEng v_fx v_fy v_fz 
     244     -1152449            0     -1152449  0.019365893 -0.019456189 -0.013833487 
     350     -1152449            0     -1152449 2.7007159e-05 -3.5772398e-05 -4.687504e-05 
Loop time of 1.2625 on 104 procs for 106 steps with 288751 atoms

99.9% CPU use with 104 MPI tasks x 1 OpenMP threads

Minimization stats:
  Stopping criterion = energy tolerance
  Energy initial, next-to-last, final = 
     -1152448.97138188  -1152448.97192988  -1152448.97192988
  Force two-norm initial, final = 0.10756847 0.00021555323
  Force max component initial, final = 0.047318406 4.9383319e-05
  Final line search alpha, max atom move = 1.0000000 4.9383319e-05
  Iterations, force evaluations = 106 212

MPI task timing breakdown:
Section |  min time  |  avg time  |  max time  |%varavg| %total
---------------------------------------------------------------
Pair    | 0.32296    | 0.90027    | 1.1702     |  25.4 | 71.31
Neigh   | 0          | 0          | 0          |   0.0 |  0.00
Comm    | 0.023931   | 0.20526    | 0.61788    |  37.5 | 16.26
Output  | 0          | 0          | 0          |   0.0 |  0.00
Modify  | 1.3131e-05 | 0.0017556  | 0.0037719  |   2.0 |  0.14
Other   |            | 0.1552     |            |       | 12.29

Nlocal:        2776.45 ave        3956 max           0 min
Histogram: 8 4 4 0 4 12 8 2 28 34
Nghost:        3879.17 ave        5425 max         232 min
Histogram: 8 0 8 0 16 0 8 8 16 40
Neighs:        79213.5 ave      115315 max           0 min
Histogram: 8 4 4 0 10 6 8 8 24 32

Total # of neighbors = 8238206
Ave neighs/atom = 28.530485
Neighbor list builds = 0
Dangerous builds = 0
Setting atom values ...
  1 settings made for x
  1 settings made for y
  1 settings made for z
Setting up cg style minimization ...
  Unit style    : metal
  Current step  : 350
Per MPI rank memory allocation (min/avg/max) = 5.441 | 5.816 | 6.074 Mbytes
Step PotEng KinEng TotEng v_fx v_fy v_fz 
     350     -1152449            0     -1152449  0.029939565 -0.033321973 -0.027321887 
     573     -1152449            0     -1152449 4.1702766e-06 -5.634567e-06 -6.3823408e-06 
Loop time of 2.63372 on 104 procs for 223 steps with 288751 atoms

99.9% CPU use with 104 MPI tasks x 1 OpenMP threads

Minimization stats:
  Stopping criterion = linesearch alpha is zero
  Energy initial, next-to-last, final = 
     -1152448.96876457  -1152448.97028669  -1152448.97028669
  Force two-norm initial, final = 0.17968197 3.0529079e-05
  Force max component initial, final = 0.078607036 8.4873506e-06
  Final line search alpha, max atom move = 0.5 4.2436753e-06
  Iterations, force evaluations = 223 447

MPI task timing breakdown:
Section |  min time  |  avg time  |  max time  |%varavg| %total
---------------------------------------------------------------
Pair    | 0.6808     | 1.8818     | 2.452      |  37.1 | 71.45
Neigh   | 0          | 0          | 0          |   0.0 |  0.00
Comm    | 0.050358   | 0.42583    | 1.2593     |  53.8 | 16.17
Output  | 0          | 0          | 0          |   0.0 |  0.00
Modify  | 2.8196e-05 | 0.003686   | 0.007883   |   2.9 |  0.14
Other   |            | 0.3224     |            |       | 12.24

Nlocal:        2776.45 ave        3956 max           0 min
Histogram: 8 4 4 0 4 12 8 2 28 34
Nghost:        3879.17 ave        5425 max         232 min
Histogram: 8 0 8 0 16 0 8 8 16 40
Neighs:        79213.5 ave      115312 max           0 min
Histogram: 8 4 4 0 10 6 8 8 24 32

Total # of neighbors = 8238202
Ave neighs/atom = 28.530471
Neighbor list builds = 0
Dangerous builds = 0
The dot product: -7.00274181358933e-09
Setting atom values ...
  1 settings made for x
  1 settings made for y
  1 settings made for z
Setting up cg style minimization ...
  Unit style    : metal
  Current step  : 573
Per MPI rank memory allocation (min/avg/max) = 5.441 | 5.816 | 6.074 Mbytes
Step PotEng KinEng TotEng v_fx v_fy v_fz 
     573     -1152449            0     -1152449  0.023909918 -0.032662256 -0.033518286 
     748     -1152449            0     -1152449 1.4376503e-05 -1.7774336e-05 -1.5773252e-05 
Loop time of 2.02714 on 104 procs for 175 steps with 288751 atoms

99.9% CPU use with 104 MPI tasks x 1 OpenMP threads

Minimization stats:
  Stopping criterion = energy tolerance
  Energy initial, next-to-last, final = 
     -1152448.96542436  -1152448.96698557  -1152448.96698557
  Force two-norm initial, final = 0.18111632 0.00018255806
  Force max component initial, final = 0.080194482 5.3519275e-05
  Final line search alpha, max atom move = 1.0000000 5.3519275e-05
  Iterations, force evaluations = 175 350

MPI task timing breakdown:
Section |  min time  |  avg time  |  max time  |%varavg| %total
---------------------------------------------------------------
Pair    | 0.52938    | 1.4776     | 1.9214     |  32.8 | 72.89
Neigh   | 0          | 0          | 0          |   0.0 |  0.00
Comm    | 0.031586   | 0.33063    | 1.0022     |  48.8 | 16.31
Output  | 0          | 0          | 0          |   0.0 |  0.00
Modify  | 1.9999e-05 | 0.0028798  | 0.0061794  |   2.5 |  0.14
Other   |            | 0.2161     |            |       | 10.66

Nlocal:        2776.45 ave        3956 max           0 min
Histogram: 8 4 4 0 4 12 8 2 28 34
Nghost:        3879.17 ave        5425 max         232 min
Histogram: 8 0 8 0 16 0 8 8 16 40
Neighs:        79213.5 ave      115312 max           0 min
Histogram: 8 4 4 0 10 6 8 8 24 32

Total # of neighbors = 8238203
Ave neighs/atom = 28.530474
Neighbor list builds = 0
Dangerous builds = 0
The dot product: -2.23169529119776e-08
Setting atom values ...
  1 settings made for x
  1 settings made for y
  1 settings made for z
Setting up cg style minimization ...
  Unit style    : metal
  Current step  : 748
Per MPI rank memory allocation (min/avg/max) = 5.441 | 5.816 | 6.074 Mbytes
Step PotEng KinEng TotEng v_fx v_fy v_fz 
     748     -1152449            0     -1152449  0.016366982 -0.030869828 -0.041157796 
     919     -1152449            0     -1152449 -2.5153753e-05 4.004353e-05 4.6043493e-05 
Loop time of 1.99897 on 104 procs for 171 steps with 288751 atoms

99.9% CPU use with 104 MPI tasks x 1 OpenMP threads

Minimization stats:
  Stopping criterion = energy tolerance
  Energy initial, next-to-last, final = 
      -1152448.9603373  -1152448.96194039  -1152448.96194039
  Force two-norm initial, final = 0.18268598 0.00021488679
  Force max component initial, final = 0.081270013 4.6043493e-05
  Final line search alpha, max atom move = 1.0000000 4.6043493e-05
  Iterations, force evaluations = 171 342

MPI task timing breakdown:
Section |  min time  |  avg time  |  max time  |%varavg| %total
---------------------------------------------------------------
Pair    | 0.51807    | 1.4329     | 1.8652     |  32.3 | 71.68
Neigh   | 0          | 0          | 0          |   0.0 |  0.00
Comm    | 0.036583   | 0.32139    | 0.96226    |  47.5 | 16.08
Output  | 0          | 0          | 0          |   0.0 |  0.00
Modify  | 1.9903e-05 | 0.0028218  | 0.0060207  |   2.5 |  0.14
Other   |            | 0.2418     |            |       | 12.10

Nlocal:        2776.45 ave        3955 max           0 min
Histogram: 8 4 4 0 4 12 8 2 28 34
Nghost:        3879.18 ave        5425 max         232 min
Histogram: 8 0 8 0 16 0 8 8 16 40
Neighs:        79213.5 ave      115279 max           0 min
Histogram: 8 4 4 0 10 6 8 8 24 32

Total # of neighbors = 8238205
Ave neighs/atom = 28.530481
Neighbor list builds = 0
Dangerous builds = 0
The dot product: -1.09167553554736e-08
Setting atom values ...
  1 settings made for x
  1 settings made for y
  1 settings made for z
Setting up cg style minimization ...
  Unit style    : metal
  Current step  : 919
Per MPI rank memory allocation (min/avg/max) = 5.441 | 5.816 | 6.074 Mbytes
Step PotEng KinEng TotEng v_fx v_fy v_fz 
     919     -1152449            0     -1152449 0.0063422575 -0.026652165 -0.054114697 
    1000     -1152449            0     -1152449 1.4108462e-05 -1.5124251e-05 -7.3507639e-06 
    1043     -1152449            0     -1152449 -1.1345759e-05 1.3603823e-05 9.5997545e-06 
Loop time of 1.45352 on 104 procs for 124 steps with 288751 atoms

99.9% CPU use with 104 MPI tasks x 1 OpenMP threads

Minimization stats:
  Stopping criterion = energy tolerance
  Energy initial, next-to-last, final = 
     -1152448.95354992  -1152448.95522266  -1152448.95522266
  Force two-norm initial, final = 0.18470641 0.00021965068
  Force max component initial, final = 0.081385782 5.8997964e-05
  Final line search alpha, max atom move = 1.0000000 5.8997964e-05
  Iterations, force evaluations = 124 248

MPI task timing breakdown:
Section |  min time  |  avg time  |  max time  |%varavg| %total
---------------------------------------------------------------
Pair    | 0.37584    | 1.0479     | 1.3637     |  27.6 | 72.10
Neigh   | 0          | 0          | 0          |   0.0 |  0.00
Comm    | 0.027683   | 0.23492    | 0.70557    |  40.5 | 16.16
Output  | 0.00012494 | 0.00013105 | 0.00024714 |   0.0 |  0.01
Modify  | 1.5002e-05 | 0.0020472  | 0.0043675  |   2.1 |  0.14
Other   |            | 0.1685     |            |       | 11.59

Nlocal:        2776.45 ave        3955 max           0 min
Histogram: 8 4 4 0 4 12 8 2 28 34
Nghost:        3879.18 ave        5425 max         232 min
Histogram: 8 0 8 0 16 0 8 8 16 40
Neighs:        79213.5 ave      115274 max           0 min
Histogram: 8 4 4 0 10 6 8 8 24 32

Total # of neighbors = 8238207
Ave neighs/atom = 28.530488
Neighbor list builds = 0
Dangerous builds = 0
The dot product: 8.78531547484523e-09
Setting atom values ...
  1 settings made for x
  1 settings made for y
  1 settings made for z
Setting up cg style minimization ...
  Unit style    : metal
  Current step  : 1043
Per MPI rank memory allocation (min/avg/max) = 5.441 | 5.816 | 6.074 Mbytes
Step PotEng KinEng TotEng v_fx v_fy v_fz 
    1043   -1152448.9            0   -1152448.9 -0.0048288762 -0.017525532 -0.075483986 
    1180   -1152448.9            0   -1152448.9 -1.021103e-05 1.6821317e-05 2.3812742e-05 
Loop time of 1.58064 on 104 procs for 137 steps with 288751 atoms

99.9% CPU use with 104 MPI tasks x 1 OpenMP threads

Minimization stats:
  Stopping criterion = energy tolerance
  Energy initial, next-to-last, final = 
     -1152448.94531781  -1152448.94716972  -1152448.94716972
  Force two-norm initial, final = 0.18938505 0.0001129658
  Force max component initial, final = 0.080142892 2.7661311e-05
  Final line search alpha, max atom move = 1.0000000 2.7661311e-05
  Iterations, force evaluations = 137 274

MPI task timing breakdown:
Section |  min time  |  avg time  |  max time  |%varavg| %total
---------------------------------------------------------------
Pair    | 0.41463    | 1.1484     | 1.4936     |  28.9 | 72.65
Neigh   | 0          | 0          | 0          |   0.0 |  0.00
Comm    | 0.024336   | 0.25579    | 0.77078    |  42.8 | 16.18
Output  | 0          | 0          | 0          |   0.0 |  0.00
Modify  | 1.5882e-05 | 0.002262   | 0.0048371  |   2.2 |  0.14
Other   |            | 0.1742     |            |       | 11.02

Nlocal:        2776.45 ave        3955 max           0 min
Histogram: 8 4 4 0 4 12 8 2 28 34
Nghost:        3879.16 ave        5425 max         232 min
Histogram: 8 0 8 0 16 0 8 8 16 40
Neighs:        79213.5 ave      115266 max           0 min
Histogram: 8 4 4 0 10 6 8 8 24 32

Total # of neighbors = 8238207
Ave neighs/atom = 28.530488
Neighbor list builds = 0
Dangerous builds = 0
The dot product: -1.99266178959254e-07
Setting atom values ...
  1 settings made for x
  1 settings made for y
  1 settings made for z
Setting up cg style minimization ...
  Unit style    : metal
  Current step  : 1180
Per MPI rank memory allocation (min/avg/max) = 5.441 | 5.816 | 6.074 Mbytes
Step PotEng KinEng TotEng v_fx v_fy v_fz 
    1180   -1152448.9            0   -1152448.9 -0.0098774178 -0.0019310805 -0.097518014 
    1358   -1152448.9            0   -1152448.9 3.4190196e-05 -4.8042031e-05 -8.3060205e-05 
Loop time of 2.04753 on 104 procs for 178 steps with 288751 atoms

99.9% CPU use with 104 MPI tasks x 1 OpenMP threads

Minimization stats:
  Stopping criterion = energy tolerance
  Energy initial, next-to-last, final = 
     -1152448.93612822  -1152448.93832311  -1152448.93832311
  Force two-norm initial, final = 0.19561298 0.00028763757
  Force max component initial, final = 0.097518014 8.9680824e-05
  Final line search alpha, max atom move = 1.0000000 8.9680824e-05
  Iterations, force evaluations = 178 356

MPI task timing breakdown:
Section |  min time  |  avg time  |  max time  |%varavg| %total
---------------------------------------------------------------
Pair    | 0.53788    | 1.4975     | 1.9417     |  33.0 | 73.13
Neigh   | 0          | 0          | 0          |   0.0 |  0.00
Comm    | 0.038639   | 0.33143    | 1.0167     |  49.2 | 16.19
Output  | 0          | 0          | 0          |   0.0 |  0.00
Modify  | 2.1323e-05 | 0.0029339  | 0.0062896  |   2.6 |  0.14
Other   |            | 0.2157     |            |       | 10.54

Nlocal:        2776.45 ave        3955 max           0 min
Histogram: 8 4 4 0 4 12 8 2 28 34
Nghost:        3879.16 ave        5425 max         232 min
Histogram: 8 0 8 0 16 0 8 8 16 40
Neighs:        79213.5 ave      115278 max           0 min
Histogram: 8 4 4 0 10 6 8 8 24 32

Total # of neighbors = 8238201
Ave neighs/atom = 28.530467
Neighbor list builds = 0
Dangerous builds = 0
The dot product: 1.18886995095928e-06
Setting atom values ...
  1 settings made for x
  1 settings made for y
  1 settings made for z
Setting up cg style minimization ...
  Unit style    : metal
  Current step  : 1358
Per MPI rank memory allocation (min/avg/max) = 5.441 | 5.816 | 6.074 Mbytes
Step PotEng KinEng TotEng v_fx v_fy v_fz 
    1358   -1152448.9            0   -1152448.9 -0.0046762289  0.017189277  -0.11013272 
    1580   -1152448.9            0   -1152448.9 -5.6800538e-06 6.3954804e-06 6.5619265e-06 
Loop time of 2.56466 on 104 procs for 222 steps with 288751 atoms

99.9% CPU use with 104 MPI tasks x 1 OpenMP threads

Minimization stats:
  Stopping criterion = energy tolerance
  Energy initial, next-to-last, final = 
     -1152448.92643379  -1152448.92908429  -1152448.92908429
  Force two-norm initial, final = 0.19785224 0.00010800408
  Force max component initial, final = 0.11013272 2.8619200e-05
  Final line search alpha, max atom move = 1.0000000 2.8619200e-05
  Iterations, force evaluations = 222 444

MPI task timing breakdown:
Section |  min time  |  avg time  |  max time  |%varavg| %total
---------------------------------------------------------------
Pair    | 0.67146    | 1.8607     | 2.4174     |  36.8 | 72.55
Neigh   | 0          | 0          | 0          |   0.0 |  0.00
Comm    | 0.042449   | 0.41555    | 1.249      |  54.4 | 16.20
Output  | 0          | 0          | 0          |   0.0 |  0.00
Modify  | 2.5282e-05 | 0.003661   | 0.0078143  |   2.8 |  0.14
Other   |            | 0.2848     |            |       | 11.10

Nlocal:        2776.45 ave        3955 max           0 min
Histogram: 8 4 4 0 4 12 8 2 28 34
Nghost:        3879.17 ave        5425 max         232 min
Histogram: 8 0 8 0 16 0 8 8 16 40
Neighs:        79213.5 ave      115282 max           0 min
Histogram: 8 4 4 0 10 6 8 8 24 32

Total # of neighbors = 8238207
Ave neighs/atom = 28.530488
Neighbor list builds = 0
Dangerous builds = 0
The dot product: -1.0042537765177e-07
Setting atom values ...
  1 settings made for x
  1 settings made for y
  1 settings made for z
Setting up cg style minimization ...
  Unit style    : metal
  Current step  : 1580
Per MPI rank memory allocation (min/avg/max) = 5.441 | 5.816 | 6.074 Mbytes
Step PotEng KinEng TotEng v_fx v_fy v_fz 
    1580   -1152448.9            0   -1152448.9 0.0087243706  0.036491047  -0.11281295 
    1869   -1152448.9            0   -1152448.9 -7.2120351e-07 1.5707764e-07 2.0097851e-06 
Loop time of 3.34453 on 104 procs for 289 steps with 288751 atoms

99.9% CPU use with 104 MPI tasks x 1 OpenMP threads

Minimization stats:
  Stopping criterion = energy tolerance
  Energy initial, next-to-last, final = 
      -1152448.9164715  -1152448.91998789  -1152448.91998789
  Force two-norm initial, final = 0.1961064 1.6213592e-05
  Force max component initial, final = 0.11281295 5.5235442e-06
  Final line search alpha, max atom move = 1.0000000 5.5235442e-06
  Iterations, force evaluations = 289 578

MPI task timing breakdown:
Section |  min time  |  avg time  |  max time  |%varavg| %total
---------------------------------------------------------------
Pair    | 0.87482    | 2.4374     | 3.1572     |  42.0 | 72.88
Neigh   | 0          | 0          | 0          |   0.0 |  0.00
Comm    | 0.057698   | 0.54203    | 1.6457     |  62.8 | 16.21
Output  | 0          | 0          | 0          |   0.0 |  0.00
Modify  | 3.52e-05   | 0.0047668  | 0.010165   |   3.3 |  0.14
Other   |            | 0.3604     |            |       | 10.77

Nlocal:        2776.45 ave        3955 max           0 min
Histogram: 8 4 4 0 4 12 8 2 28 34
Nghost:        3879.13 ave        5425 max         232 min
Histogram: 8 0 8 0 16 0 8 8 16 40
Neighs:        79213.5 ave      115294 max           0 min
Histogram: 8 4 4 0 10 6 8 8 24 32

Total # of neighbors = 8238205
Ave neighs/atom = 28.530481
Neighbor list builds = 0
Dangerous builds = 0
The dot product: -7.47154818769813e-08
Setting atom values ...
  1 settings made for x
  1 settings made for y
  1 settings made for z
Setting up cg style minimization ...
  Unit style    : metal
  Current step  : 1869
Per MPI rank memory allocation (min/avg/max) = 5.441 | 5.816 | 6.074 Mbytes
Step PotEng KinEng TotEng v_fx v_fy v_fz 
    1869   -1152448.9            0   -1152448.9  0.029520814  0.056955761  -0.11169167 
    2000   -1152448.9            0   -1152448.9 0.00045569905 -0.00015973391 -0.00062044502 
    2396   -1152448.9            0   -1152448.9 1.3314142e-08 6.3668604e-09 -2.9849023e-08 
Loop time of 6.0713 on 104 procs for 527 steps with 288751 atoms

99.9% CPU use with 104 MPI tasks x 1 OpenMP threads

Minimization stats:
  Stopping criterion = energy tolerance
  Energy initial, next-to-last, final = 
     -1152448.90665485  -1152448.91679728  -1152448.91679728
  Force two-norm initial, final = 0.19707205 4.7652910e-07
  Force max component initial, final = 0.11169167 1.5198010e-07
  Final line search alpha, max atom move = 1.0000000 1.5198010e-07
  Iterations, force evaluations = 527 1054

MPI task timing breakdown:
Section |  min time  |  avg time  |  max time  |%varavg| %total
---------------------------------------------------------------
Pair    | 1.5945     | 4.42       | 5.7498     |  56.8 | 72.80
Neigh   | 1.0748e-05 | 0.0029556  | 0.0042566  |   2.2 |  0.05
Comm    | 0.099741   | 0.98135    | 2.9698     |  84.3 | 16.16
Output  | 0.0001015  | 0.00010628 | 0.00024103 |   0.0 |  0.00
Modify  | 6.0601e-05 | 0.0086706  | 0.018542   |   4.4 |  0.14
Other   |            | 0.6582     |            |       | 10.84

Nlocal:        2776.45 ave        3960 max           0 min
Histogram: 8 4 4 0 4 12 8 2 28 34
Nghost:        3879.10 ave        5425 max         232 min
Histogram: 8 0 8 0 16 0 8 8 16 40
Neighs:        79213.5 ave      115431 max           0 min
Histogram: 8 4 4 0 10 6 8 8 24 32

Total # of neighbors = 8238205
Ave neighs/atom = 28.530481
Neighbor list builds = 1
Dangerous builds = 0
The dot product: 5.36847406719794e-09
Setting atom values ...
  1 settings made for x
  1 settings made for y
  1 settings made for z
Setting up cg style minimization ...
  Unit style    : metal
  Current step  : 2396
Per MPI rank memory allocation (min/avg/max) = 5.441 | 5.816 | 6.074 Mbytes
Step PotEng KinEng TotEng v_fx v_fy v_fz 
    2396   -1152448.9            0   -1152448.9    0.1952557   0.18655072   -0.1225763 
    2639   -1152448.9            0   -1152448.9 2.5876039e-05 8.4180995e-09 -1.0842336e-05 
Loop time of 2.82626 on 104 procs for 243 steps with 288751 atoms

99.9% CPU use with 104 MPI tasks x 1 OpenMP threads

Minimization stats:
  Stopping criterion = energy tolerance
  Energy initial, next-to-last, final = 
     -1152448.90666155  -1152448.92495424  -1152448.92495424
  Force two-norm initial, final = 0.33599336 0.00010302391
  Force max component initial, final = 0.1952557 2.7880626e-05
  Final line search alpha, max atom move = 1.0000000 2.7880626e-05
  Iterations, force evaluations = 243 486

MPI task timing breakdown:
Section |  min time  |  avg time  |  max time  |%varavg| %total
---------------------------------------------------------------
Pair    | 0.73833    | 2.0478     | 2.6652     |  38.5 | 72.46
Neigh   | 1.2128e-05 | 0.0029448  | 0.0042911  |   2.2 |  0.10
Comm    | 0.047686   | 0.46014    | 1.3867     |  57.0 | 16.28
Output  | 0          | 0          | 0          |   0.0 |  0.00
Modify  | 2.8044e-05 | 0.0040012  | 0.0085838  |   3.0 |  0.14
Other   |            | 0.3114     |            |       | 11.02

Nlocal:        2776.45 ave        3960 max           0 min
Histogram: 8 4 4 0 4 12 8 2 28 34
Nghost:        3879.06 ave        5425 max         232 min
Histogram: 8 0 8 0 16 0 8 8 16 40
Neighs:        79213.5 ave      115429 max           0 min
Histogram: 8 4 4 0 10 6 8 8 24 32

Total # of neighbors = 8238199
Ave neighs/atom = 28.530461
Neighbor list builds = 1
Dangerous builds = 1
The dot product: 2.15301308545911e-06
Setting atom values ...
  1 settings made for x
  1 settings made for y
  1 settings made for z
Setting up cg style minimization ...
  Unit style    : metal
  Current step  : 2639
Per MPI rank memory allocation (min/avg/max) = 5.441 | 5.816 | 6.074 Mbytes
Step PotEng KinEng TotEng v_fx v_fy v_fz 
    2639   -1152448.9            0   -1152448.9  0.034425704   0.11599172 -0.003034991 
    2851   -1152448.9            0   -1152448.9 -1.549748e-05 1.102609e-07 2.1004079e-06 
Loop time of 2.45183 on 104 procs for 212 steps with 288751 atoms

99.9% CPU use with 104 MPI tasks x 1 OpenMP threads

Minimization stats:
  Stopping criterion = energy tolerance
  Energy initial, next-to-last, final = 
      -1152448.9150328  -1152448.91918458  -1152448.91918458
  Force two-norm initial, final = 0.21108285 0.00012050163
  Force max component initial, final = 0.11599172 1.5857360e-05
  Final line search alpha, max atom move = 1.0000000 1.5857360e-05
  Iterations, force evaluations = 212 424

MPI task timing breakdown:
Section |  min time  |  avg time  |  max time  |%varavg| %total
---------------------------------------------------------------
Pair    | 0.63995    | 1.7739     | 2.313      |  35.9 | 72.35
Neigh   | 0          | 0          | 0          |   0.0 |  0.00
Comm    | 0.040395   | 0.39463    | 1.1891     |  53.2 | 16.10
Output  | 0          | 0          | 0          |   0.0 |  0.00
Modify  | 2.4887e-05 | 0.0034935  | 0.0074629  |   2.8 |  0.14
Other   |            | 0.2798     |            |       | 11.41

Nlocal:        2776.45 ave        3961 max           0 min
Histogram: 8 4 4 0 6 10 8 2 28 34
Nghost:        3879.07 ave        5425 max         232 min
Histogram: 8 0 8 0 16 0 8 8 16 40
Neighs:        79213.4 ave      115452 max           0 min
Histogram: 8 4 4 0 10 6 8 8 24 32

Total # of neighbors = 8238197
Ave neighs/atom = 28.530454
Neighbor list builds = 0
Dangerous builds = 0
The dot product: -3.89340431529537e-07
Setting atom values ...
  1 settings made for x
  1 settings made for y
  1 settings made for z
Setting up cg style minimization ...
  Unit style    : metal
  Current step  : 2851
Per MPI rank memory allocation (min/avg/max) = 5.441 | 5.816 | 6.074 Mbytes
Step PotEng KinEng TotEng v_fx v_fy v_fz 
    2851   -1152448.9            0   -1152448.9 -0.038709238  0.054392483 0.0074026817 
    3000   -1152448.9            0   -1152448.9 -6.0447507e-05 9.6773503e-06 4.2842725e-06 
    3070   -1152448.9            0   -1152448.9 -1.2216872e-06 4.6610352e-08 7.218644e-08 
Loop time of 2.54567 on 104 procs for 219 steps with 288751 atoms

99.9% CPU use with 104 MPI tasks x 1 OpenMP threads

Minimization stats:
  Stopping criterion = energy tolerance
  Energy initial, next-to-last, final = 
     -1152448.90789611  -1152448.90990338  -1152448.90990338
  Force two-norm initial, final = 0.19015745 4.8953514e-05
  Force max component initial, final = 0.087574817 4.8165339e-06
  Final line search alpha, max atom move = 1.0000000 4.8165339e-06
  Iterations, force evaluations = 219 438

MPI task timing breakdown:
Section |  min time  |  avg time  |  max time  |%varavg| %total
---------------------------------------------------------------
Pair    | 0.66276    | 1.8481     | 2.4118     |  36.7 | 72.60
Neigh   | 0          | 0          | 0          |   0.0 |  0.00
Comm    | 0.043899   | 0.41066    | 1.242      |  54.3 | 16.13
Output  | 0.00014134 | 0.00014968 | 0.00028311 |   0.0 |  0.01
Modify  | 2.6338e-05 | 0.0036052  | 0.007682   |   2.8 |  0.14
Other   |            | 0.2831     |            |       | 11.12

Nlocal:        2776.45 ave        3961 max           0 min
Histogram: 8 4 4 0 6 10 8 2 28 34
Nghost:        3879.09 ave        5426 max         232 min
Histogram: 8 0 8 0 16 0 8 8 16 40
Neighs:        79213.4 ave      115461 max           0 min
Histogram: 8 4 4 0 10 6 8 8 24 32

Total # of neighbors = 8238196
Ave neighs/atom = 28.530450
Neighbor list builds = 0
Dangerous builds = 0
The dot product: -8.32301298877591e-09
Setting atom values ...
  1 settings made for x
  1 settings made for y
  1 settings made for z
Setting up cg style minimization ...
  Unit style    : metal
  Current step  : 3070
Per MPI rank memory allocation (min/avg/max) = 5.441 | 5.816 | 6.074 Mbytes
Step PotEng KinEng TotEng v_fx v_fy v_fz 
    3070   -1152448.9            0   -1152448.9 -0.063871794  0.030669367 0.0059873948 
    3230   -1152448.9            0   -1152448.9 3.3111991e-05 -4.9440072e-06 -1.741944e-06 
Loop time of 1.8551 on 104 procs for 160 steps with 288751 atoms

99.9% CPU use with 104 MPI tasks x 1 OpenMP threads

Minimization stats:
  Stopping criterion = energy tolerance
  Energy initial, next-to-last, final = 
     -1152448.89711162  -1152448.89893161  -1152448.89893161
  Force two-norm initial, final = 0.1930723 0.00022764238
  Force max component initial, final = 0.086146418 3.9488059e-05
  Final line search alpha, max atom move = 1.0000000 3.9488059e-05
  Iterations, force evaluations = 160 320

MPI task timing breakdown:
Section |  min time  |  avg time  |  max time  |%varavg| %total
---------------------------------------------------------------
Pair    | 0.48412    | 1.3415     | 1.7503     |  31.3 | 72.32
Neigh   | 0          | 0          | 0          |   0.0 |  0.00
Comm    | 0.028086   | 0.29878    | 0.89918    |  46.3 | 16.11
Output  | 0          | 0          | 0          |   0.0 |  0.00
Modify  | 1.9467e-05 | 0.0026396  | 0.0056452  |   2.4 |  0.14
Other   |            | 0.2122     |            |       | 11.44

Nlocal:        2776.45 ave        3961 max           0 min
Histogram: 8 4 4 0 6 10 8 3 27 34
Nghost:        3879.12 ave        5426 max         232 min
Histogram: 8 0 8 0 16 0 8 8 16 40
Neighs:        79213.4 ave      115461 max           0 min
Histogram: 8 4 4 0 10 6 8 8 24 32

Total # of neighbors = 8238198
Ave neighs/atom = 28.530457
Neighbor list builds = 0
Dangerous builds = 0
The dot product: 2.55380971572578e-08
Setting atom values ...
  1 settings made for x
  1 settings made for y
  1 settings made for z
Setting up cg style minimization ...
  Unit style    : metal
  Current step  : 3230
Per MPI rank memory allocation (min/avg/max) = 5.441 | 5.816 | 6.074 Mbytes
Step PotEng KinEng TotEng v_fx v_fy v_fz 
    3230   -1152448.9            0   -1152448.9 -0.072944603  0.020552463 0.0049703226 
    3388   -1152448.9            0   -1152448.9 -6.1977375e-06 2.0829371e-06 4.6730749e-07 
Loop time of 1.83444 on 104 procs for 158 steps with 288751 atoms

99.9% CPU use with 104 MPI tasks x 1 OpenMP threads

Minimization stats:
  Stopping criterion = energy tolerance
  Energy initial, next-to-last, final = 
      -1152448.8847308  -1152448.88659538  -1152448.88659538
  Force two-norm initial, final = 0.19545358 0.00025243395
  Force max component initial, final = 0.086400556 1.8632204e-05
  Final line search alpha, max atom move = 1.0000000 1.8632204e-05
  Iterations, force evaluations = 158 316

MPI task timing breakdown:
Section |  min time  |  avg time  |  max time  |%varavg| %total
---------------------------------------------------------------
Pair    | 0.47743    | 1.332      | 1.7351     |  31.0 | 72.61
Neigh   | 0          | 0          | 0          |   0.0 |  0.00
Comm    | 0.029766   | 0.29766    | 0.90243    |  46.2 | 16.23
Output  | 0          | 0          | 0          |   0.0 |  0.00
Modify  | 1.8385e-05 | 0.0026086  | 0.0055758  |   2.4 |  0.14
Other   |            | 0.2021     |            |       | 11.02

Nlocal:        2776.45 ave        3961 max           0 min
Histogram: 8 4 4 0 6 10 8 4 26 34
Nghost:        3879.12 ave        5426 max         232 min
Histogram: 8 0 8 0 16 0 8 8 16 40
Neighs:        79213.4 ave      115443 max           0 min
Histogram: 8 4 4 0 10 6 8 8 24 32

Total # of neighbors = 8238198
Ave neighs/atom = 28.530457
Neighbor list builds = 0
Dangerous builds = 0
The dot product: -2.64311431008481e-09
Setting atom values ...
  1 settings made for x
  1 settings made for y
  1 settings made for z
Setting up cg style minimization ...
  Unit style    : metal
  Current step  : 3388
Per MPI rank memory allocation (min/avg/max) = 5.441 | 5.816 | 6.074 Mbytes
Step PotEng KinEng TotEng v_fx v_fy v_fz 
    3388   -1152448.9            0   -1152448.9 -0.074053093  0.015639234 0.0042379592 
    3567   -1152448.9            0   -1152448.9 7.1568541e-06 -1.3759428e-06 -3.9109578e-07 
Loop time of 2.06452 on 104 procs for 179 steps with 288751 atoms

99.9% CPU use with 104 MPI tasks x 1 OpenMP threads

Minimization stats:
  Stopping criterion = energy tolerance
  Energy initial, next-to-last, final = 
     -1152448.87113276  -1152448.87354013  -1152448.87354013
  Force two-norm initial, final = 0.19606654 4.6972110e-05
  Force max component initial, final = 0.086813608 7.1568541e-06
  Final line search alpha, max atom move = 1.0000000 7.1568541e-06
  Iterations, force evaluations = 179 358

MPI task timing breakdown:
Section |  min time  |  avg time  |  max time  |%varavg| %total
---------------------------------------------------------------
Pair    | 0.54005    | 1.4985     | 1.9578     |  33.0 | 72.58
Neigh   | 0          | 0          | 0          |   0.0 |  0.00
Comm    | 0.03179    | 0.33414    | 1.0025     |  48.9 | 16.18
Output  | 0          | 0          | 0          |   0.0 |  0.00
Modify  | 2.1047e-05 | 0.002948   | 0.0063025  |   2.6 |  0.14
Other   |            | 0.2289     |            |       | 11.09

Nlocal:        2776.45 ave        3961 max           0 min
Histogram: 8 4 4 0 6 10 8 4 26 34
Nghost:        3879.12 ave        5426 max         232 min
Histogram: 8 0 8 0 16 0 8 8 16 40
Neighs:        79213.4 ave      115457 max           0 min
Histogram: 8 4 4 0 10 6 8 8 24 32

Total # of neighbors = 8238194
Ave neighs/atom = 28.530443
Neighbor list builds = 0
Dangerous builds = 0
The dot product: 1.18901076450587e-07
Setting atom values ...
  1 settings made for x
  1 settings made for y
  1 settings made for z
Setting up cg style minimization ...
  Unit style    : metal
  Current step  : 3567
Per MPI rank memory allocation (min/avg/max) = 5.441 | 5.816 | 6.074 Mbytes
Step PotEng KinEng TotEng v_fx v_fy v_fz 
    3567   -1152448.9            0   -1152448.9  -0.05073952  0.014680391 0.0013098621 
    3764   -1152448.9            0   -1152448.9 7.8175173e-06 -2.2748666e-06 -2.0358799e-07 
Loop time of 2.27598 on 104 procs for 197 steps with 288751 atoms

99.9% CPU use with 104 MPI tasks x 1 OpenMP threads

Minimization stats:
  Stopping criterion = energy tolerance
  Energy initial, next-to-last, final = 
      -1152448.8578269  -1152448.86025243  -1152448.86025243
  Force two-norm initial, final = 0.19224009 0.00011720371
  Force max component initial, final = 0.084634377 1.7073422e-05
  Final line search alpha, max atom move = 1.0000000 1.7073422e-05
  Iterations, force evaluations = 197 394

MPI task timing breakdown:
Section |  min time  |  avg time  |  max time  |%varavg| %total
---------------------------------------------------------------
Pair    | 0.59565    | 1.6621     | 2.1579     |  34.7 | 73.03
Neigh   | 0          | 0          | 0          |   0.0 |  0.00
Comm    | 0.040862   | 0.36882    | 1.1158     |  51.9 | 16.20
Output  | 0          | 0          | 0          |   0.0 |  0.00
Modify  | 2.2537e-05 | 0.003249   | 0.006932   |   2.7 |  0.14
Other   |            | 0.2418     |            |       | 10.63

Nlocal:        2776.45 ave        3961 max           0 min
Histogram: 8 4 4 0 6 10 8 4 26 34
Nghost:        3879.09 ave        5426 max         232 min
Histogram: 8 0 8 0 16 0 8 8 16 40
Neighs:        79213.4 ave      115447 max           0 min
Histogram: 8 4 4 0 10 6 8 8 24 32

Total # of neighbors = 8238194
Ave neighs/atom = 28.530443
Neighbor list builds = 0
Dangerous builds = 0
The dot product: 1.24367411703578e-07
Setting atom values ...
  1 settings made for x
  1 settings made for y
  1 settings made for z
Setting up cg style minimization ...
  Unit style    : metal
  Current step  : 3764
Per MPI rank memory allocation (min/avg/max) = 5.441 | 5.816 | 6.074 Mbytes
Step PotEng KinEng TotEng v_fx v_fy v_fz 
    3764   -1152448.8            0   -1152448.8 -0.052955753  0.012609685 -0.0010254043 
    3970   -1152448.8            0   -1152448.8 -1.5125224e-05 2.7120559e-06 -4.1156803e-07 
Loop time of 2.38891 on 104 procs for 206 steps with 288751 atoms

99.9% CPU use with 104 MPI tasks x 1 OpenMP threads

Minimization stats:
  Stopping criterion = energy tolerance
  Energy initial, next-to-last, final = 
     -1152448.84349788   -1152448.8455775   -1152448.8455775
  Force two-norm initial, final = 0.19589425 9.4976566e-05
  Force max component initial, final = 0.08869553 1.5125224e-05
  Final line search alpha, max atom move = 1.0000000 1.5125224e-05
  Iterations, force evaluations = 206 412

MPI task timing breakdown:
Section |  min time  |  avg time  |  max time  |%varavg| %total
---------------------------------------------------------------
Pair    | 0.62312    | 1.7289     | 2.2603     |  35.5 | 72.37
Neigh   | 0          | 0          | 0          |   0.0 |  0.00
Comm    | 0.039031   | 0.38723    | 1.1612     |  52.5 | 16.21
Output  | 0          | 0          | 0          |   0.0 |  0.00
Modify  | 2.3734e-05 | 0.0033967  | 0.0072527  |   2.7 |  0.14
Other   |            | 0.2694     |            |       | 11.28

Nlocal:        2776.45 ave        3961 max           0 min
Histogram: 8 4 4 0 6 10 8 4 26 34
Nghost:        3879.07 ave        5426 max         232 min
Histogram: 8 0 8 0 16 0 8 8 16 40
Neighs:        79213.4 ave      115447 max           0 min
Histogram: 8 4 4 0 10 6 8 8 24 32

Total # of neighbors = 8238192
Ave neighs/atom = 28.530436
Neighbor list builds = 0
Dangerous builds = 0
The dot product: -1.7099082952676e-07
Setting atom values ...
  1 settings made for x
  1 settings made for y
  1 settings made for z
Setting up cg style minimization ...
  Unit style    : metal
  Current step  : 3970
Per MPI rank memory allocation (min/avg/max) = 5.441 | 5.816 | 6.074 Mbytes
Step PotEng KinEng TotEng v_fx v_fy v_fz 
    3970   -1152448.8            0   -1152448.8 -0.060256902  0.010037769 -0.0033066411 
    4000   -1152448.8            0   -1152448.8 -0.00082954667 0.00011760212 -4.8171434e-05 
    4147   -1152448.8            0   -1152448.8 2.613771e-05 -5.8408034e-06 1.2429849e-06 
Loop time of 2.04699 on 104 procs for 177 steps with 288751 atoms

99.9% CPU use with 104 MPI tasks x 1 OpenMP threads

Minimization stats:
  Stopping criterion = energy tolerance
  Energy initial, next-to-last, final = 
     -1152448.82745043  -1152448.82961233  -1152448.82961233
  Force two-norm initial, final = 0.1999635 0.00020099999
  Force max component initial, final = 0.093244775 5.1100138e-05
  Final line search alpha, max atom move = 1.0000000 5.1100138e-05
  Iterations, force evaluations = 177 354

MPI task timing breakdown:
Section |  min time  |  avg time  |  max time  |%varavg| %total
---------------------------------------------------------------
Pair    | 0.53303    | 1.4936     | 1.9408     |  33.0 | 72.97
Neigh   | 0          | 0          | 0          |   0.0 |  0.00
Comm    | 0.035409   | 0.33313    | 1.0067     |  49.2 | 16.27
Output  | 9.5378e-05 | 0.00010187 | 0.00018927 |   0.0 |  0.00
Modify  | 2.027e-05  | 0.0029237  | 0.0062525  |   2.6 |  0.14
Other   |            | 0.2172     |            |       | 10.61

Nlocal:        2776.45 ave        3961 max           0 min
Histogram: 8 4 4 0 6 10 8 4 26 34
Nghost:        3879.01 ave        5425 max         232 min
Histogram: 8 0 8 0 16 0 8 8 16 40
Neighs:        79213.4 ave      115446 max           0 min
Histogram: 8 4 4 0 10 6 8 8 24 32

Total # of neighbors = 8238191
Ave neighs/atom = 28.530433
Neighbor list builds = 0
Dangerous builds = 0
The dot product: 2.82898765061261e-07
Setting atom values ...
  1 settings made for x
  1 settings made for y
  1 settings made for z
Setting up cg style minimization ...
  Unit style    : metal
  Current step  : 4147
Per MPI rank memory allocation (min/avg/max) = 5.441 | 5.816 | 6.074 Mbytes
Step PotEng KinEng TotEng v_fx v_fy v_fz 
    4147   -1152448.8            0   -1152448.8 -0.061774717 0.0077957394 -0.0051475283 
    4323   -1152448.8            0   -1152448.8 -2.3303291e-05 7.2308459e-06 -1.4161683e-06 
Loop time of 2.04101 on 104 procs for 176 steps with 288751 atoms

99.9% CPU use with 104 MPI tasks x 1 OpenMP threads

Minimization stats:
  Stopping criterion = energy tolerance
  Energy initial, next-to-last, final = 
     -1152448.81022735  -1152448.81225658  -1152448.81225658
  Force two-norm initial, final = 0.20216772 0.00015141771
  Force max component initial, final = 0.09735881 2.3303291e-05
  Final line search alpha, max atom move = 1.0000000 2.3303291e-05
  Iterations, force evaluations = 176 352

MPI task timing breakdown:
Section |  min time  |  avg time  |  max time  |%varavg| %total
---------------------------------------------------------------
Pair    | 0.53235    | 1.4799     | 1.9288     |  32.9 | 72.51
Neigh   | 0          | 0          | 0          |   0.0 |  0.00
Comm    | 0.032418   | 0.33031    | 0.99465    |  48.8 | 16.18
Output  | 0          | 0          | 0          |   0.0 |  0.00
Modify  | 2.0894e-05 | 0.0028992  | 0.0062     |   2.5 |  0.14
Other   |            | 0.2279     |            |       | 11.17

Nlocal:        2776.45 ave        3960 max           0 min
Histogram: 8 4 4 0 4 12 8 4 26 34
Nghost:        3879.05 ave        5425 max         232 min
Histogram: 8 0 8 0 16 0 8 8 16 40
Neighs:        79213.4 ave      115416 max           0 min
Histogram: 8 4 4 0 10 6 8 8 24 32

Total # of neighbors = 8238192
Ave neighs/atom = 28.530436
Neighbor list builds = 0
Dangerous builds = 0
The dot product: -1.45148559290209e-07
Setting atom values ...
  1 settings made for x
  1 settings made for y
  1 settings made for z
Setting up cg style minimization ...
  Unit style    : metal
  Current step  : 4323
Per MPI rank memory allocation (min/avg/max) = 5.441 | 5.816 | 6.074 Mbytes
Step PotEng KinEng TotEng v_fx v_fy v_fz 
    4323   -1152448.8            0   -1152448.8 -0.070652747 0.0083251588 -0.0068278753 
    4510   -1152448.8            0   -1152448.8 3.6009613e-07 1.4847095e-06 2.1496627e-07 
Loop time of 2.16822 on 104 procs for 187 steps with 288751 atoms

99.9% CPU use with 104 MPI tasks x 1 OpenMP threads

Minimization stats:
  Stopping criterion = energy tolerance
  Energy initial, next-to-last, final = 
     -1152448.79148272  -1152448.79346549  -1152448.79346549
  Force two-norm initial, final = 0.20601538 9.2150736e-05
  Force max component initial, final = 0.099648144 2.6537886e-05
  Final line search alpha, max atom move = 1.0000000 2.6537886e-05
  Iterations, force evaluations = 187 374

MPI task timing breakdown:
Section |  min time  |  avg time  |  max time  |%varavg| %total
---------------------------------------------------------------
Pair    | 0.56417    | 1.5704     | 2.0437     |  33.8 | 72.43
Neigh   | 0          | 0          | 0          |   0.0 |  0.00
Comm    | 0.036624   | 0.34916    | 1.0509     |  49.8 | 16.10
Output  | 0          | 0          | 0          |   0.0 |  0.00
Modify  | 2.2175e-05 | 0.0030845  | 0.0065779  |   2.6 |  0.14
Other   |            | 0.2455     |            |       | 11.32

Nlocal:        2776.45 ave        3960 max           0 min
Histogram: 8 4 4 0 4 12 8 4 26 34
Nghost:        3879.05 ave        5425 max         232 min
Histogram: 8 0 8 0 16 0 8 8 16 40
Neighs:        79213.4 ave      115407 max           0 min
Histogram: 8 4 4 0 10 6 8 8 24 32

Total # of neighbors = 8238190
Ave neighs/atom = 28.530429
Neighbor list builds = 0
Dangerous builds = 0
The dot product: -1.90477187095836e-09
Setting atom values ...
  1 settings made for x
  1 settings made for y
  1 settings made for z
Setting up cg style minimization ...
  Unit style    : metal
  Current step  : 4510
Per MPI rank memory allocation (min/avg/max) = 5.441 | 5.816 | 6.074 Mbytes
Step PotEng KinEng TotEng v_fx v_fy v_fz 
    4510   -1152448.8            0   -1152448.8 -0.077523148 0.0085786697 -0.0079163262 
    4683   -1152448.8            0   -1152448.8 2.2973039e-05 -4.6012344e-06 2.1104578e-06 
Loop time of 1.9996 on 104 procs for 173 steps with 288751 atoms

99.9% CPU use with 104 MPI tasks x 1 OpenMP threads

Minimization stats:
  Stopping criterion = energy tolerance
  Energy initial, next-to-last, final = 
       -1152448.771281  -1152448.77317137  -1152448.77317137
  Force two-norm initial, final = 0.20859582 0.00010354943
  Force max component initial, final = 0.10043122 3.5995258e-05
  Final line search alpha, max atom move = 1.0000000 3.5995258e-05
  Iterations, force evaluations = 173 346

MPI task timing breakdown:
Section |  min time  |  avg time  |  max time  |%varavg| %total
---------------------------------------------------------------
Pair    | 0.52253    | 1.4499     | 1.8924     |  32.5 | 72.51
Neigh   | 0          | 0          | 0          |   0.0 |  0.00
Comm    | 0.030506   | 0.32337    | 0.97218    |  48.0 | 16.17
Output  | 0          | 0          | 0          |   0.0 |  0.00
Modify  | 2.0179e-05 | 0.0028503  | 0.0060991  |   2.5 |  0.14
Other   |            | 0.2235     |            |       | 11.18

Nlocal:        2776.45 ave        3960 max           0 min
Histogram: 8 4 4 0 4 12 8 4 26 34
Nghost:        3879.01 ave        5425 max         232 min
Histogram: 8 0 8 0 16 0 8 8 16 40
Neighs:        79213.4 ave      115407 max           0 min
Histogram: 8 4 4 0 10 6 8 8 24 32

Total # of neighbors = 8238189
Ave neighs/atom = 28.530426
Neighbor list builds = 0
Dangerous builds = 0
The dot product: -2.83398027666503e-08
Setting atom values ...
  1 settings made for x
  1 settings made for y
  1 settings made for z
Setting up cg style minimization ...
  Unit style    : metal
  Current step  : 4683
Per MPI rank memory allocation (min/avg/max) = 5.441 | 5.816 | 6.074 Mbytes
Step PotEng KinEng TotEng v_fx v_fy v_fz 
    4683   -1152448.7            0   -1152448.7  -0.08447487  0.008312831 -0.0085105645 
    4831   -1152448.8            0   -1152448.8 -4.9560838e-05 6.3167535e-06 -4.8336338e-06 
Loop time of 1.72108 on 104 procs for 148 steps with 288751 atoms

99.9% CPU use with 104 MPI tasks x 1 OpenMP threads

Minimization stats:
  Stopping criterion = energy tolerance
  Energy initial, next-to-last, final = 
     -1152448.74948649  -1152448.75134772  -1152448.75134772
  Force two-norm initial, final = 0.2106133 0.00021587985
  Force max component initial, final = 0.099842421 9.3846854e-05
  Final line search alpha, max atom move = 1.0000000 9.3846854e-05
  Iterations, force evaluations = 148 296

MPI task timing breakdown:
Section |  min time  |  avg time  |  max time  |%varavg| %total
---------------------------------------------------------------
Pair    | 0.44695    | 1.2474     | 1.6283     |  30.1 | 72.48
Neigh   | 0          | 0          | 0          |   0.0 |  0.00
Comm    | 0.031254   | 0.27826    | 0.84216    |  44.5 | 16.17
Output  | 0          | 0          | 0          |   0.0 |  0.00
Modify  | 1.7441e-05 | 0.0024437  | 0.0052465  |   2.3 |  0.14
Other   |            | 0.193      |            |       | 11.21

Nlocal:        2776.45 ave        3960 max           0 min
Histogram: 8 4 4 0 4 12 8 4 26 34
Nghost:        3879.05 ave        5425 max         232 min
Histogram: 8 0 8 0 16 0 8 8 16 40
Neighs:        79213.3 ave      115408 max           0 min
Histogram: 8 4 4 0 10 6 8 8 24 32

Total # of neighbors = 8238188
Ave neighs/atom = 28.530422
Neighbor list builds = 0
Dangerous builds = 0
The dot product: 1.85136771302262e-07
Setting atom values ...
  1 settings made for x
  1 settings made for y
  1 settings made for z
Setting up cg style minimization ...
  Unit style    : metal
  Current step  : 4831
Per MPI rank memory allocation (min/avg/max) = 5.441 | 5.816 | 6.074 Mbytes
Step PotEng KinEng TotEng v_fx v_fy v_fz 
    4831   -1152448.7            0   -1152448.7 -0.088874735 0.0082666976 -0.0083732182 
    4985   -1152448.7            0   -1152448.7 -1.7990646e-05 9.0149129e-07 -1.7776032e-06 
Loop time of 1.79728 on 104 procs for 154 steps with 288751 atoms

99.9% CPU use with 104 MPI tasks x 1 OpenMP threads

Minimization stats:
  Stopping criterion = energy tolerance
  Energy initial, next-to-last, final = 
     -1152448.72616341  -1152448.72800328  -1152448.72800328
  Force two-norm initial, final = 0.21135033 0.00016156275
  Force max component initial, final = 0.098475231 2.9803006e-05
  Final line search alpha, max atom move = 1.0000000 2.9803006e-05
  Iterations, force evaluations = 154 308

MPI task timing breakdown:
Section |  min time  |  avg time  |  max time  |%varavg| %total
---------------------------------------------------------------
Pair    | 0.46479    | 1.294      | 1.6883     |  30.8 | 72.00
Neigh   | 0          | 0          | 0          |   0.0 |  0.00
Comm    | 0.030674   | 0.29161    | 0.86981    |  44.8 | 16.23
Output  | 0          | 0          | 0          |   0.0 |  0.00
Modify  | 1.8189e-05 | 0.0025407  | 0.005433   |   2.4 |  0.14
Other   |            | 0.2091     |            |       | 11.63

Nlocal:        2776.45 ave        3960 max           0 min
Histogram: 8 4 4 0 4 12 8 4 26 34
Nghost:        3879.05 ave        5425 max         232 min
Histogram: 8 0 8 0 16 0 8 8 16 40
Neighs:        79213.3 ave      115409 max           0 min
Histogram: 8 4 4 0 10 6 8 8 24 32

Total # of neighbors = 8238186
Ave neighs/atom = 28.530415
Neighbor list builds = 0
Dangerous builds = 0
The dot product: 9.6494383103509e-08
Setting atom values ...
  1 settings made for x
  1 settings made for y
  1 settings made for z
Setting up cg style minimization ...
  Unit style    : metal
  Current step  : 4985
Per MPI rank memory allocation (min/avg/max) = 5.441 | 5.816 | 6.074 Mbytes
Step PotEng KinEng TotEng v_fx v_fy v_fz 
    4985   -1152448.7            0   -1152448.7 -0.091140293 0.0088622481 -0.0076789906 
    5000   -1152448.7            0   -1152448.7 0.0001142719 -0.00040957274 -3.1555659e-05 
    5220   -1152448.7            0   -1152448.7 -6.0542756e-06 9.5255343e-07 -4.7249426e-07 
Loop time of 2.74763 on 104 procs for 235 steps with 288751 atoms

99.9% CPU use with 104 MPI tasks x 1 OpenMP threads

Minimization stats:
  Stopping criterion = energy tolerance
  Energy initial, next-to-last, final = 
     -1152448.70134195  -1152448.70315365  -1152448.70315365
  Force two-norm initial, final = 0.21091164 1.4949752e-05
  Force max component initial, final = 0.096314895 6.0542756e-06
  Final line search alpha, max atom move = 1.0000000 6.0542756e-06
  Iterations, force evaluations = 235 470

MPI task timing breakdown:
Section |  min time  |  avg time  |  max time  |%varavg| %total
---------------------------------------------------------------
Pair    | 0.71005    | 1.9864     | 2.5946     |  38.1 | 72.30
Neigh   | 0          | 0          | 0          |   0.0 |  0.00
Comm    | 0.044932   | 0.4455     | 1.3445     |  56.3 | 16.21
Output  | 0.00014297 | 0.00015129 | 0.00022759 |   0.0 |  0.01
Modify  | 2.816e-05  | 0.0038731  | 0.0083112  |   2.9 |  0.14
Other   |            | 0.3117     |            |       | 11.34

Nlocal:        2776.45 ave        3960 max           0 min
Histogram: 8 4 4 0 4 12 8 4 26 34
Nghost:        3879.05 ave        5425 max         232 min
Histogram: 8 0 8 0 16 0 8 8 16 40
Neighs:        79213.3 ave      115402 max           0 min
Histogram: 8 4 4 0 10 6 8 8 24 32

Total # of neighbors = 8238188
Ave neighs/atom = 28.530422
Neighbor list builds = 0
Dangerous builds = 0
The dot product: 3.68793540856093e-08
Setting atom values ...
  1 settings made for x
  1 settings made for y
  1 settings made for z
Setting up cg style minimization ...
  Unit style    : metal
  Current step  : 5220
Per MPI rank memory allocation (min/avg/max) = 5.441 | 5.816 | 6.074 Mbytes
Step PotEng KinEng TotEng v_fx v_fy v_fz 
    5220   -1152448.7            0   -1152448.7 -0.091949524  0.010341363 -0.0066132155 
    5371   -1152448.7            0   -1152448.7 1.3520638e-05 -3.709158e-06 7.5390578e-07 
Loop time of 1.75018 on 104 procs for 151 steps with 288751 atoms

99.9% CPU use with 104 MPI tasks x 1 OpenMP threads

Minimization stats:
  Stopping criterion = energy tolerance
  Energy initial, next-to-last, final = 
     -1152448.67504408  -1152448.67682046  -1152448.67682046
  Force two-norm initial, final = 0.20979978 0.00018883706
  Force max component initial, final = 0.093782814 2.3325420e-05
  Final line search alpha, max atom move = 1.0000000 2.3325420e-05
  Iterations, force evaluations = 151 302

MPI task timing breakdown:
Section |  min time  |  avg time  |  max time  |%varavg| %total
---------------------------------------------------------------
Pair    | 0.45567    | 1.2651     | 1.6581     |  30.4 | 72.28
Neigh   | 0          | 0          | 0          |   0.0 |  0.00
Comm    | 0.027744   | 0.28251    | 0.85045    |  44.8 | 16.14
Output  | 0          | 0          | 0          |   0.0 |  0.00
Modify  | 1.7342e-05 | 0.0024905  | 0.0053162  |   2.4 |  0.14
Other   |            | 0.2001     |            |       | 11.43

Nlocal:        2776.45 ave        3960 max           0 min
Histogram: 8 4 4 0 4 12 8 4 26 34
Nghost:        3879.11 ave        5426 max         232 min
Histogram: 8 0 8 0 16 0 8 8 16 40
Neighs:        79213.3 ave      115406 max           0 min
Histogram: 8 4 4 0 10 6 8 8 24 32

Total # of neighbors = 8238186
Ave neighs/atom = 28.530415
Neighbor list builds = 0
Dangerous builds = 0
The dot product: -8.85054387597868e-08
Setting atom values ...
  1 settings made for x
  1 settings made for y
  1 settings made for z
Setting up cg style minimization ...
  Unit style    : metal
  Current step  : 5371
Per MPI rank memory allocation (min/avg/max) = 5.441 | 5.816 | 6.074 Mbytes
Step PotEng KinEng TotEng v_fx v_fy v_fz 
    5371   -1152448.6            0   -1152448.6 -0.091541714  0.012873937 -0.0052821766 
    5526   -1152448.6            0   -1152448.6 5.6667352e-05 -8.727323e-06 3.1964823e-06 
Loop time of 1.82042 on 104 procs for 155 steps with 288751 atoms

99.9% CPU use with 104 MPI tasks x 1 OpenMP threads

Minimization stats:
  Stopping criterion = energy tolerance
  Energy initial, next-to-last, final = 
     -1152448.64729643  -1152448.64903158  -1152448.64903158
  Force two-norm initial, final = 0.20823126 0.00017942633
  Force max component initial, final = 0.091541714 8.1929272e-05
  Final line search alpha, max atom move = 1.0000000 8.1929272e-05
  Iterations, force evaluations = 155 310

MPI task timing breakdown:
Section |  min time  |  avg time  |  max time  |%varavg| %total
---------------------------------------------------------------
Pair    | 0.46894    | 1.3083     | 1.7032     |  30.8 | 71.87
Neigh   | 0          | 0          | 0          |   0.0 |  0.00
Comm    | 0.036175   | 0.29395    | 0.88094    |  45.8 | 16.15
Output  | 0          | 0          | 0          |   0.0 |  0.00
Modify  | 1.8277e-05 | 0.0025594  | 0.0054734  |   2.4 |  0.14
Other   |            | 0.2156     |            |       | 11.85

Nlocal:        2776.45 ave        3960 max           0 min
Histogram: 8 4 4 0 4 12 8 4 26 34
Nghost:        3879.07 ave        5426 max         232 min
Histogram: 8 0 8 0 16 0 8 8 16 40
Neighs:        79213.3 ave      115414 max           0 min
Histogram: 8 4 4 0 10 6 8 8 24 32

Total # of neighbors = 8238188
Ave neighs/atom = 28.530422
Neighbor list builds = 0
Dangerous builds = 0
The dot product: -4.11247387704913e-07
Setting atom values ...
  1 settings made for x
  1 settings made for y
  1 settings made for z
Setting up cg style minimization ...
  Unit style    : metal
  Current step  : 5526
Per MPI rank memory allocation (min/avg/max) = 5.441 | 5.816 | 6.074 Mbytes
Step PotEng KinEng TotEng v_fx v_fy v_fz 
    5526   -1152448.6            0   -1152448.6 -0.089929416  0.016712263 -0.0037422754 
    5682   -1152448.6            0   -1152448.6 5.8212661e-05 -8.2263194e-06 2.6673557e-06 
Loop time of 1.83749 on 104 procs for 156 steps with 288751 atoms

99.9% CPU use with 104 MPI tasks x 1 OpenMP threads

Minimization stats:
  Stopping criterion = energy tolerance
  Energy initial, next-to-last, final = 
     -1152448.61813193  -1152448.61982253  -1152448.61982253
  Force two-norm initial, final = 0.20634083 0.00017568568
  Force max component initial, final = 0.089929416 8.3549395e-05
  Final line search alpha, max atom move = 1.0000000 8.3549395e-05
  Iterations, force evaluations = 156 312

MPI task timing breakdown:
Section |  min time  |  avg time  |  max time  |%varavg| %total
---------------------------------------------------------------
Pair    | 0.47115    | 1.3145     | 1.7183     |  31.1 | 71.54
Neigh   | 0          | 0          | 0          |   0.0 |  0.00
Comm    | 0.031866   | 0.29766    | 0.88063    |  45.3 | 16.20
Output  | 0          | 0          | 0          |   0.0 |  0.00
Modify  | 1.7845e-05 | 0.0025722  | 0.0055048  |   2.4 |  0.14
Other   |            | 0.2228     |            |       | 12.13

Nlocal:        2776.45 ave        3960 max           0 min
Histogram: 8 4 4 0 4 12 8 4 26 34
Nghost:        3879.05 ave        5426 max         232 min
Histogram: 8 0 8 0 16 0 8 8 16 40
Neighs:        79213.3 ave      115415 max           0 min
Histogram: 8 4 4 0 10 6 8 8 24 32

Total # of neighbors = 8238188
Ave neighs/atom = 28.530422
Neighbor list builds = 0
Dangerous builds = 0
The dot product: -4.47935674305075e-07
Setting atom values ...
  1 settings made for x
  1 settings made for y
  1 settings made for z
Setting up cg style minimization ...
  Unit style    : metal
  Current step  : 5682
Per MPI rank memory allocation (min/avg/max) = 5.441 | 5.816 | 6.074 Mbytes
Step PotEng KinEng TotEng v_fx v_fy v_fz 
    5682   -1152448.6            0   -1152448.6 -0.087273518  0.021831241 -0.0020550678 
    5845   -1152448.6            0   -1152448.6 -4.827082e-05 4.4687636e-06 -1.8478837e-06 
Loop time of 1.8836 on 104 procs for 163 steps with 288751 atoms

99.9% CPU use with 104 MPI tasks x 1 OpenMP threads

Minimization stats:
  Stopping criterion = energy tolerance
  Energy initial, next-to-last, final = 
      -1152448.5875947  -1152448.58924276  -1152448.58924276
  Force two-norm initial, final = 0.20441007 0.00013009329
  Force max component initial, final = 0.087273518 4.8270820e-05
  Final line search alpha, max atom move = 1.0000000 4.8270820e-05
  Iterations, force evaluations = 163 326

MPI task timing breakdown:
Section |  min time  |  avg time  |  max time  |%varavg| %total
---------------------------------------------------------------
Pair    | 0.49362    | 1.3731     | 1.7863     |  31.6 | 72.90
Neigh   | 0          | 0          | 0          |   0.0 |  0.00
Comm    | 0.03732    | 0.30714    | 0.93796    |  46.7 | 16.31
Output  | 0          | 0          | 0          |   0.0 |  0.00
Modify  | 1.8627e-05 | 0.0026851  | 0.0057333  |   2.4 |  0.14
Other   |            | 0.2007     |            |       | 10.65

Nlocal:        2776.45 ave        3960 max           0 min
Histogram: 8 4 4 0 4 12 8 4 26 34
Nghost:        3879.09 ave        5426 max         232 min
Histogram: 8 0 8 0 16 0 8 8 16 40
Neighs:        79213.3 ave      115415 max           0 min
Histogram: 8 4 4 0 10 6 8 8 24 32

Total # of neighbors = 8238187
Ave neighs/atom = 28.530419
Neighbor list builds = 0
Dangerous builds = 0
The dot product: 3.91636633316617e-07
Setting atom values ...
  1 settings made for x
  1 settings made for y
  1 settings made for z
Setting up cg style minimization ...
  Unit style    : metal
  Current step  : 5845
Per MPI rank memory allocation (min/avg/max) = 5.441 | 5.816 | 6.074 Mbytes
Step PotEng KinEng TotEng v_fx v_fy v_fz 
    5845   -1152448.6            0   -1152448.6 -0.083658866  0.028138357 -0.00023621533 
    6000   -1152448.6            0   -1152448.6 -2.9869885e-05 1.3510852e-06 -9.0819284e-07 
    6082   -1152448.6            0   -1152448.6 3.0528167e-06 -1.2492969e-07 9.4067281e-08 
Loop time of 2.73786 on 104 procs for 237 steps with 288751 atoms

99.9% CPU use with 104 MPI tasks x 1 OpenMP threads

Minimization stats:
  Stopping criterion = energy tolerance
  Energy initial, next-to-last, final = 
     -1152448.55579019    -1152448.557405    -1152448.557405
  Force two-norm initial, final = 0.20243227 1.0985800e-05
  Force max component initial, final = 0.087702056 3.0528167e-06
  Final line search alpha, max atom move = 1.0000000 3.0528167e-06
  Iterations, force evaluations = 237 474

MPI task timing breakdown:
Section |  min time  |  avg time  |  max time  |%varavg| %total
---------------------------------------------------------------
Pair    | 0.71354    | 1.9865     | 2.5928     |  38.1 | 72.56
Neigh   | 0          | 0          | 0          |   0.0 |  0.00
Comm    | 0.042322   | 0.44239    | 1.3345     |  56.5 | 16.16
Output  | 0.00010009 | 0.00010254 | 0.0002258  |   0.0 |  0.00
Modify  | 2.7167e-05 | 0.0039058  | 0.0083147  |   2.9 |  0.14
Other   |            | 0.305      |            |       | 11.14

Nlocal:        2776.45 ave        3960 max           0 min
Histogram: 8 4 4 0 4 12 8 4 26 34
Nghost:        3879.09 ave        5426 max         232 min
Histogram: 8 0 8 0 16 0 8 8 16 40
Neighs:        79213.4 ave      115415 max           0 min
Histogram: 8 4 4 0 10 6 8 8 24 32

Total # of neighbors = 8238192
Ave neighs/atom = 28.530436
Neighbor list builds = 0
Dangerous builds = 0
The dot product: -2.68520325846477e-08
Setting atom values ...
  1 settings made for x
  1 settings made for y
  1 settings made for z
Setting up cg style minimization ...
  Unit style    : metal
  Current step  : 6082
Per MPI rank memory allocation (min/avg/max) = 5.441 | 5.816 | 6.074 Mbytes
Step PotEng KinEng TotEng v_fx v_fy v_fz 
    6082   -1152448.5            0   -1152448.5 -0.079259031  0.046736221 0.0029997584 
    6398   -1152448.6            0   -1152448.6 1.4317799e-05 -3.251728e-06 -1.5451896e-08 
Loop time of 3.64934 on 104 procs for 316 steps with 288751 atoms

99.9% CPU use with 104 MPI tasks x 1 OpenMP threads

Minimization stats:
  Stopping criterion = energy tolerance
  Energy initial, next-to-last, final = 
     -1152448.52302064  -1152448.61387159  -1152448.61387159
  Force two-norm initial, final = 0.20366494 6.3019269e-05
  Force max component initial, final = 0.089452757 2.4807497e-05
  Final line search alpha, max atom move = 1.0000000 2.4807497e-05
  Iterations, force evaluations = 316 631

MPI task timing breakdown:
Section |  min time  |  avg time  |  max time  |%varavg| %total
---------------------------------------------------------------
Pair    | 0.96217    | 2.6537     | 3.447      |  43.6 | 72.72
Neigh   | 3.0458e-05 | 0.0088749  | 0.012851   |   3.9 |  0.24
Comm    | 0.063709   | 0.58803    | 1.7926     |  65.3 | 16.11
Output  | 0          | 0          | 0          |   0.0 |  0.00
Modify  | 3.5427e-05 | 0.0051968  | 0.011068   |   3.4 |  0.14
Other   |            | 0.3935     |            |       | 10.78

Nlocal:        2776.45 ave        3960 max           0 min
Histogram: 8 4 4 0 4 12 8 4 26 34
Nghost:        3879.11 ave        5427 max         232 min
Histogram: 8 0 8 0 16 0 8 8 16 40
Neighs:        79213.4 ave      115415 max           0 min
Histogram: 8 4 4 0 10 6 8 8 24 32

Total # of neighbors = 8238190
Ave neighs/atom = 28.530429
Neighbor list builds = 3
Dangerous builds = 0
The dot product: -1.6051419398859e-06
Setting atom values ...
  1 settings made for x
  1 settings made for y
  1 settings made for z
Setting up cg style minimization ...
  Unit style    : metal
  Current step  : 6398
Per MPI rank memory allocation (min/avg/max) = 5.441 | 5.816 | 6.074 Mbytes
Step PotEng KinEng TotEng v_fx v_fy v_fz 
    6398   -1152448.6            0   -1152448.6 -0.083637622   0.13931152  0.084635135 
    6693     -1152449            0     -1152449 5.1778522e-06 2.1762268e-05 1.2549296e-05 
Loop time of 3.42493 on 104 procs for 295 steps with 288751 atoms

99.9% CPU use with 104 MPI tasks x 1 OpenMP threads

Minimization stats:
  Stopping criterion = energy tolerance
  Energy initial, next-to-last, final = 
     -1152448.60725057  -1152448.99940778  -1152448.99940778
  Force two-norm initial, final = 0.23114971 0.00011001529
  Force max component initial, final = 0.13931152 2.8810448e-05
  Final line search alpha, max atom move = 1.0000000 2.8810448e-05
  Iterations, force evaluations = 295 589

MPI task timing breakdown:
Section |  min time  |  avg time  |  max time  |%varavg| %total
---------------------------------------------------------------
Pair    | 0.90976    | 2.4689     | 3.2102     |  41.9 | 72.09
Neigh   | 6.0815e-05 | 0.017755   | 0.025746   |   5.5 |  0.52
Comm    | 0.054105   | 0.55008    | 1.6489     |  62.6 | 16.06
Output  | 0          | 0          | 0          |   0.0 |  0.00
Modify  | 3.5621e-05 | 0.0048491  | 0.010339   |   3.3 |  0.14
Other   |            | 0.3834     |            |       | 11.19

Nlocal:        2776.45 ave        3961 max           0 min
Histogram: 8 4 4 0 6 10 8 2 28 34
Nghost:        3879.12 ave        5426 max         232 min
Histogram: 8 0 8 0 16 0 8 8 16 40
Neighs:        79213.6 ave      115464 max           0 min
Histogram: 8 4 4 0 10 6 8 8 24 32

Total # of neighbors = 8238217
Ave neighs/atom = 28.530523
Neighbor list builds = 6
Dangerous builds = 0
The dot product: 7.28461358692064e-06
Setting atom values ...
  1 settings made for x
  1 settings made for y
  1 settings made for z
Setting up cg style minimization ...
  Unit style    : metal
  Current step  : 6693
Per MPI rank memory allocation (min/avg/max) = 5.441 | 5.816 | 6.074 Mbytes
Step PotEng KinEng TotEng v_fx v_fy v_fz 
    6693     -1152449            0     -1152449   0.58538344  -0.10915581  -0.80904682 
    6955   -1152449.2            0   -1152449.2 -1.8875247e-05 -1.4222883e-05 -1.3747311e-06 
Loop time of 3.05298 on 104 procs for 262 steps with 288751 atoms

99.9% CPU use with 104 MPI tasks x 1 OpenMP threads

Minimization stats:
  Stopping criterion = energy tolerance
  Energy initial, next-to-last, final = 
      -1152449.0229767  -1152449.18270114  -1152449.18270114
  Force two-norm initial, final = 1.0162354 0.00012766353
  Force max component initial, final = 0.80904682 3.1940078e-05
  Final line search alpha, max atom move = 1.0000000 3.1940078e-05
  Iterations, force evaluations = 262 524

MPI task timing breakdown:
Section |  min time  |  avg time  |  max time  |%varavg| %total
---------------------------------------------------------------
Pair    | 0.79727    | 2.217      | 2.8713     |  40.0 | 72.62
Neigh   | 2.0207e-05 | 0.0059225  | 0.0084893  |   3.2 |  0.19
Comm    | 0.052945   | 0.49363    | 1.4866     |  59.6 | 16.17
Output  | 0          | 0          | 0          |   0.0 |  0.00
Modify  | 2.9671e-05 | 0.0043145  | 0.0092306  |   3.1 |  0.14
Other   |            | 0.3321     |            |       | 10.88

Nlocal:        2776.45 ave        3940 max           0 min
Histogram: 8 4 4 0 4 12 8 2 26 36
Nghost:        3879.10 ave        5424 max         232 min
Histogram: 8 0 8 0 16 0 8 8 16 40
Neighs:        79213.5 ave      114789 max           0 min
Histogram: 8 4 4 0 10 6 8 8 22 34

Total # of neighbors = 8238205
Ave neighs/atom = 28.530481
Neighbor list builds = 2
Dangerous builds = 0
The dot product: -3.96199117404624e-06
Setting atom values ...
  1 settings made for x
  1 settings made for y
  1 settings made for z
Setting up cg style minimization ...
  Unit style    : metal
  Current step  : 6955
Per MPI rank memory allocation (min/avg/max) = 5.441 | 5.816 | 6.074 Mbytes
Step PotEng KinEng TotEng v_fx v_fy v_fz 
    6955   -1152449.2            0   -1152449.2   -0.3609133  0.088645681    0.2456387 
    7000   -1152449.2            0   -1152449.2 -0.00050776311 -0.0026126235 -0.0025233565 
    7187   -1152449.2            0   -1152449.2 8.0138811e-06 1.7352641e-05 1.4795598e-05 
Loop time of 2.67911 on 104 procs for 232 steps with 288751 atoms

99.9% CPU use with 104 MPI tasks x 1 OpenMP threads

Minimization stats:
  Stopping criterion = energy tolerance
  Energy initial, next-to-last, final = 
     -1152449.20662157   -1152449.2323962   -1152449.2323962
  Force two-norm initial, final = 0.47624832 0.00012070085
  Force max component initial, final = 0.3609133 3.0436753e-05
  Final line search alpha, max atom move = 1.0000000 3.0436753e-05
  Iterations, force evaluations = 232 464

MPI task timing breakdown:
Section |  min time  |  avg time  |  max time  |%varavg| %total
---------------------------------------------------------------
Pair    | 0.70323    | 1.9433     | 2.5346     |  37.6 | 72.54
Neigh   | 1.0157e-05 | 0.0029666  | 0.0042972  |   2.2 |  0.11
Comm    | 0.046074   | 0.4336     | 1.3036     |  55.6 | 16.18
Output  | 9.107e-05  | 9.9318e-05 | 0.00021067 |   0.0 |  0.00
Modify  | 2.8103e-05 | 0.0038133  | 0.0081484  |   2.9 |  0.14
Other   |            | 0.2953     |            |       | 11.02

Nlocal:        2776.45 ave        3934 max           0 min
Histogram: 8 4 4 0 4 12 8 0 28 36
Nghost:        3879.20 ave        5426 max         232 min
Histogram: 8 0 8 0 16 0 8 8 16 40
Neighs:        79213.4 ave      114608 max           0 min
Histogram: 8 4 4 0 8 8 8 8 20 36

Total # of neighbors = 8238196
Ave neighs/atom = 28.530450
Neighbor list builds = 1
Dangerous builds = 0
The dot product: 3.01416643654804e-07
Setting atom values ...
  1 settings made for x
  1 settings made for y
  1 settings made for z
Setting up cg style minimization ...
  Unit style    : metal
  Current step  : 7187
Per MPI rank memory allocation (min/avg/max) = 5.441 | 5.816 | 6.074 Mbytes
Step PotEng KinEng TotEng v_fx v_fy v_fz 
    7187   -1152449.3            0   -1152449.3  0.081754575 -0.0019576795 -0.052509059 
    7398   -1152449.3            0   -1152449.3 -9.760937e-06 -1.9370885e-05 -1.6518705e-05 
Loop time of 2.44205 on 104 procs for 211 steps with 288751 atoms

99.9% CPU use with 104 MPI tasks x 1 OpenMP threads

Minimization stats:
  Stopping criterion = energy tolerance
  Energy initial, next-to-last, final = 
     -1152449.25381206  -1152449.25822352  -1152449.25822352
  Force two-norm initial, final = 0.18603818 0.00012953397
  Force max component initial, final = 0.088052217 2.4416554e-05
  Final line search alpha, max atom move = 1.0000000 2.4416554e-05
  Iterations, force evaluations = 211 422

MPI task timing breakdown:
Section |  min time  |  avg time  |  max time  |%varavg| %total
---------------------------------------------------------------
Pair    | 0.63693    | 1.7792     | 2.309      |  36.0 | 72.86
Neigh   | 0          | 0          | 0          |   0.0 |  0.00
Comm    | 0.040257   | 0.39593    | 1.2015     |  53.7 | 16.21
Output  | 0          | 0          | 0          |   0.0 |  0.00
Modify  | 2.4218e-05 | 0.0034763  | 0.0074262  |   2.8 |  0.14
Other   |            | 0.2634     |            |       | 10.79

Nlocal:        2776.45 ave        3933 max           0 min
Histogram: 8 4 4 0 4 12 8 0 26 38
Nghost:        3879.16 ave        5426 max         232 min
Histogram: 8 0 8 0 16 0 8 8 16 40
Neighs:        79213.5 ave      114586 max           0 min
Histogram: 8 4 4 0 8 8 8 8 20 36

Total # of neighbors = 8238205
Ave neighs/atom = 28.530481
Neighbor list builds = 0
Dangerous builds = 0
The dot product: 8.47806020387621e-09
Setting atom values ...
  1 settings made for x
  1 settings made for y
  1 settings made for z
Setting up cg style minimization ...
  Unit style    : metal
  Current step  : 7398
Per MPI rank memory allocation (min/avg/max) = 5.441 | 5.816 | 6.074 Mbytes
Step PotEng KinEng TotEng v_fx v_fy v_fz 
    7398   -1152449.3            0   -1152449.3 -0.063868933 0.0071654608  0.042798775 
    7573   -1152449.3            0   -1152449.3 -2.1680365e-05 -2.1205331e-05 -1.2091154e-05 
Loop time of 2.01106 on 104 procs for 175 steps with 288751 atoms

99.9% CPU use with 104 MPI tasks x 1 OpenMP threads

Minimization stats:
  Stopping criterion = energy tolerance
  Energy initial, next-to-last, final = 
     -1152449.27870586  -1152449.28030314  -1152449.28030314
  Force two-norm initial, final = 0.17863653 0.00014051647
  Force max component initial, final = 0.089182609 2.7597521e-05
  Final line search alpha, max atom move = 1.0000000 2.7597521e-05
  Iterations, force evaluations = 175 350

MPI task timing breakdown:
Section |  min time  |  avg time  |  max time  |%varavg| %total
---------------------------------------------------------------
Pair    | 0.52488    | 1.4655     | 1.9041     |  32.8 | 72.87
Neigh   | 0          | 0          | 0          |   0.0 |  0.00
Comm    | 0.032391   | 0.3255     | 0.98486    |  48.8 | 16.19
Output  | 0          | 0          | 0          |   0.0 |  0.00
Modify  | 2.1342e-05 | 0.0028843  | 0.0062145  |   2.5 |  0.14
Other   |            | 0.2172     |            |       | 10.80

Nlocal:        2776.45 ave        3933 max           0 min
Histogram: 8 4 4 0 4 12 8 0 26 38
Nghost:        3879.16 ave        5426 max         232 min
Histogram: 8 0 8 0 16 0 8 8 16 40
Neighs:        79213.5 ave      114586 max           0 min
Histogram: 8 4 4 0 8 8 8 8 20 36

Total # of neighbors = 8238201
Ave neighs/atom = 28.530467
Neighbor list builds = 0
Dangerous builds = 0
The dot product: 1.47519838825542e-07
Setting atom values ...
  1 settings made for x
  1 settings made for y
  1 settings made for z
Setting up cg style minimization ...
  Unit style    : metal
  Current step  : 7573
Per MPI rank memory allocation (min/avg/max) = 5.441 | 5.816 | 6.074 Mbytes
Step PotEng KinEng TotEng v_fx v_fy v_fz 
    7573   -1152449.3            0   -1152449.3 -0.018629142 0.0073497544  0.018758456 
    7753   -1152449.3            0   -1152449.3 6.5244796e-06 -1.2235963e-05 -1.7515913e-05 
Loop time of 2.0722 on 104 procs for 180 steps with 288751 atoms

99.9% CPU use with 104 MPI tasks x 1 OpenMP threads

Minimization stats:
  Stopping criterion = energy tolerance
  Energy initial, next-to-last, final = 
      -1152449.2993363  -1152449.30077857  -1152449.30077857
  Force two-norm initial, final = 0.16258011 0.00013285983
  Force max component initial, final = 0.089124118 2.4581485e-05
  Final line search alpha, max atom move = 1.0000000 2.4581485e-05
  Iterations, force evaluations = 180 360

MPI task timing breakdown:
Section |  min time  |  avg time  |  max time  |%varavg| %total
---------------------------------------------------------------
Pair    | 0.54043    | 1.5131     | 1.957      |  33.2 | 73.02
Neigh   | 0          | 0          | 0          |   0.0 |  0.00
Comm    | 0.036844   | 0.33638    | 1.0256     |  49.5 | 16.23
Output  | 0          | 0          | 0          |   0.0 |  0.00
Modify  | 2.1664e-05 | 0.0029707  | 0.0063356  |   2.6 |  0.14
Other   |            | 0.2198     |            |       | 10.60

Nlocal:        2776.45 ave        3933 max           0 min
Histogram: 8 4 4 0 4 12 8 0 26 38
Nghost:        3879.16 ave        5426 max         232 min
Histogram: 8 0 8 0 16 0 8 8 16 40
Neighs:        79213.5 ave      114587 max           0 min
Histogram: 8 4 4 0 8 8 8 8 20 36

Total # of neighbors = 8238202
Ave neighs/atom = 28.530471
Neighbor list builds = 0
Dangerous builds = 0
The dot product: 6.2510489437889e-08
Setting atom values ...
  1 settings made for x
  1 settings made for y
  1 settings made for z
Setting up cg style minimization ...
  Unit style    : metal
  Current step  : 7753
Per MPI rank memory allocation (min/avg/max) = 5.441 | 5.816 | 6.074 Mbytes
Step PotEng KinEng TotEng v_fx v_fy v_fz 
    7753   -1152449.3            0   -1152449.3 -0.031102976 0.0079852621  0.026206267 
    7913   -1152449.3            0   -1152449.3 2.1403396e-05 6.8997525e-06 -4.0292263e-06 
Loop time of 1.83839 on 104 procs for 160 steps with 288751 atoms

99.9% CPU use with 104 MPI tasks x 1 OpenMP threads

Minimization stats:
  Stopping criterion = energy tolerance
  Energy initial, next-to-last, final = 
     -1152449.31847228  -1152449.31988201  -1152449.31988201
  Force two-norm initial, final = 0.16580107 0.00022874475
  Force max component initial, final = 0.089167553 2.1403396e-05
  Final line search alpha, max atom move = 1.0000000 2.1403396e-05
  Iterations, force evaluations = 160 320

MPI task timing breakdown:
Section |  min time  |  avg time  |  max time  |%varavg| %total
---------------------------------------------------------------
Pair    | 0.48086    | 1.3412     | 1.7426     |  31.3 | 72.96
Neigh   | 0          | 0          | 0          |   0.0 |  0.00
Comm    | 0.029439   | 0.29802    | 0.90177    |  46.6 | 16.21
Output  | 0          | 0          | 0          |   0.0 |  0.00
Modify  | 1.8351e-05 | 0.0026414  | 0.0056179  |   2.4 |  0.14
Other   |            | 0.1965     |            |       | 10.69

Nlocal:        2776.45 ave        3934 max           0 min
Histogram: 8 4 4 0 4 12 8 0 28 36
Nghost:        3879.20 ave        5426 max         232 min
Histogram: 8 0 8 0 16 0 8 8 16 40
Neighs:        79213.5 ave      114612 max           0 min
Histogram: 8 4 4 0 8 8 8 8 20 36

Total # of neighbors = 8238199
Ave neighs/atom = 28.530461
Neighbor list builds = 0
Dangerous builds = 0
The dot product: 2.00087394025603e-08
Setting atom values ...
  1 settings made for x
  1 settings made for y
  1 settings made for z
Setting up cg style minimization ...
  Unit style    : metal
  Current step  : 7913
Per MPI rank memory allocation (min/avg/max) = 5.441 | 5.816 | 6.074 Mbytes
Step PotEng KinEng TotEng v_fx v_fy v_fz 
    7913   -1152449.3            0   -1152449.3  -0.02852494 0.0091198757  0.026019089 
    8000   -1152449.3            0   -1152449.3 -0.00012064229 -9.1322578e-05 -3.6657566e-05 
    8075   -1152449.3            0   -1152449.3 -3.0383654e-05 -4.4428514e-06 1.172566e-05 
Loop time of 1.86129 on 104 procs for 162 steps with 288751 atoms

99.9% CPU use with 104 MPI tasks x 1 OpenMP threads

Minimization stats:
  Stopping criterion = energy tolerance
  Energy initial, next-to-last, final = 
     -1152449.33623803  -1152449.33766314  -1152449.33766314
  Force two-norm initial, final = 0.16566995 0.00021897885
  Force max component initial, final = 0.089153966 3.0383654e-05
  Final line search alpha, max atom move = 1.0000000 3.0383654e-05
  Iterations, force evaluations = 162 324

MPI task timing breakdown:
Section |  min time  |  avg time  |  max time  |%varavg| %total
---------------------------------------------------------------
Pair    | 0.48665    | 1.3647     | 1.7625     |  31.6 | 73.32
Neigh   | 0          | 0          | 0          |   0.0 |  0.00
Comm    | 0.034449   | 0.3046     | 0.93585    |  46.9 | 16.36
Output  | 9.7776e-05 | 0.00010368 | 0.00023104 |   0.0 |  0.01
Modify  | 1.8589e-05 | 0.0026817  | 0.0062421  |   2.5 |  0.14
Other   |            | 0.1892     |            |       | 10.17

Nlocal:        2776.45 ave        3941 max           0 min
Histogram: 8 4 4 0 4 12 8 2 26 36
Nghost:        3879.20 ave        5426 max         232 min
Histogram: 8 0 8 0 16 0 8 8 16 40
Neighs:        79213.5 ave      114829 max           0 min
Histogram: 8 4 4 0 10 6 8 8 22 34

Total # of neighbors = 8238200
Ave neighs/atom = 28.530464
Neighbor list builds = 0
Dangerous builds = 0
The dot product: -6.92717957952129e-08
Setting atom values ...
  1 settings made for x
  1 settings made for y
  1 settings made for z
Setting up cg style minimization ...
  Unit style    : metal
  Current step  : 8075
Per MPI rank memory allocation (min/avg/max) = 5.441 | 5.816 | 6.074 Mbytes
Step PotEng KinEng TotEng v_fx v_fy v_fz 
    8075   -1152449.4            0   -1152449.4 -0.029762114 0.0099167156  0.027499626 
[...]
Histogram: 8 0 8 0 16 0 8 8 16 40
Neighs:        79213.4 ave      114208 max           0 min
Histogram: 8 4 4 0 8 8 8 8 18 38

Total # of neighbors = 8238196
Ave neighs/atom = 28.530450
Neighbor list builds = 0
Dangerous builds = 0
The dot product: -6.39086171499306e-08
Setting atom values ...
  1 settings made for x
  1 settings made for y
  1 settings made for z
Setting up cg style minimization ...
  Unit style    : metal
  Current step  : 28260
Per MPI rank memory allocation (min/avg/max) = 5.441 | 5.816 | 6.074 Mbytes
Step PotEng KinEng TotEng v_fx v_fy v_fz 
   28260   -1152449.4            0   -1152449.4 0.0017876823  -0.03140822 -0.033922253 
   28455   -1152449.4            0   -1152449.4 1.4003544e-06 1.3137287e-05 1.2774194e-05 
Loop time of 2.25032 on 104 procs for 195 steps with 288751 atoms

99.9% CPU use with 104 MPI tasks x 1 OpenMP threads

Minimization stats:
  Stopping criterion = energy tolerance
  Energy initial, next-to-last, final = 
     -1152449.40853039  -1152449.41000476  -1152449.41000476
  Force two-norm initial, final = 0.17738132 8.9496044e-05
  Force max component initial, final = 0.082328772 1.3137287e-05
  Final line search alpha, max atom move = 1.0000000 1.3137287e-05
  Iterations, force evaluations = 195 390

MPI task timing breakdown:
Section |  min time  |  avg time  |  max time  |%varavg| %total
---------------------------------------------------------------
Pair    | 0.58943    | 1.6309     | 2.1162     |  34.6 | 72.47
Neigh   | 0          | 0          | 0          |   0.0 |  0.00
Comm    | 0.047424   | 0.3686     | 1.0964     |  50.4 | 16.38
Output  | 0          | 0          | 0          |   0.0 |  0.00
Modify  | 2.348e-05  | 0.0032123  | 0.0068644  |   2.7 |  0.14
Other   |            | 0.2476     |            |       | 11.00

Nlocal:        2776.45 ave        3931 max           0 min
Histogram: 8 4 4 0 4 12 8 4 22 38
Nghost:        3879.70 ave        5430 max         232 min
Histogram: 8 0 8 0 16 0 8 8 16 40
Neighs:        79213.4 ave      114183 max           0 min
Histogram: 8 4 4 0 8 8 8 8 18 38

Total # of neighbors = 8238194
Ave neighs/atom = 28.530443
Neighbor list builds = 0
Dangerous builds = 0
The dot product: -3.33373740016513e-08
Setting atom values ...
  1 settings made for x
  1 settings made for y
  1 settings made for z
Setting up cg style minimization ...
  Unit style    : metal
  Current step  : 28455
Per MPI rank memory allocation (min/avg/max) = 5.441 | 5.816 | 6.074 Mbytes
Step PotEng KinEng TotEng v_fx v_fy v_fz 
   28455   -1152449.4            0   -1152449.4 -0.0016564454 -0.030435191 -0.030681472 
   28642   -1152449.4            0   -1152449.4 -1.443143e-05 -1.2447595e-05 -3.4806237e-06 
Loop time of 2.15016 on 104 procs for 187 steps with 288751 atoms

99.9% CPU use with 104 MPI tasks x 1 OpenMP threads

Minimization stats:
  Stopping criterion = energy tolerance
  Energy initial, next-to-last, final = 
     -1152449.41181035  -1152449.41331266  -1152449.41331266
  Force two-norm initial, final = 0.1775784 0.00011789517
  Force max component initial, final = 0.081728901 1.4431430e-05
  Final line search alpha, max atom move = 1.0000000 1.4431430e-05
  Iterations, force evaluations = 187 374

MPI task timing breakdown:
Section |  min time  |  avg time  |  max time  |%varavg| %total
---------------------------------------------------------------
Pair    | 0.56594    | 1.5663     | 2.0285     |  33.9 | 72.84
Neigh   | 0          | 0          | 0          |   0.0 |  0.00
Comm    | 0.033952   | 0.35098    | 1.0543     |  49.7 | 16.32
Output  | 0          | 0          | 0          |   0.0 |  0.00
Modify  | 2.1817e-05 | 0.0030783  | 0.0065593  |   2.6 |  0.14
Other   |            | 0.2298     |            |       | 10.69

Nlocal:        2776.45 ave        3931 max           0 min
Histogram: 8 4 4 0 4 12 8 4 22 38
Nghost:        3879.66 ave        5430 max         232 min
Histogram: 8 0 8 0 16 0 8 8 16 40
Neighs:        79213.4 ave      114187 max           0 min
Histogram: 8 4 4 0 8 8 8 8 18 38

Total # of neighbors = 8238197
Ave neighs/atom = 28.530454
Neighbor list builds = 0
Dangerous builds = 0
The dot product: 2.4047828318312e-08
Setting atom values ...
  1 settings made for x
  1 settings made for y
  1 settings made for z
Setting up cg style minimization ...
  Unit style    : metal
  Current step  : 28642
Per MPI rank memory allocation (min/avg/max) = 5.441 | 5.816 | 6.074 Mbytes
Step PotEng KinEng TotEng v_fx v_fy v_fz 
   28642   -1152449.4            0   -1152449.4 0.0056504406 -0.030312375 -0.035402916 
   28848   -1152449.4            0   -1152449.4 9.0300956e-06 5.491059e-06 -2.1538925e-07 
Loop time of 2.36965 on 104 procs for 206 steps with 288751 atoms

99.9% CPU use with 104 MPI tasks x 1 OpenMP threads

Minimization stats:
  Stopping criterion = energy tolerance
  Energy initial, next-to-last, final = 
     -1152449.41334048  -1152449.41486737  -1152449.41486737
  Force two-norm initial, final = 0.17864402 7.2989966e-05
  Force max component initial, final = 0.081157624 9.6856742e-06
  Final line search alpha, max atom move = 1.0000000 9.6856742e-06
  Iterations, force evaluations = 206 412

MPI task timing breakdown:
Section |  min time  |  avg time  |  max time  |%varavg| %total
---------------------------------------------------------------
Pair    | 0.62311    | 1.7305     | 2.2453     |  35.7 | 73.03
Neigh   | 0          | 0          | 0          |   0.0 |  0.00
Comm    | 0.036978   | 0.38668    | 1.1645     |  52.2 | 16.32
Output  | 0          | 0          | 0          |   0.0 |  0.00
Modify  | 2.4478e-05 | 0.0033914  | 0.0072652  |   2.8 |  0.14
Other   |            | 0.2491     |            |       | 10.51

Nlocal:        2776.45 ave        3931 max           0 min
Histogram: 8 4 4 0 4 12 8 4 22 38
Nghost:        3879.64 ave        5430 max         232 min
Histogram: 8 0 8 0 16 0 8 8 16 40
Neighs:        79213.4 ave      114180 max           0 min
Histogram: 8 4 4 0 8 8 8 8 18 38

Total # of neighbors = 8238197
Ave neighs/atom = 28.530454
Neighbor list builds = 0
Dangerous builds = 0
The dot product: -2.13619933777458e-10
Setting atom values ...
  1 settings made for x
  1 settings made for y
  1 settings made for z
Setting up cg style minimization ...
  Unit style    : metal
  Current step  : 28848
Per MPI rank memory allocation (min/avg/max) = 5.441 | 5.816 | 6.074 Mbytes
Step PotEng KinEng TotEng v_fx v_fy v_fz 
   28848   -1152449.4            0   -1152449.4  0.013617594 -0.031420644 -0.041865513 
   29000   -1152449.4            0   -1152449.4 5.660477e-05 -2.8007382e-05 -6.666994e-05 
   29082   -1152449.4            0   -1152449.4 8.9788677e-07 -1.4967287e-06 -2.1587757e-06 
Loop time of 2.67291 on 104 procs for 234 steps with 288751 atoms

99.9% CPU use with 104 MPI tasks x 1 OpenMP threads

Minimization stats:
  Stopping criterion = energy tolerance
  Energy initial, next-to-last, final = 
     -1152449.41306873  -1152449.41462543  -1152449.41462543
  Force two-norm initial, final = 0.1808484 1.9086252e-05
  Force max component initial, final = 0.080390242 2.1587757e-06
  Final line search alpha, max atom move = 1.0000000 2.1587757e-06
  Iterations, force evaluations = 234 468

MPI task timing breakdown:
Section |  min time  |  avg time  |  max time  |%varavg| %total
---------------------------------------------------------------
Pair    | 0.7091     | 1.9583     | 2.5301     |  37.8 | 73.26
Neigh   | 0          | 0          | 0          |   0.0 |  0.00
Comm    | 0.042635   | 0.43659    | 1.3208     |  55.8 | 16.33
Output  | 0.0001416  | 0.00014924 | 0.00031805 |   0.0 |  0.01
Modify  | 2.7985e-05 | 0.0038516  | 0.0082458  |   2.9 |  0.14
Other   |            | 0.274      |            |       | 10.25

Nlocal:        2776.45 ave        3931 max           0 min
Histogram: 8 4 4 0 4 12 8 4 22 38
Nghost:        3879.70 ave        5430 max         232 min
Histogram: 8 0 8 0 16 0 8 8 16 40
Neighs:        79213.5 ave      114180 max           0 min
Histogram: 8 4 4 0 8 8 8 8 18 38

Total # of neighbors = 8238199
Ave neighs/atom = 28.530461
Neighbor list builds = 0
Dangerous builds = 0
The dot product: 9.36612820854398e-09
Setting atom values ...
  1 settings made for x
  1 settings made for y
  1 settings made for z
Setting up cg style minimization ...
  Unit style    : metal
  Current step  : 29082
Per MPI rank memory allocation (min/avg/max) = 5.441 | 5.816 | 6.074 Mbytes
Step PotEng KinEng TotEng v_fx v_fy v_fz 
   29082   -1152449.4            0   -1152449.4  0.014652834 -0.032403313 -0.043672757 
   29262   -1152449.4            0   -1152449.4 4.0428314e-06 7.8338553e-07 -1.8552353e-06 
Loop time of 2.05887 on 104 procs for 180 steps with 288751 atoms

99.9% CPU use with 104 MPI tasks x 1 OpenMP threads

Minimization stats:
  Stopping criterion = energy tolerance
  Energy initial, next-to-last, final = 
     -1152449.41114679  -1152449.41269913  -1152449.41269913
  Force two-norm initial, final = 0.1807856 0.00015215556
  Force max component initial, final = 0.079475215 1.1714893e-05
  Final line search alpha, max atom move = 1.0000000 1.1714893e-05
  Iterations, force evaluations = 180 360

MPI task timing breakdown:
Section |  min time  |  avg time  |  max time  |%varavg| %total
---------------------------------------------------------------
Pair    | 0.54467    | 1.5061     | 1.9461     |  33.2 | 73.15
Neigh   | 0          | 0          | 0          |   0.0 |  0.00
Comm    | 0.031181   | 0.33576    | 1.018      |  49.1 | 16.31
Output  | 0          | 0          | 0          |   0.0 |  0.00
Modify  | 2.1438e-05 | 0.0029614  | 0.0063392  |   2.6 |  0.14
Other   |            | 0.214      |            |       | 10.39

Nlocal:        2776.45 ave        3931 max           0 min
Histogram: 8 4 4 0 4 12 8 4 22 38
Nghost:        3879.72 ave        5431 max         232 min
Histogram: 8 0 8 0 16 0 8 8 16 40
Neighs:        79213.5 ave      114181 max           0 min
Histogram: 8 4 4 0 8 8 8 8 18 38

Total # of neighbors = 8238203
Ave neighs/atom = 28.530474
Neighbor list builds = 0
Dangerous builds = 0
The dot product: 1.41535808682388e-08
Setting atom values ...
  1 settings made for x
  1 settings made for y
  1 settings made for z
Setting up cg style minimization ...
  Unit style    : metal
  Current step  : 29262
Per MPI rank memory allocation (min/avg/max) = 5.441 | 5.816 | 6.074 Mbytes
Step PotEng KinEng TotEng v_fx v_fy v_fz 
   29262   -1152449.4            0   -1152449.4  0.011932721  -0.03301937 -0.042624049 
   29450   -1152449.4            0   -1152449.4 2.7513559e-05 -4.867345e-06 -2.3392314e-05 
Loop time of 2.1468 on 104 procs for 188 steps with 288751 atoms

99.9% CPU use with 104 MPI tasks x 1 OpenMP threads

Minimization stats:
  Stopping criterion = energy tolerance
  Energy initial, next-to-last, final = 
     -1152449.40757936  -1152449.40909607  -1152449.40909607
  Force two-norm initial, final = 0.17872471 0.00012437139
  Force max component initial, final = 0.078503193 2.7513559e-05
  Final line search alpha, max atom move = 1.0000000 2.7513559e-05
  Iterations, force evaluations = 188 376

MPI task timing breakdown:
Section |  min time  |  avg time  |  max time  |%varavg| %total
---------------------------------------------------------------
Pair    | 0.57022    | 1.5733     | 2.0333     |  33.9 | 73.29
Neigh   | 0          | 0          | 0          |   0.0 |  0.00
Comm    | 0.032941   | 0.35122    | 1.0635     |  49.9 | 16.36
Output  | 0          | 0          | 0          |   0.0 |  0.00
Modify  | 2.1626e-05 | 0.0030968  | 0.0066238  |   2.6 |  0.14
Other   |            | 0.2191     |            |       | 10.21

Nlocal:        2776.45 ave        3932 max           0 min
Histogram: 8 4 4 0 4 12 8 4 22 38
Nghost:        3879.62 ave        5430 max         232 min
Histogram: 8 0 8 0 16 0 8 8 16 40
Neighs:        79213.5 ave      114216 max           0 min
Histogram: 8 4 4 0 8 8 8 8 18 38

Total # of neighbors = 8238200
Ave neighs/atom = 28.530464
Neighbor list builds = 0
Dangerous builds = 0
The dot product: 1.31239625903439e-07
Setting atom values ...
  1 settings made for x
  1 settings made for y
  1 settings made for z
Setting up cg style minimization ...
  Unit style    : metal
  Current step  : 29450
Per MPI rank memory allocation (min/avg/max) = 5.441 | 5.816 | 6.074 Mbytes
Step PotEng KinEng TotEng v_fx v_fy v_fz 
   29450   -1152449.4            0   -1152449.4 0.0083258108 -0.033962052 -0.041314182 
   29629   -1152449.4            0   -1152449.4 -9.830559e-06 1.8151426e-05 2.5666314e-05 
Loop time of 2.05782 on 104 procs for 179 steps with 288751 atoms

99.9% CPU use with 104 MPI tasks x 1 OpenMP threads

Minimization stats:
  Stopping criterion = energy tolerance
  Energy initial, next-to-last, final = 
     -1152449.40234382  -1152449.40381433  -1152449.40381433
  Force two-norm initial, final = 0.17627951 0.0001643629
  Force max component initial, final = 0.077495697 2.5666314e-05
  Final line search alpha, max atom move = 1.0000000 2.5666314e-05
  Iterations, force evaluations = 179 358

MPI task timing breakdown:
Section |  min time  |  avg time  |  max time  |%varavg| %total
---------------------------------------------------------------
Pair    | 0.54415    | 1.4988     | 1.9375     |  33.1 | 72.84
Neigh   | 0          | 0          | 0          |   0.0 |  0.00
Comm    | 0.032739   | 0.33506    | 1.0079     |  48.5 | 16.28
Output  | 0          | 0          | 0          |   0.0 |  0.00
Modify  | 2.1827e-05 | 0.0029526  | 0.0062903  |   2.6 |  0.14
Other   |            | 0.221      |            |       | 10.74

Nlocal:        2776.45 ave        3930 max           0 min
Histogram: 8 4 4 0 4 12 8 4 22 38
Nghost:        3879.63 ave        5430 max         232 min
Histogram: 8 0 8 0 16 0 8 8 16 40
Neighs:        79213.5 ave      114149 max           0 min
Histogram: 8 4 4 0 8 8 8 6 20 38

Total # of neighbors = 8238203
Ave neighs/atom = 28.530474
Neighbor list builds = 0
Dangerous builds = 0
The dot product: -1.15773614531899e-07
Setting atom values ...
  1 settings made for x
  1 settings made for y
  1 settings made for z
Setting up cg style minimization ...
  Unit style    : metal
  Current step  : 29629
Per MPI rank memory allocation (min/avg/max) = 5.441 | 5.816 | 6.074 Mbytes
Step PotEng KinEng TotEng v_fx v_fy v_fz 
   29629   -1152449.4            0   -1152449.4 0.0037558495 -0.035197734 -0.039657441 
   29803   -1152449.4            0   -1152449.4 -1.213758e-05 -2.9847461e-05 -2.3391659e-05 
Loop time of 2.0008 on 104 procs for 174 steps with 288751 atoms

99.9% CPU use with 104 MPI tasks x 1 OpenMP threads

Minimization stats:
  Stopping criterion = energy tolerance
  Energy initial, next-to-last, final = 
     -1152449.39546513  -1152449.39688251  -1152449.39688251
  Force two-norm initial, final = 0.17371457 0.00020166143
  Force max component initial, final = 0.076473967 3.6893360e-05
  Final line search alpha, max atom move = 1.0000000 3.6893360e-05
  Iterations, force evaluations = 174 348

MPI task timing breakdown:
Section |  min time  |  avg time  |  max time  |%varavg| %total
---------------------------------------------------------------
Pair    | 0.52882    | 1.4576     | 1.896      |  32.6 | 72.85
Neigh   | 0          | 0          | 0          |   0.0 |  0.00
Comm    | 0.030886   | 0.32668    | 0.98649    |  47.8 | 16.33
Output  | 0          | 0          | 0          |   0.0 |  0.00
Modify  | 2.0773e-05 | 0.0028669  | 0.0061263  |   2.5 |  0.14
Other   |            | 0.2136     |            |       | 10.68

Nlocal:        2776.45 ave        3930 max           0 min
Histogram: 8 4 4 0 4 12 8 3 23 38
Nghost:        3879.63 ave        5430 max         232 min
Histogram: 8 0 8 0 16 0 8 8 16 40
Neighs:        79213.5 ave      114149 max           0 min
Histogram: 8 4 4 0 8 8 8 6 20 38

Total # of neighbors = 8238201
Ave neighs/atom = 28.530467
Neighbor list builds = 0
Dangerous builds = 0
The dot product: 9.82722972460759e-08
Setting atom values ...
  1 settings made for x
  1 settings made for y
  1 settings made for z
Setting up cg style minimization ...
  Unit style    : metal
  Current step  : 29803
Per MPI rank memory allocation (min/avg/max) = 5.441 | 5.816 | 6.074 Mbytes
Step PotEng KinEng TotEng v_fx v_fy v_fz 
   29803   -1152449.4            0   -1152449.4 -0.0018760078 -0.036894193 -0.037766223 
   30000   -1152449.4            0   -1152449.4 -1.1564032e-05 -9.8379565e-06 -2.661846e-06 
   30024   -1152449.4            0   -1152449.4 -8.3732218e-06 -1.4413842e-06 4.0824258e-06 
Loop time of 2.53413 on 104 procs for 221 steps with 288751 atoms

99.9% CPU use with 104 MPI tasks x 1 OpenMP threads

Minimization stats:
  Stopping criterion = energy tolerance
  Energy initial, next-to-last, final = 
     -1152449.38700127  -1152449.38836446  -1152449.38836446
  Force two-norm initial, final = 0.17154247 3.2397373e-05
  Force max component initial, final = 0.076859038 8.3732218e-06
  Final line search alpha, max atom move = 1.0000000 8.3732218e-06
  Iterations, force evaluations = 221 442

MPI task timing breakdown:
Section |  min time  |  avg time  |  max time  |%varavg| %total
---------------------------------------------------------------
Pair    | 0.66981    | 1.8475     | 2.3998     |  36.7 | 72.90
Neigh   | 0          | 0          | 0          |   0.0 |  0.00
Comm    | 0.040659   | 0.41431    | 1.2461     |  53.9 | 16.35
Output  | 9.7022e-05 | 0.00010848 | 0.00028152 |   0.0 |  0.00
Modify  | 2.6981e-05 | 0.0036396  | 0.0078244  |   2.9 |  0.14
Other   |            | 0.2686     |            |       | 10.60

Nlocal:        2776.45 ave        3929 max           0 min
Histogram: 8 4 4 0 4 12 8 3 23 38
Nghost:        3879.63 ave        5430 max         232 min
Histogram: 8 0 8 0 16 0 8 8 16 40
Neighs:        79213.5 ave      114114 max           0 min
Histogram: 8 4 4 0 8 8 8 6 20 38

Total # of neighbors = 8238201
Ave neighs/atom = 28.530467
Neighbor list builds = 0
Dangerous builds = 0
The dot product: -1.14487468219947e-08
Setting atom values ...
  1 settings made for x
  1 settings made for y
  1 settings made for z
Setting up cg style minimization ...
  Unit style    : metal
  Current step  : 30024
Per MPI rank memory allocation (min/avg/max) = 5.441 | 5.816 | 6.074 Mbytes
Step PotEng KinEng TotEng v_fx v_fy v_fz 
   30024   -1152449.4            0   -1152449.4 -0.010588029 -0.039500798 -0.034769587 
   30185   -1152449.4            0   -1152449.4 1.0577511e-05 4.0427974e-05 3.5759455e-05 
Loop time of 1.85188 on 104 procs for 161 steps with 288751 atoms

99.9% CPU use with 104 MPI tasks x 1 OpenMP threads

Minimization stats:
  Stopping criterion = energy tolerance
  Energy initial, next-to-last, final = 
     -1152449.37709862   -1152449.3784146   -1152449.3784146
  Force two-norm initial, final = 0.17020354 0.00023645604
  Force max component initial, final = 0.07721835 4.0427974e-05
  Final line search alpha, max atom move = 1.0000000 4.0427974e-05
  Iterations, force evaluations = 161 322

MPI task timing breakdown:
Section |  min time  |  avg time  |  max time  |%varavg| %total
---------------------------------------------------------------
Pair    | 0.49034    | 1.35       | 1.7483     |  31.3 | 72.90
Neigh   | 0          | 0          | 0          |   0.0 |  0.00
Comm    | 0.029999   | 0.304      | 0.91853    |  46.1 | 16.42
Output  | 0          | 0          | 0          |   0.0 |  0.00
Modify  | 1.9406e-05 | 0.0026521  | 0.0056658  |   2.4 |  0.14
Other   |            | 0.1953     |            |       | 10.54

Nlocal:        2776.45 ave        3930 max           0 min
Histogram: 8 4 4 0 4 12 8 2 24 38
Nghost:        3879.63 ave        5430 max         232 min
Histogram: 8 0 8 0 16 0 8 8 16 40
Neighs:        79213.5 ave      114144 max           0 min
Histogram: 8 4 4 0 8 8 8 6 20 38

Total # of neighbors = 8238199
Ave neighs/atom = 28.530461
Neighbor list builds = 0
Dangerous builds = 0
The dot product: -2.05640517956656e-07
